# TIME = 1.600000
variables = x, y, z
zone N=5762 E=11520 F=FEPOINT ET=TRIANGLE
 5.7111970E+00 1.4963938E+00 1.8031141E+00
 5.7111969E+00 1.4963938E+00 1.9688615E-01
 5.7111970E+00 5.0360732E-01 1.8031134E+00
 5.7111972E+00 5.0360656E-01 1.9688576E-01
 4.5177752E+00 1.0000004E+00 1.6032747E+00
 6.9162987E+00 1.0000004E+00 1.6136065E+00
 4.5177758E+00 1.0000004E+00 3.9672627E-01
 6.9162986E+00 1.0000004E+00 3.8639390E-01
 5.0141477E+00 1.9050208E+00 1.0000001E+00
 5.0141480E+00 9.4980794E-02 1.0000002E+00
 6.3959406E+00 1.8541662E+00 1.0000002E+00
 6.3959410E+00 1.4583313E-01 1.0000001E+00
 5.6679746E+00 1.4889708E+00 1.8111802E+00
 5.6203997E+00 1.4803671E+00 1.8196237E+00
 5.5704351E+00 1.4708769E+00 1.8279751E+00
 5.5183799E+00 1.4604288E+00 1.8360220E+00
 5.4643640E+00 1.4488918E+00 1.8435427E+00
 5.4085412E+00 1.4361209E+00 1.8502617E+00
 5.3510934E+00 1.4219582E+00 1.8558605E+00
 5.2922713E+00 1.4062585E+00 1.8599797E+00
 5.2323961E+00 1.3888993E+00 1.8622431E+00
 5.1718646E+00 1.3697993E+00 1.8622839E+00
 5.1111453E+00 1.3489319E+00 1.8597757E+00
 5.0507667E+00 1.3263355E+00 1.8544598E+00
 4.9912936E+00 1.3021173E+00 1.8461689E+00
 4.9332980E+00 1.2764497E+00 1.8348403E+00
 4.8773274E+00 1.2495615E+00 1.8205208E+00
 4.8238739E+00 1.2217232E+00 1.8033608E+00
 4.7733498E+00 1.1932305E+00 1.7836004E+00
 4.7260714E+00 1.1643858E+00 1.7615491E+00
 4.6822504E+00 1.1354818E+00 1.7375619E+00
 4.6419951E+00 1.1067869E+00 1.7120143E+00
 4.6053292E+00 1.0785430E+00 1.6852899E+00
 4.5722361E+00 1.0509872E+00 1.6577855E+00
 4.5427038E+00 1.0243848E+00 1.6299430E+00
 5.6636045E+00 5.4455718E-01 1.8307772E+00
 5.6146121E+00 5.5490271E-01 1.8396418E+00
 5.5636453E+00 5.6586937E-01 1.8481326E+00
 5.5107467E+00 5.7782970E-01 1.8562074E+00
 5.4559883E+00 5.9094906E-01 1.8636478E+00
 5.3995005E+00 6.0536551E-01 1.8701602E+00
 5.3414938E+00 6.2121183E-01 1.8753996E+00
 5.2822444E+00 6.3860647E-01 1.8789892E+00
 5.2221027E+00 6.5763533E-01 1.8805427E+00
 5.1614921E+00 6.7833769E-01 1.8796947E+00
 5.1009038E+00 7.0069392E-01 1.8761324E+00
 5.0408806E+00 7.2461917E-01 1.8696229E+00
 4.9819907E+00 7.4996366E-01 1.8600344E+00
 4.9247975E+00 7.7651941E-01 1.8473462E+00
 4.8698273E+00 8.0403261E-01 1.8316496E+00
 4.8175408E+00 8.3221958E-01 1.8131380E+00
 4.7683115E+00 8.6078436E-01 1.7920896E+00
 4.7224120E+00 8.8943753E-01 1.7688440E+00
 4.6800101E+00 9.1791278E-01 1.7437772E+00
 4.6411670E+00 9.4598586E-01 1.7172715E+00
 4.6058135E+00 9.7345990E-01 1.6896576E+00
 4.5735957E+00 1.0000004E+00 1.6610278E+00
 5.6621365E+00 5.7935493E-01 1.8490281E+00
 5.6118384E+00 5.9135537E-01 1.8581404E+00
 5.5598269E+00 6.0386058E-01 1.8667043E+00
 5.5059534E+00 6.1741171E-01 1.8747520E+00
 5.4502745E+00 6.3218168E-01 1.8820476E+00
 5.3929387E+00 6.4829773E-01 1.8882735E+00
 5.3341790E+00 6.6587266E-01 1.8930619E+00
 5.2743033E+00 6.8499454E-01 1.8960160E+00
 5.2136933E+00 7.0571233E-01 1.8967397E+00
 5.1528032E+00 7.2802206E-01 1.8948695E+00
 5.0921503E+00 7.5185781E-01 1.8901083E+00
 5.0322948E+00 7.7708920E-01 1.8822516E+00
 4.9738114E+00 8.0352538E-01 1.8712068E+00
 4.9172570E+00 8.3092564E-01 1.8569995E+00
 4.8631384E+00 8.5901417E-01 1.8397699E+00
 4.8118858E+00 8.8749799E-01 1.8197580E+00
 4.7638333E+00 9.1608617E-01 1.7972827E+00
 4.7192076E+00 9.4450968E-01 1.7727136E+00
 4.6781144E+00 9.7254439E-01 1.7464343E+00
 4.6404946E+00 1.0000004E+00 1.7187693E+00
 4.6058134E+00 1.0265408E+00 1.6896577E+00
 5.6610632E+00 6.1616313E-01 1.8663731E+00
 5.6097480E+00 6.2967809E-01 1.8754877E+00
 5.5567445E+00 6.4377620E-01 1.8840026E+00
 5.5019402E+00 6.5896889E-01 1.8918914E+00
 5.4453868E+00 6.7543092E-01 1.8989004E+00
 5.3872589E+00 6.9326992E-01 1.9046869E+00
 5.3278183E+00 7.1257263E-01 1.9088617E+00
 5.2674041E+00 7.3339349E-01 1.9110137E+00
 5.2064292E+00 7.5574080E-01 1.9107428E+00
 5.1453763E+00 7.7956550E-01 1.9076949E+00
 5.0847846E+00 8.0475576E-01 1.9015960E+00
 5.0252266E+00 8.3113804E-01 1.8922776E+00
 4.9672769E+00 8.5848536E-01 1.8796918E+00
 4.9114790E+00 8.8653083E-01 1.8639141E+00
 4.8583140E+00 9.1498502E-01 1.8451340E+00
 4.8081753E+00 9.4355601E-01 1.8236367E+00
 4.7613512E+00 9.7197063E-01 1.7997749E+00
 4.7180058E+00 1.0000004E+00 1.7739317E+00
 4.6781143E+00 1.0274563E+00 1.7464344E+00
 4.6411669E+00 1.0540149E+00 1.7172717E+00
 5.6600863E+00 6.5507127E-01 1.8826610E+00
 5.6078306E+00 6.7012583E-01 1.8916330E+00
 5.5539391E+00 6.8583908E-01 1.8999395E+00
 5.4983021E+00 7.0270286E-01 1.9075093E+00
 5.4409953E+00 7.2086555E-01 1.9140593E+00
 5.3822173E+00 7.4041305E-01 1.9192266E+00
 5.3222594E+00 7.6140039E-01 1.9226057E+00
 5.2614903E+00 7.8384372E-01 1.9237783E+00
 5.2003510E+00 8.0770765E-01 1.9223491E+00
 5.1393469E+00 8.3289729E-01 1.9179826E+00
 5.0790318E+00 8.5925640E-01 1.9104365E+00
 5.0199820E+00 8.8657299E-01 1.8995848E+00
 4.9627623E+00 9.1459093E-01 1.8854288E+00
 4.9078942E+00 9.4302642E-01 1.8680942E+00
 4.8558244E+00 9.7158828E-01 1.8478179E+00
 4.8069018E+00 1.0000004E+00 1.8249218E+00
 4.7613512E+00 1.0280301E+00 1.7997750E+00
 4.7192075E+00 1.0554910E+00 1.7727138E+00
 4.6800099E+00 1.0820880E+00 1.7437775E+00
 5.6591698E+00 6.9605883E-01 1.8976707E+00
 5.6060688E+00 7.1266291E-01 1.9063431E+00
 5.5513975E+00 7.3001131E-01 1.9142784E+00
 5.4950603E+00 7.4854476E-01 1.9213534E+00
 5.4371524E+00 7.6838664E-01 1.9272619E+00
 5.3778990E+00 7.8959239E-01 1.9316246E+00
 5.3176192E+00 8.1218171E-01 1.9340271E+00
 5.2567081E+00 8.3612890E-01 1.9340523E+00
 5.1956291E+00 8.6135351E-01 1.9313194E+00
 5.1349038E+00 8.8771588E-01 1.9255206E+00
 5.0750917E+00 9.1501962E-01 1.9164529E+00
 5.0167627E+00 9.4302102E-01 1.9040378E+00
 4.9604630E+00 9.7144407E-01 1.8883271E+00
 4.9066824E+00 1.0000003E+00 1.8694952E+00
 4.8558243E+00 1.0284124E+00 1.8478179E+00
 4.8081752E+00 1.0564447E+00 1.8236368E+00
 4.7638332E+00 1.0839146E+00 1.7972830E+00
 4.7224118E+00 1.1105632E+00 1.7688444E+00
 5.6583418E+00 7.3901631E-01 1.9111515E+00
 5.6045017E+00 7.5716630E-01 1.9193619E+00
 5.5491798E+00 7.7613505E-01 1.9267509E+00
 5.4922915E+00 7.9630424E-01 1.9331486E+00
 5.4339539E+00 8.1776374E-01 1.9382301E+00
 5.3744169E+00 8.4053601E-01 1.9416062E+00
 5.3140245E+00 8.6460128E-01 1.9428618E+00
 5.2531937E+00 8.8989066E-01 1.9415907E+00
 5.1924040E+00 9.1627939E-01 1.9374357E+00
 5.1321844E+00 9.4358671E-01 1.9301249E+00
 5.0730911E+00 9.7158249E-01 1.9195007E+00
 5.0156781E+00 1.0000003E+00 1.9055345E+00
 4.9604630E+00 1.0285566E+00 1.8883272E+00
 4.9078942E+00 1.0569743E+00 1.8680944E+00
 4.8583138E+00 1.0850157E+00 1.8451343E+00
 4.8118857E+00 1.1125028E+00 1.8197584E+00
 4.7683112E+00 1.1392164E+00 1.7920901E+00
 5.6576195E+00 7.8376739E-01 1.9228523E+00
 5.6031657E+00 8.0342897E-01 1.9304320E+00
 5.5473371E+00 8.2396931E-01 1.9370958E+00
 5.4900629E+00 8.4570037E-01 1.9426336E+00
 5.4314801E+00 8.6867501E-01 1.9467080E+00
 5.3718618E+00 8.9287883E-01 1.9489279E+00
 5.3115725E+00 9.1825159E-01 1.9488863E+00
 5.2510452E+00 9.4468156E-01 1.9461974E+00
 5.1907682E+00 9.7200308E-01 1.9405363E+00
 5.1312690E+00 1.0000004E+00 1.9316738E+00
 5.0730911E+00 1.0284182E+00 1.9195008E+00
 5.0167626E+00 1.0569797E+00 1.9040379E+00
 4.9627623E+00 1.0854098E+00 1.8854290E+00
 4.9114789E+00 1.1134699E+00 1.8639144E+00
 4.8631382E+00 1.1409866E+00 1.8397703E+00
 4.8175405E+00 1.1677812E+00 1.8131385E+00
 5.6570204E+00 8.3008108E-01 1.9325383E+00
 5.6020919E+00 8.5118509E-01 1.9393184E+00
 5.5459140E+00 8.7320899E-01 1.9450805E+00
 5.4884295E+00 8.9638737E-01 1.9495836E+00
 5.4297945E+00 9.2073228E-01 1.9524852E+00
 5.3703010E+00 9.4619153E-01 1.9534007E+00
 5.3103295E+00 9.7266465E-01 1.9519403E+00
 5.2503224E+00 1.0000004E+00 1.9477472E+00
 5.1907681E+00 1.0279976E+00 1.9405364E+00
 5.1321844E+00 1.0564140E+00 1.9301250E+00
 5.0750916E+00 1.0849811E+00 1.9164531E+00
 5.0199819E+00 1.1134277E+00 1.8995851E+00
 4.9672768E+00 1.1415154E+00 1.8796922E+00
 4.9172568E+00 1.1690752E+00 1.8570000E+00
 4.8698271E+00 1.1959682E+00 1.8316502E+00
 5.6565581E+00 8.7767303E-01 1.9400023E+00
 5.6013054E+00 9.0011379E-01 1.9458207E+00
 5.5449449E+00 9.2349476E-01 1.9505158E+00
 5.4874323E+00 9.4796606E-01 1.9538262E+00
 5.4289404E+00 9.7349779E-01 1.9554126E+00
 5.3697761E+00 1.0000004E+00 1.9549052E+00
 5.3103295E+00 1.0273361E+00 1.9519403E+00
 5.2510452E+00 1.0553192E+00 1.9461975E+00
 5.1924040E+00 1.0837213E+00 1.9374358E+00
 5.1349037E+00 1.1122848E+00 1.9255208E+00
 5.0790318E+00 1.1407444E+00 1.9104368E+00
 5.0252265E+00 1.1688627E+00 1.8922780E+00
 4.9738112E+00 1.1964754E+00 1.8712073E+00
 4.9247973E+00 1.2234815E+00 1.8473468E+00
 5.6562435E+00 9.2621385E-01 1.9450770E+00
 5.6008256E+00 9.4985086E-01 1.9497861E+00
 5.5444541E+00 9.7442575E-01 1.9532680E+00
 5.4870971E+00 1.0000003E+00 1.9552527E+00
 5.4289404E+00 1.0265029E+00 1.9554126E+00
 5.3703010E+00 1.0538092E+00 1.9534007E+00
 5.3115725E+00 1.0817491E+00 1.9488864E+00
 5.2531937E+00 1.1101101E+00 1.9415908E+00
 5.1956291E+00 1.1386472E+00 1.9313197E+00
 5.1393468E+00 1.1671035E+00 1.9179829E+00
 5.0847845E+00 1.1952450E+00 1.9015965E+00
 5.0322946E+00 1.2229116E+00 1.8822521E+00
 4.9819904E+00 1.2500372E+00 1.8600351E+00
 5.6560842E+00 9.7533908E-01 1.9476449E+00
 5.6006643E+00 1.0000003E+00 1.9511187E+00
 5.5444541E+00 1.0255749E+00 1.9532681E+00
 5.4874323E+00 1.0520346E+00 1.9538262E+00
 5.4297945E+00 1.0792684E+00 1.9524853E+00
 5.3718618E+00 1.1071219E+00 1.9489280E+00
 5.3140245E+00 1.1353995E+00 1.9428620E+00
 5.2567081E+00 1.1638719E+00 1.9340526E+00
 5.2003509E+00 1.1922931E+00 1.9223495E+00
 5.1453763E+00 1.2204353E+00 1.9076954E+00
 5.0921502E+00 1.2481430E+00 1.8901089E+00
 5.0408804E+00 1.2753817E+00 1.8696237E+00
 5.6560842E+00 1.0246616E+00 1.9476449E+00
 5.6008256E+00 1.0501498E+00 1.9497861E+00
 5.5449449E+00 1.0765059E+00 1.9505159E+00
 5.4884295E+00 1.1036133E+00 1.9495837E+00
 5.4314802E+00 1.1313257E+00 1.9467081E+00
 5.3744169E+00 1.1594647E+00 1.9416064E+00
 5.3176192E+00 1.1878191E+00 1.9340273E+00
 5.2614903E+00 1.2161571E+00 1.9237787E+00
 5.2064291E+00 1.2442600E+00 1.9107433E+00
 5.1528031E+00 1.2719788E+00 1.8948702E+00
 5.1009037E+00 1.2993070E+00 1.8761331E+00
 5.6562435E+00 1.0737868E+00 1.9450771E+00
 5.6013055E+00 1.0998869E+00 1.9458207E+00
 5.5459140E+00 1.1267917E+00 1.9450806E+00
 5.4900629E+00 1.1543004E+00 1.9426337E+00
 5.4339539E+00 1.1822370E+00 1.9382303E+00
 5.3778990E+00 1.2104084E+00 1.9316249E+00
 5.3222594E+00 1.2386004E+00 1.9226061E+00
 5.2674041E+00 1.2666074E+00 1.9110142E+00
 5.2136932E+00 1.2942886E+00 1.8967403E+00
 5.1614919E+00 1.3216633E+00 1.8796954E+00
 5.6565581E+00 1.1223277E+00 1.9400024E+00
 5.6020919E+00 1.1488156E+00 1.9393185E+00
 5.5473371E+00 1.1760314E+00 1.9370960E+00
 5.4922915E+00 1.2036965E+00 1.9331489E+00
 5.4371524E+00 1.2316142E+00 1.9272622E+00
 5.3822173E+00 1.2595878E+00 1.9192270E+00
 5.3278183E+00 1.2874282E+00 1.9088622E+00
 5.2743032E+00 1.3150064E+00 1.8960166E+00
 5.2221026E+00 1.3423656E+00 1.8805434E+00
 5.6570205E+00 1.1699196E+00 1.9325384E+00
 5.6031658E+00 1.1965718E+00 1.9304322E+00
 5.5491798E+00 1.2238657E+00 1.9267511E+00
 5.4950603E+00 1.2514560E+00 1.9213537E+00
 5.4409954E+00 1.2791353E+00 1.9140597E+00
 5.3872589E+00 1.3067310E+00 1.9046874E+00
 5.3341790E+00 1.3341283E+00 1.8930625E+00
 5.2822444E+00 1.3613945E+00 1.8789899E+00
 5.6576195E+00 1.2162334E+00 1.9228525E+00
 5.6045018E+00 1.2428345E+00 1.9193621E+00
 5.5513975E+00 1.2699895E+00 1.9142787E+00
 5.4983022E+00 1.2972980E+00 1.9075097E+00
 5.4453868E+00 1.3245700E+00 1.8989009E+00
 5.3929387E+00 1.3517032E+00 1.8882741E+00
 5.3414938E+00 1.3787892E+00 1.8754004E+00
 5.6583418E+00 1.2609845E+00 1.9111517E+00
 5.6060688E+00 1.2873379E+00 1.9063434E+00
 5.5539391E+00 1.3141618E+00 1.8999399E+00
 5.5019403E+00 1.3410320E+00 1.8918919E+00
 5.4502745E+00 1.3678193E+00 1.8820482E+00
 5.3995005E+00 1.3946355E+00 1.8701609E+00
 5.6591699E+00 1.3039420E+00 1.8976710E+00
 5.6078307E+00 1.3298750E+00 1.8916334E+00
 5.5567446E+00 1.3562247E+00 1.8840031E+00
 5.5059534E+00 1.3825893E+00 1.8747526E+00
 5.4559883E+00 1.4090520E+00 1.8636486E+00
 5.6600863E+00 1.3449296E+00 1.8826614E+00
 5.6097480E+00 1.3703228E+00 1.8754882E+00
 5.5598269E+00 1.3961404E+00 1.8667049E+00
 5.5107467E+00 1.4221713E+00 1.8562081E+00
 5.6610632E+00 1.3838378E+00 1.8663736E+00
 5.6118384E+00 1.4086456E+00 1.8581410E+00
 5.5636454E+00 1.4341317E+00 1.8481333E+00
 5.6621365E+00 1.4206461E+00 1.8490286E+00
 5.6146122E+00 1.4450984E+00 1.8396425E+00
 5.6636046E+00 1.4554439E+00 1.8307779E+00
 5.7111346E+00 1.4670516E+00 1.8205821E+00
 5.7110887E+00 1.4339157E+00 1.8385990E+00
 5.7110686E+00 1.3985662E+00 1.8559779E+00
 5.7110517E+00 1.3610118E+00 1.8724911E+00
 5.7110369E+00 1.3213657E+00 1.8878702E+00
 5.7110228E+00 1.2797298E+00 1.9018649E+00
 5.7110102E+00 1.2362545E+00 1.9142278E+00
 5.7109993E+00 1.1911390E+00 1.9247231E+00
 5.7109905E+00 1.1446378E+00 1.9331359E+00
 5.7109840E+00 1.0970504E+00 1.9392849E+00
 5.7109800E+00 1.0487158E+00 1.9430321E+00
 5.7109787E+00 1.0000003E+00 1.9442909E+00
 5.7109800E+00 9.5128482E-01 1.9430320E+00
 5.7109840E+00 9.0295025E-01 1.9392849E+00
 5.7109905E+00 8.5536292E-01 1.9331358E+00
 5.7109993E+00 8.0886169E-01 1.9247229E+00
 5.7110102E+00 7.6374623E-01 1.9142276E+00
 5.7110228E+00 7.2027098E-01 1.9018647E+00
 5.7110369E+00 6.7863513E-01 1.8878698E+00
 5.7110517E+00 6.3898907E-01 1.8724907E+00
 5.7110685E+00 6.0143472E-01 1.8559774E+00
 5.7110887E+00 5.6608532E-01 1.8385984E+00
 5.7111345E+00 5.3294947E-01 1.8205814E+00
 5.7543264E+00 5.1421096E-01 1.8059264E+00
 5.8016926E+00 5.2611636E-01 1.8085803E+00
 5.8513266E+00 5.3880894E-01 1.8109494E+00
 5.9029015E+00 5.5225123E-01 1.8129870E+00
 5.9562596E+00 5.6647292E-01 1.8146435E+00
 6.0112230E+00 5.8151522E-01 1.8158411E+00
 6.0675926E+00 5.9743761E-01 1.8164780E+00
 6.1251165E+00 6.1430044E-01 1.8164200E+00
 6.1834995E+00 6.3216629E-01 1.8155060E+00
 6.2424065E+00 6.5109211E-01 1.8135511E+00
 6.3014711E+00 6.7112262E-01 1.8103571E+00
 6.3603020E+00 6.9228216E-01 1.8057236E+00
 6.4184931E+00 7.1456723E-01 1.7994631E+00
 6.4756337E+00 7.3794096E-01 1.7914145E+00
 6.5313200E+00 7.6232956E-01 1.7814574E+00
 6.5851679E+00 7.8762257E-01 1.7695214E+00
 6.6368253E+00 8.1367569E-01 1.7555937E+00
 6.6859843E+00 8.4031735E-01 1.7397194E+00
 6.7323917E+00 8.6735705E-01 1.7219994E+00
 6.7758559E+00 8.9459676E-01 1.7025817E+00
 6.8162375E+00 9.2183185E-01 1.6816597E+00
 6.8534133E+00 9.4884005E-01 1.6594794E+00
 6.8872239E+00 9.7534255E-01 1.6363768E+00
 5.7585730E+00 1.4521529E+00 1.8248808E+00
 5.8073612E+00 1.4386748E+00 1.8276557E+00
 5.8579840E+00 1.4247526E+00 1.8299255E+00
 5.9103822E+00 1.4100909E+00 1.8317985E+00
 5.9644577E+00 1.3946150E+00 1.8332330E+00
 6.0200575E+00 1.3782803E+00 1.8341409E+00
 6.0769555E+00 1.3610404E+00 1.8344053E+00
 6.1348785E+00 1.3428440E+00 1.8338807E+00
 6.1935077E+00 1.3236435E+00 1.8323946E+00
 6.2524887E+00 1.3034006E+00 1.8297546E+00
 6.3114390E+00 1.2820938E+00 1.8257592E+00
 6.3699564E+00 1.2597260E+00 1.8202111E+00
 6.4276298E+00 1.2363305E+00 1.8129320E+00
 6.4840504E+00 1.2119746E+00 1.8037778E+00
 6.5388234E+00 1.1867612E+00 1.7926505E+00
 6.5915813E+00 1.1608258E+00 1.7795072E+00
 6.6419953E+00 1.1343318E+00 1.7643646E+00
 6.6897871E+00 1.1074607E+00 1.7472979E+00
 6.7347383E+00 1.0803998E+00 1.7284350E+00
 6.7766995E+00 1.0533261E+00 1.7079434E+00
 6.8156356E+00 1.0264110E+00 1.6859851E+00
 6.8518136E+00 1.0000004E+00 1.6625606E+00
 5.7599650E+00 1.4174946E+00 1.8428276E+00
 5.8100545E+00 1.4025570E+00 1.8455593E+00
 5.8617115E+00 1.3873457E+00 1.8476571E+00
 5.9150675E+00 1.3713800E+00 1.8492908E+00
 5.9700415E+00 1.3545706E+00 1.8504124E+00
 6.0264626E+00 1.3368747E+00 1.8509244E+00
 6.0840844E+00 1.3182523E+00 1.8506989E+00
 6.1426051E+00 1.2986650E+00 1.8495780E+00
 6.2016806E+00 1.2780809E+00 1.8473791E+00
 6.2609329E+00 1.2564825E+00 1.8439025E+00
 6.3199600E+00 1.2338733E+00 1.8389447E+00
 6.3783458E+00 1.2102848E+00 1.8323131E+00
 6.4356720E+00 1.1857806E+00 1.8238417E+00
 6.4915292E+00 1.1604586E+00 1.8134058E+00
 6.5455312E+00 1.1344492E+00 1.8009336E+00
 6.5973263E+00 1.1079107E+00 1.7864129E+00
 6.6466105E+00 1.0810210E+00 1.7698929E+00
 6.6931393E+00 1.0539624E+00 1.7514790E+00
 6.7367477E+00 1.0269034E+00 1.7313165E+00
 6.7774167E+00 1.0000003E+00 1.7095355E+00
 6.8156357E+00 9.7358968E-01 1.6859851E+00
 5.7609956E+00 1.3808969E+00 1.8599062E+00
 5.8120968E+00 1.3646881E+00 1.8623862E+00
 5.8647348E+00 1.3481617E+00 1.8641995E+00
 5.9190050E+00 1.3308644E+00 1.8654739E+00
 5.9748318E+00 1.3126974E+00 1.8661549E+00
 6.0320188E+00 1.2936270E+00 1.8661345E+00
 6.0902927E+00 1.2736240E+00 1.8652740E+00
 6.1493248E+00 1.2526647E+00 1.8634056E+00
 6.2087454E+00 1.2307368E+00 1.8603392E+00
 6.2681547E+00 1.2078459E+00 1.8558718E+00
 6.3271342E+00 1.1840229E+00 1.8498027E+00
 6.3852573E+00 1.1593285E+00 1.8419492E+00
 6.4421027E+00 1.1338562E+00 1.8321634E+00
 6.4972664E+00 1.1077317E+00 1.8203453E+00
 6.5503755E+00 1.0811091E+00 1.8064531E+00
 6.6011011E+00 1.0541624E+00 1.7905076E+00
 6.6491724E+00 1.0270711E+00 1.7725887E+00
 6.6943973E+00 1.0000003E+00 1.7528219E+00
 6.7367478E+00 9.7309729E-01 1.7313166E+00
 6.7766995E+00 9.4667460E-01 1.7079435E+00
 5.7619380E+00 1.3422338E+00 1.8759417E+00
 5.8139731E+00 1.3247619E+00 1.8780397E+00
 5.8674884E+00 1.3069291E+00 1.8794310E+00
 5.9225758E+00 1.2882976E+00 1.8802089E+00
 5.9791363E+00 1.2687867E+00 1.8803036E+00
 6.0369507E+00 1.2483714E+00 1.8795986E+00
 6.0957181E+00 1.2270370E+00 1.8779468E+00
 6.1550843E+00 1.2047777E+00 1.8751738E+00
 6.2146571E+00 1.1816029E+00 1.8710861E+00
 6.2740190E+00 1.1575440E+00 1.8654828E+00
 6.3327399E+00 1.1326601E+00 1.8581721E+00
 6.3903894E+00 1.1070407E+00 1.8489879E+00
 6.4465500E+00 1.0808069E+00 1.8378055E+00
 6.5008302E+00 1.0541079E+00 1.8245542E+00
 6.5528787E+00 1.0271136E+00 1.8092250E+00
 6.6023987E+00 1.0000003E+00 1.7918697E+00
 6.6491724E+00 9.7292962E-01 1.7725887E+00
 6.6931393E+00 9.4603834E-01 1.7514790E+00
 6.7347383E+00 9.1960092E-01 1.7284351E+00
 5.7628231E+00 1.3015240E+00 1.8907114E+00
 5.8156981E+00 1.2828103E+00 1.8922913E+00
 5.8699836E+00 1.2636804E+00 1.8931225E+00
 5.9257580E+00 1.2437419E+00 1.8932575E+00
 5.9829032E+00 1.2229287E+00 1.8926150E+00
 6.0411747E+00 1.2012308E+00 1.8910713E+00
 6.1002465E+00 1.1786498E+00 1.8884740E+00
 6.1597417E+00 1.1552003E+00 1.8846461E+00
 6.2192498E+00 1.1309159E+00 1.8793961E+00
 6.2783411E+00 1.1058544E+00 1.8725313E+00
 6.3365807E+00 1.0801025E+00 1.8638752E+00
 6.3935410E+00 1.0537766E+00 1.8532837E+00
 6.4488162E+00 1.0270209E+00 1.8406605E+00
 6.5020353E+00 1.0000003E+00 1.8259670E+00
 6.5528787E+00 9.7288706E-01 1.8092250E+00
 6.6011011E+00 9.4583830E-01 1.7905076E+00
 6.6466105E+00 9.1897967E-01 1.7698929E+00
 6.6897872E+00 8.9253994E-01 1.7472979E+00
 5.7636220E+00 1.2588746E+00 1.9039726E+00
 5.8172313E+00 1.2389522E+00 1.9048973E+00
 5.8721598E+00 1.2185663E+00 1.9050238E+00
 5.9284746E+00 1.1973769E+00 1.9043671E+00
 5.9860373E+00 1.1753384E+00 1.9028364E+00
 6.0445797E+00 1.1524566E+00 1.9003038E+00
 6.1037538E+00 1.1287522E+00 1.8966156E+00
 6.1631639E+00 1.1042617E+00 1.8915971E+00
 6.2223867E+00 1.0790434E+00 1.8850646E+00
 6.2809868E+00 1.0531813E+00 1.8768395E+00
 6.3385312E+00 1.0267873E+00 1.8667665E+00
 6.3946031E+00 1.0000003E+00 1.8547286E+00
 6.4488162E+00 9.7297978E-01 1.8406605E+00
 6.5008302E+00 9.4589281E-01 1.8245542E+00
 6.5503756E+00 9.1889158E-01 1.8064531E+00
 6.5973263E+00 8.9208995E-01 1.7864130E+00
 6.6419953E+00 8.6566885E-01 1.7643646E+00
 5.7643187E+00 1.2144611E+00 1.9154793E+00
 5.8185382E+00 1.1933905E+00 1.9156112E+00
 5.8739676E+00 1.1718200E+00 1.9148891E+00
 5.9306609E+00 1.1494703E+00 1.9132954E+00
 5.9884608E+00 1.1263185E+00 1.9107330E+00
 6.0470779E+00 1.1023884E+00 1.9070737E+00
 6.1061459E+00 1.0777206E+00 1.9021668E+00
 6.1652558E+00 1.0523744E+00 1.8958453E+00
 6.2239777E+00 1.0264317E+00 1.8879390E+00
 6.2818774E+00 1.0000003E+00 1.8782893E+00
 6.3385312E+00 9.7321331E-01 1.8667665E+00
 6.3935410E+00 9.4622403E-01 1.8532837E+00
 6.4465500E+00 9.1919380E-01 1.8378055E+00
 6.4972664E+00 8.9226894E-01 1.8203453E+00
 6.5455312E+00 8.6555153E-01 1.8009337E+00
 6.5915813E+00 8.3917484E-01 1.7795072E+00
 5.7648961E+00 1.1685111E+00 1.9250024E+00
 5.8195884E+00 1.1463835E+00 1.9242082E+00
 5.8753634E+00 1.1237334E+00 1.9225003E+00
 5.9322629E+00 1.1003487E+00 1.9198348E+00
 5.9901119E+00 1.0762312E+00 1.9161124E+00
 6.0486037E+00 1.0514236E+00 1.9112086E+00
 6.1073583E+00 1.0259864E+00 1.9049807E+00
 6.1659595E+00 1.0000003E+00 1.8972746E+00
 6.2239777E+00 9.7356896E-01 1.8879390E+00
 6.2809868E+00 9.4681940E-01 1.8768395E+00
 6.3365807E+00 9.1989818E-01 1.8638752E+00
 6.3903894E+00 8.9295999E-01 1.8489878E+00
 6.4421027E+00 8.6614448E-01 1.8321634E+00
 6.4915292E+00 8.3954210E-01 1.8134058E+00
 6.5388234E+00 8.1323951E-01 1.7926505E+00
 5.7653417E+00 1.1213048E+00 1.9323395E+00
 5.8203575E+00 1.0982428E+00 1.9304970E+00
 5.8763138E+00 1.0746504E+00 1.9276795E+00
 5.9332409E+00 1.0503886E+00 1.9238255E+00
 5.9909484E+00 1.0254849E+00 1.9188375E+00
 6.0491168E+00 1.0000003E+00 1.9125993E+00
 6.1073583E+00 9.7401423E-01 1.9049806E+00
 6.1652558E+00 9.4762626E-01 1.8958453E+00
 6.2223867E+00 9.2095726E-01 1.8850645E+00
 6.2783411E+00 8.9414628E-01 1.8725313E+00
 6.3327399E+00 8.6734058E-01 1.8581721E+00
 6.3852573E+00 8.4067217E-01 1.8419492E+00
 6.4356720E+00 8.1422004E-01 1.8238417E+00
 6.4840504E+00 7.8802606E-01 1.8037778E+00
 5.7656449E+00 1.0731661E+00 1.9373273E+00
 5.8208266E+00 1.0493208E+00 1.9343314E+00
 5.8767952E+00 1.0249529E+00 1.9303016E+00
 5.9335696E+00 1.0000003E+00 1.9251671E+00
 5.9909484E+00 9.7451569E-01 1.9188375E+00
 6.0486036E+00 9.4857707E-01 1.9112086E+00
 6.1061458E+00 9.2227999E-01 1.9021667E+00
 6.1631638E+00 8.9573893E-01 1.8915970E+00
 6.2192498E+00 8.6908480E-01 1.8793961E+00
 6.2740189E+00 8.4245662E-01 1.8654827E+00
 6.3271342E+00 8.1597779E-01 1.8498026E+00
 6.3783458E+00 7.8971589E-01 1.8323130E+00
 6.4276298E+00 7.6367021E-01 1.8129320E+00
 5.7657984E+00 1.0244535E+00 1.9398508E+00
 5.8209843E+00 1.0000003E+00 1.9356199E+00
 5.8767951E+00 9.7504774E-01 1.9303016E+00
 5.9332408E+00 9.4961198E-01 1.9238254E+00
 5.9901118E+00 9.2376941E-01 1.9161123E+00
 6.0470779E+00 8.9761225E-01 1.9070737E+00
 6.1037537E+00 8.7124848E-01 1.8966155E+00
 6.1597416E+00 8.4480033E-01 1.8846461E+00
 6.2146570E+00 8.1839780E-01 1.8710860E+00
 6.2681547E+00 7.9215478E-01 1.8558717E+00
 6.3199600E+00 7.6612742E-01 1.8389447E+00
 6.3699563E+00 7.4027466E-01 1.8202110E+00
 5.7657984E+00 9.7554711E-01 1.9398508E+00
 5.8208266E+00 9.5067985E-01 1.9343313E+00
 5.8763138E+00 9.2535026E-01 1.9276795E+00
 5.9322629E+00 8.9965192E-01 1.9198347E+00
 5.9884607E+00 8.7368219E-01 1.9107330E+00
 6.0445796E+00 8.4754406E-01 1.9003037E+00
 6.1002464E+00 8.2135088E-01 1.8884739E+00
 6.1550843E+00 7.9522304E-01 1.8751737E+00
 6.2087453E+00 7.6926394E-01 1.8603391E+00
 6.2609328E+00 7.4351825E-01 1.8439024E+00
 6.3114389E+00 7.1790689E-01 1.8257592E+00
 5.7656449E+00 9.2683450E-01 1.9373272E+00
 5.8203574E+00 9.0175784E-01 1.9304969E+00
 5.8753633E+00 8.7626720E-01 1.9225002E+00
 5.9306608E+00 8.5053034E-01 1.9132953E+00
 5.9860373E+00 8.2466226E-01 1.9028363E+00
 6.0411746E+00 7.9876988E-01 1.8910712E+00
 6.0957180E+00 7.7296373E-01 1.8779467E+00
 6.1493247E+00 7.4733598E-01 1.8634055E+00
 6.2016805E+00 7.2191981E-01 1.8473790E+00
 6.2524887E+00 6.9660012E-01 1.8297545E+00
 5.7653417E+00 8.7869589E-01 1.9323394E+00
 5.8195884E+00 8.5361714E-01 1.9242081E+00
 5.8739675E+00 8.2818068E-01 1.9148890E+00
 5.9284746E+00 8.0262375E-01 1.9043670E+00
 5.9829032E+00 7.7707198E-01 1.8926149E+00
 6.0369506E+00 7.5162935E-01 1.8795985E+00
 6.0902926E+00 7.2637674E-01 1.8652738E+00
 6.1426050E+00 7.0133574E-01 1.8495779E+00
 6.1935076E+00 6.7635723E-01 1.8323945E+00
 5.7648960E+00 8.3148963E-01 1.9250023E+00
 5.8185382E+00 8.0661024E-01 1.9156110E+00
 5.8721597E+00 7.8143436E-01 1.9050236E+00
 5.9257579E+00 7.5625878E-01 1.8932573E+00
 5.9791363E+00 7.3121406E-01 1.8803034E+00
 6.0320187E+00 7.0637378E-01 1.8661343E+00
 6.0840843E+00 6.8174843E-01 1.8506987E+00
 6.1348784E+00 6.5715682E-01 1.8338805E+00
 5.7643186E+00 7.8553959E-01 1.9154791E+00
 5.8172312E+00 7.6104858E-01 1.9048971E+00
 5.8699835E+00 7.3632035E-01 1.8931223E+00
 5.9225757E+00 7.1170321E-01 1.8802086E+00
 5.9748317E+00 6.8730336E-01 1.8661547E+00
 6.0264625E+00 6.6312606E-01 1.8509242E+00
 6.0769554E+00 6.3896044E-01 1.8344051E+00
 5.7636220E+00 7.4112614E-01 1.9039724E+00
 5.8156980E+00 7.1719047E-01 1.8922911E+00
 5.8674883E+00 6.9307171E-01 1.8794307E+00
 5.9190049E+00 6.6913638E-01 1.8654736E+00
 5.9700414E+00 6.4543026E-01 1.8504121E+00
 6.0200574E+00 6.2172051E-01 1.8341406E+00
 5.7628230E+00 6.9847679E-01 1.8907112E+00
 5.8139730E+00 6.7523896E-01 1.8780394E+00
 5.8647347E+00 6.5183913E-01 1.8641992E+00
 5.9150674E+00 6.2862091E-01 1.8492905E+00
 5.9644576E+00 6.0538593E-01 1.8332327E+00
 5.7619379E+00 6.5776705E-01 1.8759414E+00
 5.8120967E+00 6.3531280E-01 1.8623858E+00
 5.8617114E+00 6.1265523E-01 1.8476567E+00
 5.9103821E+00 5.8991006E-01 1.8317982E+00
 5.7609955E+00 6.1910402E-01 1.8599058E+00
 5.8100544E+00 5.9744399E-01 1.8455589E+00
 5.8579839E+00 5.7524832E-01 1.8299251E+00
 5.7599649E+00 5.8250640E-01 1.8428271E+00
 5.8073611E+00 5.6132620E-01 1.8276552E+00
 5.7585729E+00 5.4784811E-01 1.8248802E+00
 5.6844258E+00 1.5206631E+00 1.7899129E+00
 5.6549794E+00 1.5470048E+00 1.7742825E+00
 5.6242391E+00 1.5740443E+00 1.7567742E+00
 5.5923013E+00 1.6015568E+00 1.7373050E+00
 5.5593247E+00 1.6293412E+00 1.7157626E+00
 5.5254445E+00 1.6571880E+00 1.6920310E+00
 5.4908319E+00 1.6848635E+00 1.6660086E+00
 5.4556866E+00 1.7120983E+00 1.6376294E+00
 5.4202409E+00 1.7385976E+00 1.6068703E+00
 5.3847509E+00 1.7640503E+00 1.5737605E+00
 5.3494908E+00 1.7881430E+00 1.5383896E+00
 5.3147434E+00 1.8105745E+00 1.5009106E+00
 5.2807906E+00 1.8310720E+00 1.4615407E+00
 5.2479027E+00 1.8494056E+00 1.4205550E+00
 5.2163275E+00 1.8654003E+00 1.3782774E+00
 5.1862811E+00 1.8789440E+00 1.3350655E+00
 5.1579405E+00 1.8899901E+00 1.2912949E+00
 5.1314379E+00 1.8985561E+00 1.2473414E+00
 5.1068589E+00 1.9047176E+00 1.2035642E+00
 5.0842437E+00 1.9085985E+00 1.1602906E+00
 5.0635995E+00 1.9103611E+00 1.1178200E+00
 5.0449213E+00 1.9101921E+00 1.0764433E+00
 5.0282542E+00 1.9083129E+00 1.0365637E+00
 4.5367833E+00 1.0701754E+00 1.6203696E+00
 4.5312100E+00 1.1156844E+00 1.6075585E+00
 4.5275704E+00 1.1625231E+00 1.5927484E+00
 4.5263725E+00 1.2107359E+00 1.5760667E+00
 4.5279114E+00 1.2601182E+00 1.5574505E+00
 4.5324451E+00 1.3103540E+00 1.5368534E+00
 4.5402018E+00 1.3610574E+00 1.5142743E+00
 4.5513622E+00 1.4117868E+00 1.4897615E+00
 4.5660428E+00 1.4620593E+00 1.4634151E+00
 4.5842826E+00 1.5113682E+00 1.4353871E+00
 4.6060335E+00 1.5592032E+00 1.4058807E+00
 4.6311558E+00 1.6050730E+00 1.3751452E+00
 4.6594205E+00 1.6485280E+00 1.3434677E+00
 4.6905162E+00 1.6891818E+00 1.3111621E+00
 4.7240638E+00 1.7267282E+00 1.2785550E+00
 4.7596342E+00 1.7609529E+00 1.2459716E+00
 4.7967703E+00 1.7917381E+00 1.2137214E+00
 4.8350107E+00 1.8190624E+00 1.1820854E+00
 4.8739129E+00 1.8429917E+00 1.1513073E+00
 4.9130804E+00 1.8636709E+00 1.1215838E+00
 4.9521721E+00 1.8813055E+00 1.0930164E+00
 4.9907975E+00 1.8961232E+00 1.0653908E+00
 4.5678981E+00 1.0987535E+00 1.6482004E+00
 4.5639084E+00 1.1459374E+00 1.6353500E+00
 4.5618945E+00 1.1940851E+00 1.6203510E+00
 4.5624458E+00 1.2434359E+00 1.6033584E+00
 4.5658555E+00 1.2937883E+00 1.5843022E+00
 4.5723646E+00 1.3447947E+00 1.5631349E+00
 4.5821743E+00 1.3960281E+00 1.5398629E+00
 4.5954304E+00 1.4470073E+00 1.5145492E+00
 4.6122049E+00 1.4972168E+00 1.4873148E+00
 4.6324856E+00 1.5461281E+00 1.4583378E+00
 4.6561685E+00 1.5932231E+00 1.4278506E+00
 4.6830572E+00 1.6380184E+00 1.3961328E+00
 4.7128684E+00 1.6800886E+00 1.3635011E+00
 4.7452446E+00 1.7190863E+00 1.3302952E+00
 4.7797706E+00 1.7547570E+00 1.2968623E+00
 4.8159959E+00 1.7869461E+00 1.2635416E+00
 4.8534586E+00 1.8156009E+00 1.2306490E+00
 4.8917123E+00 1.8407647E+00 1.1984646E+00
 4.9303591E+00 1.8625705E+00 1.1672128E+00
 4.9690651E+00 1.8812286E+00 1.1370017E+00
 5.0074876E+00 1.8970113E+00 1.1074323E+00
 4.6025436E+00 1.1275887E+00 1.6754720E+00
 4.6001767E+00 1.1760506E+00 1.6624183E+00
 4.5998999E+00 1.2253613E+00 1.6471230E+00
 4.6023045E+00 1.2757151E+00 1.6297013E+00
 4.6076725E+00 1.3268845E+00 1.6100782E+00
 4.6162204E+00 1.3784800E+00 1.5882113E+00
 4.6281168E+00 1.4300336E+00 1.5641197E+00
 4.6434650E+00 1.4810278E+00 1.5378868E+00
 4.6622878E+00 1.5309215E+00 1.5096596E+00
 4.6845175E+00 1.5791733E+00 1.4796469E+00
 4.7099926E+00 1.6252682E+00 1.4481141E+00
 4.7384613E+00 1.6687425E+00 1.4153738E+00
 4.7695912E+00 1.7092071E+00 1.3817724E+00
 4.8029857E+00 1.7463643E+00 1.3476745E+00
 4.8382045E+00 1.7800192E+00 1.3134451E+00
 4.8747893E+00 1.8100836E+00 1.2794331E+00
 4.9122909E+00 1.8365726E+00 1.2459543E+00
 4.9503052E+00 1.8595996E+00 1.2132718E+00
 4.9884973E+00 1.8793698E+00 1.1815169E+00
 5.0265132E+00 1.8961737E+00 1.1503404E+00
 4.6407944E+00 1.1568671E+00 1.7017734E+00
 4.6401688E+00 1.2064102E+00 1.6883845E+00
 4.6417596E+00 1.2566846E+00 1.6726712E+00
 4.6461344E+00 1.3078281E+00 1.6547017E+00
 4.6535471E+00 1.3595670E+00 1.6343961E+00
 4.6641820E+00 1.4114719E+00 1.6117217E+00
 4.6781665E+00 1.4630378E+00 1.5867168E+00
 4.6955553E+00 1.5137197E+00 1.5594898E+00
 4.7163163E+00 1.5629609E+00 1.5302187E+00
 4.7403250E+00 1.6102206E+00 1.4991462E+00
 4.7673639E+00 1.6550012E+00 1.4665725E+00
 4.7971315E+00 1.6968731E+00 1.4328426E+00
 4.8292553E+00 1.7354957E+00 1.3983308E+00
 4.8633123E+00 1.7706312E+00 1.3634220E+00
 4.8988536E+00 1.8021518E+00 1.3284933E+00
 4.9354329E+00 1.8300388E+00 1.2938952E+00
 4.9726451E+00 1.8543805E+00 1.2599269E+00
 5.0101529E+00 1.8753672E+00 1.2267645E+00
 5.0476061E+00 1.8933009E+00 1.1941274E+00
 4.6827154E+00 1.1864149E+00 1.7267545E+00
 4.6839511E+00 1.2368349E+00 1.7129005E+00
 4.6875249E+00 1.2878463E+00 1.6966455E+00