# TIME = 0.000000
VARIABLES = X, Y, Z, FX, FY, FZ
ZONE N=29232 E=58212 F=FEPOINT ET=TRIANGLE
  0.000E+00  9.502E-01  1.243E-03 6.7498415E+00 6.0729356E-01 1.2253580E+01
  0.000E+00  1.000E+00  0.000E+00 6.7400119E+00 -5.5391847E-06 1.2269416E+01
  4.318E-02  9.751E-01  3.108E-04 6.7408798E+00 3.0358261E-01 1.2265860E+01
  0.000E+00  1.050E+00  1.243E-03 6.7498441E+00 -6.0730616E-01 1.2253581E+01
  4.318E-02  1.025E+00  3.108E-04 6.7408811E+00 -3.0359419E-01 1.2265861E+01
  0.000E+00  1.100E+00  4.969E-03 6.7833478E+00 -1.2161329E+00 1.2207669E+01
  4.318E-02  1.075E+00  2.796E-03 6.7638169E+00 -9.1144972E-01 1.2234687E+01
  0.000E+00  1.149E+00  1.117E-02 6.8481265E+00 -1.8282282E+00 1.2134552E+01
  4.318E-02  1.124E+00  7.761E-03 6.8133196E+00 -1.5217652E+00 1.2174787E+01
  0.000E+00  1.198E+00  1.983E-02 6.9425553E+00 -2.4401442E+00 1.2034038E+01
  4.318E-02  1.174E+00  1.519E-02 6.8922109E+00 -2.1349098E+00 1.2088419E+01
  0.000E+00  1.247E+00  3.092E-02 7.0449143E+00 -3.0397031E+00 1.1899804E+01
  4.318E-02  1.223E+00  2.507E-02 6.9935876E+00 -2.7424830E+00 1.1972192E+01
  0.000E+00  1.295E+00  4.443E-02 7.1258463E+00 -3.6175527E+00 1.1726055E+01
  4.318E-02  1.271E+00  3.738E-02 7.0899054E+00 -3.3311732E+00 1.1817977E+01
  0.000E+00  1.342E+00  6.031E-02 7.1925878E+00 -4.1876689E+00 1.1524882E+01
  4.318E-02  1.318E+00  5.207E-02 7.1579752E+00 -3.9021856E+00 1.1628116E+01
  0.000E+00  1.388E+00  7.852E-02 7.3444808E+00 -4.7641402E+00 1.1307481E+01
  4.318E-02  1.365E+00  6.913E-02 7.2554193E+00 -4.4757734E+00 1.1419022E+01
  0.000E+00  1.434E+00  9.903E-02 7.4703699E+00 -5.3287605E+00 1.1060287E+01
  4.318E-02  1.411E+00  8.849E-02 7.4218334E+00 -5.0497430E+00 1.1189175E+01
  0.000E+00  1.478E+00  1.218E-01 7.5151051E+00 -5.8687759E+00 1.0776684E+01
  4.318E-02  1.456E+00  1.101E-01 7.5031641E+00 -5.6014107E+00 1.0922688E+01
  0.000E+00  1.521E+00  1.467E-01 7.6699642E+00 -6.3977837E+00 1.0470573E+01
  4.318E-02  1.500E+00  1.340E-01 7.5723179E+00 -6.1343366E+00 1.0626410E+01
  0.000E+00  1.563E+00  1.738E-01 7.7088167E+00 -6.9137736E+00 1.0140260E+01
  4.318E-02  1.543E+00  1.600E-01 7.7141533E+00 -6.6585098E+00 1.0309500E+01
  0.000E+00  1.604E+00  2.029E-01 7.7925113E+00 -7.4096903E+00 9.7821402E+00
  4.318E-02  1.584E+00  1.881E-01 7.7307089E+00 -7.1643498E+00 9.9647260E+00
  0.000E+00  1.643E+00  2.340E-01 7.8442115E+00 -7.8882402E+00 9.4008521E+00
  4.318E-02  1.623E+00  2.182E-01 7.8222397E+00 -7.6514620E+00 9.5947076E+00
  0.000E+00  1.680E+00  2.669E-01 7.8434026E+00 -8.3470628E+00 8.9959610E+00
  4.318E-02  1.662E+00  2.502E-01 7.8311590E+00 -8.1205949E+00 9.2017087E+00
  0.000E+00  1.716E+00  3.018E-01 7.8776336E+00 -8.7849445E+00 8.5686148E+00
  4.318E-02  1.698E+00  2.841E-01 7.8776383E+00 -8.5689126E+00 8.7852659E+00
  0.000E+00  1.750E+00  3.383E-01 7.8311616E+00 -9.2013700E+00 8.1203059E+00
  4.318E-02  1.733E+00  3.198E-01 7.8434043E+00 -8.9962842E+00 8.3473731E+00
  0.000E+00  1.782E+00  3.765E-01 7.8222554E+00 -9.5943467E+00 7.6511894E+00
  4.318E-02  1.766E+00  3.572E-01 7.8441992E+00 -9.4011831E+00 7.8885355E+00
  0.000E+00  1.812E+00  4.163E-01 7.7307368E+00 -9.9643565E+00 7.1640889E+00
  4.318E-02  1.797E+00  3.962E-01 7.7924820E+00 -9.7825172E+00 7.4099830E+00
  0.000E+00  1.840E+00  4.575E-01 7.7141835E+00 -1.0309081E+01 6.6582640E+00
  4.318E-02  1.826E+00  4.367E-01 7.7087796E+00 -1.0140664E+01 6.9140614E+00
  0.000E+00  1.866E+00  5.000E-01 7.5723443E+00 -1.0626008E+01 6.1341076E+00
  4.318E-02  1.853E+00  4.786E-01 7.6699329E+00 -1.0470996E+01 6.3980589E+00
  0.000E+00  1.890E+00  5.438E-01 7.5031937E+00 -1.0922282E+01 5.6012084E+00
  4.318E-02  1.878E+00  5.217E-01 7.5150804E+00 -1.0777152E+01 5.8690274E+00
  0.000E+00  1.912E+00  5.887E-01 7.4218676E+00 -1.1188740E+01 5.0495670E+00
  4.318E-02  1.901E+00  5.661E-01 7.4703449E+00 -1.1060715E+01 5.3289848E+00
  0.000E+00  1.931E+00  6.347E-01 7.2554518E+00 -1.1418620E+01 4.4756196E+00
  4.318E-02  1.921E+00  6.116E-01 7.3444581E+00 -1.1307911E+01 4.7643338E+00
  0.000E+00  1.948E+00  6.815E-01 7.1580028E+00 -1.1627712E+01 3.9020527E+00
  4.318E-02  1.940E+00  6.580E-01 7.1925729E+00 -1.1525348E+01 4.1878372E+00
  0.000E+00  1.963E+00  7.292E-01 7.0899368E+00 -1.1817545E+01 3.3310625E+00
  4.318E-02  1.956E+00  7.052E-01 7.1258403E+00 -1.1726505E+01 3.6176978E+00
  0.000E+00  1.975E+00  7.775E-01 6.9936277E+00 -1.1971762E+01 2.7423954E+00
  4.318E-02  1.969E+00  7.532E-01 7.0449131E+00 -1.1900250E+01 3.0398272E+00
  0.000E+00  1.985E+00  8.264E-01 6.8922503E+00 -1.2087999E+01 2.1348434E+00
  4.318E-02  1.980E+00  8.019E-01 6.9425564E+00 -1.2034495E+01 2.4402436E+00
  0.000E+00  1.992E+00  8.757E-01 6.8133434E+00 -1.2174366E+01 1.5217184E+00
  4.318E-02  1.989E+00  8.510E-01 6.8481369E+00 -1.2135011E+01 1.8283014E+00
  0.000E+00  1.997E+00  9.253E-01 6.7638265E+00 -1.2234263E+01 9.1142086E-01
  4.318E-02  1.995E+00  9.004E-01 6.7833740E+00 -1.2208129E+01 1.2161822E+00
  0.000E+00  2.000E+00  9.751E-01 6.7408945E+00 -1.2265434E+01 3.0358720E-01
  4.318E-02  1.999E+00  9.502E-01 6.7498819E+00 -1.2254051E+01 6.0733334E-01
  0.000E+00  2.000E+00  1.025E+00 6.7409073E+00 -1.2265430E+01 -3.0356724E-01
  4.318E-02  2.000E+00  1.000E+00 6.7400464E+00 -1.2269890E+01 1.1028817E-05
  0.000E+00  1.997E+00  1.075E+00 6.7638450E+00 -1.2234247E+01 -9.1140089E-01
  4.318E-02  1.999E+00  1.050E+00 6.7498685E+00 -1.2254042E+01 -6.0731336E-01
  0.000E+00  1.992E+00  1.124E+00 6.8133345E+00 -1.2174342E+01 -1.5216984E+00
  4.318E-02  1.995E+00  1.100E+00 6.7833691E+00 -1.2208108E+01 -1.2161656E+00
  0.000E+00  1.985E+00  1.174E+00 6.8922167E+00 -1.2087983E+01 -2.1348232E+00
  4.318E-02  1.989E+00  1.149E+00 6.8481516E+00 -1.2134988E+01 -1.8282843E+00
  0.000E+00  1.975E+00  1.223E+00 6.9935985E+00 -1.1971774E+01 -2.7423750E+00
  4.318E-02  1.980E+00  1.198E+00 6.9425783E+00 -1.2034493E+01 -2.4402232E+00
  0.000E+00  1.963E+00  1.271E+00 7.0899282E+00 -1.1817555E+01 -3.3310417E+00
  4.318E-02  1.969E+00  1.247E+00 7.0449241E+00 -1.1900269E+01 -3.0398048E+00
  0.000E+00  1.948E+00  1.318E+00 7.1580051E+00 -1.1627661E+01 -3.9020319E+00
  4.318E-02  1.956E+00  1.295E+00 7.1258398E+00 -1.1726489E+01 -3.6176763E+00
  0.000E+00  1.931E+00  1.365E+00 7.2554507E+00 -1.1418576E+01 -4.4755985E+00
  4.318E-02  1.940E+00  1.342E+00 7.1925704E+00 -1.1525281E+01 -4.1878169E+00
  0.000E+00  1.912E+00  1.411E+00 7.4218628E+00 -1.1188772E+01 -5.0495452E+00
  4.318E-02  1.921E+00  1.388E+00 7.3444588E+00 -1.1307915E+01 -4.7643135E+00
  0.000E+00  1.890E+00  1.456E+00 7.5031912E+00 -1.0922250E+01 -5.6011864E+00
  4.318E-02  1.901E+00  1.434E+00 7.4703457E+00 -1.1060732E+01 -5.3289634E+00
  0.000E+00  1.866E+00  1.500E+00 7.5723444E+00 -1.0625962E+01 -6.1340849E+00
  4.318E-02  1.878E+00  1.478E+00 7.5150793E+00 -1.0777086E+01 -5.8690048E+00
  0.000E+00  1.840E+00  1.543E+00 7.7141850E+00 -1.0309100E+01 -6.6582417E+00
  4.318E-02  1.853E+00  1.521E+00 7.6699304E+00 -1.0470998E+01 -6.3980371E+00
  0.000E+00  1.812E+00  1.584E+00 7.7307396E+00 -9.9643215E+00 -7.1640648E+00
  4.318E-02  1.826E+00  1.563E+00 7.7087762E+00 -1.0140656E+01 -6.9140383E+00
  0.000E+00  1.782E+00  1.623E+00 7.8222584E+00 -9.5943415E+00 -7.6511658E+00
  4.318E-02  1.797E+00  1.604E+00 7.7924780E+00 -9.7824900E+00 -7.4099596E+00
  0.000E+00  1.750E+00  1.662E+00 7.8311626E+00 -9.2013570E+00 -8.1202814E+00
  4.318E-02  1.766E+00  1.643E+00 7.8441958E+00 -9.4011845E+00 -7.8885123E+00
  0.000E+00  1.716E+00  1.698E+00 7.8776280E+00 -8.7849305E+00 -8.5685900E+00
  4.318E-02  1.733E+00  1.680E+00 7.8434034E+00 -8.9962608E+00 -8.3473488E+00
  0.000E+00  1.680E+00  1.733E+00 7.8433784E+00 -8.3470536E+00 -8.9959355E+00
  4.318E-02  1.698E+00  1.716E+00 7.8776450E+00 -8.5689062E+00 -8.7852428E+00
  0.000E+00  1.643E+00  1.766E+00 7.8441530E+00 -7.8882259E+00 -9.4008263E+00
  4.318E-02  1.662E+00  1.750E+00 7.8311834E+00 -8.1205759E+00 -9.2016853E+00
  0.000E+00  1.604E+00  1.797E+00 7.7924137E+00 -7.4096803E+00 -9.7821141E+00
  4.318E-02  1.623E+00  1.782E+00 7.8222895E+00 -7.6514483E+00 -9.5946841E+00
  0.000E+00  1.563E+00  1.826E+00 7.7087006E+00 -6.9137609E+00 -1.0140234E+01
  4.318E-02  1.584E+00  1.812E+00 7.7307802E+00 -7.1643348E+00 -9.9647000E+00
  0.000E+00  1.521E+00  1.853E+00 7.6698592E+00 -6.3977749E+00 -1.0470547E+01
  4.318E-02  1.543E+00  1.840E+00 7.7142262E+00 -6.6585008E+00 -1.0309472E+01
  0.000E+00  1.478E+00  1.878E+00 7.5150126E+00 -5.8687661E+00 -1.0776657E+01
  4.318E-02  1.500E+00  1.866E+00 7.5723811E+00 -6.1343267E+00 -1.0626382E+01
  0.000E+00  1.434E+00  1.901E+00 7.4702756E+00 -5.3287557E+00 -1.1060260E+01
  4.318E-02  1.456E+00  1.890E+00 7.5032252E+00 -5.6014037E+00 -1.0922660E+01
  0.000E+00  1.388E+00  1.921E+00 7.3443884E+00 -4.7641329E+00 -1.1307453E+01
  4.318E-02  1.411E+00  1.912E+00 7.4218964E+00 -5.0497367E+00 -1.1189147E+01
  0.000E+00  1.342E+00  1.940E+00 7.1925071E+00 -4.1876652E+00 -1.1524854E+01
  4.318E-02  1.365E+00  1.931E+00 7.2554787E+00 -4.4757686E+00 -1.1418993E+01
  0.000E+00  1.295E+00  1.956E+00 7.1257827E+00 -3.6175498E+00 -1.1726027E+01
  4.318E-02  1.318E+00  1.948E+00 7.1580252E+00 -3.9021844E+00 -1.1628087E+01
  0.000E+00  1.247E+00  1.969E+00 7.0448661E+00 -3.0397022E+00 -1.1899776E+01
  4.318E-02  1.271E+00  1.963E+00 7.0899456E+00 -3.3311730E+00 -1.1817947E+01
  0.000E+00  1.198E+00  1.980E+00 6.9425203E+00 -2.4401440E+00 -1.2034010E+01
  4.318E-02  1.223E+00  1.975E+00 6.9936197E+00 -2.7424847E+00 -1.1972163E+01
  0.000E+00  1.149E+00  1.989E+00 6.8481037E+00 -1.8282309E+00 -1.2134523E+01
  4.318E-02  1.174E+00  1.985E+00 6.8922359E+00 -2.1349123E+00 -1.2088390E+01
  0.000E+00  1.100E+00  1.995E+00 6.7833356E+00 -1.2161382E+00 -1.2207640E+01
  4.318E-02  1.124E+00  1.992E+00 6.8133382E+00 -1.5217703E+00 -1.2174757E+01
  0.000E+00  1.050E+00  1.999E+00 6.7498395E+00 -6.0731214E-01 -1.2253552E+01
  4.318E-02  1.075E+00  1.997E+00 6.7638304E+00 -9.1145428E-01 -1.2234657E+01
  0.000E+00  1.000E+00  2.000E+00 6.7400105E+00 -1.3777748E-05 -1.2269387E+01
  4.318E-02  1.025E+00  2.000E+00 6.7408919E+00 -3.0360145E-01 -1.2265831E+01
  0.000E+00  9.502E-01  1.999E+00 6.7498383E+00 6.0728616E-01 -1.2253550E+01
  4.318E-02  9.751E-01  2.000E+00 6.7408913E+00 3.0357348E-01 -1.2265830E+01
  0.000E+00  9.004E-01  1.995E+00 6.7833331E+00 1.2161111E+00 -1.2207636E+01
  4.318E-02  9.253E-01  1.997E+00 6.7638285E+00 9.1142754E-01 -1.2234654E+01
  0.000E+00  8.510E-01  1.989E+00 6.8480999E+00 1.8282040E+00 -1.2134518E+01
  4.318E-02  8.757E-01  1.992E+00 6.8133350E+00 1.5217421E+00 -1.2174753E+01
  0.000E+00  8.019E-01  1.980E+00 6.9425153E+00 2.4401182E+00 -1.2034003E+01
  4.318E-02  8.264E-01  1.985E+00 6.8922315E+00 2.1348856E+00 -1.2088384E+01
  0.000E+00  7.532E-01  1.969E+00 7.0448600E+00 3.0396757E+00 -1.1899768E+01
  4.318E-02  7.775E-01  1.975E+00 6.9936141E+00 2.7424572E+00 -1.1972156E+01
  0.000E+00  7.052E-01  1.956E+00 7.1257756E+00 3.6175243E+00 -1.1726019E+01
  4.318E-02  7.292E-01  1.963E+00 7.0899389E+00 3.3311461E+00 -1.1817938E+01
  0.000E+00  6.580E-01  1.940E+00 7.1924991E+00 4.1876394E+00 -1.1524845E+01
  4.318E-02  6.815E-01  1.948E+00 7.1580173E+00 3.9021573E+00 -1.1628076E+01
  0.000E+00  6.116E-01  1.921E+00 7.3443795E+00 4.7641094E+00 -1.1307443E+01
  4.318E-02  6.347E-01  1.931E+00 7.2554697E+00 4.4757432E+00 -1.1418981E+01
  0.000E+00  5.661E-01  1.901E+00 7.4702656E+00 5.3287285E+00 -1.1060248E+01
  4.318E-02  5.887E-01  1.912E+00 7.4218862E+00 5.0497102E+00 -1.1189134E+01
  0.000E+00  5.217E-01  1.878E+00 7.5150016E+00 5.8687428E+00 -1.0776644E+01
  4.318E-02  5.438E-01  1.890E+00 7.5032144E+00 5.6013767E+00 -1.0922647E+01
  0.000E+00  4.786E-01  1.853E+00 7.6698471E+00 6.3977495E+00 -1.0470533E+01
  4.318E-02  5.000E-01  1.866E+00 7.5723696E+00 6.1343030E+00 -1.0626368E+01
  0.000E+00  4.367E-01  1.826E+00 7.7086877E+00 6.9137385E+00 -1.0140220E+01
  4.318E-02  4.575E-01  1.840E+00 7.7142140E+00 6.6584749E+00 -1.0309458E+01
  0.000E+00  3.962E-01  1.797E+00 7.7924001E+00 7.4096545E+00 -9.7820998E+00
  4.318E-02  4.163E-01  1.812E+00 7.7307673E+00 7.1643118E+00 -9.9646859E+00
  0.000E+00  3.572E-01  1.766E+00 7.8441387E+00 7.8882038E+00 -9.4008117E+00
  4.318E-02  3.765E-01  1.782E+00 7.8222761E+00 7.6514217E+00 -9.5946694E+00
  0.000E+00  3.198E-01  1.733E+00 7.8433635E+00 8.3470259E+00 -8.9959209E+00
  4.318E-02  3.383E-01  1.750E+00 7.8311693E+00 8.1205548E+00 -9.2016709E+00
  0.000E+00  2.841E-01  1.698E+00 7.8776125E+00 8.7849072E+00 -8.5685752E+00
  4.318E-02  3.018E-01  1.716E+00 7.8776304E+00 8.5688737E+00 -8.7852276E+00
  0.000E+00  2.502E-01  1.662E+00 7.8311466E+00 9.2013325E+00 -8.1202670E+00
  4.318E-02  2.669E-01  1.680E+00 7.8433882E+00 8.9962462E+00 -8.3473345E+00
  0.000E+00  2.182E-01  1.623E+00 7.8222419E+00 9.5943093E+00 -7.6511510E+00
  4.318E-02  2.340E-01  1.643E+00 7.8441800E+00 9.4011457E+00 -7.8884972E+00
  0.000E+00  1.881E-01  1.584E+00 7.7307226E+00 9.9643193E+00 -7.1640513E+00
  4.318E-02  2.029E-01  1.604E+00 7.7924618E+00 9.7824801E+00 -7.4099452E+00
  0.000E+00  1.600E-01  1.543E+00 7.7141676E+00 1.0309045E+01 -6.6582271E+00
  4.318E-02  1.738E-01  1.563E+00 7.7087595E+00 1.0140627E+01 -6.9140243E+00
  0.000E+00  1.340E-01  1.500E+00 7.5723265E+00 1.0625972E+01 -6.1340718E+00
  4.318E-02  1.467E-01  1.521E+00 7.6699132E+00 1.0470960E+01 -6.3980226E+00
  0.000E+00  1.101E-01  1.456E+00 7.5031728E+00 1.0922247E+01 -5.6011734E+00
  4.318E-02  1.218E-01  1.478E+00 7.5150616E+00 1.0777117E+01 -5.8689921E+00
  0.000E+00  8.849E-02  1.411E+00 7.4218445E+00 1.1188706E+01 -5.0495326E+00
  4.318E-02  9.903E-02  1.434E+00 7.4703274E+00 1.1060680E+01 -5.3289502E+00
  0.000E+00  6.913E-02  1.365E+00 7.2554314E+00 1.1418588E+01 -4.4755867E+00
  4.318E-02  7.852E-02  1.388E+00 7.3444400E+00 1.1307878E+01 -4.7643008E+00
  0.000E+00  5.207E-02  1.318E+00 7.1579854E+00 1.1627681E+01 -3.9020207E+00
  4.318E-02  6.031E-02  1.342E+00 7.1925513E+00 1.1525316E+01 -4.1878053E+00
  0.000E+00  3.738E-02  1.271E+00 7.0899080E+00 1.1817516E+01 -3.3310313E+00
  4.318E-02  4.443E-02  1.295E+00 7.1258202E+00 1.1726475E+01 -3.6176652E+00
  0.000E+00  2.507E-02  1.223E+00 6.9935777E+00 1.1971735E+01 -2.7423652E+00
  4.318E-02  3.092E-02  1.247E+00 7.0449040E+00 1.1900222E+01 -3.0397945E+00
  0.000E+00  1.519E-02  1.174E+00 6.8921954E+00 1.2087974E+01 -2.1348144E+00
  4.318E-02  1.983E-02  1.198E+00 6.9425577E+00 1.2034469E+01 -2.4402137E+00
  0.000E+00  7.761E-03  1.124E+00 6.8133126E+00 1.2174343E+01 -1.5216905E+00
  4.318E-02  1.117E-02  1.149E+00 6.8481303E+00 1.2134987E+01 -1.8282757E+00
  0.000E+00  2.796E-03  1.075E+00 6.7638224E+00 1.2234243E+01 -9.1139403E-01
  4.318E-02  4.969E-03  1.100E+00 6.7833472E+00 1.2208108E+01 -1.2161580E+00
  0.000E+00  3.108E-04  1.025E+00 6.7408842E+00 1.2265417E+01 -3.0356138E-01
  4.318E-02  1.243E-03  1.050E+00 6.7498460E+00 1.2254033E+01 -6.0730674E-01
  0.000E+00  3.108E-04  9.751E-01 6.7408707E+00 1.2265415E+01 3.0359199E-01
  4.318E-02  0.000E+00  1.000E+00 6.7400233E+00 1.2269875E+01 1.6621142E-05
  0.000E+00  2.796E-03  9.253E-01 6.7638020E+00 1.2234235E+01 9.1142455E-01
  4.318E-02  1.243E-03  9.502E-01 6.7498580E+00 1.2254029E+01 6.0733786E-01
  0.000E+00  7.761E-03  8.757E-01 6.8133183E+00 1.2174332E+01 1.5217210E+00
  4.318E-02  4.969E-03  9.004E-01 6.7833495E+00 1.2208098E+01 1.2161856E+00
  0.000E+00  1.519E-02  8.264E-01 6.8922245E+00 1.2087975E+01 2.1348449E+00
  4.318E-02  1.117E-02  8.510E-01 6.8481116E+00 1.2134980E+01 1.8283037E+00
  0.000E+00  2.507E-02  7.775E-01 6.9936012E+00 1.1971768E+01 2.7423958E+00
  4.318E-02  1.983E-02  8.019E-01 6.9425305E+00 1.2034487E+01 2.4402449E+00
  0.000E+00  3.738E-02  7.292E-01 7.0899097E+00 1.1817552E+01 3.3310617E+00
  4.318E-02  3.092E-02  7.532E-01 7.0448865E+00 1.1900264E+01 3.0398273E+00
  0.000E+00  5.207E-02  6.815E-01 7.1579751E+00 1.1627659E+01 3.9020508E+00
  4.318E-02  4.443E-02  7.052E-01 7.1258131E+00 1.1726486E+01 3.6176968E+00
  0.000E+00  6.913E-02  6.347E-01 7.2554235E+00 1.1418575E+01 4.4756167E+00
  4.318E-02  6.031E-02  6.580E-01 7.1925451E+00 1.1525280E+01 4.1878350E+00
  0.000E+00  8.849E-02  5.887E-01 7.4218383E+00 1.1188773E+01 5.0495633E+00
  4.318E-02  7.852E-02  6.116E-01 7.3444299E+00 1.1307915E+01 4.7643311E+00
  0.000E+00  1.101E-01  5.438E-01 7.5031645E+00 1.0922251E+01 5.6012036E+00
  4.318E-02  9.903E-02  5.661E-01 7.4703162E+00 1.1060733E+01 5.3289810E+00
  0.000E+00  1.340E-01  5.000E-01 7.5723149E+00 1.0625964E+01 6.1341017E+00
  4.318E-02  1.218E-01  5.217E-01 7.5150513E+00 1.0777088E+01 5.8690219E+00
  0.000E+00  1.600E-01  4.575E-01 7.7141539E+00 1.0309103E+01 6.6582584E+00
  4.318E-02  1.467E-01  4.786E-01 7.6699035E+00 1.0471000E+01 6.3980539E+00
  0.000E+00  1.881E-01  4.163E-01 7.7307071E+00 9.9643240E+00 7.1640811E+00
  4.318E-02  1.738E-01  4.367E-01 7.7087501E+00 1.0140658E+01 6.9140548E+00
  0.000E+00  2.182E-01  3.765E-01 7.8222258E+00 9.5943438E+00 7.6511822E+00
  4.318E-02  2.029E-01  3.962E-01 7.7924525E+00 9.7824924E+00 7.4099760E+00
  0.000E+00  2.502E-01  3.383E-01 7.8311322E+00 9.2013592E+00 8.1202977E+00
  4.318E-02  2.340E-01  3.572E-01 7.8441699E+00 9.4011870E+00 7.8885285E+00
  0.000E+00  2.841E-01  3.018E-01 7.8776047E+00 8.7849323E+00 8.5686065E+00
  4.318E-02  2.669E-01  3.198E-01 7.8433753E+00 8.9962635E+00 8.3473646E+00
  0.000E+00  3.198E-01  2.669E-01 7.8433743E+00 8.3470550E+00 8.9959522E+00
  4.318E-02  3.018E-01  2.841E-01 7.8776098E+00 8.5689095E+00 8.7852580E+00
  0.000E+00  3.572E-01  2.340E-01 7.8441839E+00 7.8882267E+00 9.4008432E+00
  4.318E-02  3.383E-01  2.502E-01 7.8311312E+00 8.1205800E+00 9.2016998E+00
  0.000E+00  3.962E-01  2.029E-01 7.7924847E+00 7.4096804E+00 9.7821314E+00
  4.318E-02  3.765E-01  2.182E-01 7.8222128E+00 7.6514523E+00 9.5946990E+00
  0.000E+00  4.367E-01  1.738E-01 7.7087911E+00 6.9137603E+00 1.0140252E+01
  4.318E-02  4.163E-01  1.881E-01 7.7306831E+00 7.1643363E+00 9.9647168E+00
  0.000E+00  4.786E-01  1.467E-01 7.6699396E+00 6.3977732E+00 1.0470565E+01
  4.318E-02  4.575E-01  1.600E-01 7.7141288E+00 6.6584984E+00 1.0309491E+01
  0.000E+00  5.217E-01  1.218E-01 7.5150817E+00 5.8687634E+00 1.0776676E+01
  4.318E-02  5.000E-01  1.340E-01 7.5722951E+00 6.1343230E+00 1.0626401E+01
  0.000E+00  5.661E-01  9.903E-02 7.4703480E+00 5.3287516E+00 1.1060280E+01
  4.318E-02  5.438E-01  1.101E-01 7.5031431E+00 5.6014000E+00 1.0922679E+01
  0.000E+00  6.116E-01  7.852E-02 7.3444610E+00 4.7641274E+00 1.1307474E+01
  4.318E-02  5.887E-01  8.849E-02 7.4218140E+00 5.0497309E+00 1.1189166E+01
  0.000E+00  6.580E-01  6.031E-02 7.1925703E+00 4.1876581E+00 1.1524876E+01
  4.318E-02  6.347E-01  6.913E-02 7.2554018E+00 4.4757607E+00 1.1419014E+01
  0.000E+00  7.052E-01  4.443E-02 7.1258311E+00 3.6175410E+00 1.1726049E+01
  4.318E-02  6.815E-01  5.207E-02 7.1579595E+00 3.9021742E+00 1.1628109E+01
  0.000E+00  7.532E-01  3.092E-02 7.0449016E+00 3.0396917E+00 1.1899799E+01
  4.318E-02  7.292E-01  3.738E-02 7.0898918E+00 3.3311611E+00 1.1817971E+01
  0.000E+00  8.019E-01  1.983E-02 6.9425450E+00 2.4401319E+00 1.2034034E+01
  4.318E-02  7.775E-01  2.507E-02 6.9935763E+00 2.7424712E+00 1.1972187E+01
  0.000E+00  8.510E-01  1.117E-02 6.8481187E+00 1.8282168E+00 1.2134548E+01
  4.318E-02  8.264E-01  1.519E-02 6.8922019E+00 2.1348972E+00 1.2088415E+01
  0.000E+00  9.004E-01  4.969E-03 6.7833425E+00 1.2161215E+00 1.2207666E+01
  4.318E-02  8.757E-01  7.761E-03 6.8133132E+00 1.5217540E+00 1.2174784E+01
  4.318E-02  9.253E-01  2.796E-03 6.7638130E+00 9.1143700E-01 1.2234685E+01
  1.000E+01  1.050E+00  1.243E-03 6.7498441E+00 -6.0730616E-01 1.2253581E+01
  1.000E+01  1.000E+00  5.551E-16 6.7400119E+00 -5.5391847E-06 1.2269416E+01
  9.957E+00  1.025E+00  3.108E-04 6.7408908E+00 -3.0359469E-01 1.2265918E+01
  1.000E+01  9.502E-01  1.243E-03 6.7498415E+00 6.0729356E-01 1.2253580E+01
  9.957E+00  9.751E-01  3.108E-04 6.7408895E+00 3.0358341E-01 1.2265918E+01
  1.000E+01  9.004E-01  4.969E-03 6.7833425E+00 1.2161215E+00 1.2207666E+01
  9.957E+00  9.253E-01  2.796E-03 6.7638231E+00 9.1144044E-01 1.2234742E+01
  1.000E+01  8.510E-01  1.117E-02 6.8481187E+00 1.8282168E+00 1.2134548E+01
  9.957E+00  8.757E-01  7.761E-03 6.8133235E+00 1.5217627E+00 1.2174840E+01
  1.000E+01  8.019E-01  1.983E-02 6.9425450E+00 2.4401319E+00 1.2034034E+01
  9.957E+00  8.264E-01  1.519E-02 6.8922124E+00 2.1349105E+00 1.2088471E+01
  1.000E+01  7.532E-01  3.092E-02 7.0449016E+00 3.0396917E+00 1.1899799E+01
  9.957E+00  7.775E-01  2.507E-02 6.9935862E+00 2.7424860E+00 1.1972242E+01
  1.000E+01  7.052E-01  4.443E-02 7.1258311E+00 3.6175410E+00 1.1726049E+01
  9.957E+00  7.292E-01  3.738E-02 7.0899014E+00 3.3311773E+00 1.1818025E+01
  1.000E+01  6.580E-01  6.031E-02 7.1925703E+00 4.1876581E+00 1.1524876E+01
  9.957E+00  6.815E-01  5.207E-02 7.1579694E+00 3.9021934E+00 1.1628162E+01
  1.000E+01  6.116E-01  7.852E-02 7.3444610E+00 4.7641274E+00 1.1307474E+01
  9.957E+00  6.347E-01  6.913E-02 7.2554118E+00 4.4757836E+00 1.1419066E+01
  1.000E+01  5.661E-01  9.903E-02 7.4703480E+00 5.3287516E+00 1.1060280E+01
  9.957E+00  5.887E-01  8.849E-02 7.4218227E+00 5.0497548E+00 1.1189216E+01
  1.000E+01  5.217E-01  1.218E-01 7.5150817E+00 5.8687634E+00 1.0776676E+01
  9.957E+00  5.438E-01  1.101E-01 7.5031510E+00 5.6014260E+00 1.0922729E+01
  1.000E+01  4.786E-01  1.467E-01 7.6699396E+00 6.3977732E+00 1.0470565E+01
  9.957E+00  5.000E-01  1.340E-01 7.5723025E+00 6.1343535E+00 1.0626448E+01
  1.000E+01  4.367E-01  1.738E-01 7.7087911E+00 6.9137603E+00 1.0140252E+01
  9.957E+00  4.575E-01  1.600E-01 7.7141373E+00 6.6585315E+00 1.0309537E+01
  1.000E+01  3.962E-01  2.029E-01 7.7924847E+00 7.4096804E+00 9.7821314E+00
  9.957E+00  4.163E-01  1.881E-01 7.7306930E+00 7.1643682E+00 9.9647631E+00
  1.000E+01  3.572E-01  2.340E-01 7.8441839E+00 7.8882267E+00 9.4008432E+00
  9.957E+00  3.765E-01  2.182E-01 7.8222244E+00 7.6514836E+00 9.5947459E+00
  1.000E+01  3.198E-01  2.669E-01 7.8433743E+00 8.3470550E+00 8.9959522E+00
  9.957E+00  3.383E-01  2.502E-01 7.8311446E+00 8.1206138E+00 9.2017456E+00
  1.000E+01  2.841E-01  3.018E-01 7.8776047E+00 8.7849323E+00 8.5686065E+00
  9.957E+00  3.018E-01  2.841E-01 7.8776242E+00 8.5689465E+00 8.7853013E+00
  1.000E+01  2.502E-01  3.383E-01 7.8311322E+00 9.2013592E+00 8.1202977E+00
  9.957E+00  2.669E-01  3.198E-01 7.8433894E+00 8.9963034E+00 8.3474048E+00
  1.000E+01  2.182E-01  3.765E-01 7.8222258E+00 9.5943438E+00 7.6511822E+00
  9.957E+00  2.340E-01  3.572E-01 7.8441843E+00 9.4012297E+00 7.8885661E+00
  1.000E+01  1.881E-01  4.163E-01 7.7307071E+00 9.9643240E+00 7.1640811E+00
  9.957E+00  2.029E-01  3.962E-01 7.7924666E+00 9.7825376E+00 7.4100105E+00
  1.000E+01  1.600E-01  4.575E-01 7.7141539E+00 1.0309103E+01 6.6582584E+00
  9.957E+00  1.738E-01  4.367E-01 7.7087640E+00 1.0140706E+01 6.9140858E+00
  1.000E+01  1.340E-01  5.000E-01 7.5723149E+00 1.0625964E+01 6.1341017E+00
  9.957E+00  1.467E-01  4.786E-01 7.6699170E+00 1.0471049E+01 6.3980825E+00
  1.000E+01  1.101E-01  5.438E-01 7.5031645E+00 1.0922251E+01 5.6012036E+00
  9.957E+00  1.218E-01  5.217E-01 7.5150656E+00 1.0777138E+01 5.8690488E+00
  1.000E+01  8.849E-02  5.887E-01 7.4218383E+00 1.1188773E+01 5.0495633E+00
  9.957E+00  9.903E-02  5.661E-01 7.4703310E+00 1.1060784E+01 5.3290062E+00
  1.000E+01  6.913E-02  6.347E-01 7.2554235E+00 1.1418575E+01 4.4756167E+00
  9.957E+00  7.852E-02  6.116E-01 7.3444446E+00 1.1307967E+01 4.7643528E+00
  1.000E+01  5.207E-02  6.815E-01 7.1579751E+00 1.1627659E+01 3.9020508E+00
  9.957E+00  6.031E-02  6.580E-01 7.1925608E+00 1.1525333E+01 4.1878552E+00
  1.000E+01  3.738E-02  7.292E-01 7.0899097E+00 1.1817552E+01 3.3310617E+00
  9.957E+00  4.443E-02  7.052E-01 7.1258292E+00 1.1726540E+01 3.6177142E+00
  1.000E+01  2.507E-02  7.775E-01 6.9936012E+00 1.1971768E+01 2.7423958E+00
  9.957E+00  3.092E-02  7.532E-01 7.0449017E+00 1.1900320E+01 3.0398404E+00
  1.000E+01  1.519E-02  8.264E-01 6.8922245E+00 1.2087975E+01 2.1348449E+00
  9.957E+00  1.983E-02  8.019E-01 6.9425453E+00 1.2034542E+01 2.4402545E+00
  1.000E+01  7.761E-03  8.757E-01 6.8133183E+00 1.2174332E+01 1.5217210E+00
  9.957E+00  1.117E-02  8.510E-01 6.8481276E+00 1.2135036E+01 1.8283139E+00
  1.000E+01  2.796E-03  9.253E-01 6.7638020E+00 1.2234235E+01 9.1142455E-01
  9.957E+00  4.969E-03  9.004E-01 6.7833662E+00 1.2208154E+01 1.2161951E+00
  1.000E+01  3.108E-04  9.751E-01 6.7408707E+00 1.2265415E+01 3.0359199E-01
  9.957E+00  1.243E-03  9.502E-01 6.7498726E+00 1.2254083E+01 6.0734230E-01
  1.000E+01  3.108E-04  1.025E+00 6.7408842E+00 1.2265417E+01 -3.0356138E-01
  9.957E+00  0.000E+00  1.000E+00 6.7400383E+00 1.2269933E+01 1.3883092E-05
  1.000E+01  2.796E-03  1.075E+00 6.7638224E+00 1.2234243E+01 -9.1139403E-01
  9.957E+00  1.243E-03  1.050E+00 6.7498606E+00 1.2254087E+01 -6.0731244E-01
  1.000E+01  7.761E-03  1.124E+00 6.8133126E+00 1.2174343E+01 -1.5216905E+00
  9.957E+00  4.969E-03  1.100E+00 6.7833638E+00 1.2208165E+01 -1.2161617E+00
  1.000E+01  1.519E-02  1.174E+00 6.8921954E+00 1.2087974E+01 -2.1348144E+00
  9.957E+00  1.117E-02  1.149E+00 6.8481461E+00 1.2135044E+01 -1.8282808E+00
  1.000E+01  2.507E-02  1.223E+00 6.9935777E+00 1.1971735E+01 -2.7423652E+00
  9.957E+00  1.983E-02  1.198E+00 6.9425724E+00 1.2034526E+01 -2.4402244E+00
  1.000E+01  3.738E-02  1.271E+00 7.0899080E+00 1.1817516E+01 -3.3310313E+00
  9.957E+00  3.092E-02  1.247E+00 7.0449191E+00 1.1900277E+01 -3.0398121E+00
  1.000E+01  5.207E-02  1.318E+00 7.1579854E+00 1.1627681E+01 -3.9020207E+00
  9.957E+00  4.443E-02  1.295E+00 7.1258361E+00 1.1726530E+01 -3.6176851E+00
  1.000E+01  6.913E-02  1.365E+00 7.2554314E+00 1.1418588E+01 -4.4755867E+00
  9.957E+00  6.031E-02  1.342E+00 7.1925669E+00 1.1525370E+01 -4.1878251E+00
  1.000E+01  8.849E-02  1.411E+00 7.4218445E+00 1.1188706E+01 -5.0495326E+00
  9.957E+00  7.852E-02  1.388E+00 7.3444548E+00 1.1307931E+01 -4.7643224E+00
  1.000E+01  1.101E-01  1.456E+00 7.5031728E+00 1.0922247E+01 -5.6011734E+00
  9.957E+00  9.903E-02  1.434E+00 7.4703422E+00 1.1060732E+01 -5.3289758E+00
  1.000E+01  1.340E-01  1.500E+00 7.5723265E+00 1.0625972E+01 -6.1340718E+00
  9.957E+00  1.218E-01  1.478E+00 7.5150757E+00 1.0777167E+01 -5.8690196E+00
  1.000E+01  1.600E-01  1.543E+00 7.7141676E+00 1.0309045E+01 -6.6582271E+00
  9.957E+00  1.467E-01  1.521E+00 7.6699264E+00 1.0471009E+01 -6.3980515E+00
  1.000E+01  1.881E-01  1.584E+00 7.7307226E+00 9.9643193E+00 -7.1640513E+00
  9.957E+00  1.738E-01  1.563E+00 7.7087731E+00 1.0140675E+01 -6.9140557E+00
  1.000E+01  2.182E-01  1.623E+00 7.8222419E+00 9.5943093E+00 -7.6511510E+00
  9.957E+00  2.029E-01  1.604E+00 7.7924756E+00 9.7825257E+00 -7.4099799E+00
  1.000E+01  2.502E-01  1.662E+00 7.8311466E+00 9.2013325E+00 -8.1202670E+00
  9.957E+00  2.340E-01  1.643E+00 7.8441941E+00 9.4011892E+00 -7.8885347E+00
  1.000E+01  2.841E-01  1.698E+00 7.8776125E+00 8.7849072E+00 -8.5685752E+00
  9.957E+00  2.669E-01  1.680E+00 7.8434020E+00 8.9962878E+00 -8.3473739E+00
  1.000E+01  3.198E-01  1.733E+00 7.8433635E+00 8.3470259E+00 -8.9959209E+00
  9.957E+00  3.018E-01  1.716E+00 7.8776444E+00 8.5689145E+00 -8.7852684E+00
  1.000E+01  3.572E-01  1.766E+00 7.8441387E+00 7.8882038E+00 -9.4008117E+00
  9.957E+00  3.383E-01  1.750E+00 7.8311825E+00 8.1205954E+00 -9.2017124E+00
  1.000E+01  3.962E-01  1.797E+00 7.7924001E+00 7.4096545E+00 -9.7820998E+00
  9.957E+00  3.765E-01  1.782E+00 7.8222873E+00 7.6514612E+00 -9.5947122E+00
  1.000E+01  4.367E-01  1.826E+00 7.7086877E+00 6.9137385E+00 -1.0140220E+01
  9.957E+00  4.163E-01  1.812E+00 7.7307770E+00 7.1643487E+00 -9.9647314E+00
  1.000E+01  4.786E-01  1.853E+00 7.6698471E+00 6.3977495E+00 -1.0470533E+01
  9.957E+00  4.575E-01  1.840E+00 7.7142222E+00 6.6585077E+00 -1.0309507E+01
  1.000E+01  5.217E-01  1.878E+00 7.5150016E+00 5.8687428E+00 -1.0776644E+01
  9.957E+00  5.000E-01  1.866E+00 7.5723767E+00 6.1343325E+00 -1.0626418E+01
  1.000E+01  5.661E-01  1.901E+00 7.4702656E+00 5.3287285E+00 -1.1060248E+01
  9.957E+00  5.438E-01  1.890E+00 7.5032221E+00 5.6014043E+00 -1.0922699E+01
  1.000E+01  6.116E-01  1.921E+00 7.3443795E+00 4.7641094E+00 -1.1307443E+01
  9.957E+00  5.887E-01  1.912E+00 7.4218945E+00 5.0497348E+00 -1.1189185E+01
  1.000E+01  6.580E-01  1.940E+00 7.1924991E+00 4.1876394E+00 -1.1524845E+01
  9.957E+00  6.347E-01  1.931E+00 7.2554796E+00 4.4757650E+00 -1.1419036E+01
  1.000E+01  7.052E-01  1.956E+00 7.1257756E+00 3.6175243E+00 -1.1726019E+01
  9.957E+00  6.815E-01  1.948E+00 7.1580270E+00 3.9021740E+00 -1.1628132E+01
  1.000E+01  7.532E-01  1.969E+00 7.0448600E+00 3.0396757E+00 -1.1899768E+01
  9.957E+00  7.292E-01  1.963E+00 7.0899483E+00 3.3311599E+00 -1.1817995E+01
  1.000E+01  8.019E-01  1.980E+00 6.9425153E+00 2.4401182E+00 -1.2034003E+01
  9.957E+00  7.775E-01  1.975E+00 6.9936238E+00 2.7424700E+00 -1.1972212E+01
  1.000E+01  8.510E-01  1.989E+00 6.8480999E+00 1.8282040E+00 -1.2134518E+01
  9.957E+00  8.264E-01  1.985E+00 6.8922417E+00 2.1348970E+00 -1.2088441E+01
  1.000E+01  9.004E-01  1.995E+00 6.7833331E+00 1.2161111E+00 -1.2207636E+01
  9.957E+00  8.757E-01  1.992E+00 6.8133450E+00 1.5217493E+00 -1.2174810E+01
  1.000E+01  9.502E-01  1.999E+00 6.7498383E+00 6.0728616E-01 -1.2253550E+01
  9.957E+00  9.253E-01  1.997E+00 6.7638385E+00 9.1143006E-01 -1.2234712E+01
  1.000E+01  1.000E+00  2.000E+00 6.7400105E+00 -1.3777748E-05 -1.2269387E+01
  9.957E+00  9.751E-01  2.000E+00 6.7409012E+00 3.0357436E-01 -1.2265888E+01
  1.000E+01  1.050E+00  1.999E+00 6.7498395E+00 -6.0731214E-01 -1.2253552E+01
  9.957E+00  1.025E+00  2.000E+00 6.7409019E+00 -3.0360074E-01 -1.2265889E+01
  1.000E+01  1.100E+00  1.995E+00 6.7833356E+00 -1.2161382E+00 -1.2207640E+01
  9.957E+00  1.075E+00  1.997E+00 6.7638405E+00 -9.1145525E-01 -1.2234715E+01
  1.000E+01  1.149E+00  1.989E+00 6.8481037E+00 -1.8282309E+00 -1.2134523E+01
  9.957E+00  1.124E+00  1.992E+00 6.8133483E+00 -1.5217759E+00 -1.2174815E+01
  1.000E+01  1.198E+00  1.980E+00 6.9425203E+00 -2.4401440E+00 -1.2034010E+01
  9.957E+00  1.174E+00  1.985E+00 6.8922463E+00 -2.1349222E+00 -1.2088447E+01