# TIME = 3.000000
VARIABLES = X, Y, Z, FX, FY, FZ
ZONE N=29232 E=58212 F=FEPOINT ET=TRIANGLE
  0.000E+00  9.502E-01  1.243E-03 6.1951278E+00 -1.7153622E+00 -3.4612037E+01
  0.000E+00  1.000E+00  0.000E+00 6.1837782E+00 5.0319785E-07 -3.4656766E+01
  4.318E-02  9.751E-01  3.108E-04 6.1851759E+00 -8.6039845E-01 -3.4763687E+01
  0.000E+00  1.050E+00  1.243E-03 6.1951278E+00 1.7153680E+00 -3.4612036E+01
  4.318E-02  1.025E+00  3.108E-04 6.1851759E+00 8.6040136E-01 -3.4763687E+01
  0.000E+00  1.100E+00  4.969E-03 6.2327892E+00 3.4350531E+00 -3.4482358E+01
  4.318E-02  1.075E+00  2.796E-03 6.2108797E+00 2.5831353E+00 -3.4675335E+01
  0.000E+00  1.149E+00  1.117E-02 6.3035078E+00 5.1639782E+00 -3.4275843E+01
  4.318E-02  1.124E+00  7.761E-03 6.2654544E+00 4.3128561E+00 -3.4505574E+01
  0.000E+00  1.198E+00  1.983E-02 6.4052826E+00 6.8924039E+00 -3.3991950E+01
  4.318E-02  1.174E+00  1.519E-02 6.3511210E+00 6.0506005E+00 -3.4260806E+01
  0.000E+00  1.247E+00  3.092E-02 6.5173005E+00 8.5859342E+00 -3.3612813E+01
  4.318E-02  1.223E+00  2.507E-02 6.4609038E+00 7.7725544E+00 -3.3931415E+01
  0.000E+00  1.295E+00  4.443E-02 6.6115895E+00 1.0218150E+01 -3.3122049E+01
  4.318E-02  1.271E+00  3.738E-02 6.5685083E+00 9.4409936E+00 -3.3494350E+01
  0.000E+00  1.342E+00  6.031E-02 6.6943927E+00 1.1828538E+01 -3.2553823E+01
  4.318E-02  1.318E+00  5.207E-02 6.6516854E+00 1.1059340E+01 -3.2956250E+01
  0.000E+00  1.388E+00  7.852E-02 6.8569559E+00 1.3456903E+01 -3.1939782E+01
  4.318E-02  1.365E+00  6.913E-02 6.7635452E+00 1.2685002E+01 -3.2363644E+01
  0.000E+00  1.434E+00  9.903E-02 6.9940306E+00 1.5051806E+01 -3.1241601E+01
  4.318E-02  1.411E+00  8.849E-02 6.9393070E+00 1.4311753E+01 -3.1712224E+01
  0.000E+00  1.478E+00  1.218E-01 7.0549203E+00 1.6577208E+01 -3.0440576E+01
  4.318E-02  1.456E+00  1.101E-01 7.0343971E+00 1.5875289E+01 -3.0956941E+01
  0.000E+00  1.521E+00  1.467E-01 7.2175486E+00 1.8071509E+01 -2.9575947E+01
  4.318E-02  1.500E+00  1.340E-01 7.1176126E+00 1.7385713E+01 -3.0117226E+01
  0.000E+00  1.563E+00  1.738E-01 7.2673260E+00 1.9529016E+01 -2.8642899E+01
  4.318E-02  1.543E+00  1.600E-01 7.2662449E+00 1.8871354E+01 -2.9219070E+01
  0.000E+00  1.604E+00  2.029E-01 7.3585323E+00 2.0929810E+01 -2.7631279E+01
  4.318E-02  1.584E+00  1.881E-01 7.2946452E+00 2.0305047E+01 -2.8241954E+01
  0.000E+00  1.643E+00  2.340E-01 7.4144851E+00 2.2281553E+01 -2.6554223E+01
  4.318E-02  1.623E+00  2.182E-01 7.3904887E+00 2.1685668E+01 -2.7193285E+01
  0.000E+00  1.680E+00  2.669E-01 7.4188128E+00 2.3577585E+01 -2.5410513E+01
  4.318E-02  1.662E+00  2.502E-01 7.4053158E+00 2.3015327E+01 -2.6079459E+01
  0.000E+00  1.716E+00  3.018E-01 7.4516513E+00 2.4814467E+01 -2.4203380E+01
  4.318E-02  1.698E+00  2.841E-01 7.4516817E+00 2.4285975E+01 -2.4899163E+01
  0.000E+00  1.750E+00  3.383E-01 7.4052855E+00 2.5990741E+01 -2.2937035E+01
  4.318E-02  1.733E+00  3.198E-01 7.4188430E+00 2.5497250E+01 -2.3658065E+01
  0.000E+00  1.782E+00  3.765E-01 7.3904590E+00 2.7100769E+01 -2.1611906E+01
  4.318E-02  1.766E+00  3.572E-01 7.4145162E+00 2.6644825E+01 -2.2357597E+01
  0.000E+00  1.812E+00  4.163E-01 7.2946158E+00 2.8145917E+01 -2.0235980E+01
  4.318E-02  1.797E+00  3.962E-01 7.3585632E+00 2.7725602E+01 -2.1001248E+01
  0.000E+00  1.840E+00  4.575E-01 7.2662151E+00 2.9119635E+01 -1.8807164E+01
  4.318E-02  1.826E+00  4.367E-01 7.2673558E+00 2.8740652E+01 -1.9595671E+01
  0.000E+00  1.866E+00  5.000E-01 7.1175823E+00 3.0014820E+01 -1.7326572E+01
  4.318E-02  1.853E+00  4.786E-01 7.2175767E+00 2.9676863E+01 -1.8133188E+01
  0.000E+00  1.890E+00  5.438E-01 7.0343660E+00 3.0851671E+01 -1.5821296E+01
  4.318E-02  1.878E+00  5.217E-01 7.0549501E+00 3.0544544E+01 -1.6633786E+01
  0.000E+00  1.912E+00  5.887E-01 6.9392753E+00 3.1604297E+01 -1.4263078E+01
  4.318E-02  1.901E+00  5.661E-01 6.9940623E+00 3.1348192E+01 -1.5103182E+01
  0.000E+00  1.931E+00  6.347E-01 6.7635138E+00 3.2253596E+01 -1.2641851E+01
  4.318E-02  1.921E+00  6.116E-01 6.8569854E+00 3.2048769E+01 -1.3502828E+01
  0.000E+00  1.948E+00  6.815E-01 6.6516564E+00 3.2844192E+01 -1.1021717E+01
  4.318E-02  1.940E+00  6.580E-01 6.6944202E+00 3.2665000E+01 -1.1868910E+01
  0.000E+00  1.963E+00  7.292E-01 6.5684821E+00 3.3380402E+01 -9.4088803E+00
  4.318E-02  1.956E+00  7.052E-01 6.6116155E+00 3.3235099E+01 -1.0253026E+01
  0.000E+00  1.975E+00  7.775E-01 6.4608772E+00 3.3815990E+01 -7.7461171E+00
  4.318E-02  1.969E+00  7.532E-01 6.5173266E+00 3.3727508E+01 -8.6152430E+00
  0.000E+00  1.985E+00  8.264E-01 6.3510918E+00 3.4144280E+01 -6.0300141E+00
  4.318E-02  1.980E+00  8.019E-01 6.4053087E+00 3.4107967E+01 -6.9159287E+00
  0.000E+00  1.992E+00  8.757E-01 6.2654235E+00 3.4388204E+01 -4.2981801E+00
  4.318E-02  1.989E+00  8.510E-01 6.3035348E+00 3.4392839E+01 -5.1816019E+00
  0.000E+00  1.997E+00  9.253E-01 6.2108497E+00 3.4557392E+01 -2.5743430E+00
  4.318E-02  1.995E+00  9.004E-01 6.2328177E+00 3.4600057E+01 -3.4467757E+00
  0.000E+00  2.000E+00  9.751E-01 6.1851472E+00 3.4645457E+01 -8.5747102E-01
  4.318E-02  1.999E+00  9.502E-01 6.1951586E+00 3.4730195E+01 -1.7212197E+00
  0.000E+00  2.000E+00  1.025E+00 6.1851473E+00 3.4645446E+01 8.5747624E-01
  4.318E-02  2.000E+00  1.000E+00 6.1838091E+00 3.4775080E+01 2.5026537E-06
  0.000E+00  1.997E+00  1.075E+00 6.2108500E+00 3.4557358E+01 2.5743481E+00
  4.318E-02  1.999E+00  1.050E+00 6.1951586E+00 3.4730174E+01 1.7212246E+00
  0.000E+00  1.992E+00  1.124E+00 6.2654239E+00 3.4388153E+01 4.2981852E+00
  4.318E-02  1.995E+00  1.100E+00 6.2328177E+00 3.4600011E+01 3.4467806E+00
  0.000E+00  1.985E+00  1.174E+00 6.3510922E+00 3.4144255E+01 6.0300192E+00
  4.318E-02  1.989E+00  1.149E+00 6.3035349E+00 3.4392793E+01 5.1816068E+00
  0.000E+00  1.975E+00  1.223E+00 6.4608778E+00 3.3816049E+01 7.7461223E+00
  4.318E-02  1.980E+00  1.198E+00 6.4053088E+00 3.4107983E+01 6.9159337E+00
  0.000E+00  1.963E+00  1.271E+00 6.5684828E+00 3.3380461E+01 9.4088851E+00
  4.318E-02  1.969E+00  1.247E+00 6.5173266E+00 3.3727588E+01 8.6152475E+00
  0.000E+00  1.948E+00  1.318E+00 6.6516571E+00 3.2844081E+01 1.1021721E+01
  4.318E-02  1.956E+00  1.295E+00 6.6116156E+00 3.3235083E+01 1.0253031E+01
  0.000E+00  1.931E+00  1.365E+00 6.7635146E+00 3.2253506E+01 1.2641855E+01
  4.318E-02  1.940E+00  1.342E+00 6.6944204E+00 3.2664844E+01 1.1868913E+01
  0.000E+00  1.912E+00  1.411E+00 6.9392753E+00 3.1604427E+01 1.4263082E+01
  4.318E-02  1.921E+00  1.388E+00 6.8569861E+00 3.2048818E+01 1.3502833E+01
  0.000E+00  1.890E+00  1.456E+00 7.0343667E+00 3.0851623E+01 1.5821300E+01
  4.318E-02  1.901E+00  1.434E+00 6.9940628E+00 3.1348280E+01 1.5103186E+01
  0.000E+00  1.866E+00  1.500E+00 7.1175831E+00 3.0014730E+01 1.7326575E+01
  4.318E-02  1.878E+00  1.478E+00 7.0549506E+00 3.0544399E+01 1.6633788E+01
  0.000E+00  1.840E+00  1.543E+00 7.2662159E+00 2.9119731E+01 1.8807170E+01
  4.318E-02  1.853E+00  1.521E+00 7.2175772E+00 2.9676911E+01 1.8133194E+01
  0.000E+00  1.812E+00  1.584E+00 7.2946166E+00 2.8145860E+01 2.0235981E+01
  4.318E-02  1.826E+00  1.563E+00 7.2673564E+00 2.8740672E+01 1.9595674E+01
  0.000E+00  1.782E+00  1.623E+00 7.3904598E+00 2.7100796E+01 2.1611911E+01
  4.318E-02  1.797E+00  1.604E+00 7.3585638E+00 2.7725567E+01 2.1001252E+01
  0.000E+00  1.750E+00  1.662E+00 7.4052863E+00 2.5990745E+01 2.2937038E+01
  4.318E-02  1.766E+00  1.643E+00 7.4145168E+00 2.6644870E+01 2.2357602E+01
  0.000E+00  1.716E+00  1.698E+00 7.4516521E+00 2.4814466E+01 2.4203384E+01
  4.318E-02  1.733E+00  1.680E+00 7.4188436E+00 2.5497225E+01 2.3658066E+01
  0.000E+00  1.680E+00  1.733E+00 7.4188138E+00 2.3577597E+01 2.5410517E+01
  4.318E-02  1.698E+00  1.716E+00 7.4516824E+00 2.4286000E+01 2.4899167E+01
  0.000E+00  1.643E+00  1.766E+00 7.4144865E+00 2.2281548E+01 2.6554226E+01
  4.318E-02  1.662E+00  1.750E+00 7.4053161E+00 2.3015318E+01 2.6079462E+01
  0.000E+00  1.604E+00  1.797E+00 7.3585332E+00 2.0929815E+01 2.7631282E+01
  4.318E-02  1.623E+00  1.782E+00 7.3904889E+00 2.1685674E+01 2.7193289E+01
  0.000E+00  1.563E+00  1.826E+00 7.2673255E+00 1.9529011E+01 2.8642903E+01
  4.318E-02  1.584E+00  1.812E+00 7.2946463E+00 2.0305041E+01 2.8241956E+01
  0.000E+00  1.521E+00  1.853E+00 7.2175479E+00 1.8071512E+01 2.9575951E+01
  4.318E-02  1.543E+00  1.840E+00 7.2662468E+00 1.8871354E+01 2.9219073E+01
  0.000E+00  1.478E+00  1.878E+00 7.0549225E+00 1.6577201E+01 3.0440579E+01
  4.318E-02  1.500E+00  1.866E+00 7.1176140E+00 1.7385707E+01 3.0117228E+01
  0.000E+00  1.434E+00  1.901E+00 6.9940362E+00 1.5051807E+01 3.1241603E+01
  4.318E-02  1.456E+00  1.890E+00 7.0343959E+00 1.5875294E+01 3.0956944E+01
  0.000E+00  1.388E+00  1.921E+00 6.8569607E+00 1.3456894E+01 3.1939784E+01
  4.318E-02  1.411E+00  1.912E+00 6.9393042E+00 1.4311755E+01 3.1712227E+01
  0.000E+00  1.342E+00  1.940E+00 6.6943923E+00 1.1828539E+01 3.2553826E+01
  4.318E-02  1.365E+00  1.931E+00 6.7635440E+00 1.2685000E+01 3.2363647E+01
  0.000E+00  1.295E+00  1.956E+00 6.6115840E+00 1.0218154E+01 3.3122053E+01
  4.318E-02  1.318E+00  1.948E+00 6.6516881E+00 1.1059338E+01 3.2956252E+01
  0.000E+00  1.247E+00  1.969E+00 6.5172948E+00 8.5859420E+00 3.3612818E+01
  4.318E-02  1.271E+00  1.963E+00 6.5685132E+00 9.4409872E+00 3.3494351E+01
  0.000E+00  1.198E+00  1.980E+00 6.4052807E+00 6.8924085E+00 3.3991957E+01
  4.318E-02  1.223E+00  1.975E+00 6.4609077E+00 7.7725478E+00 3.3931416E+01
  0.000E+00  1.149E+00  1.989E+00 6.3035098E+00 5.1639829E+00 3.4275850E+01
  4.318E-02  1.174E+00  1.985E+00 6.3511226E+00 6.0505925E+00 3.4260806E+01
  0.000E+00  1.100E+00  1.995E+00 6.2327931E+00 3.4350554E+00 3.4482366E+01
  4.318E-02  1.124E+00  1.992E+00 6.2654540E+00 4.3128540E+00 3.4505573E+01
  0.000E+00  1.050E+00  1.999E+00 6.1951321E+00 1.7153656E+00 3.4612044E+01
  4.318E-02  1.075E+00  1.997E+00 6.2108786E+00 2.5831302E+00 3.4675334E+01
  0.000E+00  1.000E+00  2.000E+00 6.1837823E+00 1.6319556E-06 3.4656774E+01
  4.318E-02  1.025E+00  2.000E+00 6.1851747E+00 8.6040021E-01 3.4763685E+01
  0.000E+00  9.502E-01  1.999E+00 6.1951321E+00 -1.7153671E+00 3.4612044E+01
  4.318E-02  9.751E-01  2.000E+00 6.1851747E+00 -8.6039882E-01 3.4763685E+01
  0.000E+00  9.004E-01  1.995E+00 6.2327933E+00 -3.4350540E+00 3.4482366E+01
  4.318E-02  9.253E-01  1.997E+00 6.2108787E+00 -2.5831317E+00 3.4675334E+01
  0.000E+00  8.510E-01  1.989E+00 6.3035100E+00 -5.1639815E+00 3.4275850E+01
  4.318E-02  8.757E-01  1.992E+00 6.2654542E+00 -4.3128509E+00 3.4505573E+01
  0.000E+00  8.019E-01  1.980E+00 6.4052809E+00 -6.8924094E+00 3.3991957E+01
  4.318E-02  8.264E-01  1.985E+00 6.3511228E+00 -6.0505936E+00 3.4260806E+01
  0.000E+00  7.532E-01  1.969E+00 6.5172951E+00 -8.5859401E+00 3.3612819E+01
  4.318E-02  7.775E-01  1.975E+00 6.4609080E+00 -7.7725466E+00 3.3931416E+01
  0.000E+00  7.052E-01  1.956E+00 6.6115843E+00 -1.0218154E+01 3.3122053E+01
  4.318E-02  7.292E-01  1.963E+00 6.5685135E+00 -9.4409868E+00 3.3494351E+01
  0.000E+00  6.580E-01  1.940E+00 6.6943926E+00 -1.1828537E+01 3.2553826E+01
  4.318E-02  6.815E-01  1.948E+00 6.6516885E+00 -1.1059336E+01 3.2956253E+01
  0.000E+00  6.116E-01  1.921E+00 6.8569613E+00 -1.3456898E+01 3.1939785E+01
  4.318E-02  6.347E-01  1.931E+00 6.7635445E+00 -1.2685002E+01 3.2363648E+01
  0.000E+00  5.661E-01  1.901E+00 6.9940367E+00 -1.5051799E+01 3.1241604E+01
  4.318E-02  5.887E-01  1.912E+00 6.9393044E+00 -1.4311754E+01 3.1712226E+01
  0.000E+00  5.217E-01  1.878E+00 7.0549230E+00 -1.6577204E+01 3.0440580E+01
  4.318E-02  5.438E-01  1.890E+00 7.0343965E+00 -1.5875289E+01 3.0956945E+01
  0.000E+00  4.786E-01  1.853E+00 7.2175485E+00 -1.8071508E+01 2.9575952E+01
  4.318E-02  5.000E-01  1.866E+00 7.1176146E+00 -1.7385710E+01 3.0117229E+01
  0.000E+00  4.367E-01  1.826E+00 7.2673261E+00 -1.9529015E+01 2.8642904E+01
  4.318E-02  4.575E-01  1.840E+00 7.2662474E+00 -1.8871351E+01 2.9219073E+01
  0.000E+00  3.962E-01  1.797E+00 7.3585338E+00 -2.0929809E+01 2.7631283E+01
  4.318E-02  4.163E-01  1.812E+00 7.2946469E+00 -2.0305044E+01 2.8241957E+01
  0.000E+00  3.572E-01  1.766E+00 7.4144872E+00 -2.2281551E+01 2.6554227E+01
  4.318E-02  3.765E-01  1.782E+00 7.3904896E+00 -2.1685666E+01 2.7193289E+01
  0.000E+00  3.198E-01  1.733E+00 7.4188145E+00 -2.3577583E+01 2.5410517E+01
  4.318E-02  3.383E-01  1.750E+00 7.4053168E+00 -2.3015325E+01 2.6079463E+01
  0.000E+00  2.841E-01  1.698E+00 7.4516528E+00 -2.4814465E+01 2.4203384E+01
  4.318E-02  3.018E-01  1.716E+00 7.4516831E+00 -2.4285973E+01 2.4899166E+01
  0.000E+00  2.502E-01  1.662E+00 7.4052870E+00 -2.5990739E+01 2.2937039E+01
  4.318E-02  2.669E-01  1.680E+00 7.4188443E+00 -2.5497248E+01 2.3658068E+01
  0.000E+00  2.182E-01  1.623E+00 7.3904605E+00 -2.7100767E+01 2.1611910E+01
  4.318E-02  2.340E-01  1.643E+00 7.4145175E+00 -2.6644823E+01 2.2357601E+01
  0.000E+00  1.881E-01  1.584E+00 7.2946173E+00 -2.8145915E+01 2.0235984E+01
  4.318E-02  2.029E-01  1.604E+00 7.3585645E+00 -2.7725600E+01 2.1001252E+01
  0.000E+00  1.600E-01  1.543E+00 7.2662166E+00 -2.9119633E+01 1.8807168E+01
  4.318E-02  1.738E-01  1.563E+00 7.2673571E+00 -2.8740650E+01 1.9595675E+01
  0.000E+00  1.340E-01  1.500E+00 7.1175837E+00 -3.0014819E+01 1.7326575E+01
  4.318E-02  1.467E-01  1.521E+00 7.2175779E+00 -2.9676862E+01 1.8133192E+01
  0.000E+00  1.101E-01  1.456E+00 7.0343675E+00 -3.0851670E+01 1.5821299E+01
  4.318E-02  1.218E-01  1.478E+00 7.0549513E+00 -3.0544543E+01 1.6633789E+01
  0.000E+00  8.849E-02  1.411E+00 6.9392765E+00 -3.1604294E+01 1.4263081E+01
  4.318E-02  9.903E-02  1.434E+00 6.9940635E+00 -3.1348190E+01 1.5103185E+01
  0.000E+00  6.913E-02  1.365E+00 6.7635152E+00 -3.2253595E+01 1.2641855E+01
  4.318E-02  7.852E-02  1.388E+00 6.8569866E+00 -3.2048768E+01 1.3502832E+01
  0.000E+00  5.207E-02  1.318E+00 6.6516579E+00 -3.2844190E+01 1.1021721E+01
  4.318E-02  6.031E-02  1.342E+00 6.6944211E+00 -3.2664998E+01 1.1868913E+01
  0.000E+00  3.738E-02  1.271E+00 6.5684835E+00 -3.3380401E+01 9.4088838E+00
  4.318E-02  4.443E-02  1.295E+00 6.6116164E+00 -3.3235097E+01 1.0253029E+01
  0.000E+00  2.507E-02  1.223E+00 6.4608785E+00 -3.3815989E+01 7.7461204E+00
  4.318E-02  3.092E-02  1.247E+00 6.5173274E+00 -3.3727507E+01 8.6152461E+00
  0.000E+00  1.519E-02  1.174E+00 6.3510929E+00 -3.4144279E+01 6.0300171E+00
  4.318E-02  1.983E-02  1.198E+00 6.4053095E+00 -3.4107966E+01 6.9159317E+00
  0.000E+00  7.761E-03  1.124E+00 6.2654246E+00 -3.4388203E+01 4.2981830E+00
  4.318E-02  1.117E-02  1.149E+00 6.3035356E+00 -3.4392838E+01 5.1816047E+00
  0.000E+00  2.796E-03  1.075E+00 6.2108506E+00 -3.4557391E+01 2.5743458E+00
  4.318E-02  4.969E-03  1.100E+00 6.2328184E+00 -3.4600056E+01 3.4467784E+00
  0.000E+00  3.108E-04  1.025E+00 6.1851480E+00 -3.4645455E+01 8.5747369E-01
  4.318E-02  1.243E-03  1.050E+00 6.1951593E+00 -3.4730194E+01 1.7212222E+00
  0.000E+00  3.108E-04  9.751E-01 6.1851479E+00 -3.4645445E+01 -8.5747374E-01
  4.318E-02  0.000E+00  1.000E+00 6.1838098E+00 -3.4775079E+01 -1.5265856E-07
  0.000E+00  2.796E-03  9.253E-01 6.2108503E+00 -3.4557357E+01 -2.5743458E+00
  4.318E-02  1.243E-03  9.502E-01 6.1951593E+00 -3.4730173E+01 -1.7212224E+00
  0.000E+00  7.761E-03  8.757E-01 6.2654242E+00 -3.4388151E+01 -4.2981831E+00
  4.318E-02  4.969E-03  9.004E-01 6.2328183E+00 -3.4600009E+01 -3.4467786E+00
  0.000E+00  1.519E-02  8.264E-01 6.3510924E+00 -3.4144254E+01 -6.0300172E+00
  4.318E-02  1.117E-02  8.510E-01 6.3035355E+00 -3.4392792E+01 -5.1816049E+00
  0.000E+00  2.507E-02  7.775E-01 6.4608778E+00 -3.3816048E+01 -7.7461204E+00
  4.318E-02  1.983E-02  8.019E-01 6.4053094E+00 -3.4107982E+01 -6.9159320E+00
  0.000E+00  3.738E-02  7.292E-01 6.5684827E+00 -3.3380459E+01 -9.4088833E+00
  4.318E-02  3.092E-02  7.532E-01 6.5173272E+00 -3.3727587E+01 -8.6152460E+00
  0.000E+00  5.207E-02  6.815E-01 6.6516570E+00 -3.2844079E+01 -1.1021720E+01
  4.318E-02  4.443E-02  7.052E-01 6.6116161E+00 -3.3235081E+01 -1.0253029E+01
  0.000E+00  6.913E-02  6.347E-01 6.7635145E+00 -3.2253505E+01 -1.2641854E+01
  4.318E-02  6.031E-02  6.580E-01 6.6944208E+00 -3.2664843E+01 -1.1868912E+01
  0.000E+00  8.849E-02  5.887E-01 6.9392755E+00 -3.1604427E+01 -1.4263081E+01
  4.318E-02  7.852E-02  6.116E-01 6.8569862E+00 -3.2048816E+01 -1.3502832E+01
  0.000E+00  1.101E-01  5.438E-01 7.0343666E+00 -3.0851621E+01 -1.5821299E+01
  4.318E-02  9.903E-02  5.661E-01 6.9940629E+00 -3.1348278E+01 -1.5103185E+01
  0.000E+00  1.340E-01  5.000E-01 7.1175829E+00 -3.0014729E+01 -1.7326573E+01
  4.318E-02  1.218E-01  5.217E-01 7.0549507E+00 -3.0544397E+01 -1.6633787E+01
  0.000E+00  1.600E-01  4.575E-01 7.2662157E+00 -2.9119729E+01 -1.8807170E+01
  4.318E-02  1.467E-01  4.786E-01 7.2175773E+00 -2.9676909E+01 -1.8133193E+01
  0.000E+00  1.881E-01  4.163E-01 7.2946164E+00 -2.8145859E+01 -2.0235981E+01
  4.318E-02  1.738E-01  4.367E-01 7.2673563E+00 -2.8740670E+01 -1.9595674E+01
  0.000E+00  2.182E-01  3.765E-01 7.3904596E+00 -2.7100795E+01 -2.1611910E+01
  4.318E-02  2.029E-01  3.962E-01 7.3585637E+00 -2.7725565E+01 -2.1001251E+01
  0.000E+00  2.502E-01  3.383E-01 7.4052860E+00 -2.5990743E+01 -2.2937037E+01
  4.318E-02  2.340E-01  3.572E-01 7.4145167E+00 -2.6644869E+01 -2.2357602E+01
  0.000E+00  2.841E-01  3.018E-01 7.4516518E+00 -2.4814465E+01 -2.4203384E+01
  4.318E-02  2.669E-01  3.198E-01 7.4188435E+00 -2.5497224E+01 -2.3658066E+01
  0.000E+00  3.198E-01  2.669E-01 7.4188132E+00 -2.3577595E+01 -2.5410516E+01
  4.318E-02  3.018E-01  2.841E-01 7.4516822E+00 -2.4285998E+01 -2.4899167E+01
  0.000E+00  3.572E-01  2.340E-01 7.4144855E+00 -2.2281546E+01 -2.6554226E+01
  4.318E-02  3.383E-01  2.502E-01 7.4053162E+00 -2.3015317E+01 -2.6079461E+01
  0.000E+00  3.962E-01  2.029E-01 7.3585328E+00 -2.0929812E+01 -2.7631282E+01
  4.318E-02  3.765E-01  2.182E-01 7.3904891E+00 -2.1685672E+01 -2.7193288E+01
  0.000E+00  4.367E-01  1.738E-01 7.2673264E+00 -1.9529008E+01 -2.8642902E+01
  4.318E-02  4.163E-01  1.881E-01 7.2946456E+00 -2.0305040E+01 -2.8241956E+01
  0.000E+00  4.786E-01  1.467E-01 7.2175490E+00 -1.8071509E+01 -2.9575950E+01
  4.318E-02  4.575E-01  1.600E-01 7.2662453E+00 -1.8871353E+01 -2.9219073E+01
  0.000E+00  5.217E-01  1.218E-01 7.0549207E+00 -1.6577201E+01 -3.0440578E+01
  4.318E-02  5.000E-01  1.340E-01 7.1176129E+00 -1.7385705E+01 -3.0117228E+01
  0.000E+00  5.661E-01  9.903E-02 6.9940310E+00 -1.5051809E+01 -3.1241604E+01
  4.318E-02  5.438E-01  1.101E-01 7.0343974E+00 -1.5875290E+01 -3.0956944E+01
  0.000E+00  6.116E-01  7.852E-02 6.8569562E+00 -1.3456896E+01 -3.1939785E+01
  4.318E-02  5.887E-01  8.849E-02 6.9393070E+00 -1.4311750E+01 -3.1712225E+01
  0.000E+00  6.580E-01  6.031E-02 6.6943931E+00 -1.1828536E+01 -3.2553825E+01
  4.318E-02  6.347E-01  6.913E-02 6.7635454E+00 -1.2684997E+01 -3.2363647E+01
  0.000E+00  7.052E-01  4.443E-02 6.6115897E+00 -1.0218147E+01 -3.3122051E+01
  4.318E-02  6.815E-01  5.207E-02 6.6516856E+00 -1.1059338E+01 -3.2956252E+01
  0.000E+00  7.532E-01  3.092E-02 6.5173007E+00 -8.5859319E+00 -3.3612814E+01
  4.318E-02  7.292E-01  3.738E-02 6.5685085E+00 -9.4409899E+00 -3.3494351E+01
  0.000E+00  8.019E-01  1.983E-02 6.4052827E+00 -6.8923989E+00 -3.3991951E+01
  4.318E-02  7.775E-01  2.507E-02 6.4609039E+00 -7.7725514E+00 -3.3931417E+01
  0.000E+00  8.510E-01  1.117E-02 6.3035079E+00 -5.1639753E+00 -3.4275844E+01
  4.318E-02  8.264E-01  1.519E-02 6.3511212E+00 -6.0505951E+00 -3.4260807E+01
  0.000E+00  9.004E-01  4.969E-03 6.2327892E+00 -3.4350502E+00 -3.4482359E+01
  4.318E-02  8.757E-01  7.761E-03 6.2654545E+00 -4.3128549E+00 -3.4505575E+01
  4.318E-02  9.253E-01  2.796E-03 6.2108797E+00 -2.5831295E+00 -3.4675336E+01
  1.000E+01  1.050E+00  1.243E-03 6.1951278E+00 1.7153680E+00 -3.4612036E+01
  1.000E+01  1.000E+00  5.551E-16 6.1837782E+00 5.0319785E-07 -3.4656766E+01
  9.957E+00  1.025E+00  3.108E-04 6.1851474E+00 8.5461462E-01 -3.4529844E+01
  1.000E+01  9.502E-01  1.243E-03 6.1951278E+00 -1.7153622E+00 -3.4612037E+01
  9.957E+00  9.751E-01  3.108E-04 6.1851474E+00 -8.5461181E-01 -3.4529844E+01
  1.000E+01  9.004E-01  4.969E-03 6.2327892E+00 -3.4350502E+00 -3.4482359E+01
  9.957E+00  9.253E-01  2.796E-03 6.2108515E+00 -2.5657553E+00 -3.4442087E+01
  1.000E+01  8.510E-01  1.117E-02 6.3035079E+00 -5.1639753E+00 -3.4275844E+01
  9.957E+00  8.757E-01  7.761E-03 6.2654254E+00 -4.2838434E+00 -3.4273467E+01
  1.000E+01  8.019E-01  1.983E-02 6.4052827E+00 -6.8923989E+00 -3.3991951E+01
  9.957E+00  8.264E-01  1.519E-02 6.3510911E+00 -6.0098929E+00 -3.4030346E+01
  1.000E+01  7.532E-01  3.092E-02 6.5173007E+00 -8.5859319E+00 -3.3612814E+01
  9.957E+00  7.775E-01  2.507E-02 6.4608749E+00 -7.7202675E+00 -3.3703171E+01
  1.000E+01  7.052E-01  4.443E-02 6.6115897E+00 -1.0218147E+01 -3.3122051E+01
  9.957E+00  7.292E-01  3.738E-02 6.5684804E+00 -9.3774848E+00 -3.3269046E+01
  1.000E+01  6.580E-01  6.031E-02 6.6943931E+00 -1.1828536E+01 -3.2553825E+01
  9.957E+00  6.815E-01  5.207E-02 6.6516572E+00 -1.0984947E+01 -3.2734566E+01
  1.000E+01  6.116E-01  7.852E-02 6.8569562E+00 -1.3456896E+01 -3.1939785E+01
  9.957E+00  6.347E-01  6.913E-02 6.7635162E+00 -1.2599669E+01 -3.2145947E+01
  1.000E+01  5.661E-01  9.903E-02 6.9940310E+00 -1.5051809E+01 -3.1241604E+01
  9.957E+00  5.887E-01  8.849E-02 6.9392780E+00 -1.4215479E+01 -3.1498905E+01
  1.000E+01  5.217E-01  1.218E-01 7.0549207E+00 -1.6577201E+01 -3.0440578E+01
  9.957E+00  5.438E-01  1.101E-01 7.0343698E+00 -1.5768502E+01 -3.0748708E+01
  1.000E+01  4.786E-01  1.467E-01 7.2175490E+00 -1.8071509E+01 -2.9575950E+01
  9.957E+00  5.000E-01  1.340E-01 7.1175859E+00 -1.7268757E+01 -2.9914641E+01
  1.000E+01  4.367E-01  1.738E-01 7.2673264E+00 -1.9529008E+01 -2.8642902E+01
  9.957E+00  4.575E-01  1.600E-01 7.2662169E+00 -1.8744411E+01 -2.9022527E+01
  1.000E+01  3.962E-01  2.029E-01 7.3585328E+00 -2.0929812E+01 -2.7631282E+01
  9.957E+00  4.163E-01  1.881E-01 7.2946182E+00 -2.0168455E+01 -2.8051983E+01
  1.000E+01  3.572E-01  2.340E-01 7.4144855E+00 -2.2281546E+01 -2.6554226E+01
  9.957E+00  3.765E-01  2.182E-01 7.3904625E+00 -2.1539801E+01 -2.7010368E+01
  1.000E+01  3.198E-01  2.669E-01 7.4188132E+00 -2.3577595E+01 -2.5410516E+01
  9.957E+00  3.383E-01  2.502E-01 7.4052892E+00 -2.2860501E+01 -2.5904033E+01
  1.000E+01  2.841E-01  3.018E-01 7.4516518E+00 -2.4814465E+01 -2.4203384E+01
  9.957E+00  3.018E-01  2.841E-01 7.4516552E+00 -2.4122636E+01 -2.4731678E+01
  1.000E+01  2.502E-01  3.383E-01 7.4052860E+00 -2.5990743E+01 -2.2937037E+01
  9.957E+00  2.669E-01  3.198E-01 7.4188179E+00 -2.5325714E+01 -2.3498926E+01
  1.000E+01  2.182E-01  3.765E-01 7.3904596E+00 -2.7100795E+01 -2.1611910E+01
  9.957E+00  2.340E-01  3.572E-01 7.4144899E+00 -2.6465639E+01 -2.2207209E+01
  1.000E+01  1.881E-01  4.163E-01 7.2946164E+00 -2.8145859E+01 -2.0235981E+01
  9.957E+00  2.029E-01  3.962E-01 7.3585374E+00 -2.7539065E+01 -2.0859983E+01
  1.000E+01  1.600E-01  4.575E-01 7.2662157E+00 -2.9119729E+01 -1.8807170E+01
  9.957E+00  1.738E-01  4.367E-01 7.2673302E+00 -2.8547341E+01 -1.9463862E+01
  1.000E+01  1.340E-01  5.000E-01 7.1175829E+00 -3.0014729E+01 -1.7326573E+01
  9.957E+00  1.467E-01  4.786E-01 7.2175519E+00 -2.9477283E+01 -1.8011219E+01
  1.000E+01  1.101E-01  5.438E-01 7.0343666E+00 -3.0851621E+01 -1.5821299E+01
  9.957E+00  1.218E-01  5.217E-01 7.0549237E+00 -3.0338935E+01 -1.6521897E+01
  1.000E+01  8.849E-02  5.887E-01 6.9392755E+00 -3.1604427E+01 -1.4263081E+01
  9.957E+00  9.903E-02  5.661E-01 6.9940357E+00 -3.1137410E+01 -1.5001591E+01
  1.000E+01  6.913E-02  6.347E-01 6.7635145E+00 -3.2253505E+01 -1.2641854E+01
  9.957E+00  7.852E-02  6.116E-01 6.8569609E+00 -3.1833235E+01 -1.3412004E+01
  1.000E+01  5.207E-02  6.815E-01 6.6516570E+00 -3.2844079E+01 -1.1021720E+01
  9.957E+00  6.031E-02  6.580E-01 6.6943934E+00 -3.2445117E+01 -1.1789074E+01
  1.000E+01  3.738E-02  7.292E-01 6.5684827E+00 -3.3380459E+01 -9.4088833E+00
  9.957E+00  4.443E-02  7.052E-01 6.6115862E+00 -3.3011520E+01 -1.0184059E+01
  1.000E+01  2.507E-02  7.775E-01 6.4608778E+00 -3.3816048E+01 -7.7461204E+00
  9.957E+00  3.092E-02  7.532E-01 6.5172985E+00 -3.3500713E+01 -8.5572933E+00
  1.000E+01  1.519E-02  8.264E-01 6.3510924E+00 -3.4144254E+01 -6.0300172E+00
  9.957E+00  1.983E-02  8.019E-01 6.4052832E+00 -3.3878549E+01 -6.8694121E+00
  1.000E+01  7.761E-03  8.757E-01 6.2654242E+00 -3.4388151E+01 -4.2981831E+00
  9.957E+00  1.117E-02  8.510E-01 6.3035090E+00 -3.4161442E+01 -5.1467508E+00
  1.000E+01  2.796E-03  9.253E-01 6.2108503E+00 -3.4557357E+01 -2.5743458E+00
  9.957E+00  4.969E-03  9.004E-01 6.2327904E+00 -3.4367268E+01 -3.4235920E+00
  1.000E+01  3.108E-04  9.751E-01 6.1851479E+00 -3.4645445E+01 -8.5747374E-01
  9.957E+00  1.243E-03  9.502E-01 6.1951294E+00 -3.4496547E+01 -1.7096431E+00
  1.000E+01  3.108E-04  1.025E+00 6.1851480E+00 -3.4645455E+01 8.5747369E-01
  9.957E+00  0.000E+00  1.000E+00 6.1837813E+00 -3.4541161E+01 9.0645277E-08
  1.000E+01  2.796E-03  1.075E+00 6.2108506E+00 -3.4557391E+01 2.5743458E+00
  9.957E+00  1.243E-03  1.050E+00 6.1951294E+00 -3.4496567E+01 1.7096433E+00
  1.000E+01  7.761E-03  1.124E+00 6.2654246E+00 -3.4388203E+01 4.2981830E+00
  9.957E+00  4.969E-03  1.100E+00 6.2327904E+00 -3.4367314E+01 3.4235923E+00
  1.000E+01  1.519E-02  1.174E+00 6.3510929E+00 -3.4144279E+01 6.0300171E+00
  9.957E+00  1.117E-02  1.149E+00 6.3035091E+00 -3.4161488E+01 5.1467511E+00
  1.000E+01  2.507E-02  1.223E+00 6.4608785E+00 -3.3815989E+01 7.7461204E+00
  9.957E+00  1.983E-02  1.198E+00 6.4052833E+00 -3.3878533E+01 6.8694122E+00
  1.000E+01  3.738E-02  1.271E+00 6.5684835E+00 -3.3380401E+01 9.4088838E+00
  9.957E+00  3.092E-02  1.247E+00 6.5172987E+00 -3.3500633E+01 8.5572938E+00
  1.000E+01  5.207E-02  1.318E+00 6.6516579E+00 -3.2844190E+01 1.1021721E+01
  9.957E+00  4.443E-02  1.295E+00 6.6115865E+00 -3.3011536E+01 1.0184060E+01
  1.000E+01  6.913E-02  1.365E+00 6.7635152E+00 -3.2253595E+01 1.2641855E+01
  9.957E+00  6.031E-02  1.342E+00 6.6943938E+00 -3.2445272E+01 1.1789075E+01
  1.000E+01  8.849E-02  1.411E+00 6.9392765E+00 -3.1604294E+01 1.4263081E+01
  9.957E+00  7.852E-02  1.388E+00 6.8569616E+00 -3.1833189E+01 1.3412005E+01
  1.000E+01  1.101E-01  1.456E+00 7.0343675E+00 -3.0851670E+01 1.5821299E+01
  9.957E+00  9.903E-02  1.434E+00 6.9940362E+00 -3.1137323E+01 1.5001592E+01
  1.000E+01  1.340E-01  1.500E+00 7.1175837E+00 -3.0014819E+01 1.7326575E+01
  9.957E+00  1.218E-01  1.478E+00 7.0549243E+00 -3.0339079E+01 1.6521900E+01
  1.000E+01  1.600E-01  1.543E+00 7.2662166E+00 -2.9119633E+01 1.8807168E+01
  9.957E+00  1.467E-01  1.521E+00 7.2175525E+00 -2.9477235E+01 1.8011218E+01
  1.000E+01  1.881E-01  1.584E+00 7.2946173E+00 -2.8145915E+01 2.0235984E+01
  9.957E+00  1.738E-01  1.563E+00 7.2673309E+00 -2.8547321E+01 1.9463863E+01
  1.000E+01  2.182E-01  1.623E+00 7.3904605E+00 -2.7100767E+01 2.1611910E+01
  9.957E+00  2.029E-01  1.604E+00 7.3585381E+00 -2.7539100E+01 2.0859985E+01
  1.000E+01  2.502E-01  1.662E+00 7.4052870E+00 -2.5990739E+01 2.2937039E+01
  9.957E+00  2.340E-01  1.643E+00 7.4144907E+00 -2.6465593E+01 2.2207209E+01
  1.000E+01  2.841E-01  1.698E+00 7.4516528E+00 -2.4814465E+01 2.4203384E+01
  9.957E+00  2.669E-01  1.680E+00 7.4188187E+00 -2.5325738E+01 2.3498928E+01
  1.000E+01  3.198E-01  1.733E+00 7.4188145E+00 -2.3577583E+01 2.5410517E+01
  9.957E+00  3.018E-01  1.716E+00 7.4516560E+00 -2.4122611E+01 2.4731678E+01
  1.000E+01  3.572E-01  1.766E+00 7.4144872E+00 -2.2281551E+01 2.6554227E+01
  9.957E+00  3.383E-01  1.750E+00 7.4052897E+00 -2.2860510E+01 2.5904035E+01
  1.000E+01  3.962E-01  1.797E+00 7.3585338E+00 -2.0929809E+01 2.7631283E+01
  9.957E+00  3.765E-01  1.782E+00 7.3904632E+00 -2.1539794E+01 2.7010369E+01
  1.000E+01  4.367E-01  1.826E+00 7.2673261E+00 -1.9529015E+01 2.8642904E+01
  9.957E+00  4.163E-01  1.812E+00 7.2946196E+00 -2.0168459E+01 2.8051984E+01
  1.000E+01  4.786E-01  1.853E+00 7.2175485E+00 -1.8071508E+01 2.9575952E+01
  9.957E+00  4.575E-01  1.840E+00 7.2662188E+00 -1.8744408E+01 2.9022528E+01
  1.000E+01  5.217E-01  1.878E+00 7.0549230E+00 -1.6577204E+01 3.0440580E+01
  9.957E+00  5.000E-01  1.866E+00 7.1175868E+00 -1.7268762E+01 2.9914642E+01
  1.000E+01  5.661E-01  1.901E+00 6.9940367E+00 -1.5051799E+01 3.1241604E+01
  9.957E+00  5.438E-01  1.890E+00 7.0343683E+00 -1.5768502E+01 3.0748709E+01
  1.000E+01  6.116E-01  1.921E+00 6.8569613E+00 -1.3456898E+01 3.1939785E+01
  9.957E+00  5.887E-01  1.912E+00 6.9392757E+00 -1.4215482E+01 3.1498905E+01
  1.000E+01  6.580E-01  1.940E+00 6.6943926E+00 -1.1828537E+01 3.2553826E+01
  9.957E+00  6.347E-01  1.931E+00 6.7635167E+00 -1.2599673E+01 3.2145950E+01
  1.000E+01  7.052E-01  1.956E+00 6.6115843E+00 -1.0218154E+01 3.3122053E+01
  9.957E+00  6.815E-01  1.948E+00 6.6516616E+00 -1.0984944E+01 3.2734568E+01
  1.000E+01  7.532E-01  1.969E+00 6.5172951E+00 -8.5859401E+00 3.3612819E+01
  9.957E+00  7.292E-01  1.963E+00 6.5684862E+00 -9.3774816E+00 3.3269046E+01
  1.000E+01  8.019E-01  1.980E+00 6.4052809E+00 -6.8924094E+00 3.3991957E+01
  9.957E+00  7.775E-01  1.975E+00 6.4608788E+00 -7.7202634E+00 3.3703171E+01
  1.000E+01  8.510E-01  1.989E+00 6.3035100E+00 -5.1639815E+00 3.4275850E+01
  9.957E+00  8.264E-01  1.985E+00 6.3510919E+00 -6.0098921E+00 3.4030345E+01
  1.000E+01  9.004E-01  1.995E+00 6.2327933E+00 -3.4350540E+00 3.4482366E+01
  9.957E+00  8.757E-01  1.992E+00 6.2654241E+00 -4.2838398E+00 3.4273466E+01
  1.000E+01  9.502E-01  1.999E+00 6.1951321E+00 -1.7153671E+00 3.4612044E+01
  9.957E+00  9.253E-01  1.997E+00 6.2108498E+00 -2.5657575E+00 3.4442086E+01
  1.000E+01  1.000E+00  2.000E+00 6.1837823E+00 1.6319556E-06 3.4656774E+01
  9.957E+00  9.751E-01  2.000E+00 6.1851457E+00 -8.5461210E-01 3.4529842E+01
  1.000E+01  1.050E+00  1.999E+00 6.1951321E+00 1.7153656E+00 3.4612044E+01
  9.957E+00  1.025E+00  2.000E+00 6.1851457E+00 8.5461350E-01 3.4529842E+01
  1.000E+01  1.100E+00  1.995E+00 6.2327931E+00 3.4350554E+00 3.4482366E+01
  9.957E+00  1.075E+00  1.997E+00 6.2108497E+00 2.5657560E+00 3.4442086E+01
  1.000E+01  1.149E+00  1.989E+00 6.3035098E+00 5.1639829E+00 3.4275850E+01
  9.957E+00  1.124E+00  1.992E+00 6.2654240E+00 4.2838429E+00 3.4273465E+01