# TIME = 5.300000
variables = x, y, z
zone N=5762 E=11520 F=FEPOINT ET=TRIANGLE
 5.9119592E+00 1.4266638E+00 1.6900711E+00
 5.9119592E+00 1.4266637E+00 3.0992903E-01
 5.9119592E+00 5.7333458E-01 1.6900717E+00
 5.9119592E+00 5.7333464E-01 3.0992846E-01
 4.4172026E+00 9.9999938E-01 1.6798310E+00
 7.3952304E+00 9.9999936E-01 1.6576298E+00
 4.4172022E+00 9.9999937E-01 3.2016842E-01
 7.3952303E+00 9.9999935E-01 3.4237042E-01
 5.0798462E+00 1.8448430E+00 1.0000000E+00
 5.0798462E+00 1.5515688E-01 1.0000000E+00
 6.7361211E+00 1.8146376E+00 1.0000000E+00
 6.7361212E+00 1.8535976E-01 1.0000000E+00
 5.8599974E+00 1.4184508E+00 1.6941680E+00
 5.8025431E+00 1.4095014E+00 1.6989842E+00
 5.7423453E+00 1.4003727E+00 1.7044096E+00
 5.6795759E+00 1.3910641E+00 1.7106164E+00
 5.6144602E+00 1.3815967E+00 1.7177206E+00
 5.5472684E+00 1.3719268E+00 1.7258143E+00
 5.4782933E+00 1.3619668E+00 1.7349155E+00
 5.4078897E+00 1.3515709E+00 1.7449420E+00
 5.3364557E+00 1.3405359E+00 1.7556817E+00
 5.2644060E+00 1.3286094E+00 1.7667798E+00
 5.1921426E+00 1.3155071E+00 1.7777434E+00
 5.1200398E+00 1.3009386E+00 1.7879648E+00
 5.0484515E+00 1.2846377E+00 1.7967607E+00
 4.9777334E+00 1.2663940E+00 1.8034235E+00
 4.9082700E+00 1.2460807E+00 1.8072790E+00
 4.8404933E+00 1.2236752E+00 1.8077484E+00
 4.7748838E+00 1.1992691E+00 1.8044027E+00
 4.7119534E+00 1.1730639E+00 1.7970035E+00
 4.6522141E+00 1.1453553E+00 1.7855216E+00
 4.5961381E+00 1.1165082E+00 1.7701315E+00
 4.5441428E+00 1.0869443E+00 1.7511974E+00
 4.4965439E+00 1.0571142E+00 1.7292203E+00
 4.4536478E+00 1.0275865E+00 1.7048669E+00
 5.8540875E+00 6.1109824E-01 1.7110527E+00
 5.7947619E+00 6.2172982E-01 1.7163244E+00
 5.7330939E+00 6.3215264E-01 1.7220019E+00
 5.6692885E+00 6.4261938E-01 1.7283673E+00
 5.6033823E+00 6.5331240E-01 1.7356303E+00
 5.5355964E+00 6.6432111E-01 1.7438772E+00
 5.4662211E+00 6.7576094E-01 1.7531040E+00
 5.3956219E+00 6.8778490E-01 1.7631889E+00
 5.3242112E+00 7.0059469E-01 1.7738745E+00
 5.2524110E+00 7.1442790E-01 1.7847609E+00
 5.1806230E+00 7.2953778E-01 1.7953167E+00
 5.1092170E+00 7.4616605E-01 1.8049100E+00
 5.0385411E+00 7.6451474E-01 1.8128511E+00
 4.9689451E+00 7.8471983E-01 1.8184473E+00
 4.9008054E+00 8.0683114E-01 1.8210608E+00
 4.8345398E+00 8.3080143E-01 1.8201669E+00
 4.7706053E+00 8.5648728E-01 1.8154020E+00
 4.7094744E+00 8.8366017E-01 1.8065939E+00
 4.6515944E+00 9.1201916E-01 1.7937654E+00
 4.5973044E+00 9.4119430E-01 1.7770954E+00
 4.5467035E+00 9.7073398E-01 1.7568194E+00
 4.4994809E+00 9.9999938E-01 1.7330609E+00
 5.8520477E+00 6.4149726E-01 1.7268154E+00
 5.7904393E+00 6.5382246E-01 1.7323573E+00
 5.7272720E+00 6.6556793E-01 1.7381274E+00
 5.6622313E+00 6.7733247E-01 1.7445633E+00
 5.5953668E+00 6.8936585E-01 1.7518741E+00
 5.5268148E+00 7.0182369E-01 1.7601510E+00
 5.4568651E+00 7.1483647E-01 1.7693625E+00
 5.3858922E+00 7.2856662E-01 1.7793513E+00
 5.3143231E+00 7.4321063E-01 1.7898170E+00
 5.2425883E+00 7.5898732E-01 1.8003170E+00
 5.1710918E+00 7.7611452E-01 1.8102847E+00
 5.1002009E+00 7.9478278E-01 1.8190667E+00
 5.0302600E+00 8.1513057E-01 1.8259711E+00
 4.9616133E+00 8.3722425E-01 1.8303240E+00
 4.8946274E+00 8.6104681E-01 1.8315266E+00
 4.8297001E+00 8.8649723E-01 1.8291087E+00
 4.7672479E+00 9.1339967E-01 1.8227663E+00
 4.7076577E+00 9.4151373E-01 1.8123714E+00
 4.6511804E+00 9.7052553E-01 1.7979326E+00
 4.5977551E+00 9.9999938E-01 1.7794817E+00
 4.5467035E+00 1.0292648E+00 1.7568195E+00
 5.8507047E+00 6.7341449E-01 1.7416917E+00
 5.7876462E+00 6.8708267E-01 1.7471698E+00
 5.7231346E+00 7.0016811E-01 1.7528932E+00
 5.6569795E+00 7.1327059E-01 1.7592609E+00
 5.5891592E+00 7.2671881E-01 1.7664894E+00
 5.5198297E+00 7.4068881E-01 1.7746486E+00
 5.4492823E+00 7.5532934E-01 1.7836821E+00
 5.3779128E+00 7.7080413E-01 1.7933959E+00
 5.3061636E+00 7.8730017E-01 1.8034491E+00
 5.2344747E+00 8.0501123E-01 1.8133601E+00
 5.1632524E+00 8.2411505E-01 1.8225330E+00
 5.0928623E+00 8.4474901E-01 1.8303005E+00
 5.0236438E+00 8.6699028E-01 1.8359764E+00
 4.9559319E+00 8.9084352E-01 1.8389132E+00
 4.8900751E+00 9.1623903E-01 1.8385561E+00
 4.8264321E+00 9.4304014E-01 1.8344872E+00
 4.7653307E+00 9.7105070E-01 1.8264444E+00
 4.7069630E+00 9.9999938E-01 1.8142955E+00
 4.6511803E+00 1.0294732E+00 1.7979327E+00
 4.5973043E+00 1.0588045E+00 1.7770957E+00
 5.8496217E+00 7.0691874E-01 1.7555536E+00
 5.7853954E+00 7.2179553E-01 1.7607801E+00
 5.7197739E+00 7.3615958E-01 1.7662921E+00
 5.6526313E+00 7.5061492E-01 1.7724500E+00
 5.5839724E+00 7.6549911E-01 1.7794432E+00
 5.5139664E+00 7.8100368E-01 1.7873187E+00
 5.4429295E+00 7.9728131E-01 1.7959898E+00
 5.3712774E+00 8.1449215E-01 1.8052274E+00
 5.2994683E+00 8.3280593E-01 1.8146532E+00
 5.2279494E+00 8.5238555E-01 1.8237538E+00
 5.1571272E+00 8.7336481E-01 1.8319135E+00
 5.0873619E+00 8.9582813E-01 1.8384624E+00
 5.0189831E+00 9.1979734E-01 1.8427315E+00
 4.9523069E+00 9.4522802E-01 1.8441081E+00
 4.8876441E+00 9.7201526E-01 1.8420832E+00
 4.8252707E+00 9.9999938E-01 1.8362802E+00
 4.7653307E+00 1.0289481E+00 1.8264445E+00
 4.7076576E+00 1.0584850E+00 1.8123717E+00
 4.6515943E+00 1.0879796E+00 1.7937658E+00
 5.8486437E+00 7.4204041E-01 1.7682515E+00
 5.7833931E+00 7.5803235E-01 1.7730749E+00
 5.7168264E+00 7.7363143E-01 1.7782281E+00
 5.6488577E+00 7.8942157E-01 1.7840247E+00
 5.5795224E+00 8.0573153E-01 1.7906195E+00
 5.5090142E+00 8.2275195E-01 1.7980309E+00
 5.4376725E+00 8.4063291E-01 1.8061417E+00
 5.3659328E+00 8.5952296E-01 1.8146898E+00
 5.2942647E+00 8.7956857E-01 1.8232660E+00
 5.2231180E+00 9.0089705E-01 1.8313348E+00
 5.1528943E+00 9.2359723E-01 1.8382727E+00
 5.0839421E+00 9.4770498E-01 1.8434201E+00
 5.0165710E+00 9.7319791E-01 1.8461357E+00
 4.9510605E+00 9.9999938E-01 1.8458465E+00
 4.8876441E+00 1.0279835E+00 1.8420833E+00
 4.8264320E+00 1.0569586E+00 1.8344874E+00
 4.7672479E+00 1.0865991E+00 1.8227667E+00
 4.7094743E+00 1.1163387E+00 1.8065944E+00
 5.8477414E+00 7.7871465E-01 1.7796043E+00
 5.7815957E+00 7.9574855E-01 1.7838910E+00
 5.7142413E+00 8.1253715E-01 1.7885441E+00
 5.6456249E+00 8.2962380E-01 1.7938248E+00
 5.5758073E+00 8.4731728E-01 1.7998513E+00
 5.5050062E+00 8.6579812E-01 1.8066122E+00
 5.4335819E+00 8.8520669E-01 1.8139611E+00
 5.3619843E+00 9.0567420E-01 1.8216077E+00
 5.2906885E+00 9.2731922E-01 1.8291204E+00
 5.2201403E+00 9.5023196E-01 1.8359529E+00
 5.1507288E+00 9.7445960E-01 1.8414866E+00
 5.0827813E+00 9.9999938E-01 1.8450834E+00
 5.0165710E+00 1.0268009E+00 1.8461357E+00
 4.9523069E+00 1.0547708E+00 1.8441083E+00
 4.8900751E+00 1.0837598E+00 1.8385564E+00
 4.8297000E+00 1.1135016E+00 1.8291091E+00
 4.7706052E+00 1.1435116E+00 1.8154026E+00
 5.8469369E+00 8.1680756E-01 1.7894226E+00
 5.7800396E+00 8.3481412E-01 1.7930498E+00
 5.7120703E+00 8.5273140E-01 1.7970640E+00
 5.6430008E+00 8.7105225E-01 1.8016744E+00
 5.5729136E+00 8.9005529E-01 1.8069627E+00
 5.5020465E+00 9.0990465E-01 1.8128888E+00
 5.4307753E+00 9.3072555E-01 1.8192810E+00
 5.3595574E+00 9.5262778E-01 1.8258274E+00
 5.2888658E+00 9.7570045E-01 1.8320838E+00
 5.2191339E+00 9.9999938E-01 1.8375046E+00
 5.1507288E+00 1.0255392E+00 1.8414866E+00
 5.0839421E+00 1.0522938E+00 1.8434202E+00
 5.0189830E+00 1.0802014E+00 1.8427316E+00
 4.9559319E+00 1.1091553E+00 1.8389134E+00
 4.8946274E+00 1.1389520E+00 1.8315270E+00
 4.8345397E+00 1.1691974E+00 1.8201675E+00
 5.8462592E+00 8.5613826E-01 1.7975271E+00
 5.7787746E+00 8.7503396E-01 1.8003794E+00
 5.7103795E+00 8.9399773E-01 1.8036209E+00
 5.6410648E+00 9.1346222E-01 1.8074116E+00
 5.5709308E+00 9.3366846E-01 1.8117988E+00
 5.5002301E+00 9.5475897E-01 1.8167173E+00
 5.4293470E+00 9.7684028E-01 1.8219748E+00
 5.3587385E+00 9.9999937E-01 1.8272460E+00
 5.2888658E+00 1.0242983E+00 1.8320839E+00
 5.2201403E+00 1.0497668E+00 1.8359530E+00
 5.1528942E+00 1.0764015E+00 1.8382727E+00
 5.0873619E+00 1.1041706E+00 1.8384625E+00
 5.0236437E+00 1.1330085E+00 1.8359766E+00
 4.9616132E+00 1.1627746E+00 1.8303243E+00
 4.9008054E+00 1.1931677E+00 1.8210613E+00
 5.8457314E+00 8.9648280E-01 1.8037591E+00
 5.7778422E+00 9.1616360E-01 1.8057310E+00
 5.7092224E+00 9.3606686E-01 1.8080758E+00
 5.6398782E+00 9.5655559E-01 1.8109084E+00
 5.5699231E+00 9.7782729E-01 1.8142467E+00
 5.4996178E+00 9.9999937E-01 1.8180042E+00
 5.4293470E+00 1.0231585E+00 1.8219748E+00
 5.3595574E+00 1.0473710E+00 1.8258274E+00
 5.2906885E+00 1.0726795E+00 1.8291204E+00
 5.2231180E+00 1.0991017E+00 1.8313349E+00
 5.1571272E+00 1.1266340E+00 1.8319136E+00
 5.0928623E+00 1.1552498E+00 1.8303007E+00
 5.0302599E+00 1.1848683E+00 1.8259715E+00
 4.9689450E+00 1.2152790E+00 1.8184478E+00
 5.8453706E+00 9.3758008E-01 1.8079898E+00
 5.7772714E+00 9.5792122E-01 1.8089901E+00
 5.7086349E+00 9.7863253E-01 1.8103290E+00
 5.6394786E+00 9.9999936E-01 1.8120834E+00
 5.5699231E+00 1.0221714E+00 1.8142466E+00
 5.5002301E+00 1.0452398E+00 1.8167173E+00
 5.4307752E+00 1.0692732E+00 1.8192810E+00
 5.3619843E+00 1.0943245E+00 1.8216077E+00
 5.2942647E+00 1.1204302E+00 1.8232660E+00
 5.2279494E+00 1.1476132E+00 1.8237539E+00
 5.1632524E+00 1.1758837E+00 1.8225332E+00
 5.1002008E+00 1.2052160E+00 1.8190670E+00
 5.0385411E+00 1.2354841E+00 1.8128515E+00
 5.8451876E+00 9.7914077E-01 1.8101286E+00
 5.7770793E+00 9.9999935E-01 1.8100847E+00
 5.7086349E+00 1.0213662E+00 1.8103290E+00
 5.6398782E+00 1.0434431E+00 1.8109084E+00
 5.5709308E+00 1.0663303E+00 1.8117988E+00
 5.5020465E+00 1.0900941E+00 1.8128888E+00
 5.4335819E+00 1.1147921E+00 1.8139611E+00
 5.3659328E+00 1.1404758E+00 1.8146898E+00
 5.2994683E+00 1.1671928E+00 1.8146533E+00
 5.2344747E+00 1.1949876E+00 1.8133603E+00
 5.1710917E+00 1.2238843E+00 1.8102849E+00
 5.1092169E+00 1.2538328E+00 1.8049103E+00
 5.8451876E+00 1.0208579E+00 1.8101285E+00
 5.7772714E+00 1.0420775E+00 1.8089901E+00
 5.7092224E+00 1.0639318E+00 1.8080757E+00
 5.6410647E+00 1.0865365E+00 1.8074115E+00
 5.5729136E+00 1.1099434E+00 1.8069626E+00
 5.5050062E+00 1.1342006E+00 1.8066122E+00
 5.4376725E+00 1.1593658E+00 1.8061417E+00
 5.3712774E+00 1.1855066E+00 1.8052275E+00
 5.3061636E+00 1.2126986E+00 1.8034492E+00
 5.2425883E+00 1.2410115E+00 1.8003172E+00
 5.1806229E+00 1.2704611E+00 1.7953170E+00
 5.8453706E+00 1.0624186E+00 1.8079897E+00
 5.7778422E+00 1.0838351E+00 1.8057310E+00
 5.7103795E+00 1.1060010E+00 1.8036208E+00
 5.6430008E+00 1.1289465E+00 1.8016743E+00
 5.5758073E+00 1.1526814E+00 1.7998513E+00
 5.5090141E+00 1.1772468E+00 1.7980309E+00
 5.4429295E+00 1.2027174E+00 1.7959898E+00
 5.3779128E+00 1.2291946E+00 1.7933960E+00
 5.3143230E+00 1.2567882E+00 1.7898171E+00
 5.2524109E+00 1.2855709E+00 1.7847611E+00
 5.8457314E+00 1.1035159E+00 1.8037590E+00
 5.7787746E+00 1.1249647E+00 1.8003793E+00
 5.7120703E+00 1.1472673E+00 1.7970638E+00
 5.6456249E+00 1.1703749E+00 1.7938247E+00
 5.5795224E+00 1.1942672E+00 1.7906194E+00
 5.5139664E+00 1.2189950E+00 1.7873187E+00
 5.4492822E+00 1.2446694E+00 1.7836821E+00
 5.3858921E+00 1.2714321E+00 1.7793514E+00
 5.3242112E+00 1.2994041E+00 1.7738746E+00
 5.8462591E+00 1.1438604E+00 1.7975270E+00
 5.7800396E+00 1.1651845E+00 1.7930496E+00
 5.7142413E+00 1.1874615E+00 1.7885440E+00
 5.6488576E+00 1.2105771E+00 1.7840245E+00
 5.5839723E+00 1.2344996E+00 1.7794430E+00
 5.5198297E+00 1.2593099E+00 1.7746485E+00
 5.4568650E+00 1.2851623E+00 1.7693625E+00
 5.3956219E+00 1.3122139E+00 1.7631889E+00
 5.8469369E+00 1.1831911E+00 1.7894224E+00
 5.7815957E+00 1.2042501E+00 1.7838908E+00
 5.7168264E+00 1.2263672E+00 1.7782279E+00
 5.6526313E+00 1.2493837E+00 1.7724498E+00
 5.5891592E+00 1.2732799E+00 1.7664893E+00
 5.5268148E+00 1.2981750E+00 1.7601510E+00
 5.4662210E+00 1.3242378E+00 1.7531040E+00
 5.8477414E+00 1.2212840E+00 1.7796040E+00
 5.7833931E+00 1.2419663E+00 1.7730747E+00
 5.7197738E+00 1.2638391E+00 1.7662918E+00
 5.6569795E+00 1.2867281E+00 1.7592607E+00
 5.5953667E+00 1.3106328E+00 1.7518739E+00
 5.5355963E+00 1.3356776E+00 1.7438771E+00
 5.8486437E+00 1.2579582E+00 1.7682511E+00
 5.7853954E+00 1.2782031E+00 1.7607798E+00
 5.7231346E+00 1.2998305E+00 1.7528929E+00
 5.6622312E+00 1.3226662E+00 1.7445630E+00
 5.6033823E+00 1.3466862E+00 1.7356301E+00
 5.8496216E+00 1.2930798E+00 1.7555533E+00
 5.7876462E+00 1.3129159E+00 1.7471695E+00
 5.7272719E+00 1.3344307E+00 1.7381271E+00
 5.6692885E+00 1.3573792E+00 1.7283671E+00
 5.8507047E+00 1.3265840E+00 1.7416913E+00
 5.7904393E+00 1.3461761E+00 1.7323570E+00
 5.7330938E+00 1.3678459E+00 1.7220016E+00
 5.8520477E+00 1.3585012E+00 1.7268150E+00
 5.7947619E+00 1.3782687E+00 1.7163240E+00
 5.8540875E+00 1.3889002E+00 1.7110522E+00
 5.9121442E+00 1.4012865E+00 1.7051226E+00
 5.9123610E+00 1.3724124E+00 1.7208054E+00
 5.9125000E+00 1.3417792E+00 1.7358454E+00
 5.9126009E+00 1.3093255E+00 1.7500787E+00
 5.9126804E+00 1.2751231E+00 1.7632989E+00
 5.9127485E+00 1.2392929E+00 1.7752895E+00
 5.9128082E+00 1.2019649E+00 1.7858502E+00
 5.9128595E+00 1.1633051E+00 1.7947926E+00
 5.9129013E+00 1.1235202E+00 1.8019463E+00
 5.9129322E+00 1.0828538E+00 1.8071671E+00
 5.9129512E+00 1.0415811E+00 1.8103455E+00
 5.9129576E+00 9.9999935E-01 1.8114127E+00
 5.9129512E+00 9.5841762E-01 1.8103455E+00
 5.9129322E+00 9.1714487E-01 1.8071673E+00
 5.9129013E+00 8.7647849E-01 1.8019465E+00
 5.9128595E+00 8.3669355E-01 1.7947929E+00
 5.9128082E+00 7.9803377E-01 1.7858505E+00
 5.9127485E+00 7.6070575E-01 1.7752899E+00
 5.9126803E+00 7.2487543E-01 1.7632993E+00
 5.9126009E+00 6.9067304E-01 1.7500791E+00
 5.9124999E+00 6.5821930E-01 1.7358459E+00
 5.9123610E+00 6.2758609E-01 1.7208059E+00
 5.9121442E+00 5.9871188E-01 1.7051231E+00
 5.9640192E+00 5.8052141E-01 1.6958401E+00
 6.0213903E+00 5.8847050E-01 1.7023818E+00
 6.0812751E+00 5.9681160E-01 1.7092920E+00
 6.1434434E+00 6.0566877E-01 1.7164942E+00
 6.2076844E+00 6.1513226E-01 1.7238396E+00
 6.2737614E+00 6.2532365E-01 1.7311671E+00
 6.3414634E+00 6.3636753E-01 1.7382950E+00
 6.4105385E+00 6.4838712E-01 1.7450269E+00
 6.4806956E+00 6.6149696E-01 1.7511570E+00
 6.5515944E+00 6.7579683E-01 1.7564756E+00
 6.6228495E+00 6.9136806E-01 1.7607736E+00
 6.6940388E+00 7.0827039E-01 1.7638469E+00
 6.7647159E+00 7.2654010E-01 1.7654995E+00
 6.8344261E+00 7.4618806E-01 1.7655475E+00
 6.9027239E+00 7.6719842E-01 1.7638227E+00
 6.9691901E+00 7.8952765E-01 1.7601793E+00
 7.0334448E+00 8.1310474E-01 1.7544993E+00
 7.0951538E+00 8.3783234E-01 1.7466995E+00
 7.1540255E+00 8.6358824E-01 1.7367378E+00
 7.2098038E+00 8.9023028E-01 1.7246198E+00
 7.2622340E+00 9.1758406E-01 1.7104138E+00
 7.3110873E+00 9.4544918E-01 1.6942396E+00
 7.3560342E+00 9.7345455E-01 1.6763327E+00
 5.9702688E+00 1.3900202E+00 1.7129417E+00
 6.0294029E+00 1.3803372E+00 1.7200001E+00
 6.0906412E+00 1.3706006E+00 1.7271732E+00
 6.1537359E+00 1.3604612E+00 1.7344721E+00
 6.2186597E+00 1.3496602E+00 1.7418358E+00
 6.2852446E+00 1.3380540E+00 1.7491031E+00
 6.3532876E+00 1.3255195E+00 1.7560830E+00
 6.4225363E+00 1.3119511E+00 1.7625654E+00
 6.4926837E+00 1.2972549E+00 1.7683332E+00
 6.5633728E+00 1.2813542E+00 1.7731693E+00
 6.6342029E+00 1.2641924E+00 1.7768612E+00
 6.7047421E+00 1.2457357E+00 1.7792055E+00
 6.7745408E+00 1.2259752E+00 1.7800112E+00
 6.8431495E+00 1.2049274E+00 1.7791037E+00
 6.9101361E+00 1.1826339E+00 1.7763294E+00
 6.9751015E+00 1.1591597E+00 1.7715613E+00
 7.0376914E+00 1.1345891E+00 1.7647047E+00
 7.0976044E+00 1.1090224E+00 1.7557008E+00
 7.1545986E+00 1.0825781E+00 1.7445263E+00
 7.2085337E+00 1.0554105E+00 1.7311762E+00
 7.2594729E+00 1.0277379E+00 1.7156152E+00
 7.3078688E+00 9.9999935E-01 1.6976774E+00
 5.9726582E+00 1.3596170E+00 1.7288104E+00
 6.0339866E+00 1.3481925E+00 1.7362334E+00
 6.0966103E+00 1.3370492E+00 1.7435251E+00
 6.1608279E+00 1.3255204E+00 1.7508550E+00
 6.2266083E+00 1.3133033E+00 1.7581544E+00
 6.2938739E+00 1.3002161E+00 1.7652699E+00
 6.3624344E+00 1.2861446E+00 1.7719962E+00
 6.4320334E+00 1.2709963E+00 1.7781118E+00
 6.5023482E+00 1.2546972E+00 1.7833893E+00
 6.5730037E+00 1.2371927E+00 1.7876052E+00
 6.6435833E+00 1.2184505E+00 1.7905446E+00
 6.7136443E+00 1.1984632E+00 1.7920064E+00
 6.7827339E+00 1.1772481E+00 1.7918061E+00
 6.8504082E+00 1.1548466E+00 1.7897808E+00
 6.9162503E+00 1.1313211E+00 1.7857931E+00
 6.9798873E+00 1.1067487E+00 1.7797355E+00
 7.0410070E+00 1.0812146E+00 1.7715318E+00
 7.0993889E+00 1.0548123E+00 1.7611299E+00
 7.1549781E+00 1.0276671E+00 1.7484719E+00
 7.2080398E+00 9.9999935E-01 1.7334240E+00
 7.2594729E+00 9.7226080E-01 1.7156153E+00
 5.9742523E+00 1.3276425E+00 1.7437835E+00
 6.0369732E+00 1.3148086E+00 1.7512156E+00
 6.1008605E+00 1.3022466E+00 1.7584901E+00
 6.1661046E+00 1.2893059E+00 1.7657200E+00
 6.2327555E+00 1.2756266E+00 1.7728391E+00
 6.3007274E+00 1.2610304E+00 1.7796749E+00
 6.3698378E+00 1.2454076E+00 1.7860110E+00
 6.4398145E+00 1.2286824E+00 1.7916137E+00
 6.5103174E+00 1.2108006E+00 1.7962474E+00
 6.5809529E+00 1.1917308E+00 1.7996845E+00
 6.6512897E+00 1.1714656E+00 1.8017102E+00
 6.7208769E+00 1.1500232E+00 1.8021285E+00
 6.7892624E+00 1.1274450E+00 1.8007650E+00
 6.8560133E+00 1.1037925E+00 1.7974712E+00
 6.9207368E+00 1.0791399E+00 1.7921269E+00
 6.9831043E+00 1.0535650E+00 1.7846405E+00
 7.0428919E+00 1.0271485E+00 1.7749395E+00
 7.1000687E+00 9.9999935E-01 1.7629396E+00
 7.1549781E+00 9.7233164E-01 1.7484719E+00
 7.2085337E+00 9.4458822E-01 1.7311763E+00
 5.9755118E+00 1.2940549E+00 1.7577360E+00
 6.0393600E+00 1.2799258E+00 1.7649837E+00
 6.1042969E+00 1.2660026E+00 1.7720717E+00
 6.1704594E+00 1.2516440E+00 1.7790608E+00
 6.2378805E+00 1.2365015E+00 1.7858527E+00
 6.3064720E+00 1.2204021E+00 1.7922574E+00
 6.3760355E+00 1.2032523E+00 1.7980438E+00
 6.4462827E+00 1.1849942E+00 1.8029687E+00
 6.5168550E+00 1.1655957E+00 1.8067914E+00
 6.5873429E+00 1.1450494E+00 1.8092835E+00
 6.6573052E+00 1.1233730E+00 1.8102348E+00
 6.7262889E+00 1.1006078E+00 1.8094585E+00
 6.7938505E+00 1.0768148E+00 1.8067938E+00
 6.8595794E+00 1.0520663E+00 1.8021086E+00
 6.9231254E+00 1.0264368E+00 1.7952975E+00
 6.9842446E+00 9.9999935E-01 1.7862736E+00
 7.0428919E+00 9.7285023E-01 1.7749395E+00
 7.0993889E+00 9.4518639E-01 1.7611300E+00
 7.1545987E+00 9.1742060E-01 1.7445264E+00
 5.9766288E+00 1.2588330E+00 1.7705196E+00
 6.0414657E+00 1.2434893E+00 1.7774252E+00
 6.1072981E+00 1.2282440E+00 1.7841736E+00
 6.1742287E+00 1.2124918E+00 1.7907683E+00
 6.2422702E+00 1.1959113E+00 1.7970754E+00
 6.3113193E+00 1.1783502E+00 1.8028846E+00
 6.3811615E+00 1.1597343E+00 1.8079530E+00
 6.4514913E+00 1.1400277E+00 1.8120312E+00
 6.5219349E+00 1.1192216E+00 1.8148773E+00
 6.5920723E+00 1.0973328E+00 1.8162671E+00
 6.6614592E+00 1.0744018E+00 1.8159994E+00
 6.7296499E+00 1.0504885E+00 1.8139006E+00
 6.7962215E+00 1.0256638E+00 1.8098260E+00
 6.8608038E+00 9.9999935E-01 1.8036581E+00
 6.9231254E+00 9.7356185E-01 1.7952975E+00
 6.9831043E+00 9.4643368E-01 1.7846406E+00
 7.0410070E+00 9.1878406E-01 1.7715319E+00
 7.0976044E+00 8.9097626E-01 1.7557010E+00
 5.9776500E+00 1.2220465E+00 1.7819518E+00
 6.0433493E+00 1.2055520E+00 1.7883739E+00
 6.1099247E+00 1.1890279E+00 1.7946346E+00
 6.1774536E+00 1.1719257E+00 1.8006791E+00
 6.2459315E+00 1.1539622E+00 1.8063397E+00
 6.3152397E+00 1.1350131E+00 1.8113884E+00
 6.3851484E+00 1.1150278E+00 1.8155737E+00
 6.4553382E+00 1.0939939E+00 1.8186448E+00
 6.5254252E+00 1.0719262E+00 1.8203632E+00
 6.5949862E+00 1.0488639E+00 1.8205138E+00
 6.6635833E+00 1.0248653E+00 1.8189084E+00
 6.7307901E+00 9.9999935E-01 1.8153892E+00
 6.7962215E+00 9.7433489E-01 1.8098260E+00
 6.8595794E+00 9.4793235E-01 1.8021086E+00
 6.9207368E+00 9.2085882E-01 1.7921270E+00
 6.9798873E+00 8.9325000E-01 1.7797356E+00
 7.0376915E+00 8.6540962E-01 1.7647049E+00
 5.9785576E+00 1.1838309E+00 1.7918408E+00
 6.0449782E+00 1.1662483E+00 1.7976471E+00
 6.1121288E+00 1.1485052E+00 1.8032748E+00
 6.1800694E+00 1.1301206E+00 1.8086156E+00
 6.2487815E+00 1.1108589E+00 1.8134719E+00
 6.3181333E+00 1.0906279E+00 1.8176024E+00
 6.3878830E+00 1.0694031E+00 1.8207524E+00
 6.4577022E+00 1.0471957E+00 1.8226738E+00
 6.5272039E+00 1.0240424E+00 1.8231370E+00
 6.5959709E+00 9.9999935E-01 1.8219394E+00
 6.6635833E+00 9.7513345E-01 1.8189084E+00
 6.7296499E+00 9.4951022E-01 1.8139007E+00
 6.7938505E+00 9.2318390E-01 1.8067940E+00
 6.8560133E+00 8.9620614E-01 1.7974714E+00
 6.9162503E+00 8.6867757E-01 1.7857933E+00
 6.9751015E+00 8.4083901E-01 1.7715615E+00
 5.9793219E+00 1.1443685E+00 1.8000050E+00
 6.0463019E+00 1.1257762E+00 1.8050695E+00
 6.1138448E+00 1.1068961E+00 1.8099247E+00
 6.1819985E+00 1.0873246E+00 1.8144152E+00
 6.2507336E+00 1.0668797E+00 1.8183201E+00
 6.3199085E+00 1.0455042E+00 1.8213904E+00
 6.3892742E+00 1.0231998E+00 1.8233729E+00
 6.4584997E+00 9.9999935E-01 1.8240275E+00
 6.5272039E+00 9.7595633E-01 1.8231370E+00
 6.5949862E+00 9.5113476E-01 1.8205139E+00
 6.6614592E+00 9.2559688E-01 1.8159995E+00
 6.7262890E+00 8.9939086E-01 1.8094587E+00
 6.7892624E+00 8.7255370E-01 1.8007652E+00
 6.8504083E+00 8.4515206E-01 1.7897811E+00
 6.9101361E+00 8.1736476E-01 1.7763296E+00
 5.9799172E+00 1.1038847E+00 1.8062835E+00
 6.0472775E+00 1.0843828E+00 1.8104896E+00
 6.1150189E+00 1.0644734E+00 1.8144428E+00
 6.1831804E+00 1.0438388E+00 1.8179497E+00
 6.2517254E+00 1.0223546E+00 1.8207734E+00
 6.3205068E+00 9.9999935E-01 1.8226633E+00
 6.3892742E+00 9.7679893E-01 1.8233729E+00
 6.4577022E+00 9.5280302E-01 1.8226739E+00
 6.5254252E+00 9.2807245E-01 1.8203634E+00
 6.5920723E+00 9.0266585E-01 1.8162673E+00
 6.6573052E+00 8.7662568E-01 1.8102350E+00
 6.7208769E+00 8.4997551E-01 1.8021288E+00
 6.7827339E+00 8.2275059E-01 1.7918064E+00
 6.8431496E+00 7.9507125E-01 1.7791040E+00
 5.9803242E+00 1.0626423E+00 1.8105462E+00
 6.0478748E+00 1.0423534E+00 1.8137907E+00
 6.1156149E+00 1.0215475E+00 1.8167282E+00
 6.1835784E+00 9.9999935E-01 1.8191372E+00
 6.2517254E+00 9.7764409E-01 1.8207734E+00
 6.3199085E+00 9.5449447E-01 1.8213905E+00
 6.3878830E+00 9.3059559E-01 1.8207526E+00
 6.4553382E+00 9.0600481E-01 1.8186450E+00
 6.5219349E+00 8.8077703E-01 1.8148776E+00
 6.5873429E+00 8.5494921E-01 1.8092837E+00
 6.6512897E+00 8.2853300E-01 1.8017105E+00
 6.7136443E+00 8.0153541E-01 1.7920067E+00
 6.7745408E+00 7.7402341E-01 1.7800116E+00
 5.9805308E+00 1.0209329E+00 1.8127013E+00
 6.0480758E+00 9.9999935E-01 1.8148994E+00
 6.1156148E+00 9.7845122E-01 1.8167282E+00
 6.1831803E+00 9.5615985E-01 1.8179497E+00
 6.2507336E+00 9.3311897E-01 1.8183202E+00
 6.3181333E+00 9.0937075E-01 1.8176026E+00
 6.3851484E+00 8.8497084E-01 1.8155740E+00
 6.4514913E+00 8.5997091E-01 1.8120315E+00
 6.5168550E+00 8.3440291E-01 1.8067917E+00
 6.5809529E+00 8.0826784E-01 1.7996848E+00
 6.6435833E+00 7.8154805E-01 1.7905450E+00
 6.7047421E+00 7.5426287E-01 1.7792059E+00
 5.9805308E+00 9.7906579E-01 1.8127013E+00
 6.0478748E+00 9.5764526E-01 1.8137907E+00
 6.1150189E+00 9.3552526E-01 1.8144430E+00
 6.1819984E+00 9.1267404E-01 1.8144154E+00
 6.2487815E+00 8.8913978E-01 1.8134721E+00
 6.3152397E+00 8.6498555E-01 1.8113886E+00
 6.3811615E+00 8.4026430E-01 1.8079533E+00
 6.4462827E+00 8.1500445E-01 1.8029690E+00
 6.5103174E+00 7.8919797E-01 1.7962478E+00
 6.5730037E+00 7.6280591E-01 1.7876056E+00
 6.6342029E+00 7.3580617E-01 1.7768616E+00
 5.9803242E+00 9.3735638E-01 1.8105463E+00
 6.0472775E+00 9.1561585E-01 1.8104897E+00
 6.1138448E+00 8.9310257E-01 1.8099249E+00
 6.1800693E+00 8.6987806E-01 1.8086158E+00
 6.2459315E+00 8.4603644E-01 1.8063400E+00
 6.3113193E+00 8.2164843E-01 1.8028850E+00
 6.3760355E+00 7.9674634E-01 1.7980441E+00
 6.4398145E+00 7.7131618E-01 1.7916141E+00
 6.5023482E+00 7.4530135E-01 1.7833897E+00
 6.5633728E+00 7.1864429E-01 1.7731698E+00
 5.9799172E+00 8.9611403E-01 1.8062837E+00
 6.0463019E+00 8.7422247E-01 1.8050697E+00
 6.1121288E+00 8.5149344E-01 1.8032751E+00
 6.1774535E+00 8.2807296E-01 1.8006794E+00
 6.2422701E+00 8.0408735E-01 1.7970758E+00
 6.3064720E+00 7.7959649E-01 1.7922579E+00
 6.3698378E+00 7.5459100E-01 1.7860115E+00
 6.4320333E+00 7.2900223E-01 1.7781123E+00
 6.4926837E+00 7.0274360E-01 1.7683337E+00
 5.9793219E+00 8.5563020E-01 1.8000052E+00
 6.0449782E+00 8.3375030E-01 1.7976473E+00
 6.1099247E+00 8.1097070E-01 1.7946349E+00
 6.1742287E+00 7.8750682E-01 1.7907687E+00
 6.2378804E+00 7.6349710E-01 1.7858532E+00
 6.3007273E+00 7.3896810E-01 1.7796754E+00
 6.3624344E+00 7.1385388E-01 1.7719967E+00
 6.4225363E+00 6.8804743E-01 1.7625659E+00
 5.9785576E+00 8.1616778E-01 1.7918411E+00
 6.0433493E+00 7.9444659E-01 1.7883742E+00
 6.1072980E+00 7.7175457E-01 1.7841740E+00
 6.1704594E+00 7.4835456E-01 1.7790613E+00
 6.2327554E+00 7.2437192E-01 1.7728396E+00
 6.2938738E+00 6.9978239E-01 1.7652705E+00
 6.3532876E+00 6.7447894E-01 1.7560836E+00
 5.9776500E+00 7.7795215E-01 1.7819521E+00
 6.0414657E+00 7.5650928E-01 1.7774256E+00
 6.1042969E+00 7.3399591E-01 1.7720722E+00
 6.1661046E+00 7.1069266E-01 1.7657205E+00
 6.2266083E+00 6.8669520E-01 1.7581550E+00
 6.2852446E+00 6.6194446E-01 1.7491037E+00
 5.9766288E+00 7.4116558E-01 1.7705200E+00
 6.0393600E+00 7.2007275E-01 1.7649841E+00
 6.1008605E+00 6.9775188E-01 1.7584907E+00
 6.1608278E+00 6.7447807E-01 1.7508556E+00
 6.2186597E+00 6.5033825E-01 1.7418364E+00
 5.9755118E+00 7.0594367E-01 1.7577365E+00
 6.0369731E+00 6.8518991E-01 1.7512161E+00
 6.0966102E+00 6.6294923E-01 1.7435256E+00
 6.1537358E+00 6.3953719E-01 1.7344727E+00
 5.9742523E+00 6.7235596E-01 1.7437840E+00
 6.0339866E+00 6.5180592E-01 1.7362339E+00
 6.0906412E+00 6.2939780E-01 1.7271738E+00
 5.9726582E+00 6.4038144E-01 1.7288109E+00
 6.0294029E+00 6.1966121E-01 1.7200007E+00
 5.9702688E+00 6.0997826E-01 1.7129422E+00
 5.8800296E+00 1.4463344E+00 1.6768705E+00
 5.8445292E+00 1.4679236E+00 1.6615954E+00
 5.8074690E+00 1.4900883E+00 1.6450361E+00
 5.7690246E+00 1.5127179E+00 1.6271761E+00
 5.7293044E+00 1.5357440E+00 1.6079774E+00
 5.6885338E+00 1.5590837E+00 1.5873998E+00
 5.6469339E+00 1.5826539E+00 1.5653868E+00
 5.6047519E+00 1.6063475E+00 1.5418821E+00
 5.5622708E+00 1.6300287E+00 1.5168319E+00
 5.5198049E+00 1.6535279E+00 1.4901926E+00
 5.4776898E+00 1.6766420E+00 1.4619374E+00
 5.4362671E+00 1.6991381E+00 1.4320645E+00
 5.3958695E+00 1.7207621E+00 1.4006062E+00
 5.3568053E+00 1.7412509E+00 1.3676351E+00
 5.3193468E+00 1.7603474E+00 1.3332690E+00
 5.2837221E+00 1.7778152E+00 1.2976706E+00
 5.2501108E+00 1.7934536E+00 1.2610428E+00
 5.2186471E+00 1.8071066E+00 1.2236204E+00
 5.1894278E+00 1.8186695E+00 1.1856613E+00
 5.1625321E+00 1.8280894E+00 1.1474367E+00
 5.1380458E+00 1.8353603E+00 1.1092438E+00
 5.1160198E+00 1.8405240E+00 1.0713710E+00
 5.0965069E+00 1.8436631E+00 1.0343065E+00
 4.4452160E+00 1.0801746E+00 1.6953928E+00
 4.4374740E+00 1.1324219E+00 1.6821310E+00
 4.4324123E+00 1.1857706E+00 1.6660341E+00
 4.4308462E+00 1.2402656E+00 1.6472878E+00
 4.4332666E+00 1.2956110E+00 1.6259026E+00
 4.4400273E+00 1.3513277E+00 1.6018674E+00
 4.4513911E+00 1.4068214E+00 1.5752004E+00
 4.4675428E+00 1.4614197E+00 1.5459831E+00
 4.4885737E+00 1.5143942E+00 1.5143762E+00
 4.5144593E+00 1.5649916E+00 1.4806271E+00
 4.5450427E+00 1.6124735E+00 1.4450679E+00
 4.5800272E+00 1.6561637E+00 1.4081087E+00
 4.6189826E+00 1.6954951E+00 1.3702219E+00
 4.6613653E+00 1.7300533E+00 1.3319201E+00
 4.7065505E+00 1.7596076E+00 1.2937276E+00
 4.7538741E+00 1.7841248E+00 1.2561498E+00
 4.8026768E+00 1.8037629E+00 1.2196440E+00
 4.8523443E+00 1.8188456E+00 1.1845948E+00
 4.9023283E+00 1.8298213E+00 1.1512971E+00
 4.9521605E+00 1.8372200E+00 1.1199263E+00
 5.0014447E+00 1.8416118E+00 1.0904626E+00
 5.0497629E+00 1.8435724E+00 1.0625574E+00
 4.4906557E+00 1.1121617E+00 1.7195016E+00
 4.4856455E+00 1.1663572E+00 1.7060418E+00
 4.4831995E+00 1.2207641E+00 1.6895360E+00
 4.4842835E+00 1.2757107E+00 1.6702217E+00
 4.4894454E+00 1.3310171E+00 1.6481384E+00
 4.4990099E+00 1.3862285E+00 1.6232798E+00
 4.5131782E+00 1.4407392E+00 1.5956760E+00
 4.5320553E+00 1.4938545E+00 1.5654353E+00
 4.5556424E+00 1.5448374E+00 1.5327589E+00
 4.5838195E+00 1.5929526E+00 1.4979438E+00
 4.6163364E+00 1.6375147E+00 1.4613759E+00
 4.6528151E+00 1.6779360E+00 1.4235164E+00
 4.6927662E+00 1.7137709E+00 1.3848797E+00
 4.7356187E+00 1.7447486E+00 1.3460065E+00
 4.7807579E+00 1.7707897E+00 1.3074305E+00
 4.8275693E+00 1.7920040E+00 1.2696473E+00
 4.8754786E+00 1.8086683E+00 1.2330839E+00
 4.9239836E+00 1.8211916E+00 1.1980667E+00
 4.9726644E+00 1.8300752E+00 1.1647660E+00
 5.0211534E+00 1.8358759E+00 1.1330961E+00
 5.0691201E+00 1.8391735E+00 1.1024451E+00
 4.5406571E+00 1.1429811E+00 1.7409296E+00
 4.5382545E+00 1.1980819E+00 1.7269955E+00
 4.5384333E+00 1.2530111E+00 1.7099067E+00
 4.5421809E+00 1.3080328E+00 1.6898688E+00
 4.5500503E+00 1.3629667E+00 1.6669232E+00
 4.5623238E+00 1.4173449E+00 1.6410760E+00
 4.5791345E+00 1.4705425E+00 1.6123852E+00
 4.6005074E+00 1.5218567E+00 1.5810005E+00
 4.6263564E+00 1.5705643E+00 1.5471755E+00
 4.6564754E+00 1.6159750E+00 1.5112650E+00
 4.6905375E+00 1.6574821E+00 1.4737115E+00
 4.7281072E+00 1.6946091E+00 1.4350254E+00
 4.7686659E+00 1.7270443E+00 1.3957563E+00
 4.8116469E+00 1.7546614E+00 1.3564603E+00
 4.8564767E+00 1.7775202E+00 1.3176657E+00
 4.9026163E+00 1.7958496E+00 1.2798379E+00
 4.9495934E+00 1.8100170E+00 1.2433396E+00
 4.9970095E+00 1.8204929E+00 1.2083703E+00
 5.0445096E+00 1.8278223E+00 1.1748346E+00
 5.0917075E+00 1.8325899E+00 1.1421740E+00
 4.5949699E+00 1.1727978E+00 1.7590636E+00
 4.5950962E+00 1.2281336E+00 1.7444153E+00
 4.5978732E+00 1.2830440E+00 1.7265498E+00
 4.6042596E+00 1.3376822E+00 1.7056248E+00
 4.6147625E+00 1.3918088E+00 1.6816751E+00
 4.6296020E+00 1.4449274E+00 1.6547284E+00
 4.6488377E+00 1.4964034E+00 1.6248834E+00
 4.6724149E+00 1.5455462E+00 1.5923428E+00
 4.7001690E+00 1.5916738E+00 1.5574193E+00
 4.7318236E+00 1.6341691E+00 1.5205269E+00
 4.7669987E+00 1.6725287E+00 1.4821602E+00
 4.8052306E+00 1.7064018E+00 1.4428678E+00
 4.8460031E+00 1.7356139E+00 1.4032182E+00
 4.8887856E+00 1.7601723E+00 1.3637640E+00
 4.9330733E+00 1.7802532E+00 1.3250034E+00
 4.9784188E+00 1.7961763E+00 1.2873387E+00
 5.0244403E+00 1.8083751E+00 1.2510082E+00
 5.0707781E+00 1.8173727E+00 1.2159718E+00
 5.1170028E+00 1.8237542E+00 1.1817564E+00
 4.6532888E+00 1.2014154E+00 1.7734445E+00
 4.6558650E+00 1.2564734E+00 1.7578740E+00
 4.6611888E+00 1.3108739E+00 1.7390629E+00