# TIME = 7.100000
variables = x, y, z
zone N=5762 E=11520 F=FEPOINT ET=TRIANGLE
 6.2153730E+00 1.4257870E+00 1.6886355E+00
 6.2153730E+00 1.4257869E+00 3.1136471E-01
 6.2153730E+00 5.7421144E-01 1.6886362E+00
 6.2153730E+00 5.7421146E-01 3.1136398E-01
 4.7194523E+00 9.9999946E-01 1.6812065E+00
 7.6995512E+00 9.9999942E-01 1.6571263E+00
 4.7194522E+00 9.9999945E-01 3.1879344E-01
 7.6995511E+00 9.9999942E-01 3.4287389E-01
 5.3795526E+00 1.8483461E+00 1.0000001E+00
 5.3795526E+00 1.5165365E-01 1.0000001E+00
 7.0397444E+00 1.8116176E+00 1.0000001E+00
 7.0397445E+00 1.8838018E-01 1.0000001E+00
 6.1628439E+00 1.4176701E+00 1.6929996E+00
 6.1047486E+00 1.4088356E+00 1.6981393E+00
 6.0439295E+00 1.3998547E+00 1.7039219E+00
 5.9805754E+00 1.3907297E+00 1.7105174E+00
 5.9149011E+00 1.3814744E+00 1.7180424E+00
 5.8471764E+00 1.3720352E+00 1.7265865E+00
 5.7777172E+00 1.3623153E+00 1.7361579E+00
 5.7069120E+00 1.3521580E+00 1.7466569E+00
 5.6351904E+00 1.3413486E+00 1.7578484E+00
 5.5629893E+00 1.3296232E+00 1.7693525E+00
 5.4907197E+00 1.3166887E+00 1.7806539E+00
 5.4187512E+00 1.3022503E+00 1.7911296E+00
 5.3474211E+00 1.2860413E+00 1.8000910E+00
 5.2770591E+00 1.2678536E+00 1.8068346E+00
 5.2080175E+00 1.2475628E+00 1.8106981E+00
 5.1406931E+00 1.2251476E+00 1.8111175E+00
 5.0755328E+00 1.2006978E+00 1.8076769E+00
 5.0130211E+00 1.1744109E+00 1.8001460E+00
 4.9536502E+00 1.1465777E+00 1.7884978E+00
 4.8978766E+00 1.1175579E+00 1.7729016E+00
 4.8461021E+00 1.0877701E+00 1.7537079E+00
 4.7986376E+00 1.0576706E+00 1.7314010E+00
 4.7558205E+00 1.0278541E+00 1.7066518E+00
 6.1568500E+00 6.1205097E-01 1.7100117E+00
 6.0968665E+00 6.2261125E-01 1.7156394E+00
 6.0345723E+00 6.3292878E-01 1.7217046E+00
 5.9701825E+00 6.4323434E-01 1.7284759E+00
 5.9037243E+00 6.5372161E-01 1.7361669E+00
 5.8354324E+00 6.6450217E-01 1.7448658E+00
 5.7656229E+00 6.7570983E-01 1.7545610E+00
 5.6946901E+00 6.8751052E-01 1.7651127E+00
 5.6230705E+00 7.0011577E-01 1.7762398E+00
 5.5512008E+00 7.1377059E-01 1.7875179E+00
 5.4794852E+00 7.2873292E-01 1.7983957E+00
 5.4082833E+00 7.4524630E-01 1.8082295E+00
 5.3379226E+00 7.6351265E-01 1.8163280E+00
 5.2687240E+00 7.8366791E-01 1.8220059E+00
 5.2010303E+00 8.0576403E-01 1.8246387E+00
 5.1352246E+00 8.2975903E-01 1.8237152E+00
 5.0717312E+00 8.5551647E-01 1.8188817E+00
 5.0109925E+00 8.8281151E-01 1.8099673E+00
 4.9534245E+00 9.1133797E-01 1.7969849E+00
 4.8993346E+00 9.4071284E-01 1.7800904E+00
 4.8488139E+00 9.7047797E-01 1.7594953E+00
 4.8016051E+00 9.9999946E-01 1.7353250E+00
 6.1547538E+00 6.4261865E-01 1.7258522E+00
 6.0923860E+00 6.5492585E-01 1.7317831E+00
 6.0285205E+00 6.6660911E-01 1.7379668E+00
 5.9628549E+00 6.7823322E-01 1.7448261E+00
 5.8954435E+00 6.9006809E-01 1.7525750E+00
 5.8264342E+00 7.0230311E-01 1.7613089E+00
 5.7561335E+00 7.1509275E-01 1.7709878E+00
 5.6849335E+00 7.2861257E-01 1.7814357E+00
 5.6132751E+00 7.4306620E-01 1.7923287E+00
 5.5415940E+00 7.5867638E-01 1.8032018E+00
 5.4702887E+00 7.7566262E-01 1.8134725E+00
 5.3997099E+00 7.9421609E-01 1.8224808E+00
 5.3301754E+00 8.1447670E-01 1.8295381E+00
 5.2619962E+00 8.3651531E-01 1.8339811E+00
 5.1955018E+00 8.6032403E-01 1.8352245E+00
 5.1310504E+00 8.8581411E-01 1.8328084E+00
 5.0690165E+00 9.1281888E-01 1.8264294E+00
 5.0097377E+00 9.4109402E-01 1.8159446E+00
 4.9534136E+00 9.7030511E-01 1.8013299E+00
 4.8999684E+00 9.9999946E-01 1.7825805E+00
 4.8488139E+00 1.0295210E+00 1.7594954E+00
 6.1533714E+00 6.7466180E-01 1.7407622E+00
 6.0894791E+00 6.8835571E-01 1.7466470E+00
 6.0242122E+00 7.0141403E-01 1.7528005E+00
 5.9574078E+00 7.1439440E-01 1.7596043E+00
 5.8890570E+00 7.2765333E-01 1.7672803E+00
 5.8193245E+00 7.4140829E-01 1.7759017E+00
 5.7485095E+00 7.5583481E-01 1.7854020E+00
 5.6770151E+00 7.7110929E-01 1.7955678E+00
 5.6052876E+00 7.8742373E-01 1.8060356E+00
 5.5337637E+00 8.0497365E-01 1.8163048E+00
 5.4628361E+00 8.2393748E-01 1.8257677E+00
 5.3928465E+00 8.4445451E-01 1.8337554E+00
 5.3241019E+00 8.6660753E-01 1.8395886E+00
 5.2568983E+00 8.9041248E-01 1.8426314E+00
 5.1915403E+00 9.1581569E-01 1.8423390E+00
 5.1283344E+00 9.4269480E-01 1.8382949E+00
 5.0675452E+00 9.7085383E-01 1.8302215E+00
 5.0092955E+00 9.9999945E-01 1.8179506E+00
 4.9534136E+00 1.0296938E+00 1.8013299E+00
 4.8993346E+00 1.0592861E+00 1.7800905E+00
 6.1522936E+00 7.0822690E-01 1.7546155E+00
 6.0872104E+00 7.2315334E-01 1.7602533E+00
 6.0208123E+00 7.3750898E-01 1.7662008E+00
 5.9530154E+00 7.5185298E-01 1.7728017E+00
 5.8838457E+00 7.6655587E-01 1.7802500E+00
 5.8134809E+00 7.8185357E-01 1.7885930E+00
 5.7422392E+00 7.9792607E-01 1.7977320E+00
 5.6705359E+00 8.1494518E-01 1.8074179E+00
 5.5988253E+00 8.3308452E-01 1.8172517E+00
 5.5275431E+00 8.5250835E-01 1.8267038E+00
 5.4570746E+00 8.7335265E-01 1.8351505E+00
 5.3877499E+00 8.9570784E-01 1.8419233E+00
 5.3198595E+00 9.1960783E-01 1.8463608E+00
 5.2536736E+00 9.4502608E-01 1.8478591E+00
 5.1894464E+00 9.7187523E-01 1.8459110E+00
 5.1273821E+00 9.9999945E-01 1.8401276E+00
 5.0675452E+00 1.0291451E+00 1.8302215E+00
 5.0097377E+00 1.0589049E+00 1.8159446E+00
 4.9534245E+00 1.0886609E+00 1.7969849E+00
 6.1513549E+00 7.4334087E-01 1.7672721E+00
 6.0852538E+00 7.5938379E-01 1.7725028E+00
 6.0179102E+00 7.7497392E-01 1.7780897E+00
 5.9492915E+00 7.9065352E-01 1.7843328E+00
 5.8794626E+00 8.0678637E-01 1.7913894E+00
 5.8086264E+00 8.2360697E-01 1.7992747E+00
 5.7371207E+00 8.4129113E-01 1.8078572E+00
 5.6653745E+00 8.5999797E-01 1.8168549E+00
 5.5938464E+00 8.7987778E-01 1.8258394E+00
 5.5229674E+00 9.0106094E-01 1.8342615E+00
 5.4531114E+00 9.2364260E-01 1.8414920E+00
 5.3845904E+00 9.4767095E-01 1.8468733E+00
 5.3176679E+00 9.7314228E-01 1.8497689E+00
 5.2525665E+00 9.9999944E-01 1.8496076E+00
 5.1894464E+00 1.0281237E+00 1.8459110E+00
 5.1283344E+00 1.0573041E+00 1.8382949E+00
 5.0690165E+00 1.0871800E+00 1.8264294E+00
 5.0109924E+00 1.1171874E+00 1.8099674E+00
 6.1504996E+00 7.7994249E-01 1.7785628E+00
 6.0835177E+00 7.9700947E-01 1.7832489E+00
 6.0153920E+00 8.1377273E-01 1.7883316E+00
 5.9461320E+00 8.3074075E-01 1.7940620E+00
 5.8758340E+00 8.4825758E-01 1.8005581E+00
 5.8047252E+00 8.6654441E-01 1.8078013E+00
 5.7331608E+00 8.8576465E-01 1.8156292E+00
 5.6615787E+00 9.0605929E-01 1.8237316E+00
 5.5904361E+00 9.2755220E-01 1.8316592E+00
 5.5201536E+00 9.5034060E-01 1.8388535E+00
 5.4510862E+00 9.7448427E-01 1.8446907E+00
 5.3835182E+00 9.9999944E-01 1.8485319E+00
 5.3176679E+00 1.0268566E+00 1.8497689E+00
 5.2536736E+00 1.0549728E+00 1.8478591E+00
 5.1915402E+00 1.0841832E+00 1.8423390E+00
 5.1310503E+00 1.1141848E+00 1.8328085E+00
 5.0717312E+00 1.1444824E+00 1.8188818E+00
 6.1497346E+00 8.1790322E-01 1.7883089E+00
 6.0820124E+00 8.3591227E-01 1.7923283E+00
 6.0132770E+00 8.5377746E-01 1.7967696E+00
 5.9435692E+00 8.7196611E-01 1.8018350E+00
 5.8730105E+00 8.9079112E-01 1.8076028E+00
 5.8018475E+00 9.1045272E-01 1.8140225E+00
 5.7304467E+00 9.3109627E-01 1.8209043E+00
 5.6592478E+00 9.5284158E-01 1.8279171E+00
 5.5886992E+00 9.7578637E-01 1.8345997E+00
 5.5192030E+00 9.9999944E-01 1.8403943E+00
 5.4510862E+00 1.0255146E+00 1.8446907E+00
 5.3845903E+00 1.0523279E+00 1.8468733E+00
 5.3198595E+00 1.0803911E+00 1.8463608E+00
 5.2568983E+00 1.1095864E+00 1.8426314E+00
 5.1955018E+00 1.1396749E+00 1.8352246E+00
 5.1352246E+00 1.1702399E+00 1.8237153E+00
 6.1490848E+00 8.5704910E-01 1.7963413E+00
 6.0807818E+00 8.7591021E-01 1.7995823E+00
 6.0116235E+00 8.9479029E-01 1.8032523E+00
 5.9416736E+00 9.1410745E-01 1.8075063E+00
 5.8710728E+00 9.3413555E-01 1.8123857E+00
 5.8000798E+00 9.5504825E-01 1.8178112E+00
 5.7290650E+00 9.7696996E-01 1.8235718E+00
 5.6584612E+00 9.9999944E-01 1.8293227E+00
 5.5886992E+00 1.0242125E+00 1.8345997E+00
 5.5201536E+00 1.0496583E+00 1.8388535E+00
 5.4531114E+00 1.0763563E+00 1.8414920E+00
 5.3877499E+00 1.1042910E+00 1.8419233E+00
 5.3241018E+00 1.1333914E+00 1.8395886E+00
 5.2619962E+00 1.1634836E+00 1.8339811E+00
 5.2010303E+00 1.1942349E+00 1.8246387E+00
 6.1485750E+00 8.9716554E-01 1.8025104E+00
 6.0798699E+00 9.1677299E-01 1.8048723E+00
 6.0104876E+00 9.3656050E-01 1.8076515E+00
 5.9405089E+00 9.5688897E-01 1.8109592E+00
 5.8700864E+00 9.7798728E-01 1.8148042E+00
 5.7994833E+00 9.9999943E-01 1.8190838E+00
 5.7290650E+00 1.0230289E+00 1.8235718E+00
 5.6592478E+00 1.0471573E+00 1.8279171E+00
 5.5904361E+00 1.0724467E+00 1.8316592E+00
 5.5229674E+00 1.0989379E+00 1.8342615E+00
 5.4570746E+00 1.1266462E+00 1.8351505E+00
 5.3928465E+00 1.1555444E+00 1.8337554E+00
 5.3301754E+00 1.1855222E+00 1.8295381E+00
 5.2687239E+00 1.2163310E+00 1.8220060E+00
 6.1482246E+00 9.3800276E-01 1.8066949E+00
 6.0793095E+00 9.5823353E-01 1.8080915E+00
 6.0099095E+00 9.7880012E-01 1.8098751E+00
 5.9401160E+00 9.9999943E-01 1.8121188E+00
 5.8700863E+00 1.0220116E+00 1.8148042E+00
 5.8000798E+00 1.0449506E+00 1.8178112E+00
 5.7304467E+00 1.0689026E+00 1.8209043E+00
 5.6615787E+00 1.0939396E+00 1.8237316E+00
 5.5938463E+00 1.1201211E+00 1.8258394E+00
 5.5275430E+00 1.1474905E+00 1.8267038E+00
 5.4628361E+00 1.1760614E+00 1.8257677E+00
 5.3997098E+00 1.2057828E+00 1.8224808E+00
 5.3379226E+00 1.2364862E+00 1.8163280E+00
 6.1480462E+00 9.7928389E-01 1.8088092E+00
 6.0791206E+00 9.9999942E-01 1.8091722E+00
 6.0099095E+00 1.0211987E+00 1.8098751E+00
 5.9405089E+00 1.0431099E+00 1.8109592E+00
 5.8710728E+00 1.0658633E+00 1.8123856E+00
 5.8018475E+00 1.0895461E+00 1.8140224E+00
 5.7331608E+00 1.1142342E+00 1.8156291E+00
 5.6653745E+00 1.1400009E+00 1.8168549E+00
 5.5988253E+00 1.1669143E+00 1.8172517E+00
 5.5337637E+00 1.1950252E+00 1.8163048E+00
 5.4702887E+00 1.2243363E+00 1.8134725E+00
 5.4082833E+00 1.2547526E+00 1.8082295E+00
 6.1480462E+00 1.0207149E+00 1.8088092E+00
 6.0793095E+00 1.0417653E+00 1.8080914E+00
 6.0104876E+00 1.0634383E+00 1.8076514E+00
 5.9416736E+00 1.0858914E+00 1.8075062E+00
 5.8730105E+00 1.1092077E+00 1.8076027E+00
 5.8047251E+00 1.1334544E+00 1.8078012E+00
 5.7371206E+00 1.1587077E+00 1.8078571E+00
 5.6705359E+00 1.1850537E+00 1.8074179E+00
 5.6052876E+00 1.2125751E+00 1.8060356E+00
 5.5415940E+00 1.2413225E+00 1.8032018E+00
 5.4794851E+00 1.2712660E+00 1.7983957E+00
 6.1482246E+00 1.0619961E+00 1.8066948E+00
 6.0798699E+00 1.0832258E+00 1.8048722E+00
 6.0116235E+00 1.1052085E+00 1.8032521E+00
 5.9435692E+00 1.1280327E+00 1.8018348E+00
 5.8758339E+00 1.1517413E+00 1.8005580E+00
 5.8086263E+00 1.1763919E+00 1.7992745E+00
 5.7422391E+00 1.2020728E+00 1.7977319E+00
 5.6770150E+00 1.2288896E+00 1.7955677E+00
 5.6132750E+00 1.2569327E+00 1.7923286E+00
 5.5512007E+00 1.2862283E+00 1.7875179E+00
 6.1485750E+00 1.1028333E+00 1.8025102E+00
 6.0807818E+00 1.1240886E+00 1.7995821E+00
 6.0132770E+00 1.1462213E+00 1.7967694E+00
 5.9461320E+00 1.1692581E+00 1.7940618E+00
 5.8794626E+00 1.1932124E+00 1.7913892E+00
 5.8134809E+00 1.2181453E+00 1.7885929E+00
 5.7485094E+00 1.2441640E+00 1.7854018E+00
 5.6849335E+00 1.2713863E+00 1.7814356E+00
 5.6230704E+00 1.2998831E+00 1.7762398E+00
 6.1490848E+00 1.1429497E+00 1.7963411E+00
 6.0820124E+00 1.1640865E+00 1.7923281E+00
 6.0153920E+00 1.1862261E+00 1.7883313E+00
 5.9492914E+00 1.2093453E+00 1.7843326E+00
 5.8838457E+00 1.2334429E+00 1.7802498E+00
 5.8193245E+00 1.2585905E+00 1.7759015E+00
 5.7561334E+00 1.2849061E+00 1.7709877E+00
 5.6946900E+00 1.3124883E+00 1.7651126E+00
 6.1497346E+00 1.1820956E+00 1.7883086E+00
 6.0835176E+00 1.2029893E+00 1.7832486E+00
 6.0179102E+00 1.2250248E+00 1.7780894E+00
 5.9530154E+00 1.2481458E+00 1.7728015E+00
 5.8890569E+00 1.2723454E+00 1.7672801E+00
 5.8264341E+00 1.2976957E+00 1.7613087E+00
 5.7656228E+00 1.3242890E+00 1.7545609E+00
 6.1504996E+00 1.2200562E+00 1.7785624E+00
 6.0852537E+00 1.2406149E+00 1.7725024E+00
 6.0208122E+00 1.2624898E+00 1.7662005E+00
 5.9574077E+00 1.2856043E+00 1.7596039E+00
 5.8954435E+00 1.3099307E+00 1.7525748E+00
 5.8354324E+00 1.3354966E+00 1.7448656E+00
 6.1513549E+00 1.2566578E+00 1.7672717E+00
 6.0872104E+00 1.2768454E+00 1.7602529E+00
 6.0242121E+00 1.2985847E+00 1.7528001E+00
 5.9628549E+00 1.3217655E+00 1.7448258E+00
 5.9037243E+00 1.3462771E+00 1.7361666E+00
 6.1522936E+00 1.2917718E+00 1.7546150E+00
 6.0894791E+00 1.3116430E+00 1.7466466E+00
 6.0285205E+00 1.3333896E+00 1.7379664E+00
 5.9701824E+00 1.3567643E+00 1.7284756E+00
 6.1533714E+00 1.3253368E+00 1.7407617E+00
 6.0923860E+00 1.3450728E+00 1.7317827E+00
 6.0345723E+00 1.3670698E+00 1.7217041E+00
 6.1547538E+00 1.3573799E+00 1.7258517E+00
 6.0968665E+00 1.3773873E+00 1.7156389E+00
 6.1568500E+00 1.3879476E+00 1.7100111E+00
 6.2155658E+00 1.4002671E+00 1.7037642E+00
 6.2158186E+00 1.3712437E+00 1.7195117E+00
 6.2160034E+00 1.3405012E+00 1.7345799E+00
 6.2161442E+00 1.3079921E+00 1.7488043E+00
 6.2162536E+00 1.2737918E+00 1.7619857E+00
 6.2163435E+00 1.2380198E+00 1.7739169E+00
 6.2164197E+00 1.2008039E+00 1.7844065E+00
 6.2164841E+00 1.1623070E+00 1.7932750E+00
 6.2165361E+00 1.1227296E+00 1.8003605E+00
 6.2165745E+00 1.0823063E+00 1.8055267E+00
 6.2165980E+00 1.0413011E+00 1.8086697E+00
 6.2166059E+00 9.9999942E-01 1.8097248E+00
 6.2165980E+00 9.5869769E-01 1.8086698E+00
 6.2165745E+00 9.1769251E-01 1.8055268E+00
 6.2165361E+00 8.7726921E-01 1.8003607E+00
 6.2164841E+00 8.3769175E-01 1.7932753E+00
 6.2164197E+00 7.9919483E-01 1.7844068E+00
 6.2163435E+00 7.6197889E-01 1.7739173E+00
 6.2162536E+00 7.2620686E-01 1.7619862E+00
 6.2161442E+00 6.9200656E-01 1.7488048E+00
 6.2160034E+00 6.5949740E-01 1.7345804E+00
 6.2158186E+00 6.2875484E-01 1.7195123E+00
 6.2155658E+00 5.9973140E-01 1.7037649E+00
 6.2679743E+00 5.8157682E-01 1.6942124E+00
 6.3258891E+00 5.8969700E-01 1.7005577E+00
 6.3862057E+00 5.9817808E-01 1.7072688E+00
 6.4486655E+00 6.0714279E-01 1.7142725E+00
 6.5130674E+00 6.1668237E-01 1.7214267E+00
 6.5791904E+00 6.2691784E-01 1.7285784E+00
 6.6468339E+00 6.3797062E-01 1.7355530E+00
 6.7157579E+00 6.4996066E-01 1.7421615E+00
 6.7856883E+00 6.6300056E-01 1.7482052E+00
 6.8563058E+00 6.7719018E-01 1.7534806E+00
 6.9272466E+00 6.9261285E-01 1.7577830E+00
 6.9981091E+00 7.0933226E-01 1.7609106E+00
 7.0684658E+00 7.2739045E-01 1.7626672E+00
 7.1378804E+00 7.4680598E-01 1.7628669E+00
 7.2059253E+00 7.6757285E-01 1.7613375E+00
 7.2721984E+00 7.8965959E-01 1.7579271E+00
 7.3363341E+00 8.1300945E-01 1.7525094E+00
 7.3980067E+00 8.3754122E-01 1.7449910E+00
 7.4569268E+00 8.6315100E-01 1.7353179E+00
 7.5128377E+00 8.8971831E-01 1.7234814E+00
 7.5654878E+00 9.1709053E-01 1.7095298E+00
 7.6146491E+00 9.4507379E-01 1.6935575E+00
 7.6599694E+00 9.7326482E-01 1.6757801E+00
 6.2743359E+00 1.3887884E+00 1.7113735E+00
 6.3340197E+00 1.3789097E+00 1.7182367E+00
 6.3956704E+00 1.3690103E+00 1.7252140E+00
 6.4590265E+00 1.3587643E+00 1.7323085E+00
 6.5240760E+00 1.3479089E+00 1.7394682E+00
 6.5906596E+00 1.3362901E+00 1.7465455E+00
 6.6585855E+00 1.3237795E+00 1.7533613E+00
 6.7276187E+00 1.3102714E+00 1.7597147E+00
 6.7974751E+00 1.2956730E+00 1.7653962E+00
 6.8678225E+00 1.2799078E+00 1.7701944E+00
 6.9382845E+00 1.2629165E+00 1.7739008E+00
 7.0084509E+00 1.2446609E+00 1.7763135E+00
 7.0778924E+00 1.2251244E+00 1.7772411E+00
 7.1461784E+00 1.2043132E+00 1.7765063E+00
 7.2128942E+00 1.1822552E+00 1.7739511E+00
 7.2776568E+00 1.1589983E+00 1.7694415E+00
 7.3401246E+00 1.1346089E+00 1.7628729E+00
 7.4000071E+00 1.1091714E+00 1.7541719E+00
 7.4570767E+00 1.0827952E+00 1.7432951E+00
 7.5112135E+00 1.0556308E+00 1.7302104E+00
 7.5624885E+00 1.0278879E+00 1.7148555E+00
 7.6113176E+00 9.9999942E-01 1.6970529E+00
 6.2768548E+00 1.3582333E+00 1.7272893E+00
 6.3388105E+00 1.3465756E+00 1.7345189E+00
 6.4018832E+00 1.3352465E+00 1.7416143E+00
 6.4663654E+00 1.3236138E+00 1.7487307E+00
 6.5322351E+00 1.3113638E+00 1.7558118E+00
 6.5994301E+00 1.2982940E+00 1.7627226E+00
 6.6677821E+00 1.2842794E+00 1.7692728E+00
 6.7370631E+00 1.2692254E+00 1.7752519E+00
 6.8069815E+00 1.2530586E+00 1.7804411E+00
 6.8771928E+00 1.2357235E+00 1.7846233E+00
 6.9473083E+00 1.2171846E+00 1.7875875E+00
 7.0169105E+00 1.1974275E+00 1.7891341E+00
 7.0855697E+00 1.1764591E+00 1.7890781E+00
 7.1528634E+00 1.1543057E+00 1.7872531E+00
 7.2183943E+00 1.1310103E+00 1.7835157E+00
 7.2818092E+00 1.1066276E+00 1.7777482E+00
 7.3428178E+00 1.0812232E+00 1.7698580E+00
 7.4012309E+00 1.0548819E+00 1.7597675E+00
 7.4570343E+00 1.0277335E+00 1.7473836E+00
 7.5105103E+00 9.9999942E-01 1.7325388E+00
 7.5624885E+00 9.7211098E-01 1.7148555E+00
 6.2785693E+00 1.3261537E+00 1.7422735E+00
 6.3419666E+00 1.3130644E+00 1.7495062E+00
 6.4063260E+00 1.3003058E+00 1.7565760E+00
 6.4718240E+00 1.2872706E+00 1.7635802E+00
 6.5385183E+00 1.2735817E+00 1.7704676E+00
 6.6063457E+00 1.2590334E+00 1.7770870E+00
 6.6751566E+00 1.2435016E+00 1.7832387E+00
 6.7447169E+00 1.2269071E+00 1.7887013E+00
 6.8147251E+00 1.2091947E+00 1.7932492E+00
 6.8848233E+00 1.1903305E+00 1.7966613E+00
 6.9546128E+00 1.1703016E+00 1.7987273E+00
 7.0236717E+00 1.1491156E+00 1.7992522E+00
 7.0915743E+00 1.1267988E+00 1.7980599E+00
 7.1579130E+00 1.1033915E+00 1.7949963E+00
 7.2223206E+00 1.0789428E+00 1.7899313E+00
 7.2844996E+00 1.0535073E+00 1.7827556E+00
 7.3442706E+00 1.0271541E+00 1.7733687E+00
 7.4016595E+00 9.9999942E-01 1.7616472E+00
 7.4570343E+00 9.7226538E-01 1.7473836E+00
 7.5112135E+00 9.4436805E-01 1.7302104E+00
 6.2798901E+00 1.2925276E+00 1.7561969E+00
 6.3444172E+00 1.2781445E+00 1.7632288E+00
 6.4098203E+00 1.2640343E+00 1.7700959E+00
 6.4762131E+00 1.2496026E+00 1.7768453E+00
 6.5436337E+00 1.2344793E+00 1.7833951E+00
 6.6120207E+00 1.2184609E+00 1.7895768E+00
 6.6812158E+00 1.2014377E+00 1.7951767E+00
 6.7509764E+00 1.1833466E+00 1.7999652E+00
 6.8209881E+00 1.1641526E+00 1.8037116E+00
 6.8908824E+00 1.1438432E+00 1.8061945E+00
 6.9602544E+00 1.1224264E+00 1.8072072E+00
 7.0286841E+00 1.0999285E+00 1.8065629E+00
 7.0957585E+00 1.0763887E+00 1.8040964E+00
 7.1610980E+00 1.0518530E+00 1.7996655E+00
 7.2243896E+00 1.0263701E+00 1.7931475E+00
 7.2854405E+00 9.9999942E-01 1.7844273E+00
 7.3442706E+00 9.7284473E-01 1.7733688E+00
 7.4012309E+00 9.4511696E-01 1.7597675E+00
 7.4570768E+00 9.1720359E-01 1.7432951E+00
 6.2810164E+00 1.2573371E+00 1.7689198E+00
 6.3465096E+00 1.2417650E+00 1.7755864E+00
 6.4127878E+00 1.2263643E+00 1.7820937E+00
 6.4799227E+00 1.2105739E+00 1.7884354E+00
 6.5479283E+00 1.1940486E+00 1.7944940E+00
 6.6167304E+00 1.1766051E+00 1.8000798E+00
 6.6861599E+00 1.1581524E+00 1.8049669E+00
 6.7559624E+00 1.1386475E+00 1.8089195E+00
 6.8258133E+00 1.1180760E+00 1.8117057E+00
 6.8953378E+00 1.0964456E+00 1.8131076E+00
 6.9641321E+00 1.0737820E+00 1.8129260E+00
 7.0317873E+00 1.0501237E+00 1.8109844E+00
 7.0979164E+00 1.0255147E+00 1.8071290E+00
 7.1621897E+00 9.9999942E-01 1.8012253E+00
 7.2243896E+00 9.7362870E-01 1.7931476E+00
 7.2844996E+00 9.4649153E-01 1.7827557E+00
 7.3428178E+00 9.1877563E-01 1.7698580E+00
 7.4000071E+00 8.9082743E-01 1.7541720E+00
 6.2820256E+00 1.2206483E+00 1.7802716E+00
 6.3483541E+00 1.2039719E+00 1.7864301E+00
 6.4153534E+00 1.1873418E+00 1.7924304E+00
 6.4830637E+00 1.1702477E+00 1.7982123E+00
 6.5514794E+00 1.1523815E+00 1.8036235E+00
 6.6205129E+00 1.1335890E+00 1.8084546E+00
 6.6899840E+00 1.1138028E+00 1.8124706E+00
 6.7596291E+00 1.0930013E+00 1.8154333E+00
 6.8291181E+00 1.0711900E+00 1.8171137E+00
 6.8980771E+00 1.0483936E+00 1.8173010E+00
 6.9661126E+00 1.0246494E+00 1.8158064E+00
 7.0328396E+00 9.9999942E-01 1.8124643E+00
 7.0979164E+00 9.7448410E-01 1.8071290E+00
 7.1610980E+00 9.4814582E-01 1.7996655E+00
 7.2223206E+00 9.2105600E-01 1.7899313E+00
 7.2818092E+00 8.9337127E-01 1.7777482E+00
 7.3401246E+00 8.6538997E-01 1.7628730E+00
 6.2829202E+00 1.1825919E+00 1.7900722E+00
 6.3499479E+00 1.1648883E+00 1.7955938E+00
 6.4175042E+00 1.1471009E+00 1.8009468E+00
 6.4856084E+00 1.1287779E+00 1.8060211E+00
 6.5542404E+00 1.1096586E+00 1.8106335E+00
 6.6233017E+00 1.0896228E+00 1.8145589E+00
 6.6926045E+00 1.0686292E+00 1.8175575E+00
 6.7618805E+00 1.0466770E+00 1.8193929E+00
 6.8308012E+00 1.0237886E+00 1.8198430E+00
 6.8990024E+00 9.9999941E-01 1.8187069E+00
 6.9661126E+00 9.7534942E-01 1.8158064E+00
 7.0317873E+00 9.4987511E-01 1.8109845E+00
 7.0957585E+00 9.2361015E-01 1.8040965E+00
 7.1579130E+00 8.9660729E-01 1.7949964E+00
 7.2183943E+00 8.6898853E-01 1.7835158E+00
 7.2776568E+00 8.4100048E-01 1.7694417E+00
 6.2836773E+00 1.1433434E+00 1.7981507E+00
 6.3512488E+00 1.1246992E+00 1.8029160E+00
 6.4191842E+00 1.1058430E+00 1.8074895E+00
 6.4874894E+00 1.0863894E+00 1.8117171E+00
 6.5561343E+00 1.0661310E+00 1.8153902E+00
 6.6250143E+00 1.0449849E+00 1.8182738E+00
 6.6939383E+00 1.0229353E+00 1.8201278E+00
 6.7626403E+00 9.9999941E-01 1.8207218E+00
 6.8308012E+00 9.7621025E-01 1.8198430E+00
 6.8980771E+00 9.5160522E-01 1.8173011E+00
 6.9641321E+00 9.2621683E-01 1.8129261E+00
 7.0286841E+00 9.0007033E-01 1.8065631E+00
 7.0915743E+00 8.7320004E-01 1.7980600E+00
 7.1528634E+00 8.4569307E-01 1.7872533E+00
 7.2128942E+00 8.1774364E-01 1.7739512E+00
 6.2842702E+00 1.1031187E+00 1.8043558E+00
 6.3522122E+00 1.0836375E+00 1.8082564E+00
 6.4203376E+00 1.0638215E+00 1.8119294E+00
 6.4886446E+00 1.0433592E+00 1.8151844E+00
 6.5570981E+00 1.0221003E+00 1.8177947E+00
 6.6255920E+00 9.9999941E-01 1.8195212E+00
 6.6939383E+00 9.7706352E-01 1.8201278E+00
 6.7618805E+00 9.5332180E-01 1.8193930E+00
 6.8291180E+00 9.2880885E-01 1.8171138E+00
 6.8953378E+00 9.0355326E-01 1.8131078E+00
 6.9602544E+00 8.7757237E-01 1.8072074E+00
 7.0236717E+00 8.5088319E-01 1.7992524E+00
 7.0855697E+00 8.2353973E-01 1.7890783E+00
 7.1461784E+00 7.9568558E-01 1.7765065E+00
 6.2846775E+00 1.0621691E+00 1.8085650E+00
 6.3528039E+00 1.0419725E+00 1.8115063E+00
 6.4209245E+00 1.0213269E+00 1.8141735E+00
 6.4890341E+00 9.9999941E-01 1.8163487E+00
 6.5570981E+00 9.7789852E-01 1.8177947E+00
 6.6250143E+00 9.5501392E-01 1.8182739E+00
 6.6926045E+00 9.3136959E-01 1.8175576E+00
 6.7596291E+00 9.0699755E-01 1.8154334E+00
 6.8258133E+00 8.8192284E-01 1.8117059E+00
 6.8908824E+00 8.5615558E-01 1.8061947E+00
 6.9546128E+00 8.2969718E-01 1.7987276E+00
 7.0169105E+00 8.0257123E-01 1.7891344E+00
 7.0778925E+00 7.7487436E-01 1.7772413E+00
 6.2848847E+00 1.0207729E+00 1.8106920E+00
 6.3530034E+00 9.9999941E-01 1.8125974E+00
 6.4209245E+00 9.7867195E-01 1.8141736E+00
 6.4886446E+00 9.5663962E-01 1.8151845E+00
 6.5561343E+00 9.3386783E-01 1.8153903E+00
 6.6233017E+00 9.1037596E-01 1.8145591E+00
 6.6899840E+00 8.8619602E-01 1.8124708E+00
 6.7559624E+00 8.6135130E-01 1.8089197E+00
 6.8209881E+00 8.3584614E-01 1.8037119E+00
 6.8848233E+00 8.0966823E-01 1.7966616E+00
 6.9473083E+00 7.8281412E-01 1.7875878E+00
 7.0084509E+00 7.5533787E-01 1.7763139E+00
 6.2848847E+00 9.7922591E-01 1.8106920E+00
 6.3528039E+00 9.5802628E-01 1.8115064E+00
 6.4203376E+00 9.3617729E-01 1.8119295E+00
 6.4874894E+00 9.1360943E-01 1.8117173E+00
 6.5542404E+00 8.9034022E-01 1.8106337E+00
 6.6205129E+00 8.6640981E-01 1.8084549E+00
 6.6861599E+00 8.4184637E-01 1.8049672E+00
 6.7509764E+00 8.1665214E-01 1.7999656E+00
 6.8147251E+00 7.9080405E-01 1.7932495E+00
 6.8771927E+00 7.6427523E-01 1.7846236E+00
 6.9382845E+00 7.3708220E-01 1.7739012E+00
 6.2846775E+00 9.3782972E-01 1.8085651E+00
 6.3522121E+00 9.1636131E-01 1.8082565E+00
 6.4191842E+00 8.9415582E-01 1.8074897E+00
 6.4856084E+00 8.7122089E-01 1.8060214E+00
 6.5514794E+00 8.4761729E-01 1.8036238E+00
 6.6167304E+00 8.2339368E-01 1.8000801E+00
 6.6812158E+00 7.9856101E-01 1.7951771E+00
 6.7447169E+00 7.7309159E-01 1.7887017E+00
 6.8069815E+00 7.4694014E-01 1.7804415E+00
 6.8678225E+00 7.2009092E-01 1.7701949E+00
 6.2842702E+00 8.9688007E-01 1.8043560E+00
 6.3512488E+00 8.7529955E-01 1.8029163E+00
 6.4175042E+00 8.5289792E-01 1.8009471E+00
 6.4830637E+00 8.2975109E-01 1.7982126E+00
 6.5479283E+00 8.0595016E-01 1.7944944E+00
 6.6120207E+00 7.8153784E-01 1.7895772E+00
 6.6751566E+00 7.5649704E-01 1.7832391E+00
 6.7370631E+00 7.3077325E-01 1.7752524E+00
 6.7974750E+00 7.0432559E-01 1.7653966E+00
 6.2836772E+00 8.5665541E-01 1.7981510E+00
 6.3499479E+00 8.3511050E-01 1.7955941E+00
 6.4153534E+00 8.1265694E-01 1.7924308E+00
 6.4799227E+00 7.8942485E-01 1.7884358E+00
 6.5436337E+00 7.6551942E-01 1.7833955E+00
 6.6063457E+00 7.4096528E-01 1.7770875E+00
 6.6677821E+00 7.1571919E-01 1.7692733E+00
 6.7276187E+00 6.8972726E-01 1.7597152E+00
 6.2829202E+00 8.1740689E-01 1.7900726E+00
 6.3483541E+00 7.9602688E-01 1.7864305E+00
 6.4127877E+00 7.7363443E-01 1.7820941E+00
 6.4762131E+00 7.5039605E-01 1.7768458E+00
 6.5385182E+00 7.2641693E-01 1.7704681E+00
 6.5994300E+00 7.0170458E-01 1.7627232E+00
 6.6585854E+00 6.7621903E-01 1.7533619E+00
 6.2820256E+00 7.7935044E-01 1.7802720E+00
 6.3465096E+00 7.5823371E-01 1.7755869E+00
 6.4098203E+00 7.3596435E-01 1.7700964E+00
 6.4718240E+00 7.1272803E-01 1.7635807E+00
 6.5322351E+00 6.8863476E-01 1.7558124E+00
 6.5906595E+00 6.6370842E-01 1.7465461E+00
 6.2810164E+00 7.4266159E-01 1.7689203E+00
 6.3444172E+00 7.2185416E-01 1.7632293E+00
 6.4063260E+00 6.9969277E-01 1.7565765E+00
 6.4663654E+00 6.7638477E-01 1.7487314E+00
 6.5240760E+00 6.5208961E-01 1.7394688E+00
 6.2798901E+00 7.0747108E-01 1.7561975E+00
 6.3419666E+00 6.8693415E-01 1.7495068E+00
 6.4018832E+00 6.6475203E-01 1.7416150E+00
 6.4590265E+00 6.4123416E-01 1.7323092E+00
 6.2785692E+00 6.7384494E-01 1.7422741E+00
 6.3388104E+00 6.5342299E-01 1.7345195E+00
 6.3956704E+00 6.3098818E-01 1.7252147E+00
 6.2768547E+00 6.4176521E-01 1.7272900E+00
 6.3340197E+00 6.2108879E-01 1.7182373E+00
 6.2743359E+00 6.1121005E-01 1.7113741E+00
 6.1831101E+00 1.4456564E+00 1.6755020E+00
 6.1472544E+00 1.4674717E+00 1.6603003E+00
 6.1098589E+00 1.4898454E+00 1.6438385E+00
 6.0711040E+00 1.5126568E+00 1.6261115E+00
 6.0310892E+00 1.5358452E+00 1.6070807E+00
 5.9900373E+00 1.5593382E+00 1.5867006E+00
 5.9481718E+00 1.5830589E+00 1.5649111E+00
 5.9057436E+00 1.6069042E+00 1.5416523E+00
 5.8630381E+00 1.6307420E+00 1.5168653E+00
 5.8203710E+00 1.6544059E+00 1.4904996E+00
 5.7780787E+00 1.6776950E+00 1.4625201E+00
 5.7365036E+00 1.7003773E+00 1.4329163E+00
 5.6959777E+00 1.7221990E+00 1.4017106E+00
 5.6568070E+00 1.7428962E+00 1.3689656E+00
 5.6192599E+00 1.7622108E+00 1.3347880E+00
 5.5835595E+00 1.7799047E+00 1.2993288E+00
 5.5498827E+00 1.7957740E+00 1.2627789E+00
 5.5183655E+00 1.8096581E+00 1.2253623E+00
 5.4891136E+00 1.8214454E+00 1.1873268E+00
 5.4622186E+00 1.8310752E+00 1.1489331E+00
 5.4377692E+00 1.8385331E+00 1.1104677E+00
 5.4157933E+00 1.8438514E+00 1.0722212E+00
 5.3962934E+00 1.8471033E+00 1.0347285E+00
 4.7474350E+00 1.0809692E+00 1.6970379E+00
 4.7397936E+00 1.1337060E+00 1.6836128E+00
 4.7348497E+00 1.1874393E+00 1.6673528E+00
 4.7333711E+00 1.2421900E+00 1.6484502E+00
 4.7358310E+00 1.2976783E+00 1.6269319E+00
 4.7425780E+00 1.3534488E+00 1.6028073E+00
 4.7538641E+00 1.4089273E+00 1.5761073E+00
 4.7698582E+00 1.4634640E+00 1.5469159E+00
 4.7906390E+00 1.5163571E+00 1.5153886E+00
 4.8161786E+00 1.5668819E+00 1.4817619E+00
 4.8463281E+00 1.6143272E+00 1.4463536E+00
 4.8808105E+00 1.6580383E+00 1.4095568E+00
 4.9192252E+00 1.6974612E+00 1.3718251E+00
 4.9610658E+00 1.7321839E+00 1.3336519E+00
 5.0057492E+00 1.7619658E+00 1.2955445E+00
 5.0526529E+00 1.7867532E+00 1.2579956E+00
 5.1011537E+00 1.8066749E+00 1.2214558E+00
 5.1506627E+00 1.8220219E+00 1.1863097E+00
 5.2006436E+00 1.8332128E+00 1.1528540E+00
 5.2506300E+00 1.8407554E+00 1.1212632E+00
 5.3002279E+00 1.8452055E+00 1.0915211E+00
 5.3490097E+00 1.8471321E+00 1.0633018E+00
 4.7927724E+00 1.1133290E+00 1.7215154E+00
 4.7878910E+00 1.1681086E+00 1.7078812E+00
 4.7855868E+00 1.2229570E+00 1.6911959E+00
 4.7867496E+00 1.2781670E+00 1.6717034E+00
 4.7919173E+00 1.3335838E+00 1.6494725E+00
 4.8014223E+00 1.3887914E+00 1.6245261E+00
 4.8154608E+00 1.4432198E+00 1.5969086E+00
 4.8341246E+00 1.4962091E+00 1.5667271E+00
 4.8574048E+00 1.5470570E+00 1.5341726E+00
 4.8851824E+00 1.5950607E+00 1.4995262E+00
 4.9172206E+00 1.6395619E+00 1.4631543E+00
 4.9531670E+00 1.6799917E+00 1.4254966E+00
 4.9925676E+00 1.7159122E+00 1.3870452E+00
 5.0348931E+00 1.7470481E+00 1.3483193E+00
 5.0795740E+00 1.7733035E+00 1.3098350E+00
 5.1260384E+00 1.7947623E+00 1.2720748E+00
 5.1737466E+00 1.8116700E+00 1.2354572E+00
 5.2222153E+00 1.8244052E+00 1.2002992E+00
 5.2710278E+00 1.8334446E+00 1.1667573E+00
 5.3198178E+00 1.8393259E+00 1.1347410E+00
 5.3682641E+00 1.8426114E+00 1.1036833E+00
 4.8426023E+00 1.1444753E+00 1.7432374E+00
 4.8403521E+00 1.2002173E+00 1.7291090E+00
 4.8406878E+00 1.2556150E+00 1.7118203E+00
 4.8445015E+00 1.3108911E+00 1.6915891E+00
 4.8523441E+00 1.3658978E+00 1.6684952E+00
 4.8645144E+00 1.4202181E+00 1.6425763E+00
 4.8811453E+00 1.4732758E+00 1.6139019E+00
 4.9022518E+00 1.5244124E+00 1.5826164E+00
 4.9277423E+00 1.5729453E+00 1.5489582E+00
 4.9574171E+00 1.6182187E+00 1.5132607E+00
 4.9909690E+00 1.6596517E+00 1.4759423E+00
 5.0279943E+00 1.6967819E+00 1.4374871E+00
 5.0680154E+00 1.7292990E+00 1.3984193E+00
 5.1105122E+00 1.7570653E+00 1.3592721E+00
 5.1549589E+00 1.7801183E+00 1.3205544E+00
 5.2008586E+00 1.7986583E+00 1.2827154E+00
 5.2477660E+00 1.8130231E+00 1.2460997E+00
 5.2952892E+00 1.8236578E+00 1.2108828E+00
 5.3430717E+00 1.8310851E+00 1.1769586E+00
 5.3907460E+00 1.8358625E+00 1.1438243E+00
 4.8966642E+00 1.1745209E+00 1.7616109E+00
 4.8969493E+00 1.2304962E+00 1.7467530E+00
 4.8998740E+00 1.2858629E+00 1.7286732E+00
 4.9062957E+00 1.3407325E+00 1.7075507E+00
 4.9167291E+00 1.3949007E+00 1.6834626E+00
 4.9314174E+00 1.4479280E+00 1.6564663E+00
 4.9504243E+00 1.4992347E+00 1.6266676E+00
 4.9736899E+00 1.5481800E+00 1.5942592E+00
 5.0010496E+00 1.5941247E+00 1.5595336E+00
 5.0322395E+00 1.6364846E+00 1.5228787E+00
 5.0669057E+00 1.6747779E+00 1.4847608E+00
 5.1046220E+00 1.7086617E+00 1.4456991E+00
 5.1449181E+00 1.7379560E+00 1.4062349E+00
 5.1873131E+00 1.7626507E+00 1.3668962E+00
 5.2313485E+00 1.7828971E+00 1.3281594E+00
 5.2766096E+00 1.7989876E+00 1.2904024E+00
 5.3227232E+00 1.8113320E+00 1.2538347E+00
 5.3693238E+00 1.8204299E+00 1.2184015E+00
 5.4159995E+00 1.8268330E+00 1.1836902E+00
 4.9546543E+00 1.2032740E+00 1.7761939E+00
 4.9573657E+00 1.2589315E+00 1.7604025E+00
 4.9627953E+00 1.3137541E+00 1.7413682E+00