# TIME = 8.300000
variables = x, y, z
zone N=5762 E=11520 F=FEPOINT ET=TRIANGLE
 6.4171144E+00 1.4249704E+00 1.6873022E+00
 6.4171144E+00 1.4249704E+00 3.1269808E-01
 6.4171144E+00 5.7502819E-01 1.6873029E+00
 6.4171144E+00 5.7502818E-01 3.1269732E-01
 4.9202719E+00 9.9999954E-01 1.6823734E+00
 7.9021316E+00 9.9999950E-01 1.6570616E+00
 4.9202721E+00 9.9999954E-01 3.1762710E-01
 7.9021316E+00 9.9999950E-01 3.4293855E-01
 5.5788022E+00 1.8502931E+00 1.0000001E+00
 5.5788023E+00 1.4970661E-01 1.0000001E+00
 7.2417287E+00 1.8099074E+00 1.0000001E+00
 7.2417287E+00 1.9009090E-01 1.0000001E+00
 6.3642018E+00 1.4169127E+00 1.6918191E+00
 6.3056690E+00 1.4081534E+00 1.6971529E+00
 6.2444142E+00 1.3992706E+00 1.7031589E+00
 6.1806452E+00 1.3902692E+00 1.7100064E+00
 6.1145842E+00 1.3811607E+00 1.7178099E+00
 6.0465057E+00 1.3718849E+00 1.7266561E+00
 5.9767392E+00 1.3623375E+00 1.7365457E+00
 5.9056932E+00 1.3523537E+00 1.7473662E+00
 5.8338152E+00 1.3417100E+00 1.7588665E+00
 5.7615529E+00 1.3301348E+00 1.7706504E+00
 5.6893181E+00 1.3173295E+00 1.7821892E+00
 5.6174727E+00 1.3029964E+00 1.7928522E+00
 5.5463392E+00 1.2868683E+00 1.8019495E+00
 5.4762277E+00 1.2687378E+00 1.8087821E+00
 5.4074685E+00 1.2484818E+00 1.8126961E+00
 5.3404357E+00 1.2260785E+00 1.8131363E+00
 5.2755558E+00 1.2016159E+00 1.8096935E+00
 5.2132963E+00 1.1752880E+00 1.8021405E+00
 5.1541361E+00 1.1473816E+00 1.7904481E+00
 5.0985203E+00 1.1182526E+00 1.7747786E+00
 5.0468442E+00 1.0883186E+00 1.7554710E+00
 4.9994243E+00 1.0580424E+00 1.7330004E+00
 4.9566225E+00 1.0280350E+00 1.7080426E+00
 6.3581510E+00 6.1289570E-01 1.7088981E+00
 6.2977278E+00 6.2339494E-01 1.7147344E+00
 6.2350003E+00 6.3363207E-01 1.7210393E+00
 6.1702049E+00 6.4382517E-01 1.7280736E+00
 6.1033707E+00 6.5416997E-01 1.7360494E+00
 6.0347427E+00 6.6478855E-01 1.7450530E+00
 5.9646543E+00 6.7582713E-01 1.7550660E+00
 5.8935185E+00 6.8746200E-01 1.7659362E+00
 5.8217858E+00 6.9991272E-01 1.7773664E+00
 5.7498984E+00 7.1343011E-01 1.7889167E+00
 5.6782576E+00 7.2827577E-01 1.8000241E+00
 5.6072120E+00 7.4469500E-01 1.8100392E+00
 5.5370726E+00 7.6289050E-01 1.8182715E+00
 5.4681398E+00 7.8299909E-01 1.8240417E+00
 5.4007347E+00 8.0507472E-01 1.8267334E+00
 5.3352183E+00 8.2907856E-01 1.8258434E+00
 5.2719945E+00 8.5487717E-01 1.8210218E+00
 5.2114861E+00 8.8224621E-01 1.8120960E+00
 5.1540900E+00 9.1087647E-01 1.7990700E+00
 5.1000997E+00 9.4038095E-01 1.7820856E+00
 5.0496115E+00 9.7030065E-01 1.7613428E+00
 5.0024010E+00 9.9999954E-01 1.7369686E+00
 6.3560326E+00 6.4354746E-01 1.7247760E+00
 6.2931796E+00 6.5581311E-01 1.7309313E+00
 6.2288532E+00 6.6743383E-01 1.7373684E+00
 6.1627651E+00 6.7895597E-01 1.7445017E+00
 6.0949800E+00 6.9065226E-01 1.7525427E+00
 6.0256581E+00 7.0272786E-01 1.7615855E+00
 5.9551211E+00 7.1535299E-01 1.7715828E+00
 5.8837742E+00 7.2871427E-01 1.7823458E+00
 5.8120655E+00 7.4302217E-01 1.7935349E+00
 5.7404304E+00 7.5850344E-01 1.8046713E+00
 5.6692593E+00 7.7537996E-01 1.8151630E+00
 5.5988884E+00 7.9384461E-01 1.8243473E+00
 5.5296165E+00 8.1403951E-01 1.8315385E+00
 5.4617322E+00 8.3603932E-01 1.8360806E+00
 5.3955416E+00 8.5984148E-01 1.8373960E+00
 5.3313783E+00 8.8536245E-01 1.8350292E+00
 5.2695906E+00 9.1243702E-01 1.8286754E+00
 5.2104880E+00 9.4081570E-01 1.8181812E+00
 5.1542489E+00 9.7015508E-01 1.8035046E+00
 5.1008034E+00 9.9999953E-01 1.7846252E+00
 5.0496115E+00 1.0296984E+00 1.7613428E+00
 6.3546314E+00 6.7565034E-01 1.7396984E+00
 6.2902185E+00 6.8931879E-01 1.7458160E+00
 6.2244633E+00 7.0233041E-01 1.7522328E+00
 6.1572241E+00 7.1521801E-01 1.7593190E+00
 6.0885076E+00 7.2834324E-01 1.7672941E+00
 6.0184917E+00 7.4194305E-01 1.7762287E+00
 5.9474870E+00 7.5621064E-01 1.7860485E+00
 5.8759034E+00 7.7133338E-01 1.7965266E+00
 5.8041882E+00 7.8750907E-01 1.8072848E+00
 5.7327717E+00 8.0493626E-01 1.8178103E+00
 5.6620335E+00 8.2379565E-01 1.8274889E+00
 5.5922971E+00 8.4422949E-01 1.8356512E+00
 5.5238472E+00 8.6632547E-01 1.8416229E+00
 5.4569549E+00 8.9010654E-01 1.8447746E+00
 5.3918969E+00 9.1552643E-01 1.8445667E+00
 5.3289484E+00 9.4246638E-01 1.8405818E+00
 5.2683383E+00 9.7072571E-01 1.8325320E+00
 5.2101607E+00 9.9999952E-01 1.8202300E+00
 5.1542489E+00 1.0298440E+00 1.8035046E+00
 5.1000997E+00 1.0596181E+00 1.7820856E+00
 6.3535523E+00 7.0923606E-01 1.7535387E+00
 6.2879351E+00 7.2414668E-01 1.7594128E+00
 6.2210385E+00 7.3846492E-01 1.7656284E+00
 6.1528056E+00 7.5272202E-01 1.7725172E+00
 6.0832824E+00 7.6729568E-01 1.7802702E+00
 6.0126614E+00 7.8244334E-01 1.7889310E+00
 5.9412688E+00 7.9836318E-01 1.7983914E+00
 5.8695220E+00 8.1523761E-01 1.8083889E+00
 5.7978702E+00 8.3324550E-01 1.8185105E+00
 5.7267375E+00 8.5255426E-01 1.8282165E+00
 5.6564920E+00 8.7330341E-01 1.8368786E+00
 5.5874415E+00 8.9558880E-01 1.8438297E+00
 5.5198511E+00 9.1945226E-01 1.8484128E+00
 5.4539615E+00 9.4487609E-01 1.8500283E+00
 5.3899922E+00 9.7177831E-01 1.8481694E+00
 5.3281076E+00 9.9999952E-01 1.8424389E+00
 5.2683383E+00 1.0292733E+00 1.8325320E+00
 5.2104880E+00 1.0591833E+00 1.8181812E+00
 5.1540900E+00 1.0891226E+00 1.7990700E+00
 6.3526312E+00 7.4432713E-01 1.7661624E+00
 6.2860008E+00 7.6035501E-01 1.7716294E+00
 6.2181615E+00 7.7590840E-01 1.7774854E+00
 6.1491118E+00 7.9150196E-01 1.7840198E+00
 6.0789419E+00 8.0750835E-01 1.7913861E+00
 6.0078702E+00 8.2418407E-01 1.7995942E+00
 5.9362405E+00 8.4172264E-01 1.8085019E+00
 5.8644795E+00 8.6029325E-01 1.8178132E+00
 5.7930360E+00 8.8005162E-01 1.8270869E+00
 5.7223249E+00 9.0113259E-01 1.8357652E+00
 5.6526987E+00 9.2363721E-01 1.8432156E+00
 5.5844439E+00 9.4762201E-01 1.8487812E+00
 5.5177945E+00 9.7309293E-01 1.8518282E+00
 5.4529376E+00 9.9999952E-01 1.8517856E+00
 5.3899922E+00 1.0282207E+00 1.8481694E+00
 5.3289484E+00 1.0575327E+00 1.8405818E+00
 5.2695906E+00 1.0875620E+00 1.8286754E+00
 5.2114861E+00 1.1177528E+00 1.8120960E+00
 6.3518026E+00 7.8086330E-01 1.7774072E+00
 6.2843038E+00 7.9790733E-01 1.7823279E+00
 6.2156899E+00 8.1462634E-01 1.7876794E+00
 6.1460058E+00 8.3150428E-01 1.7937041E+00
 6.0753767E+00 8.4889558E-01 1.8005154E+00
 6.0040461E+00 8.6704279E-01 1.8080876E+00
 5.9323729E+00 8.8612593E-01 1.8162462E+00
 5.8607891E+00 9.0629571E-01 1.8246672E+00
 5.7897378E+00 9.2768244E-01 1.8328892E+00
 5.7196194E+00 9.5039001E-01 1.8403456E+00
 5.6507644E+00 9.7448691E-01 1.8464088E+00
 5.5834282E+00 9.9999952E-01 1.8504394E+00
 5.5177944E+00 1.0269061E+00 1.8518282E+00
 5.4539615E+00 1.0551229E+00 1.8500283E+00
 5.3918969E+00 1.0844726E+00 1.8445667E+00
 5.3313783E+00 1.1146366E+00 1.8350292E+00
 5.2719945E+00 1.1451219E+00 1.8210217E+00
 6.3510639E+00 8.1871898E-01 1.7871015E+00
 6.2828371E+00 8.3669067E-01 1.7913544E+00
 6.2136207E+00 8.5449818E-01 1.7960648E+00
 6.1434946E+00 8.7258940E-01 1.8014284E+00
 6.0726114E+00 8.9128904E-01 1.8075183E+00
 6.0012335E+00 9.1081746E-01 1.8142746E+00
 5.9297290E+00 9.3133533E-01 1.8214947E+00
 5.8585278E+00 9.5297235E-01 1.8288334E+00
 5.7880607E+00 9.7583440E-01 1.8358177E+00
 5.7187064E+00 9.9999952E-01 1.8418813E+00
 5.6507644E+00 1.0255121E+00 1.8464088E+00
 5.5844438E+00 1.0523770E+00 1.8487812E+00
 5.5198510E+00 1.0805468E+00 1.8484128E+00
 5.4569549E+00 1.1098925E+00 1.8447745E+00
 5.3955416E+00 1.1401576E+00 1.8373959E+00
 5.3352183E+00 1.1709205E+00 1.8258434E+00
 6.3504350E+00 8.5772438E-01 1.7950830E+00
 6.2816365E+00 8.7653013E-01 1.7985580E+00
 6.2120023E+00 8.9533605E-01 1.8024995E+00
 6.1416375E+00 9.1454746E-01 1.8070576E+00
 6.0707146E+00 9.3445150E-01 1.8122672E+00
 5.9995071E+00 9.5524061E-01 1.8180385E+00
 5.9283842E+00 9.7705350E-01 1.8241463E+00
 5.8577653E+00 9.9999952E-01 1.8302316E+00
 5.7880607E+00 1.0241646E+00 1.8358177E+00
 5.7196194E+00 1.0496090E+00 1.8403455E+00
 5.6526987E+00 1.0763618E+00 1.8432156E+00
 5.5874415E+00 1.1044102E+00 1.8438297E+00
 5.5238471E+00 1.1336736E+00 1.8416228E+00
 5.4617322E+00 1.1639597E+00 1.8360806E+00
 5.4007347E+00 1.1949243E+00 1.8267334E+00
 6.3499398E+00 8.9767058E-01 1.8012079E+00
 6.2807446E+00 9.1720386E-01 1.8038070E+00
 6.2108888E+00 9.3690051E-01 1.8068626E+00
 6.1404955E+00 9.5711641E-01 1.8104823E+00
 6.0697488E+00 9.7809554E-01 1.8146670E+00
 5.9989247E+00 9.9999951E-01 1.8193021E+00
 5.9283841E+00 1.0229455E+00 1.8241463E+00
 5.8585278E+00 1.0470267E+00 1.8288334E+00
 5.7897377E+00 1.0723166E+00 1.8328891E+00
 5.7223249E+00 1.0988664E+00 1.8357652E+00
 5.6564920E+00 1.1266956E+00 1.8368786E+00
 5.5922971E+00 1.1557695E+00 1.8356512E+00
 5.5296164E+00 1.1859595E+00 1.8315385E+00
 5.4681398E+00 1.2169999E+00 1.8240417E+00
 6.3495982E+00 9.3831512E-01 1.8053599E+00
 6.2801954E+00 9.5845434E-01 1.8069994E+00
 6.2103214E+00 9.7891561E-01 1.8090669E+00
 6.1401100E+00 9.9999950E-01 1.8116319E+00
 6.0697487E+00 1.0219035E+00 1.8146670E+00
 5.9995071E+00 1.0447584E+00 1.8180384E+00
 5.9297290E+00 1.0686637E+00 1.8214946E+00
 5.8607890E+00 1.0937033E+00 1.8246672E+00
 5.7930359E+00 1.1199474E+00 1.8270869E+00
 5.7267375E+00 1.1474448E+00 1.8282164E+00
 5.6620335E+00 1.1762034E+00 1.8274888E+00
 5.5988884E+00 1.2061544E+00 1.8243472E+00
 5.5370726E+00 1.2371085E+00 1.8182715E+00
 6.3494241E+00 9.7938963E-01 1.8074571E+00
 6.2800099E+00 9.9999950E-01 1.8080708E+00
 6.2103214E+00 1.0210834E+00 1.8090669E+00
 6.1404955E+00 1.0428826E+00 1.8104822E+00
 6.0707146E+00 1.0655475E+00 1.8122671E+00
 6.0012335E+00 1.0891816E+00 1.8142745E+00
 5.9323729E+00 1.1138731E+00 1.8162461E+00
 5.8644794E+00 1.1397058E+00 1.8178131E+00
 5.7978701E+00 1.1667535E+00 1.8185104E+00
 5.7327716E+00 1.1950628E+00 1.8178102E+00
 5.6692593E+00 1.2246191E+00 1.8151630E+00
 5.6072120E+00 1.2553040E+00 1.8100391E+00
 6.3494241E+00 1.0206094E+00 1.8074570E+00
 6.2801954E+00 1.0415447E+00 1.8069993E+00
 6.2108888E+00 1.0630985E+00 1.8068625E+00
 6.1416375E+00 1.0854515E+00 1.8070575E+00
 6.0726113E+00 1.1087100E+00 1.8075181E+00
 6.0040460E+00 1.1329562E+00 1.8080875E+00
 5.9362404E+00 1.1582764E+00 1.8085017E+00
 5.8695219E+00 1.1847614E+00 1.8083888E+00
 5.8041882E+00 1.2124899E+00 1.8072847E+00
 5.7404303E+00 1.2414956E+00 1.8046712E+00
 5.6782575E+00 1.2717232E+00 1.8000240E+00
 6.3495982E+00 1.0616839E+00 1.8053598E+00
 6.2807446E+00 1.0827951E+00 1.8038069E+00
 6.2120023E+00 1.1046629E+00 1.8024994E+00
 6.1434946E+00 1.1274096E+00 1.8014282E+00
 6.0753766E+00 1.1511034E+00 1.8005153E+00
 6.0078701E+00 1.1758149E+00 1.7995941E+00
 5.9412687E+00 1.2016358E+00 1.7983913E+00
 5.8759034E+00 1.2286656E+00 1.7965265E+00
 5.8120654E+00 1.2569768E+00 1.7935348E+00
 5.7498983E+00 1.2865689E+00 1.7889166E+00
 6.3499397E+00 1.1023284E+00 1.8012077E+00
 6.2816365E+00 1.1234688E+00 1.7985578E+00
 6.2136207E+00 1.1455008E+00 1.7960646E+00
 6.1460058E+00 1.1684947E+00 1.7937038E+00
 6.0789419E+00 1.1924906E+00 1.7913859E+00
 6.0126613E+00 1.2175556E+00 1.7889308E+00
 5.9474869E+00 1.2437883E+00 1.7860483E+00
 5.8837741E+00 1.2712847E+00 1.7823457E+00
 5.8217857E+00 1.3000863E+00 1.7773663E+00
 6.3504350E+00 1.1422746E+00 1.7950827E+00
 6.2828370E+00 1.1633083E+00 1.7913541E+00
 6.2156898E+00 1.1853726E+00 1.7876792E+00
 6.1491117E+00 1.2084970E+00 1.7840195E+00
 6.0832823E+00 1.2327033E+00 1.7802700E+00
 6.0184917E+00 1.2580559E+00 1.7762285E+00
 5.9551210E+00 1.2846460E+00 1.7715826E+00
 5.8935185E+00 1.3125370E+00 1.7659360E+00
 6.3510639E+00 1.1812799E+00 1.7871012E+00
 6.2843038E+00 1.2020916E+00 1.7823276E+00
 6.2181615E+00 1.2240905E+00 1.7774851E+00
 6.1528055E+00 1.2472769E+00 1.7725169E+00
 6.0885075E+00 1.2716557E+00 1.7672938E+00
 6.0256580E+00 1.2972711E+00 1.7615852E+00
 5.9646542E+00 1.3241718E+00 1.7550658E+00
 6.3518026E+00 1.2191356E+00 1.7774068E+00
 6.2860008E+00 1.2396439E+00 1.7716290E+00
 6.2210385E+00 1.2615340E+00 1.7656281E+00
 6.1572241E+00 1.2847809E+00 1.7593186E+00
 6.0949799E+00 1.3093466E+00 1.7525424E+00
 6.0347426E+00 1.3352103E+00 1.7450527E+00
 6.3526312E+00 1.2556717E+00 1.7661620E+00
 6.2879351E+00 1.2758522E+00 1.7594124E+00
 6.2244632E+00 1.2976684E+00 1.7522324E+00
 6.1627650E+00 1.3210429E+00 1.7445013E+00
 6.1033706E+00 1.3458289E+00 1.7360490E+00
 6.3535523E+00 1.2907628E+00 1.7535382E+00
 6.2902184E+00 1.3106800E+00 1.7458155E+00
 6.2288531E+00 1.3325650E+00 1.7373680E+00
 6.1702048E+00 1.3561736E+00 1.7280731E+00
 6.3546314E+00 1.3243484E+00 1.7396978E+00
 6.2931795E+00 1.3441857E+00 1.7309308E+00
 6.2350003E+00 1.3663667E+00 1.7210388E+00
 6.3560326E+00 1.3564513E+00 1.7247755E+00
 6.2977277E+00 1.3766038E+00 1.7147339E+00
 6.3581510E+00 1.3871030E+00 1.7088975E+00
 6.4173049E+00 1.3993757E+00 1.7024698E+00
 6.4175687E+00 1.3702701E+00 1.7182510E+00
 6.4177736E+00 1.3394717E+00 1.7333297E+00
 6.4179343E+00 1.3069405E+00 1.7475418E+00
 6.4180595E+00 1.2727572E+00 1.7606914E+00
 6.4181607E+00 1.2370416E+00 1.7725770E+00
 6.4182448E+00 1.1999194E+00 1.7830139E+00
 6.4183148E+00 1.1615510E+00 1.7918285E+00
 6.4183710E+00 1.1221328E+00 1.7988648E+00
 6.4184123E+00 1.0818938E+00 1.8039916E+00
 6.4184376E+00 1.0410904E+00 1.8071093E+00
 6.4184462E+00 9.9999949E-01 1.8081557E+00
 6.4184376E+00 9.5890859E-01 1.8071094E+00
 6.4184123E+00 9.1810520E-01 1.8039918E+00
 6.4183710E+00 8.7786615E-01 1.7988650E+00
 6.4183148E+00 8.3844795E-01 1.7918288E+00
 6.4182448E+00 8.0007948E-01 1.7830142E+00
 6.4181607E+00 7.6295728E-01 1.7725774E+00
 6.4180595E+00 7.2724160E-01 1.7606918E+00
 6.4179344E+00 6.9305830E-01 1.7475423E+00
 6.4177736E+00 6.6052700E-01 1.7333303E+00
 6.4175687E+00 6.2972863E-01 1.7182517E+00
 6.4173049E+00 6.0062293E-01 1.7024704E+00
 6.4700720E+00 5.8249090E-01 1.6927718E+00
 6.5283439E+00 5.9069975E-01 1.6990166E+00
 6.5889532E+00 5.9924650E-01 1.7056351E+00
 6.6516190E+00 6.0825267E-01 1.7125552E+00
 6.7161381E+00 6.1780940E-01 1.7196378E+00
 6.7822985E+00 6.2803864E-01 1.7267336E+00
 6.8499092E+00 6.3906157E-01 1.7336713E+00
 6.9187391E+00 6.5099773E-01 1.7402649E+00
 6.9885249E+00 6.6395983E-01 1.7463179E+00
 7.0589601E+00 6.7804882E-01 1.7516285E+00
 7.1296951E+00 6.9335030E-01 1.7559925E+00
 7.2003431E+00 7.0993122E-01 1.7592077E+00
 7.2704912E+00 7.2783793E-01 1.7610769E+00
 7.3397169E+00 7.4709430E-01 1.7614118E+00
 7.4076058E+00 7.6770074E-01 1.7600374E+00
 7.4737670E+00 7.8963335E-01 1.7567978E+00
 7.5378428E+00 8.1284414E-01 1.7515618E+00
 7.5995118E+00 8.3726199E-01 1.7442301E+00
 7.6584858E+00 8.6279494E-01 1.7347417E+00
 7.7145093E+00 8.8933578E-01 1.7230782E+00
 7.7673306E+00 9.1674195E-01 1.7092757E+00
 7.8167154E+00 9.4481687E-01 1.6934146E+00
 7.8622928E+00 9.7313563E-01 1.6757012E+00
 6.4764908E+00 1.3877828E+00 1.7099619E+00
 6.5365291E+00 1.3778124E+00 1.7167209E+00
 6.5984578E+00 1.3678420E+00 1.7236057E+00
 6.6619960E+00 1.3575577E+00 1.7306144E+00
 6.7271383E+00 1.3466976E+00 1.7376975E+00
 6.7937326E+00 1.3351038E+00 1.7447130E+00
 6.8615954E+00 1.3226431E+00 1.7514875E+00
 6.9305017E+00 1.3092075E+00 1.7578241E+00
 7.0001807E+00 1.2947031E+00 1.7635160E+00
 7.0703155E+00 1.2790518E+00 1.7683535E+00
 7.1405457E+00 1.2621918E+00 1.7721281E+00
 7.2104771E+00 1.2440809E+00 1.7746376E+00
 7.2796953E+00 1.2246972E+00 1.7756887E+00
 7.3477834E+00 1.2040397E+00 1.7751020E+00
 7.4143394E+00 1.1821277E+00 1.7727158E+00
 7.4789899E+00 1.1589996E+00 1.7683918E+00
 7.5414009E+00 1.1347119E+00 1.7620187E+00
 7.6012887E+00 1.1093418E+00 1.7535144E+00
 7.6584338E+00 1.0829932E+00 1.7428233E+00
 7.7127230E+00 1.0558114E+00 1.7298990E+00
 7.7642228E+00 1.0280011E+00 1.7146664E+00
 7.8133269E+00 9.9999950E-01 1.6969416E+00
 6.4790579E+00 1.3571526E+00 1.7258967E+00
 6.5414031E+00 1.3453927E+00 1.7330192E+00
 6.6047642E+00 1.3339867E+00 1.7400203E+00
 6.6694263E+00 1.3223193E+00 1.7470471E+00
 6.7353707E+00 1.3100780E+00 1.7540456E+00
 6.8025436E+00 1.2970512E+00 1.7608887E+00
 6.8707881E+00 1.2831061E+00 1.7673932E+00
 6.9398912E+00 1.2681439E+00 1.7733537E+00
 7.0095792E+00 1.2520891E+00 1.7785544E+00
 7.0795263E+00 1.2348843E+00 1.7827799E+00
 7.1493631E+00 1.2164906E+00 1.7858198E+00
 7.2186896E+00 1.1968882E+00 1.7874737E+00
 7.2870927E+00 1.1760766E+00 1.7875545E+00
 7.3541647E+00 1.1540726E+00 1.7858932E+00
 7.4195217E+00 1.1309075E+00 1.7823417E+00
 7.4828225E+00 1.1066252E+00 1.7767752E+00
 7.5437901E+00 1.0812831E+00 1.7690911E+00
 7.6022515E+00 1.0549635E+00 1.7591970E+00
 7.6582069E+00 1.0277965E+00 1.7469824E+00
 7.7119332E+00 9.9999950E-01 1.7322658E+00
 7.7642228E+00 9.7199789E-01 1.7146664E+00
 6.4808277E+00 1.3250249E+00 1.7408793E+00
 6.5446367E+00 1.3118296E+00 1.7479996E+00
 6.6092933E+00 1.2989918E+00 1.7549705E+00
 6.6749646E+00 1.2859288E+00 1.7618797E+00
 6.7417106E+00 1.2722626E+00 1.7686791E+00
 6.8094780E+00 1.2577752E+00 1.7752265E+00
 6.8781332E+00 1.2423322E+00 1.7813301E+00
 6.9474623E+00 1.2258489E+00 1.7867744E+00
 7.0171862E+00 1.2082672E+00 1.7913372E+00
 7.0869699E+00 1.1895500E+00 1.7947995E+00
 7.1564362E+00 1.1696792E+00 1.7969513E+00
 7.2251835E+00 1.1486553E+00 1.7975966E+00
 7.2928047E+00 1.1264941E+00 1.7965566E+00
 7.3589093E+00 1.1032236E+00 1.7936730E+00
 7.4231466E+00 1.0788799E+00 1.7888082E+00
 7.4852383E+00 1.0535081E+00 1.7818419E+00
 7.5450284E+00 1.0271748E+00 1.7726574E+00
 7.6025637E+00 9.9999950E-01 1.7611119E+00
 7.6582069E+00 9.7220249E-01 1.7469824E+00
 7.7127230E+00 9.4418761E-01 1.7298990E+00
 6.4821832E+00 1.2913911E+00 1.7547779E+00
 6.5471231E+00 1.2769065E+00 1.7616888E+00
 6.6128180E+00 1.2627239E+00 1.7684495E+00
 6.6793697E+00 1.2482769E+00 1.7750976E+00
 6.7468169E+00 1.2331928E+00 1.7815553E+00
 6.8151096E+00 1.2172538E+00 1.7876634E+00
 6.8841090E+00 1.2003384E+00 1.7932164E+00
 6.9535970E+00 1.1823769E+00 1.7979906E+00
 7.0232853E+00 1.1633301E+00 1.8017591E+00
 7.0928317E+00 1.1431803E+00 1.8043025E+00
 7.1618556E+00 1.1219284E+00 1.8054140E+00
 7.2299598E+00 1.0995902E+00 1.8049049E+00
 7.2967523E+00 1.0761920E+00 1.8026055E+00
 7.3618742E+00 1.0517658E+00 1.7983666E+00
 7.4250357E+00 1.0263495E+00 1.7920539E+00
 7.4860720E+00 9.9999950E-01 1.7835361E+00
 7.5450284E+00 9.7282415E-01 1.7726574E+00
 7.6022515E+00 9.4503548E-01 1.7591970E+00
 7.6584338E+00 9.1700584E-01 1.7428233E+00
 6.4833169E+00 1.2562374E+00 1.7674568E+00
 6.5492084E+00 1.2405785E+00 1.7739916E+00
 6.6157635E+00 1.2251225E+00 1.7803833E+00
 6.6830401E+00 1.2093361E+00 1.7866179E+00
 6.7510506E+00 1.1928700E+00 1.7925826E+00
 6.8197327E+00 1.1755253E+00 1.7980964E+00
 6.8889395E+00 1.1571987E+00 1.8029416E+00
 6.9584443E+00 1.1378394E+00 1.8068880E+00
 7.0279521E+00 1.1174269E+00 1.8097073E+00
 7.0971172E+00 1.0959616E+00 1.8111829E+00
 7.1655626E+00 1.0734589E+00 1.8111145E+00
 7.2329047E+00 1.0499441E+00 1.8093218E+00
 7.2987805E+00 1.0254467E+00 1.8056438E+00
 7.3628867E+00 9.9999950E-01 1.7999350E+00
 7.4250357E+00 9.7364948E-01 1.7920539E+00
 7.4852383E+00 9.4649093E-01 1.7818419E+00
 7.5437901E+00 9.1871585E-01 1.7690912E+00
 7.6012887E+00 8.9065717E-01 1.7535144E+00
 6.4843166E+00 1.2196288E+00 1.7787525E+00
 6.5510235E+00 1.2028901E+00 1.7847681E+00
 6.6182832E+00 1.1862311E+00 1.7906442E+00
 6.6861195E+00 1.1691666E+00 1.7963152E+00
 6.7545237E+00 1.1513824E+00 1.8016336E+00
 6.8234206E+00 1.1327086E+00 1.8063981E+00
 6.8926545E+00 1.1130650E+00 1.8103809E+00
 6.9619923E+00 1.0924210E+00 1.8133489E+00
 7.0311363E+00 1.0707738E+00 1.8150759E+00
 7.0997443E+00 1.0481380E+00 1.8153513E+00
 7.1674518E+00 1.0245374E+00 1.8139832E+00
 7.2339018E+00 9.9999949E-01 1.8107995E+00
 7.2987805E+00 9.7455225E-01 1.8056438E+00
 7.3618742E+00 9.4823321E-01 1.7983666E+00
 7.4231466E+00 9.2111911E-01 1.7888082E+00
 7.4828225E+00 8.9337381E-01 1.7767753E+00
 7.5414009E+00 8.6528708E-01 1.7620187E+00
 6.4851969E+00 1.1816932E+00 1.7884922E+00
 6.5525848E+00 1.1639593E+00 1.7938617E+00
 6.6203874E+00 1.1461762E+00 1.7990845E+00
 6.6886056E+00 1.1279125E+00 1.8040474E+00
 6.7572155E+00 1.1088994E+00 1.8085717E+00
 6.8261321E+00 1.0890011E+00 1.8124394E+00
 6.8951941E+00 1.0681630E+00 1.8154167E+00
 6.9641665E+00 1.0463739E+00 1.8172713E+00
 7.0327555E+00 1.0236453E+00 1.8177826E+00
 7.1006307E+00 9.9999949E-01 1.8167478E+00
 7.1674518E+00 9.7546159E-01 1.8139832E+00
 7.2329047E+00 9.5005488E-01 1.8093218E+00
 7.2967523E+00 9.2380703E-01 1.8026056E+00
 7.3589093E+00 8.9677539E-01 1.7936731E+00
 7.4195217E+00 8.6909144E-01 1.7823417E+00
 7.4789899E+00 8.4099942E-01 1.7683919E+00
 6.4859415E+00 1.1426021E+00 1.7965119E+00
 6.5538595E+00 1.1239642E+00 1.8011197E+00
 6.6220311E+00 1.1051492E+00 1.8055609E+00
 6.6904427E+00 1.0857860E+00 1.8096806E+00
 6.7590609E+00 1.0656569E+00 1.8132741E+00
 6.8277961E+00 1.0446634E+00 1.8161121E+00
 6.8964858E+00 1.0227759E+00 1.8179589E+00
 6.9648997E+00 9.9999949E-01 1.8185869E+00
 7.0327555E+00 9.7635373E-01 1.8177826E+00
 7.0997442E+00 9.5186102E-01 1.8153514E+00
 7.1655626E+00 9.2654008E-01 1.8111146E+00
 7.2299598E+00 9.0040876E-01 1.8049050E+00
 7.2928047E+00 8.7350488E-01 1.7965567E+00
 7.3541647E+00 8.4592641E-01 1.7858933E+00
 7.4143394E+00 8.1787125E-01 1.7727159E+00
 6.4865259E+00 1.1025657E+00 1.8026667E+00
 6.5548054E+00 1.0831287E+00 1.8064086E+00
 6.6231611E+00 1.0633917E+00 1.8099521E+00
 6.6915718E+00 1.0430495E+00 1.8131069E+00
 6.7600004E+00 1.0219392E+00 1.8156495E+00
 6.8283573E+00 9.9999949E-01 1.8173446E+00
 6.8964858E+00 9.7722307E-01 1.8179590E+00
 6.9641665E+00 9.5362510E-01 1.8172714E+00
 7.0311363E+00 9.2922513E-01 1.8150760E+00
 7.0971172E+00 9.0403738E-01 1.8111830E+00
 7.1618556E+00 8.7807053E-01 1.8054142E+00
 7.2251835E+00 8.5134367E-01 1.7975967E+00
 7.2870927E+00 8.2392236E-01 1.7875547E+00
 7.3477834E+00 7.9595924E-01 1.7751021E+00
 6.4869283E+00 1.0618276E+00 1.8068392E+00
 6.5553875E+00 1.0417125E+00 1.8096254E+00
 6.6237367E+00 1.0211814E+00 1.8121705E+00
 6.6919528E+00 9.9999949E-01 1.8142570E+00
 6.7600003E+00 9.7805977E-01 1.8156496E+00
 6.8277961E+00 9.5533559E-01 1.8161121E+00
 6.8951941E+00 9.3183599E-01 1.8154168E+00
 6.9619923E+00 9.0757798E-01 1.8133490E+00
 7.0279521E+00 8.8257207E-01 1.8097075E+00
 7.0928316E+00 8.5681862E-01 1.8043026E+00
 7.1564362E+00 8.3031970E-01 1.7969515E+00
 7.2186896E+00 8.0311071E-01 1.7874739E+00
 7.2796952E+00 7.7530177E-01 1.7756889E+00
 6.4871334E+00 1.0206575E+00 1.8089469E+00
 6.5555839E+00 9.9999949E-01 1.8107051E+00
 6.6237367E+00 9.7881760E-01 1.8121706E+00
 6.6915718E+00 9.5694948E-01 1.8131070E+00
 6.7590609E+00 9.3434202E-01 1.8132742E+00
 6.8261321E+00 9.1099783E-01 1.8124396E+00
 6.8926545E+00 8.8693394E-01 1.8103811E+00
 6.9584443E+00 8.6215958E-01 1.8068882E+00
 7.0232853E+00 8.3666886E-01 1.8017593E+00
 7.0869698E+00 8.1044897E-01 1.7947997E+00
 7.1493630E+00 7.8350831E-01 1.7858200E+00
 7.2104771E+00 7.5591805E-01 1.7746378E+00
 6.4871334E+00 9.7934147E-01 1.8089469E+00
 6.5553875E+00 9.5828649E-01 1.8096255E+00
 6.6231611E+00 9.3660723E-01 1.8099522E+00
 6.6904427E+00 9.1421299E-01 1.8096807E+00
 6.7572155E+00 8.9109951E-01 1.8085719E+00
 6.8234206E+00 8.6729030E-01 1.8063984E+00
 6.8889395E+00 8.4280024E-01 1.8029419E+00
 6.9535969E+00 8.1762202E-01 1.7979909E+00
 7.0171862E+00 7.9173172E-01 1.7913375E+00
 7.0795263E+00 7.6511455E-01 1.7827802E+00
 7.1405457E+00 7.3780712E-01 1.7721284E+00
 6.4869283E+00 9.3817133E-01 1.8068394E+00
 6.5548054E+00 9.1687023E-01 1.8064088E+00
 6.6220311E+00 8.9484975E-01 1.8055611E+00
 6.6886056E+00 8.7208643E-01 1.8040476E+00
 6.7545237E+00 8.4861649E-01 1.8016339E+00
 6.8197327E+00 8.2447358E-01 1.7980968E+00
 6.8841090E+00 7.9966051E-01 1.7932167E+00
 6.9474623E+00 7.7414996E-01 1.7867748E+00
 7.0095791E+00 7.4790975E-01 1.7785548E+00
 7.0703155E+00 7.2094710E-01 1.7683539E+00
 6.4865259E+00 8.9743324E-01 1.8026669E+00
 6.5538595E+00 8.7603479E-01 1.8011199E+00
 6.6203874E+00 8.5382272E-01 1.7990848E+00
 6.6861195E+00 8.3083234E-01 1.7963155E+00
 6.7510505E+00 8.0712888E-01 1.7925829E+00
 6.8151096E+00 7.8274511E-01 1.7876637E+00
 6.8781332E+00 7.5766665E-01 1.7813305E+00
 6.9398911E+00 7.3185495E-01 1.7733541E+00
 7.0001807E+00 7.0529567E-01 1.7635165E+00
 6.4859415E+00 8.5739680E-01 1.7965121E+00
 6.5525848E+00 8.3603962E-01 1.7938620E+00
 6.6182832E+00 8.1376779E-01 1.7906446E+00
 6.6830401E+00 7.9066274E-01 1.7866183E+00
 6.7468169E+00 7.6680605E-01 1.7815557E+00
 6.8094780E+00 7.4222366E-01 1.7752269E+00
 6.8707881E+00 7.1689269E-01 1.7673937E+00
 6.9305017E+00 6.9079133E-01 1.7578246E+00
 6.4851969E+00 8.1830569E-01 1.7884925E+00
 6.5510235E+00 7.9710881E-01 1.7847685E+00
 6.6157635E+00 7.7487639E-01 1.7803837E+00
 6.6793696E+00 7.5172190E-01 1.7750980E+00
 6.7417105E+00 7.2773620E-01 1.7686796E+00
 6.8025436E+00 7.0294757E-01 1.7608893E+00
 6.8615953E+00 6.7735568E-01 1.7514880E+00
 6.4843166E+00 7.8037010E-01 1.7787529E+00
 6.5492084E+00 7.5942035E-01 1.7739921E+00
 6.6128180E+00 7.3727492E-01 1.7684500E+00
 6.6749646E+00 7.1406998E-01 1.7618802E+00
 6.7353707E+00 6.8992078E-01 1.7540461E+00
 6.7937326E+00 6.6489497E-01 1.7447136E+00
 6.4833169E+00 7.4376148E-01 1.7674573E+00
 6.5471231E+00 7.2309233E-01 1.7616893E+00
 6.6092933E+00 7.0100695E-01 1.7549711E+00
 6.6694263E+00 6.7767944E-01 1.7470477E+00
 6.7271383E+00 6.5330106E-01 1.7376981E+00
 6.4821832E+00 7.0860774E-01 1.7547785E+00
 6.5446367E+00 6.8816916E-01 1.7480002E+00
 6.6047642E+00 6.6601202E-01 1.7400209E+00
 6.6619960E+00 6.4244098E-01 1.7306151E+00
 6.4808277E+00 6.7497388E-01 1.7408798E+00
 6.5414031E+00 6.5460596E-01 1.7330198E+00
 6.5984577E+00 6.3215669E-01 1.7236064E+00
 6.4790579E+00 6.4284607E-01 1.7258973E+00
 6.5365291E+00 6.2218626E-01 1.7167215E+00
 6.4764908E+00 6.1221586E-01 1.7099626E+00
 6.3846211E+00 1.4449447E+00 1.6742123E+00
 6.3485111E+00 1.4668854E+00 1.6590593E+00
 6.3108736E+00 1.4893777E+00 1.6426629E+00
 6.2718935E+00 1.5122943E+00 1.6250252E+00
 6.2316686E+00 1.5355756E+00 1.6061103E+00
 6.1904208E+00 1.5591549E+00 1.5858707E+00
 6.1483747E+00 1.5829605E+00 1.5642430E+00
 6.1057832E+00 1.6068929E+00 1.5411642E+00
 6.0629338E+00 1.6308222E+00 1.5165717E+00
 6.0201431E+00 1.6545843E+00 1.4904099E+00
 5.9777470E+00 1.6779797E+00 1.4626381E+00
 5.9360866E+00 1.7007776E+00 1.4332387E+00
 5.8954914E+00 1.7227243E+00 1.4022272E+00
 5.8562643E+00 1.7435564E+00 1.3696581E+00
 5.8186699E+00 1.7630149E+00 1.3356302E+00
 5.7829284E+00 1.7808604E+00 1.3002860E+00
 5.7492156E+00 1.7968867E+00 1.2638086E+00
 5.7176701E+00 1.8109293E+00 1.2264141E+00
 5.6884028E+00 1.8228720E+00 1.1883431E+00
 5.6615101E+00 1.8326487E+00 1.1498487E+00
 5.6370774E+00 1.8402384E+00 1.1112138E+00
 5.6151163E+00 1.8456669E+00 1.0727371E+00
 5.5956042E+00 1.8490009E+00 1.0349849E+00
 4.9482541E+00 1.0814965E+00 1.6983439E+00
 4.9406543E+00 1.1345535E+00 1.6848112E+00
 4.9357675E+00 1.1885529E+00 1.6684396E+00
 4.9343392E+00 1.2434955E+00 1.6494280E+00
 4.9368258E+00 1.2991030E+00 1.6278112E+00
 4.9435683E+00 1.3549308E+00 1.6036087E+00
 4.9548117E+00 1.4104170E+00 1.5768602E+00
 4.9707171E+00 1.4649249E+00 1.5476536E+00
 4.9913555E+00 1.5177681E+00 1.5161436E+00
 5.0166964E+00 1.5682393E+00 1.4825620E+00
 5.0465941E+00 1.6156443E+00 1.4472189E+00
 5.0807824E+00 1.6593429E+00 1.4104973E+00
 5.1188774E+00 1.6987909E+00 1.3728397E+00
 5.1603946E+00 1.7335793E+00 1.3347282E+00
 5.2047754E+00 1.7634635E+00 1.2966598E+00
 5.2514219E+00 1.7883786E+00 1.2591192E+00
 5.2997325E+00 1.8084370E+00 1.2225530E+00
 5.3491340E+00 1.8239106E+00 1.1873439E+00
 5.3991000E+00 1.8352008E+00 1.1537887E+00
 5.4491701E+00 1.8428007E+00 1.1220625E+00
 5.4989528E+00 1.8472562E+00 1.0921548E+00
 5.5480075E+00 1.8491318E+00 1.0637522E+00
 4.9935647E+00 1.1140758E+00 1.7230146E+00
 4.9887315E+00 1.1692068E+00 1.7092644E+00
 4.9864918E+00 1.2243365E+00 1.6924588E+00
 4.9876968E+00 1.2797335E+00 1.6728460E+00
 4.9928675E+00 1.3352469E+00 1.6505073E+00
 5.0023345E+00 1.3904776E+00 1.6254810E+00
 5.0162925E+00 1.4448751E+00 1.5978221E+00
 5.0348280E+00 1.4977988E+00 1.5676414E+00
 5.0579271E+00 1.5485667E+00 1.5351263E+00
 5.0854708E+00 1.5964957E+00 1.5005501E+00
 5.1172293E+00 1.6409448E+00 1.4642684E+00
 5.1528643E+00 1.6813579E+00 1.4267082E+00
 5.1919422E+00 1.7173035E+00 1.3883484E+00
 5.2339585E+00 1.7485048E+00 1.3496954E+00
 5.2783697E+00 1.7748577E+00 1.3112545E+00
 5.3246284E+00 1.7964313E+00 1.2734999E+00
 5.3722136E+00 1.8134532E+00 1.2368435E+00
 5.4206533E+00 1.8262842E+00 1.2015963E+00
 5.4695361E+00 1.8353855E+00 1.1679100E+00
 5.5185013E+00 1.8412817E+00 1.1356989E+00
 5.5672287E+00 1.8445254E+00 1.1044207E+00
 5.0433274E+00 1.1454168E+00 1.7448786E+00
 5.0411285E+00 1.2015282E+00 1.7306211E+00
 5.0415316E+00 1.2572122E+00 1.7132004E+00
 5.0453764E+00 1.3126636E+00 1.6928399E+00
 5.0531985E+00 1.3677414E+00 1.6696358E+00
 5.0652996E+00 1.4220511E+00 1.6436442E+00
 5.0818151E+00 1.4750420E+00 1.6149448E+00
 5.1027571E+00 1.5260807E+00 1.5836831E+00
 5.1280322E+00 1.5745085E+00 1.5500912E+00
 5.1574440E+00 1.6196909E+00 1.5144914E+00
 5.1906962E+00 1.6610636E+00 1.4772881E+00
 5.2274034E+00 1.6981741E+00 1.4389501E+00
 5.2671117E+00 1.7307148E+00 1.3999862E+00
 5.3093284E+00 1.7585422E+00 1.3609155E+00
 5.3535546E+00 1.7816818E+00 1.3222347E+00
 5.3993153E+00 1.8003173E+00 1.2843822E+00
 5.4461793E+00 1.8147692E+00 1.2476913E+00
 5.4937603E+00 1.8254665E+00 1.2123280E+00
 5.5417075E+00 1.8329164E+00 1.1781899E+00
 5.5896637E+00 1.8376616E+00 1.1448065E+00
 5.0972676E+00 1.1756053E+00 1.7633507E+00
 5.0976020E+00 1.2319433E+00 1.7483546E+00
 5.1005871E+00 1.2875828E+00 1.7301353E+00
 5.1070210E+00 1.3426078E+00 1.7088808E+00
 5.1174062E+00 1.3968229E+00 1.6846878E+00
 5.1319937E+00 1.4498143E+00 1.6576321E+00
 5.1508526E+00 1.5010315E+00 1.6278278E+00
 5.1739234E+00 1.5498618E+00 1.5954656E+00
 5.2010430E+00 1.5956916E+00 1.5608287E+00
 5.2319550E+00 1.6379576E+00 1.5242908E+00
 5.2663202E+00 1.6761921E+00 1.4863013E+00
 5.3037345E+00 1.7100588E+00 1.4473620E+00
 5.3437542E+00 1.7393759E+00 1.4079971E+00
 5.3859264E+00 1.7641239E+00 1.3687194E+00
 5.4298173E+00 1.7844400E+00 1.3299907E+00
 5.4750276E+00 1.8006008E+00 1.2921744E+00
 5.5211902E+00 1.8130002E+00 1.2554670E+00
 5.5679437E+00 1.8221215E+00 1.2198161E+00
 5.6148905E+00 1.8284974E+00 1.1848452E+00
 5.1550799E+00 1.2044434E+00 1.7780023E+00
 5.1578279E+00 1.2604370E+00 1.7620688E+00
 5.1632966E+00 1.3155067E+00 1.7428921E+00