# TIME = 2.300000
variables = x, y, z
zone N=5762 E=11520 F=FEPOINT ET=TRIANGLE
 5.4025485E+00 1.4268168E+00 1.6903477E+00
 5.4025485E+00 1.4268168E+00 3.0965218E-01
 5.4025485E+00 5.7318271E-01 1.6903479E+00
 5.4025485E+00 5.7318277E-01 3.0965206E-01
 3.9095429E+00 9.9999981E-01 1.6780064E+00
 6.8856102E+00 9.9999980E-01 1.6603015E+00
 3.9095429E+00 9.9999981E-01 3.2199336E-01
 6.8856101E+00 9.9999980E-01 3.3969845E-01
 4.5761441E+00 1.8374201E+00 9.9999993E-01
 4.5761441E+00 1.6257988E-01 9.9999993E-01
 6.2266122E+00 1.8214672E+00 9.9999993E-01
 6.2266123E+00 1.7853189E-01 9.9999993E-01
 5.3512688E+00 1.4185610E+00 1.6941416E+00
 5.2946522E+00 1.4095562E+00 1.6986269E+00
 5.2352344E+00 1.4003128E+00 1.7037140E+00
 5.1733070E+00 1.3908510E+00 1.7095401E+00
 5.1090950E+00 1.3811858E+00 1.7161959E+00
 5.0428374E+00 1.3712710E+00 1.7237512E+00
 4.9747677E+00 1.3610164E+00 1.7322148E+00
 4.9051828E+00 1.3502862E+00 1.7415079E+00
 4.8344180E+00 1.3388955E+00 1.7514414E+00
 4.7628343E+00 1.3266162E+00 1.7617020E+00
 4.6908006E+00 1.3131904E+00 1.7718513E+00
 4.6186866E+00 1.2983515E+00 1.7813405E+00
 4.5468688E+00 1.2818521E+00 1.7895396E+00
 4.4757437E+00 1.2634935E+00 1.7957819E+00
 4.4057468E+00 1.2431540E+00 1.7994195E+00
 4.3373623E+00 1.2208124E+00 1.7998841E+00
 4.2711192E+00 1.1965588E+00 1.7967453E+00
 4.2075673E+00 1.1705932E+00 1.7897551E+00
 4.1472366E+00 1.1432068E+00 1.7788688E+00
 4.0905948E+00 1.1147555E+00 1.7642386E+00
 4.0380384E+00 1.0856379E+00 1.7461969E+00
 3.9899014E+00 1.0562901E+00 1.7252279E+00
 3.9464853E+00 1.0272129E+00 1.7019642E+00
 5.3457099E+00 6.1056232E-01 1.7107666E+00
 5.2874124E+00 6.2101083E-01 1.7155785E+00
 5.2266728E+00 6.3141957E-01 1.7208459E+00
 5.1637547E+00 6.4201672E-01 1.7268108E+00
 5.0987146E+00 6.5291633E-01 1.7336191E+00
 5.0317445E+00 6.6417457E-01 1.7413217E+00
 4.9631052E+00 6.7589438E-01 1.7499034E+00
 4.8931165E+00 6.8822014E-01 1.7592512E+00
 4.8221395E+00 7.0133978E-01 1.7691359E+00
 4.7505530E+00 7.1547345E-01 1.7792016E+00
 4.6787385E+00 7.3085634E-01 1.7889703E+00
 4.6070743E+00 7.4771481E-01 1.7978629E+00
 4.5359431E+00 7.6623957E-01 1.8052346E+00
 4.4657452E+00 7.8655878E-01 1.8104245E+00
 4.3969154E+00 8.0871564E-01 1.8128128E+00
 4.3299290E+00 8.3265434E-01 1.8118808E+00
 4.2652939E+00 8.5821800E-01 1.8072631E+00
 4.2035215E+00 8.8516285E-01 1.7987835E+00
 4.1450908E+00 9.1318335E-01 1.7864654E+00
 4.0903904E+00 9.4194727E-01 1.7705081E+00
 4.0396082E+00 9.7108031E-01 1.7512034E+00
 3.9924358E+00 9.9999981E-01 1.7287176E+00
 5.3440119E+00 6.4053861E-01 1.7263451E+00
 5.2838307E+00 6.5244779E-01 1.7313304E+00
 5.2218321E+00 6.6406256E-01 1.7366378E+00
 5.1577428E+00 6.7592925E-01 1.7426505E+00
 5.0916610E+00 6.8816919E-01 1.7494949E+00
 5.0237494E+00 7.0087536E-01 1.7572205E+00
 4.9542972E+00 7.1415836E-01 1.7657858E+00
 4.8836534E+00 7.2817176E-01 1.7750460E+00
 4.8122071E+00 7.4310256E-01 1.7847310E+00
 4.7403592E+00 7.5915828E-01 1.7944415E+00
 4.6685088E+00 7.7654607E-01 1.8036590E+00
 4.5970471E+00 7.9544782E-01 1.8117742E+00
 4.5263669E+00 8.1599469E-01 1.8181292E+00
 4.4568757E+00 8.3824416E-01 1.8220714E+00
 4.3890093E+00 8.6216459E-01 1.8230132E+00
 4.3232347E+00 8.8762995E-01 1.8204895E+00
 4.2600351E+00 9.1443008E-01 1.8142031E+00
 4.1998758E+00 9.4229496E-01 1.8040488E+00
 4.1431327E+00 9.7093079E-01 1.7900977E+00
 4.0899344E+00 9.9999981E-01 1.7725108E+00
 4.0396082E+00 1.0289193E+00 1.7512035E+00
 5.3427532E+00 6.7213294E-01 1.7411254E+00
 5.2813216E+00 6.8523858E-01 1.7460157E+00
 5.2181038E+00 6.9812527E-01 1.7512615E+00
 5.1529265E+00 7.1130897E-01 1.7571960E+00
 5.0858274E+00 7.2496172E-01 1.7639509E+00
 5.0170144E+00 7.3917983E-01 1.7715543E+00
 4.9467982E+00 7.5408673E-01 1.7799420E+00
 4.8755612E+00 7.6983681E-01 1.7889341E+00
 4.8037191E+00 7.8660971E-01 1.7982206E+00
 4.7316952E+00 8.0459193E-01 1.8073616E+00
 4.6599046E+00 8.2395475E-01 1.8158043E+00
 4.5887506E+00 8.4482945E-01 1.8229182E+00
 4.5186338E+00 8.6728432E-01 1.8280437E+00
 4.4499645E+00 8.9130741E-01 1.8305492E+00
 4.3831738E+00 9.1679867E-01 1.8298907E+00
 4.3187094E+00 9.4357647E-01 1.8256644E+00
 4.2570121E+00 9.7139918E-01 1.8176418E+00
 4.1984514E+00 9.9999980E-01 1.8057708E+00
 4.1431327E+00 1.0290688E+00 1.7900978E+00
 4.0903904E+00 1.0580523E+00 1.7705082E+00
 5.3416238E+00 7.0545421E-01 1.7549775E+00
 5.2790660E+00 7.1973705E-01 1.7596411E+00
 5.2147844E+00 7.3388683E-01 1.7646861E+00
 5.1486229E+00 7.4842221E-01 1.7704099E+00
 5.0806457E+00 7.6351194E-01 1.7769227E+00
 5.0110822E+00 7.7926493E-01 1.7842352E+00
 4.9402774E+00 7.9580651E-01 1.7922551E+00
 4.8686424E+00 8.1328774E-01 1.8007690E+00
 4.7966179E+00 8.3187251E-01 1.8094299E+00
 4.7246455E+00 8.5171837E-01 1.8177642E+00
 4.6531525E+00 8.7295332E-01 1.8251952E+00
 4.5825493E+00 8.9565288E-01 1.8310852E+00
 4.5132379E+00 9.1982150E-01 1.8347881E+00
 4.4456231E+00 9.4538225E-01 1.8357082E+00
 4.3801179E+00 9.7217996E-01 1.8333558E+00
 4.3171313E+00 9.9999981E-01 1.8273918E+00
 4.2570121E+00 1.0286004E+00 1.8176419E+00
 4.1998758E+00 1.0577047E+00 1.8040489E+00
 4.1450908E+00 1.0868163E+00 1.7864655E+00
 5.3405615E+00 7.4051550E-01 1.7677253E+00
 5.2769889E+00 7.5595544E-01 1.7720341E+00
 5.2117769E+00 7.7137414E-01 1.7767441E+00
 5.1447878E+00 7.8726299E-01 1.7821078E+00
 5.0761076E+00 8.0378933E-01 1.7882138E+00
 5.0059954E+00 8.2106429E-01 1.7950507E+00
 4.9348255E+00 8.3921229E-01 1.8024991E+00
 4.8630355E+00 8.5837338E-01 1.8103139E+00
 4.7910864E+00 8.7868873E-01 1.8181170E+00
 4.7194329E+00 9.0027960E-01 1.8254106E+00
 4.6485088E+00 9.2322528E-01 1.8316075E+00
 4.5787245E+00 9.4754357E-01 1.8360782E+00
 4.5104751E+00 9.7317841E-01 1.8382053E+00
 4.4441477E+00 9.9999981E-01 1.8374412E+00
 4.3801179E+00 1.0278197E+00 1.8333558E+00
 4.3187093E+00 1.0564231E+00 1.8256645E+00
 4.2600350E+00 1.0855695E+00 1.8142032E+00
 4.2035215E+00 1.1148368E+00 1.7987837E+00
 5.3395995E+00 7.7723723E-01 1.7791658E+00
 5.2751382E+00 7.9380928E-01 1.7829911E+00
 5.2091485E+00 8.1047888E-01 1.7872237E+00
 5.1415077E+00 8.2769728E-01 1.7920698E+00
 5.0723251E+00 8.4562459E-01 1.7975945E+00
 5.0018872E+00 8.6437067E-01 1.8037643E+00
 4.9305949E+00 8.8405299E-01 1.8104337E+00
 4.8589075E+00 9.0479463E-01 1.8173302E+00
 4.7873005E+00 9.2670745E-01 1.8240529E+00
 4.7162354E+00 9.4987133E-01 1.8300915E+00
 4.6461454E+00 9.7431456E-01 1.8348624E+00
 4.5774329E+00 9.9999981E-01 1.8377590E+00
 4.5104751E+00 1.0268212E+00 1.8382054E+00
 4.4456231E+00 1.0546174E+00 1.8357083E+00
 4.3831738E+00 1.0832010E+00 1.8298908E+00
 4.3232346E+00 1.1123697E+00 1.8204897E+00
 4.2652938E+00 1.1417817E+00 1.8072634E+00
 5.3387578E+00 8.1546871E-01 1.7890889E+00
 5.2735575E+00 8.3312828E-01 1.7923008E+00
 5.2069617E+00 8.5100399E-01 1.7959105E+00
 5.1388645E+00 8.6949641E-01 1.8000786E+00
 5.0693968E+00 8.8875368E-01 1.8048468E+00
 4.9988698E+00 9.0887979E-01 1.8101602E+00
 4.9277064E+00 9.2998012E-01 1.8158503E+00
 4.8563815E+00 9.5215522E-01 1.8216238E+00
 4.7853783E+00 9.7548304E-01 1.8270664E+00
 4.7151580E+00 9.9999982E-01 1.8316681E+00
 4.6461454E+00 1.0256851E+00 1.8348625E+00
 4.5787245E+00 1.0524561E+00 1.8360783E+00
 4.5132379E+00 1.0801781E+00 1.8347883E+00
 4.4499645E+00 1.1086922E+00 1.8305494E+00
 4.3890093E+00 1.1378351E+00 1.8230135E+00
 4.3299290E+00 1.1673453E+00 1.8118811E+00
 5.3380601E+00 8.5501497E-01 1.7972986E+00
 5.2722866E+00 8.7369195E-01 1.7997696E+00
 5.2052724E+00 8.9269766E-01 1.8026126E+00
 5.1369268E+00 9.1237393E-01 1.8059462E+00
 5.0674008E+00 9.3285191E-01 1.8097900E+00
 4.9970261E+00 9.5422550E-01 1.8140695E+00
 4.9262417E+00 9.7658345E-01 1.8185982E+00
 4.8555313E+00 9.9999982E-01 1.8230694E+00
 4.7853783E+00 1.0245166E+00 1.8270665E+00
 4.7162354E+00 1.0501283E+00 1.8300916E+00
 4.6485089E+00 1.0767744E+00 1.8316076E+00
 4.5825493E+00 1.1043468E+00 1.8310854E+00
 4.5186338E+00 1.1327153E+00 1.8280439E+00
 4.4568757E+00 1.1617555E+00 1.8220717E+00
 4.3969154E+00 1.1912841E+00 1.8128132E+00
 5.3375212E+00 8.9563585E-01 1.8036220E+00
 5.2713557E+00 9.1523179E-01 1.8052322E+00
 5.2041217E+00 9.3526060E-01 1.8071734E+00
 5.1357436E+00 9.5599650E-01 1.8095277E+00
 5.0663893E+00 9.7754954E-01 1.8122950E+00
 4.9964059E+00 9.9999982E-01 1.8153849E+00
 4.9262417E+00 1.0234162E+00 1.8185982E+00
 4.8563815E+00 1.0478444E+00 1.8216239E+00
 4.7873005E+00 1.0732922E+00 1.8240531E+00
 4.7194329E+00 1.0997201E+00 1.8254107E+00
 4.6531525E+00 1.1270463E+00 1.8251954E+00
 4.5887506E+00 1.1551702E+00 1.8229186E+00
 4.5263669E+00 1.1840050E+00 1.8181295E+00
 4.4657452E+00 1.2134409E+00 1.8104249E+00
 5.3371546E+00 9.3705396E-01 1.8079199E+00
 5.2707877E+00 9.5744432E-01 1.8085625E+00
 5.2035390E+00 9.7835969E-01 1.8094824E+00
 5.1353458E+00 9.9999981E-01 1.8107319E+00
 5.0663893E+00 1.0224501E+00 1.8122950E+00
 4.9970260E+00 1.0457741E+00 1.8140696E+00
 4.9277063E+00 1.0700195E+00 1.8158504E+00
 4.8589075E+00 1.0952050E+00 1.8173304E+00
 4.7910864E+00 1.1213109E+00 1.8181171E+00
 4.7246455E+00 1.1482813E+00 1.8177645E+00
 4.6599046E+00 1.1760449E+00 1.8158046E+00
 4.5970471E+00 1.2045519E+00 1.8117746E+00
 4.5359431E+00 1.2337602E+00 1.8052350E+00
 5.3369689E+00 9.7896264E-01 1.8100941E+00
 5.2705968E+00 9.9999980E-01 1.8096816E+00
 5.2035390E+00 1.0216399E+00 1.8094824E+00
 5.1357436E+00 1.0440031E+00 1.8095276E+00
 5.0674007E+00 1.0671477E+00 1.8097900E+00
 4.9988698E+00 1.0911198E+00 1.8101603E+00
 4.9305948E+00 1.1159467E+00 1.8104338E+00
 4.8630355E+00 1.1416263E+00 1.8103140E+00
 4.7966179E+00 1.1681272E+00 1.8094302E+00
 4.7316952E+00 1.1954078E+00 1.8073620E+00
 4.6685088E+00 1.2234537E+00 1.8036594E+00
 4.6070744E+00 1.2522849E+00 1.7978634E+00
 5.3369689E+00 1.0210370E+00 1.8100940E+00
 5.2707877E+00 1.0425553E+00 1.8085625E+00
 5.2041217E+00 1.0647390E+00 1.8071734E+00
 5.1369268E+00 1.0876257E+00 1.8059461E+00
 5.0693968E+00 1.1112459E+00 1.8048469E+00
 5.0018871E+00 1.1356290E+00 1.8037643E+00
 4.9348255E+00 1.1607874E+00 1.8024992E+00
 4.8686424E+00 1.1867119E+00 1.8007692E+00
 4.8037192E+00 1.2133900E+00 1.7982209E+00
 4.7403593E+00 1.2408415E+00 1.7944419E+00
 4.6787385E+00 1.2691434E+00 1.7889708E+00
 5.3371545E+00 1.0629456E+00 1.8079198E+00
 5.2713557E+00 1.0847678E+00 1.8052322E+00
 5.2052724E+00 1.1073019E+00 1.8026125E+00
 5.1388645E+00 1.1305032E+00 1.8000786E+00
 5.0723251E+00 1.1543750E+00 1.7975945E+00
 5.0059953E+00 1.1789354E+00 1.7950507E+00
 4.9402774E+00 1.2041932E+00 1.7922552E+00
 4.8755612E+00 1.2301629E+00 1.7889343E+00
 4.8122071E+00 1.2568972E+00 1.7847313E+00
 4.7505530E+00 1.2845263E+00 1.7792020E+00
 5.3375211E+00 1.1043637E+00 1.8036220E+00
 5.2722866E+00 1.1263076E+00 1.7997696E+00
 5.2069617E+00 1.1489956E+00 1.7959104E+00
 5.1415076E+00 1.1723023E+00 1.7920698E+00
 5.0761076E+00 1.1962103E+00 1.7882138E+00
 5.0110821E+00 1.2207347E+00 1.7842352E+00
 4.9467982E+00 1.2459129E+00 1.7799421E+00
 4.8836534E+00 1.2718279E+00 1.7750462E+00
 4.8221396E+00 1.2986600E+00 1.7691362E+00
 5.3380601E+00 1.1449846E+00 1.7972985E+00
 5.2735575E+00 1.1668713E+00 1.7923007E+00
 5.2091484E+00 1.1895207E+00 1.7872236E+00
 5.1447877E+00 1.2127366E+00 1.7821078E+00
 5.0806456E+00 1.2364877E+00 1.7769227E+00
 5.0170143E+00 1.2608198E+00 1.7715544E+00
 4.9542971E+00 1.2858413E+00 1.7657859E+00
 4.8931164E+00 1.3117796E+00 1.7592515E+00
 5.3387578E+00 1.1845309E+00 1.7890888E+00
 5.2751382E+00 1.2061903E+00 1.7829910E+00
 5.2117769E+00 1.2286254E+00 1.7767440E+00
 5.1486229E+00 1.2515774E+00 1.7704098E+00
 5.0858273E+00 1.2750379E+00 1.7639509E+00
 5.0237493E+00 1.2991243E+00 1.7572205E+00
 4.9631051E+00 1.3241053E+00 1.7499035E+00
 5.3395995E+00 1.2227623E+00 1.7791657E+00
 5.2769889E+00 1.2440441E+00 1.7720340E+00
 5.2147844E+00 1.2661128E+00 1.7646860E+00
 5.1529265E+00 1.2886906E+00 1.7571959E+00
 5.0916609E+00 1.3118304E+00 1.7494949E+00
 5.0317444E+00 1.3358251E+00 1.7413218E+00
 5.3405615E+00 1.2594841E+00 1.7677252E+00
 5.2790660E+00 1.2802625E+00 1.7596410E+00
 5.2181038E+00 1.3018743E+00 1.7512614E+00
 5.1577427E+00 1.3240703E+00 1.7426504E+00
 5.0987145E+00 1.3470833E+00 1.7336191E+00
 5.3416238E+00 1.2945453E+00 1.7549774E+00
 5.2813216E+00 1.3147610E+00 1.7460156E+00
 5.2218321E+00 1.3359370E+00 1.7366377E+00
 5.1637547E+00 1.3579829E+00 1.7268107E+00
 5.3427532E+00 1.3278666E+00 1.7411252E+00
 5.2838306E+00 1.3475518E+00 1.7313303E+00
 5.2266728E+00 1.3685800E+00 1.7208458E+00
 5.3440119E+00 1.3594609E+00 1.7263449E+00
 5.2874124E+00 1.3789887E+00 1.7155784E+00
 5.3457099E+00 1.3894372E+00 1.7107664E+00
 5.4026484E+00 1.4016674E+00 1.7052658E+00
 5.4027310E+00 1.3730169E+00 1.7208438E+00
 5.4027621E+00 1.3426161E+00 1.7357981E+00
 5.4027869E+00 1.3103170E+00 1.7500034E+00
 5.4028094E+00 1.2762126E+00 1.7632330E+00
 5.4028315E+00 1.2404029E+00 1.7752683E+00
 5.4028514E+00 1.2030228E+00 1.7858952E+00
 5.4028688E+00 1.1642409E+00 1.7949138E+00
 5.4028828E+00 1.1242758E+00 1.8021406E+00
 5.4028933E+00 1.0833837E+00 1.8074216E+00
 5.4028996E+00 1.0418542E+00 1.8106392E+00
 5.4029018E+00 9.9999980E-01 1.8117200E+00
 5.4028996E+00 9.5814544E-01 1.8106392E+00
 5.4028933E+00 9.1661591E-01 1.8074216E+00
 5.4028828E+00 8.7572378E-01 1.8021407E+00
 5.4028688E+00 8.3575873E-01 1.7949139E+00
 5.4028514E+00 7.9697675E-01 1.7858953E+00
 5.4028315E+00 7.5959667E-01 1.7752684E+00
 5.4028094E+00 7.2378696E-01 1.7632332E+00
 5.4027869E+00 6.8968254E-01 1.7500036E+00
 5.4027621E+00 6.5738344E-01 1.7357983E+00
 5.4027310E+00 6.2698259E-01 1.7208440E+00
 5.4026484E+00 5.9833211E-01 1.7052660E+00
 5.4538842E+00 5.8013178E-01 1.6963012E+00
 5.5104786E+00 5.8783709E-01 1.7030842E+00
 5.5697834E+00 5.9594978E-01 1.7103148E+00
 5.6315005E+00 6.0456383E-01 1.7179104E+00
 5.6954314E+00 6.1377171E-01 1.7257296E+00
 5.7613577E+00 6.2370258E-01 1.7336113E+00
 5.8290793E+00 6.3449756E-01 1.7413660E+00
 5.8983288E+00 6.4629596E-01 1.7487751E+00
 5.9687874E+00 6.5923093E-01 1.7556005E+00
 6.0400832E+00 6.7342023E-01 1.7615931E+00
 6.1118011E+00 6.8896103E-01 1.7665024E+00
 6.1834923E+00 7.0592400E-01 1.7700852E+00
 6.2546864E+00 7.2434955E-01 1.7721123E+00
 6.3249060E+00 7.4424461E-01 1.7723760E+00
 6.3936803E+00 7.6558089E-01 1.7706958E+00
 6.4605608E+00 7.8829373E-01 1.7669253E+00
 6.5251346E+00 8.1228292E-01 1.7609586E+00
 6.5870360E+00 8.3741513E-01 1.7527360E+00
 6.6459555E+00 8.6352887E-01 1.7422469E+00
 6.7016417E+00 8.9044186E-01 1.7295316E+00
 6.7538689E+00 9.1794326E-01 1.7146912E+00
 6.8024039E+00 9.4578922E-01 1.6978949E+00
 6.8469324E+00 9.7364066E-01 1.6794262E+00
 5.4596106E+00 1.3908166E+00 1.7132082E+00
 5.5178313E+00 1.3815978E+00 1.7204115E+00
 5.5784120E+00 1.3722086E+00 1.7278709E+00
 5.6410831E+00 1.3623258E+00 1.7355915E+00
 5.7058034E+00 1.3517527E+00 1.7434814E+00
 5.7724105E+00 1.3403664E+00 1.7513610E+00
 5.8406779E+00 1.3280360E+00 1.7590206E+00
 5.9103190E+00 1.3146359E+00 1.7662239E+00
 5.9809871E+00 1.3000517E+00 1.7727182E+00
 6.0522878E+00 1.2841877E+00 1.7782444E+00
 6.1237865E+00 1.2669732E+00 1.7825468E+00
 6.1950210E+00 1.2483671E+00 1.7853821E+00
 6.2655144E+00 1.2283609E+00 1.7865270E+00
 6.3347903E+00 1.2069811E+00 1.7857848E+00
 6.4023872E+00 1.1842893E+00 1.7829917E+00
 6.4678742E+00 1.1603816E+00 1.7780236E+00
 6.5308633E+00 1.1353851E+00 1.7708013E+00
 6.5910213E+00 1.1094511E+00 1.7612946E+00
 6.6480770E+00 1.0827431E+00 1.7495239E+00
 6.7018360E+00 1.0554285E+00 1.7355515E+00
 6.7522646E+00 1.0277025E+00 1.7194380E+00
 6.7997668E+00 9.9999980E-01 1.7011021E+00
 5.4614289E+00 1.3608027E+00 1.7289086E+00
 5.5215109E+00 1.3500543E+00 1.7364043E+00
 5.5833220E+00 1.3393585E+00 1.7439657E+00
 5.6471330E+00 1.3280986E+00 1.7517472E+00
 5.7128644E+00 1.3160825E+00 1.7596250E+00
 5.7803840E+00 1.3031706E+00 1.7674122E+00
 5.8494426E+00 1.2892438E+00 1.7748768E+00
 5.9197252E+00 1.2741895E+00 1.7817641E+00
 5.9908566E+00 1.2579122E+00 1.7878054E+00
 6.0624149E+00 1.2403398E+00 1.7927306E+00
 6.1339428E+00 1.2214292E+00 1.7962784E+00
 6.2049612E+00 1.2011702E+00 1.7982063E+00
 6.2749833E+00 1.1795873E+00 1.7982976E+00
 6.3435313E+00 1.1567405E+00 1.7963692E+00
 6.4101517E+00 1.1327242E+00 1.7922770E+00
 6.4744308E+00 1.1076633E+00 1.7859223E+00
 6.5360084E+00 1.0817052E+00 1.7772552E+00
 6.5945942E+00 1.0550052E+00 1.7662749E+00
 6.6500037E+00 1.0277122E+00 1.7530153E+00
 6.7022886E+00 9.9999980E-01 1.7374866E+00
 6.7522646E+00 9.7229713E-01 1.7194381E+00
 5.4627498E+00 1.3291217E+00 1.7438036E+00
 5.5240689E+00 1.3170806E+00 1.7513002E+00
 5.5870808E+00 1.3050070E+00 1.7588640E+00
 5.6519588E+00 1.2923248E+00 1.7665812E+00
 5.7186850E+00 1.2788071E+00 1.7743248E+00
 5.7870866E+00 1.2643282E+00 1.7818815E+00
 5.8568952E+00 1.2487767E+00 1.7890012E+00
 5.9277633E+00 1.2320577E+00 1.7954111E+00
 5.9992870E+00 1.2140975E+00 1.8008289E+00
 6.0710182E+00 1.1948504E+00 1.8049768E+00
 6.1424786E+00 1.1743033E+00 1.8075917E+00
 6.2131749E+00 1.1524782E+00 1.8084362E+00
 6.2826149E+00 1.1294331E+00 1.8073059E+00
 6.3503247E+00 1.1052605E+00 1.8040363E+00
 6.4158646E+00 1.0800839E+00 1.7985081E+00
 6.4788466E+00 1.0540486E+00 1.7906515E+00
 6.5389544E+00 1.0273065E+00 1.7804453E+00
 6.5959835E+00 9.9999980E-01 1.7679042E+00
 6.6500037E+00 9.7228736E-01 1.7530153E+00
 6.7018361E+00 9.4457115E-01 1.7355515E+00
 5.4639244E+00 1.2956962E+00 1.7577642E+00
 5.5263605E+00 1.2823647E+00 1.7651240E+00
 5.5904207E+00 1.2689131E+00 1.7725425E+00
 5.6562647E+00 1.2547728E+00 1.7800575E+00
 5.7238504E+00 1.2397359E+00 1.7875111E+00
 5.7929867E+00 1.2236830E+00 1.7946715E+00
 5.8633729E+00 1.2065202E+00 1.8012692E+00
 5.9346338E+00 1.1881729E+00 1.8070172E+00
 6.0063380E+00 1.1685931E+00 1.8116240E+00
 6.0780155E+00 1.1477646E+00 1.8148089E+00
 6.1491725E+00 1.1257061E+00 1.8163134E+00
 6.2193087E+00 1.1024729E+00 1.8159117E+00
 6.2879339E+00 1.0781551E+00 1.8134175E+00
 6.3545866E+00 1.0528737E+00 1.8086909E+00
 6.4188521E+00 1.0267722E+00 1.8016413E+00
 6.4803851E+00 9.9999980E-01 1.7922277E+00
 6.5389544E+00 9.7269306E-01 1.7804454E+00
 6.5945942E+00 9.4499441E-01 1.7662749E+00
 6.6480770E+00 9.1725651E-01 1.7495239E+00
 5.4650281E+00 1.2605156E+00 1.7706155E+00
 5.5284690E+00 1.2459025E+00 1.7777017E+00
 5.5934456E+00 1.2310594E+00 1.7848316E+00
 5.6601005E+00 1.2154580E+00 1.7919876E+00
 5.7283726E+00 1.1989086E+00 1.7989844E+00
 5.7980441E+00 1.1813090E+00 1.8055704E+00
 5.8687872E+00 1.1625847E+00 1.8114617E+00
 5.9401999E+00 1.1426865E+00 1.8163608E+00
 6.0118287E+00 1.1215950E+00 1.8199729E+00
 6.0831875E+00 1.0993255E+00 1.8220209E+00
 6.1537743E+00 1.0759296E+00 1.8222574E+00
 6.2230899E+00 1.0514942E+00 1.8204744E+00
 6.2906556E+00 1.0261374E+00 1.8165102E+00
 6.3560339E+00 9.9999980E-01 1.8102532E+00
 6.4188521E+00 9.7322736E-01 1.8016414E+00
 6.4788466E+00 9.4595100E-01 1.7906515E+00
 6.5360084E+00 9.1829438E-01 1.7772553E+00
 6.5910213E+00 8.9054847E-01 1.7612947E+00
 5.4660295E+00 1.2236626E+00 1.7821505E+00
 5.5303497E+00 1.2077822E+00 1.7888244E+00
 5.5960906E+00 1.1915595E+00 1.7955136E+00
 5.6633820E+00 1.1745203E+00 1.8021465E+00
 5.7321420E+00 1.1565003E+00 1.8085126E+00
 5.8021283E+00 1.1374180E+00 1.8143445E+00
 5.8729880E+00 1.1172229E+00 1.8193475E+00
 5.9442972E+00 1.0958937E+00 1.8232199E+00
 6.0155860E+00 1.0734420E+00 1.8256697E+00
 6.0863595E+00 1.0499153E+00 1.8264302E+00
 6.1561159E+00 1.0253965E+00 1.8252713E+00
 6.2243665E+00 9.9999980E-01 1.8220092E+00
 6.2906556E+00 9.7386217E-01 1.8165102E+00
 6.3545866E+00 9.4712587E-01 1.8086909E+00
 6.4158646E+00 9.1991572E-01 1.7985081E+00
 6.4744308E+00 8.9233632E-01 1.7859223E+00
 6.5308633E+00 8.6461446E-01 1.7708013E+00
 5.4669063E+00 1.1852872E+00 1.7921573E+00
 5.5319562E+00 1.1681747E+00 1.7982770E+00
 5.5982912E+00 1.1506122E+00 1.8043693E+00
 5.6660259E+00 1.1321915E+00 1.8103132E+00
 5.7350597E+00 1.1127786E+00 1.8158767E+00
 5.8051275E+00 1.0923166E+00 1.8207811E+00
 5.8758558E+00 1.0707819E+00 1.8247266E+00
 5.9468041E+00 1.0481830E+00 1.8274135E+00
 6.0174935E+00 1.0245630E+00 1.8285594E+00
 6.0874281E+00 9.9999980E-01 1.8279142E+00
 6.1561159E+00 9.7460309E-01 1.8252713E+00
 6.2230899E+00 9.4850536E-01 1.8204745E+00
 6.2879339E+00 9.2184449E-01 1.8134175E+00
 6.3503247E+00 8.9473905E-01 1.8040364E+00
 6.4101517E+00 8.6727539E-01 1.7922771E+00
 6.4678742E+00 8.3961803E-01 1.7780237E+00
 5.4676339E+00 1.1455859E+00 1.8004372E+00
 5.5332484E+00 1.1273035E+00 1.8058617E+00
 5.5999913E+00 1.1084739E+00 1.8112024E+00
 5.6679642E+00 1.0887634E+00 1.8162962E+00
 5.7370484E+00 1.0680733E+00 1.8208949E+00
 5.8069600E+00 1.0463737E+00 1.8247137E+00
 5.8773098E+00 1.0236697E+00 1.8274540E+00
 5.9476478E+00 9.9999980E-01 1.8288249E+00
 6.0174935E+00 9.7543663E-01 1.8285594E+00
 6.0863595E+00 9.5008427E-01 1.8264302E+00
 6.1537743E+00 9.2406998E-01 1.8222574E+00
 6.2193087E+00 8.9752666E-01 1.8159117E+00
 6.2826150E+00 8.7056653E-01 1.8073060E+00
 6.3435313E+00 8.4325909E-01 1.7963693E+00
 6.4023872E+00 8.1571031E-01 1.7829918E+00
 5.4681959E+00 1.1048005E+00 1.8068155E+00
 5.5341950E+00 1.0854407E+00 1.8114096E+00
 5.6011491E+00 1.0654493E+00 1.8158527E+00
 5.6691475E+00 1.0445757E+00 1.8199480E+00
 5.7380560E+00 1.0227596E+00 1.8234376E+00
 5.8075764E+00 9.9999980E-01 1.8260366E+00
 5.8773098E+00 9.7632988E-01 1.8274540E+00
 5.9468041E+00 9.5181656E-01 1.8274136E+00
 6.0155860E+00 9.2655760E-01 1.8256698E+00
 6.0831875E+00 9.0067410E-01 1.8220210E+00
 6.1491725E+00 8.7429345E-01 1.8163135E+00
 6.2131749E+00 8.4752140E-01 1.8084363E+00
 6.2749833E+00 8.2041231E-01 1.7982977E+00
 6.3347903E+00 7.9301849E-01 1.7857849E+00
 5.4685784E+00 1.0632107E+00 1.8111508E+00
 5.5347725E+00 1.0428945E+00 1.8147923E+00
 5.6017355E+00 1.0218779E+00 1.8182071E+00
 5.6695454E+00 9.9999980E-01 1.8211758E+00
 5.7380560E+00 9.7724000E-01 1.8234376E+00
 5.8069600E+00 9.5362589E-01 1.8247137E+00
 5.8758558E+00 9.2921767E-01 1.8247266E+00
 5.9442972E+00 9.0410592E-01 1.8232200E+00
 6.0118287E+00 8.7840464E-01 1.8199730E+00
 6.0780155E+00 8.5223501E-01 1.8148090E+00
 6.1424786E+00 8.2569629E-01 1.8075918E+00
 6.2049612E+00 7.9882938E-01 1.7982064E+00
 6.2655144E+00 7.7163867E-01 1.7865271E+00
 5.4687720E+00 1.0211258E+00 1.8133441E+00
 5.5349666E+00 9.9999980E-01 1.8159290E+00
 5.6017355E+00 9.7812174E-01 1.8182071E+00
 5.6691475E+00 9.5542391E-01 1.8199480E+00
 5.7370484E+00 9.3192632E-01 1.8208949E+00
 5.8051275E+00 9.0768300E-01 1.8207812E+00
 5.8729880E+00 8.8277667E-01 1.8193476E+00
 5.9401999E+00 8.5731310E-01 1.8163609E+00
 6.0063380E+00 8.3140647E-01 1.8116241E+00
 6.0710182E+00 8.0514914E-01 1.8049769E+00
 6.1339428E+00 7.7857035E-01 1.7962786E+00
 6.1950210E+00 7.5163250E-01 1.7853823E+00
 5.4687720E+00 9.7887378E-01 1.8133441E+00
 5.5347725E+00 9.5710510E-01 1.8147923E+00
 5.6011491E+00 9.3455035E-01 1.8158528E+00
 5.6679642E+00 9.1123618E-01 1.8162962E+00
 5.7350597E+00 8.8722097E-01 1.8158768E+00
 5.8021283E+00 8.6258161E-01 1.8143446E+00
 5.8687872E+00 8.3741484E-01 1.8114618E+00
 5.9346338E+00 8.1182668E-01 1.8070174E+00
 5.9992870E+00 7.8590203E-01 1.8008291E+00
 6.0624149E+00 7.5965977E-01 1.7927307E+00
 6.1237865E+00 7.3302635E-01 1.7825469E+00
 5.4685784E+00 9.3678890E-01 1.8111509E+00
 5.5341949E+00 9.1455888E-01 1.8114097E+00
 5.5999912E+00 8.9152570E-01 1.8112025E+00
 5.6660259E+00 8.6780809E-01 1.8103133E+00
 5.7321420E+00 8.4349924E-01 1.8085128E+00
 5.7980441E+00 8.1869059E-01 1.8055706E+00
 5.8633729E+00 7.9347937E-01 1.8012694E+00
 5.9277633E+00 7.6794183E-01 1.7954113E+00
 5.9908566E+00 7.4208738E-01 1.7878055E+00
 6.0522878E+00 7.1581183E-01 1.7782446E+00
 5.4681959E+00 8.9519908E-01 1.8068155E+00
 5.5332484E+00 8.7269610E-01 1.8058617E+00
 5.5982911E+00 8.4938740E-01 1.8043694E+00
 5.6633820E+00 8.2547923E-01 1.8021466E+00
 5.7283726E+00 8.0109098E-01 1.7989845E+00
 5.7929867E+00 7.7631655E-01 1.7946717E+00
 5.8568951E+00 7.5122291E-01 1.7890014E+00
 5.9197252E+00 7.2581007E-01 1.7817643E+00
 5.9809871E+00 6.9994783E-01 1.7727184E+00
 5.4676338E+00 8.5441364E-01 1.8004373E+00
 5.5319562E+00 8.3182492E-01 1.7982771E+00
 5.5960905E+00 8.0844012E-01 1.7955137E+00
 5.6601005E+00 7.8454154E-01 1.7919877E+00
 5.7238504E+00 7.6026365E-01 1.7875113E+00
 5.7870866E+00 7.3567133E-01 1.7818817E+00
 5.8494426E+00 7.1075575E-01 1.7748770E+00
 5.9103190E+00 6.8536362E-01 1.7662242E+00
 5.4669063E+00 8.1471236E-01 1.7921574E+00
 5.5303496E+00 7.9221741E-01 1.7888246E+00
 5.5934455E+00 7.6894018E-01 1.7848318E+00
 5.6562647E+00 7.4522676E-01 1.7800576E+00
 5.7186850E+00 7.2119246E-01 1.7743250E+00
 5.7803840E+00 6.9682894E-01 1.7674125E+00
 5.8406779E+00 6.7196356E-01 1.7590208E+00
 5.4660295E+00 7.7633693E-01 1.7821507E+00
 5.5284689E+00 7.5409702E-01 1.7777019E+00
 5.5904206E+00 7.3108647E-01 1.7725426E+00
 5.6519587E+00 7.0767471E-01 1.7665814E+00
 5.7128643E+00 6.8391702E-01 1.7596252E+00
 5.7724105E+00 6.5963309E-01 1.7513612E+00
 5.4650281E+00 7.3948394E-01 1.7706156E+00
 5.5263604E+00 7.1763483E-01 1.7651242E+00
 5.5870808E+00 6.9499255E-01 1.7588642E+00
 5.6471329E+00 6.7190092E-01 1.7517475E+00
 5.7058034E+00 6.4824683E-01 1.7434817E+00
 5.4639244E+00 7.0430335E-01 1.7577644E+00
 5.5240689E+00 6.8291897E-01 1.7513004E+00
 5.5833219E+00 6.6064097E-01 1.7439659E+00
 5.6410830E+00 6.3767368E-01 1.7355917E+00
 5.4627497E+00 6.7087780E-01 1.7438038E+00
 5.5215109E+00 6.4994517E-01 1.7364045E+00
 5.5784120E+00 6.2779090E-01 1.7278711E+00
 5.4614289E+00 6.3919681E-01 1.7289088E+00
 5.5178313E+00 6.1840167E-01 1.7204117E+00
 5.4596105E+00 6.0918289E-01 1.7132084E+00
 5.3709303E+00 1.4461848E+00 1.6771377E+00
 5.3358100E+00 1.4674787E+00 1.6618509E+00
 5.2992002E+00 1.4893835E+00 1.6452586E+00
 5.2611912E+00 1.5117948E+00 1.6273291E+00
 5.2219381E+00 1.5346216E+00 1.6080296E+00
 5.1816377E+00 1.5577742E+00 1.5873129E+00
 5.1405006E+00 1.5811641E+00 1.5651142E+00
 5.0987702E+00 1.6046697E+00 1.5413784E+00
 5.0567276E+00 1.6281427E+00 1.5160558E+00
 5.0146817E+00 1.6514013E+00 1.4891118E+00
 4.9729589E+00 1.6742349E+00 1.4605310E+00
 4.9318909E+00 1.6964072E+00 1.4303260E+00
 4.8918018E+00 1.7176647E+00 1.3985455E+00
 4.8529958E+00 1.7377481E+00 1.3652808E+00
 4.8157469E+00 1.7564066E+00 1.3306692E+00
 4.7802897E+00 1.7734119E+00 1.2948946E+00
 4.7468134E+00 1.7885722E+00 1.2581817E+00
 4.7154588E+00 1.8017434E+00 1.2207871E+00
 4.6863176E+00 1.8128352E+00 1.1829861E+00
 4.6594406E+00 1.8218129E+00 1.1450589E+00
 4.6348659E+00 1.8286900E+00 1.1073023E+00
 4.6126333E+00 1.8335224E+00 1.0700192E+00
 4.5928640E+00 1.8364072E+00 1.0336290E+00
 3.9377825E+00 1.0787606E+00 1.6927492E+00
 3.9296161E+00 1.1300674E+00 1.6797506E+00
 3.9242507E+00 1.1828055E+00 1.6639521E+00
 3.9225209E+00 1.2369403E+00 1.6454801E+00
 3.9248745E+00 1.2920975E+00 1.6242652E+00
 3.9316714E+00 1.3477432E+00 1.6002589E+00
 3.9432124E+00 1.4032371E+00 1.5734794E+00
 3.9597164E+00 1.4578543E+00 1.5440273E+00
 3.9812882E+00 1.5108146E+00 1.5120917E+00
 4.0078938E+00 1.5613189E+00 1.4779532E+00
 4.0393448E+00 1.6085951E+00 1.4419822E+00
 4.0752943E+00 1.6519495E+00 1.4046295E+00
 4.1152481E+00 1.6908179E+00 1.3664090E+00
 4.1585910E+00 1.7248101E+00 1.3278701E+00
 4.2046265E+00 1.7537385E+00 1.2895657E+00
 4.2526244E+00 1.7776264E+00 1.2520166E+00
 4.3018693E+00 1.7966927E+00 1.2156807E+00
 4.3517055E+00 1.8113178E+00 1.1809277E+00
 4.4015670E+00 1.8219946E+00 1.1480287E+00
 4.4510075E+00 1.8292766E+00 1.1171480E+00
 4.4996693E+00 1.8337339E+00 1.0882966E+00
 4.5471616E+00 1.8359283E+00 1.0611487E+00
 3.9837125E+00 1.1097752E+00 1.7157982E+00
 3.9780810E+00 1.1625468E+00 1.7026046E+00
 3.9752283E+00 1.2160954E+00 1.6864380E+00
 3.9761294E+00 1.2706390E+00 1.6674368E+00
 3.9812326E+00 1.3258346E+00 1.6455288E+00
 3.9908540E+00 1.3811128E+00 1.6206696E+00
 4.0052324E+00 1.4357834E+00 1.5928987E+00
 4.0245080E+00 1.4890800E+00 1.5623532E+00
 4.0486930E+00 1.5402038E+00 1.5292710E+00
 4.0776527E+00 1.5883705E+00 1.4939903E+00
 4.1110986E+00 1.6328612E+00 1.4569426E+00
 4.1485958E+00 1.6730754E+00 1.4186361E+00
 4.1895857E+00 1.7085762E+00 1.3796310E+00
 4.2334217E+00 1.7391228E+00 1.3405061E+00
 4.2794133E+00 1.7646829E+00 1.3018226E+00
 4.3268721E+00 1.7854220E+00 1.2640890E+00
 4.3751569E+00 1.8016735E+00 1.2277321E+00
 4.4237103E+00 1.8138940E+00 1.1930779E+00
 4.4720969E+00 1.8226146E+00 1.1603263E+00
 4.5199762E+00 1.8283991E+00 1.1294888E+00
 4.5670439E+00 1.8318347E+00 1.0999996E+00
 4.0342389E+00 1.1398835E+00 1.7362647E+00
 4.0310834E+00 1.1933461E+00 1.7226320E+00
 4.0308044E+00 1.2473078E+00 1.7059202E+00
 4.0343763E+00 1.3019173E+00 1.6862120E+00
 4.0422196E+00 1.3567980E+00 1.6634329E+00
 4.0545952E+00 1.4113326E+00 1.6375580E+00
 4.0716707E+00 1.4647893E+00 1.6086619E+00
 4.0935012E+00 1.5163803E+00 1.5769311E+00
 4.1200054E+00 1.5653156E+00 1.5426629E+00
 4.1509548E+00 1.6108560E+00 1.5062598E+00
 4.1859766E+00 1.6523666E+00 1.4682159E+00
 4.2245726E+00 1.6893650E+00 1.4290922E+00
 4.2661498E+00 1.7215560E+00 1.3894847E+00
 4.3100612E+00 1.7488489E+00 1.3499864E+00
 4.3556492E+00 1.7713516E+00 1.3111498E+00
 4.4022902E+00 1.7893456E+00 1.2734537E+00
 4.4494326E+00 1.8032451E+00 1.2372773E+00
 4.4966381E+00 1.8135509E+00 1.2028737E+00
 4.5435727E+00 1.8208151E+00 1.1702755E+00
 4.5898978E+00 1.8256400E+00 1.1389802E+00
 4.0891137E+00 1.1692420E+00 1.7535383E+00
 4.0884779E+00 1.2229320E+00 1.7392480E+00
 4.0908380E+00 1.2768673E+00 1.7217982E+00
 4.0971134E+00 1.3311040E+00 1.7012134E+00
 4.1076625E+00 1.3852054E+00 1.6774244E+00
 4.1226777E+00 1.4385165E+00 1.6504384E+00
 4.1422469E+00 1.4902854E+00 1.6203787E+00
 4.1663384E+00 1.5397322E+00 1.5874905E+00
 4.1947837E+00 1.5861090E+00 1.5521359E+00
 4.2272760E+00 1.6287553E+00 1.5147813E+00
 4.2633830E+00 1.6671478E+00 1.4759754E+00
 4.3025732E+00 1.7009388E+00 1.4363174E+00
 4.3442517E+00 1.7299769E+00 1.3964197E+00
 4.3877998E+00 1.7543074E+00 1.3568678E+00
 4.4326189E+00 1.7741519E+00 1.3181843E+00
 4.4781683E+00 1.7898727E+00 1.2807992E+00
 4.5240119E+00 1.8019306E+00 1.2450142E+00
 4.5698110E+00 1.8108523E+00 1.2109230E+00
 4.6152164E+00 1.8172442E+00 1.1781008E+00
 4.1480639E+00 1.1975521E+00 1.7671981E+00
 4.1499843E+00 1.2510448E+00 1.7520572E+00
 4.1550103E+00 1.3045107E+00 1.7337028E+00