# TIME = 1.200000
variables = x, y, z
zone N=5762 E=11520 F=FEPOINT ET=TRIANGLE
 5.2128765E+00 1.4262696E+00 1.6894875E+00
 5.2128765E+00 1.4262696E+00 3.1051243E-01
 5.2128765E+00 5.7373012E-01 1.6894877E+00
 5.2128765E+00 5.7373020E-01 3.1051242E-01
 3.7210827E+00 9.9999991E-01 1.6765481E+00
 6.6966991E+00 9.9999991E-01 1.6627123E+00
 3.7210827E+00 9.9999991E-01 3.2345192E-01
 6.6966990E+00 9.9999991E-01 3.3728768E-01
 4.3881294E+00 1.8338205E+00 9.9999997E-01
 4.3881294E+00 1.6617957E-01 9.9999997E-01
 6.0368204E+00 1.8250796E+00 9.9999997E-01
 6.0368204E+00 1.7491996E-01 9.9999997E-01
 5.1613157E+00 1.4181590E+00 1.6935385E+00
 5.1047767E+00 1.4093385E+00 1.6983245E+00
 5.0455273E+00 1.4002663E+00 1.7037235E+00
 4.9839422E+00 1.3909755E+00 1.7098093E+00
 4.9201108E+00 1.3814220E+00 1.7166483E+00
 4.8542508E+00 1.3715456E+00 1.7242612E+00
 4.7865735E+00 1.3612406E+00 1.7326180E+00
 4.7173567E+00 1.3503696E+00 1.7416099E+00
 4.6469118E+00 1.3387554E+00 1.7510389E+00
 4.5755805E+00 1.3261899E+00 1.7606074E+00
 4.5037251E+00 1.3124445E+00 1.7699176E+00
 4.4317245E+00 1.2972886E+00 1.7784833E+00
 4.3599772E+00 1.2805115E+00 1.7857523E+00
 4.2889069E+00 1.2619472E+00 1.7911425E+00
 4.2189707E+00 1.2414988E+00 1.7940869E+00
 4.1506618E+00 1.2191570E+00 1.7940855E+00
 4.0845016E+00 1.1950112E+00 1.7907540E+00
 4.0210187E+00 1.1692484E+00 1.7838635E+00
 3.9607150E+00 1.1421381E+00 1.7733601E+00
 3.9040286E+00 1.1140108E+00 1.7593626E+00
 3.8513040E+00 1.0852236E+00 1.7421415E+00
 3.8028196E+00 1.0561685E+00 1.7220977E+00
 3.7588037E+00 1.0272422E+00 1.6997384E+00
 5.1564967E+00 6.1065572E-01 1.7100392E+00
 5.0985213E+00 6.2070879E-01 1.7150492E+00
 5.0381036E+00 6.3089328E-01 1.7206006E+00
 4.9754721E+00 6.4135046E-01 1.7268327E+00
 4.9107010E+00 6.5216293E-01 1.7338201E+00
 4.8439773E+00 6.6340317E-01 1.7415690E+00
 4.7755581E+00 6.7518295E-01 1.7500240E+00
 4.7057443E+00 6.8764881E-01 1.7590480E+00
 4.6348762E+00 7.0097901E-01 1.7684069E+00
 4.5633183E+00 7.1537433E-01 1.7777653E+00
 4.4914528E+00 7.3104318E-01 1.7866887E+00
 4.4196752E+00 7.4818165E-01 1.7946613E+00
 4.3483973E+00 7.6695113E-01 1.8011137E+00
 4.2780522E+00 7.8745533E-01 1.8054642E+00
 4.2091007E+00 8.0972106E-01 1.8071668E+00
 4.1420304E+00 8.3368575E-01 1.8057626E+00
 4.0773456E+00 8.5919451E-01 1.8009253E+00
 4.0155422E+00 8.8601079E-01 1.7924926E+00
 3.9570772E+00 9.1383510E-01 1.7804783E+00
 3.9023244E+00 9.4234568E-01 1.7650581E+00
 3.8515167E+00 9.7120959E-01 1.7465199E+00
 3.8044814E+00 9.9999991E-01 1.7250872E+00
 5.1551153E+00 6.4039855E-01 1.7255329E+00
 5.0955413E+00 6.5175304E-01 1.7306701E+00
 5.0339304E+00 6.6312102E-01 1.7362597E+00
 4.9701005E+00 6.7485723E-01 1.7425435E+00
 4.9041988E+00 6.8703098E-01 1.7495696E+00
 4.8364224E+00 6.9973599E-01 1.7573358E+00
 4.7670596E+00 7.1309114E-01 1.7657625E+00
 4.6964452E+00 7.2724823E-01 1.7746816E+00
 4.6249493E+00 7.4238315E-01 1.7838225E+00
 4.5529643E+00 7.5868380E-01 1.7928098E+00
 4.4808961E+00 7.7633273E-01 1.8011717E+00
 4.4091604E+00 7.9548596E-01 1.8083635E+00
 4.3381848E+00 8.1625131E-01 1.8138013E+00
 4.2684140E+00 8.3866833E-01 1.8169082E+00
 4.2003128E+00 8.6269440E-01 1.8171650E+00
 4.1343637E+00 8.8819889E-01 1.8141605E+00
 4.0710512E+00 9.1496986E-01 1.8076315E+00
 4.0108366E+00 9.4273021E-01 1.7974869E+00
 3.9541119E+00 9.7117744E-01 1.7838040E+00
 3.9011218E+00 9.9999991E-01 1.7667869E+00
 3.8515167E+00 1.0287902E+00 1.7465199E+00
 5.1538545E+00 6.7182929E-01 1.7402739E+00
 5.0931151E+00 6.8433950E-01 1.7453325E+00
 5.0303184E+00 6.9698327E-01 1.7508768E+00
 4.9653883E+00 7.1005713E-01 1.7570940E+00
 4.8984393E+00 7.2366609E-01 1.7640346E+00
 4.8297169E+00 7.3790407E-01 1.7716742E+00
 4.7595369E+00 7.5289733E-01 1.7799095E+00
 4.6882677E+00 7.6879596E-01 1.7885400E+00
 4.6163090E+00 7.8576618E-01 1.7972588E+00
 4.5440791E+00 8.0397473E-01 1.8056543E+00
 4.4720053E+00 8.2356999E-01 1.8132243E+00
 4.4005198E+00 8.4466089E-01 1.8194050E+00
 4.3300618E+00 8.6729694E-01 1.8236110E+00
 4.2610808E+00 8.9145269E-01 1.8252844E+00
 4.1940386E+00 9.1701945E-01 1.8239460E+00
 4.1294013E+00 9.4380840E-01 1.8192421E+00
 4.0676234E+00 9.7156381E-01 1.8109781E+00
 4.0091066E+00 9.9999991E-01 1.7991284E+00
 3.9541119E+00 1.0288224E+00 1.7838040E+00
 3.9023244E+00 1.0576541E+00 1.7650581E+00
 5.1527229E+00 7.0507886E-01 1.7541357E+00
 5.0908727E+00 7.1880025E-01 1.7590140E+00
 5.0270238E+00 7.3273159E-01 1.7643776E+00
 4.9611022E+00 7.4718158E-01 1.7703927E+00
 4.8932566E+00 7.6225103E-01 1.7770910E+00
 4.8237591E+00 7.7804319E-01 1.7844302E+00
 4.7529608E+00 7.9468347E-01 1.7922799E+00
 4.6812602E+00 8.1231556E-01 1.8004087E+00
 4.6090846E+00 8.3108856E-01 1.8084766E+00
 4.5368740E+00 8.5114018E-01 1.8160425E+00
 4.4650720E+00 8.7257713E-01 1.8225839E+00
 4.3941211E+00 8.9545533E-01 1.8275316E+00
 4.3244643E+00 9.1976349E-01 1.8303134E+00
 4.2565469E+00 9.4541263E-01 1.8304050E+00
 4.1908156E+00 9.7223614E-01 1.8273792E+00
 4.1277084E+00 9.9999991E-01 1.8209470E+00
 4.0676234E+00 1.0284360E+00 1.8109782E+00
 4.0108366E+00 1.0572696E+00 1.7974870E+00
 3.9570772E+00 1.0861647E+00 1.7804784E+00
 5.1516577E+00 7.4011230E-01 1.7669129E+00
 5.0888125E+00 7.5504979E-01 1.7714852E+00
 5.0240396E+00 7.7029064E-01 1.7765347E+00
 4.9572854E+00 7.8612601E-01 1.7821963E+00
 4.8887242E+00 8.0266074E-01 1.7884850E+00
 4.8186607E+00 8.1999832E-01 1.7953374E+00
 4.7474768E+00 8.3826009E-01 1.8025972E+00
 4.6755993E+00 8.5757623E-01 1.8100041E+00
 4.6034780E+00 8.7807167E-01 1.8171910E+00
 4.5315696E+00 8.9984803E-01 1.8236965E+00
 4.4603274E+00 9.2296472E-01 1.8289903E+00
 4.3901969E+00 9.4742196E-01 1.8325121E+00
 4.3216160E+00 9.7314874E-01 1.8337175E+00
 4.2550157E+00 9.9999991E-01 1.8321290E+00
 4.1908156E+00 1.0277637E+00 1.8273792E+00
 4.1294013E+00 1.0561914E+00 1.8192422E+00
 4.0710511E+00 1.0850300E+00 1.8076316E+00
 4.0155422E+00 1.1139890E+00 1.7924927E+00
 5.1507065E+00 7.7683960E-01 1.7783931E+00
 5.0869889E+00 7.9298598E-01 1.7825280E+00
 5.0214440E+00 8.0952422E-01 1.7871168E+00
 4.9540327E+00 8.2672497E-01 1.7922636E+00
 4.8849579E+00 8.4469143E-01 1.7979652E+00
 4.8145544E+00 8.6352451E-01 1.8041371E+00
 4.7432324E+00 8.8333543E-01 1.8105990E+00
 4.6714422E+00 9.0423495E-01 1.8170664E+00
 4.5996506E+00 9.2631753E-01 1.8231529E+00
 4.5283244E+00 9.4964362E-01 1.8283878E+00
 4.4579191E+00 9.7422266E-01 1.8322460E+00
 4.3888751E+00 9.9999991E-01 1.8341904E+00
 4.3216160E+00 1.0268511E+00 1.8337176E+00
 4.2565469E+00 1.0545872E+00 1.8304050E+00
 4.1940386E+00 1.0829804E+00 1.8239461E+00
 4.1343637E+00 1.1118009E+00 1.8141606E+00
 4.0773455E+00 1.1408053E+00 1.8009254E+00
 5.1498758E+00 8.1510213E-01 1.7883586E+00
 5.0854347E+00 8.3242227E-01 1.7919194E+00
 5.0192879E+00 8.5021769E-01 1.7958969E+00
 4.9514151E+00 8.6872998E-01 1.8003645E+00
 4.8820457E+00 8.8805756E-01 1.8053008E+00
 4.8115418E+00 9.0829395E-01 1.8106015E+00
 4.7403377E+00 9.2953527E-01 1.8160656E+00
 4.6689011E+00 9.5186744E-01 1.8213910E+00
 4.5977096E+00 9.7535006E-01 1.8261813E+00
 4.5272320E+00 9.9999992E-01 1.8299685E+00
 4.4579191E+00 1.0257772E+00 1.8322461E+00
 4.3901969E+00 1.0525779E+00 1.8325121E+00
 4.3244643E+00 1.0802363E+00 1.8303135E+00
 4.2610808E+00 1.1085471E+00 1.8252846E+00
 4.2003128E+00 1.1373054E+00 1.8171651E+00
 4.1420304E+00 1.1663141E+00 1.8057628E+00
 5.1491885E+00 8.5470262E-01 1.7966090E+00
 5.0841865E+00 8.7313357E-01 1.7994595E+00
 5.0176235E+00 8.9211180E-01 1.8026760E+00
 4.9494972E+00 9.1184493E-01 1.8063035E+00
 4.8800615E+00 9.3242236E-01 1.8103035E+00
 4.8097019E+00 9.5392616E-01 1.8145545E+00
 4.7388705E+00 9.7643291E-01 1.8188398E+00
 4.6680463E+00 9.9999992E-01 1.8228474E+00
 4.5977096E+00 1.0246498E+00 1.8261813E+00
 4.5283244E+00 1.0503562E+00 1.8283879E+00
 4.4603275E+00 1.0770351E+00 1.8289904E+00
 4.3941211E+00 1.1045445E+00 1.8275318E+00
 4.3300618E+00 1.1327029E+00 1.8236112E+00
 4.2684140E+00 1.1613315E+00 1.8169083E+00
 4.2091007E+00 1.1902788E+00 1.8071670E+00
 5.1486577E+00 8.9539722E-01 1.8029672E+00
 5.0832723E+00 9.1484512E-01 1.8049774E+00
 5.0164900E+00 9.3489904E-01 1.8072916E+00
 4.9483263E+00 9.5572648E-01 1.8099302E+00
 4.8790561E+00 9.7740440E-01 1.8128397E+00
 4.8090830E+00 9.9999992E-01 1.8158849E+00
 4.7388705E+00 1.0235669E+00 1.8188398E+00
 4.6689012E+00 1.0481324E+00 1.8213910E+00
 4.5996507E+00 1.0736823E+00 1.8231530E+00
 4.5315696E+00 1.1001518E+00 1.8236967E+00
 4.4650720E+00 1.1274227E+00 1.8225841E+00
 4.4005198E+00 1.1553390E+00 1.8194052E+00
 4.3381848E+00 1.1837486E+00 1.8138015E+00
 4.2780522E+00 1.2125445E+00 1.8054644E+00
 5.1482967E+00 9.3690433E-01 1.8072904E+00
 5.0827146E+00 9.5724656E-01 1.8083427E+00
 5.0159159E+00 9.7823753E-01 1.8096291E+00
 4.9479326E+00 9.9999992E-01 1.8111499E+00
 4.8790561E+00 1.0225954E+00 1.8128397E+00
 4.8097019E+00 1.0460737E+00 1.8145546E+00
 4.7403377E+00 1.0704646E+00 1.8160657E+00
 4.6714422E+00 1.0957649E+00 1.8170666E+00
 4.6034780E+00 1.1219282E+00 1.8171911E+00
 4.5368740E+00 1.1488597E+00 1.8160427E+00
 4.4720053E+00 1.1764299E+00 1.8132245E+00
 4.4091604E+00 1.2045139E+00 1.8083637E+00
 4.3483973E+00 1.2330488E+00 1.8011140E+00
 5.1481139E+00 9.7891172E-01 1.8094780E+00
 5.0825271E+00 9.9999991E-01 1.8094737E+00
 5.0159159E+00 1.0217623E+00 1.8096291E+00
 4.9483263E+00 1.0442734E+00 1.8099302E+00
 4.8800614E+00 1.0675775E+00 1.8103036E+00
 4.8115419E+00 1.0917059E+00 1.8106016E+00
 4.7432324E+00 1.1166644E+00 1.8105992E+00
 4.6755993E+00 1.1424236E+00 1.8100042E+00
 4.6090846E+00 1.1689113E+00 1.8084768E+00
 4.5440791E+00 1.1960252E+00 1.8056545E+00
 4.4808962E+00 1.2236672E+00 1.8011720E+00
 4.4196752E+00 1.2518183E+00 1.7946616E+00
 5.1481139E+00 1.0210881E+00 1.8094780E+00
 5.0827146E+00 1.0427533E+00 1.8083427E+00
 5.0164900E+00 1.0651008E+00 1.8072916E+00
 4.9494972E+00 1.0881549E+00 1.8063035E+00
 4.8820456E+00 1.1119423E+00 1.8053008E+00
 4.8145544E+00 1.1364753E+00 1.8041373E+00
 4.7474768E+00 1.1617398E+00 1.8025973E+00
 4.6812603E+00 1.1876843E+00 1.8004090E+00
 4.6163091E+00 1.2142337E+00 1.7972591E+00
 4.5529643E+00 1.2413161E+00 1.7928100E+00
 4.4914528E+00 1.2689567E+00 1.7866890E+00
 5.1482967E+00 1.0630955E+00 1.8072904E+00
 5.0832723E+00 1.0851547E+00 1.8049773E+00
 5.0176235E+00 1.1078880E+00 1.8026760E+00
 4.9514151E+00 1.1312699E+00 1.8003645E+00
 4.8849579E+00 1.1553084E+00 1.7979653E+00
 4.8186607E+00 1.1800016E+00 1.7953375E+00
 4.7529608E+00 1.2053164E+00 1.7922801E+00
 4.6882677E+00 1.2312039E+00 1.7885403E+00
 4.6249493E+00 1.2576168E+00 1.7838228E+00
 4.5633183E+00 1.2846256E+00 1.7777656E+00
 5.1486577E+00 1.1046026E+00 1.8029672E+00
 5.0841865E+00 1.1268662E+00 1.7994595E+00
 5.0192878E+00 1.1497821E+00 1.7958969E+00
 4.9540327E+00 1.1732749E+00 1.7922636E+00
 4.8887242E+00 1.1973391E+00 1.7884851E+00
 4.8237591E+00 1.2219567E+00 1.7844303E+00
 4.7595370E+00 1.2471026E+00 1.7799097E+00
 4.6964452E+00 1.2727517E+00 1.7746819E+00
 4.6348762E+00 1.2990209E+00 1.7684072E+00
 5.1491885E+00 1.1452972E+00 1.7966089E+00
 5.0854347E+00 1.1675775E+00 1.7919194E+00
 5.0214440E+00 1.1904756E+00 1.7871167E+00
 4.9572853E+00 1.2138738E+00 1.7821963E+00
 4.8932566E+00 1.2377488E+00 1.7770911E+00
 4.8297169E+00 1.2620958E+00 1.7716744E+00
 4.7670596E+00 1.2869088E+00 1.7657627E+00
 4.7057443E+00 1.3123511E+00 1.7590483E+00
 5.1498758E+00 1.1848977E+00 1.7883585E+00
 5.0869888E+00 1.2070138E+00 1.7825279E+00
 5.0240396E+00 1.2297092E+00 1.7765347E+00
 4.9611021E+00 1.2528183E+00 1.7703928E+00
 4.8984392E+00 1.2763338E+00 1.7640347E+00
 4.8364224E+00 1.3002639E+00 1.7573360E+00
 4.7755581E+00 1.3248170E+00 1.7500243E+00
 5.1507064E+00 1.2231602E+00 1.7783930E+00
 5.0888125E+00 1.2449500E+00 1.7714851E+00
 5.0270238E+00 1.2672682E+00 1.7643775E+00
 4.9653882E+00 1.2899427E+00 1.7570941E+00
 4.9041988E+00 1.3129689E+00 1.7495698E+00
 4.8439773E+00 1.3365967E+00 1.7415691E+00
 5.1516577E+00 1.2598875E+00 1.7669128E+00
 5.0908727E+00 1.2811996E+00 1.7590139E+00
 5.0303183E+00 1.3030165E+00 1.7508768E+00
 4.9701004E+00 1.3251426E+00 1.7425436E+00
 4.9107009E+00 1.3478369E+00 1.7338202E+00
 5.1527229E+00 1.2949209E+00 1.7541356E+00
 5.0931151E+00 1.3156603E+00 1.7453324E+00
 5.0339303E+00 1.3368788E+00 1.7362596E+00
 4.9754721E+00 1.3586494E+00 1.7268327E+00
 5.1538545E+00 1.3281705E+00 1.7402738E+00
 5.0955413E+00 1.3482468E+00 1.7306700E+00
 5.0381036E+00 1.3691065E+00 1.7206006E+00
 5.1551153E+00 1.3596012E+00 1.7255328E+00
 5.0985213E+00 1.3792910E+00 1.7150491E+00
 5.1564967E+00 1.3893440E+00 1.7100391E+00
 5.2129138E+00 1.4009792E+00 1.7044740E+00
 5.2129375E+00 1.3723250E+00 1.7200450E+00
 5.2129417E+00 1.3420514E+00 1.7349256E+00
 5.2129489E+00 1.3098436E+00 1.7490852E+00
 5.2129551E+00 1.2758427E+00 1.7622719E+00
 5.2129618E+00 1.2401167E+00 1.7742790E+00
 5.2129675E+00 1.2028094E+00 1.7848869E+00
 5.2129726E+00 1.1640875E+00 1.7938942E+00
 5.2129767E+00 1.1241720E+00 1.8011150E+00
 5.2129798E+00 1.0833202E+00 1.8063933E+00
 5.2129816E+00 1.0418243E+00 1.8096100E+00
 5.2129822E+00 9.9999991E-01 1.8106907E+00
 5.2129816E+00 9.5817555E-01 1.8096101E+00
 5.2129798E+00 9.1667961E-01 1.8063933E+00
 5.2129767E+00 8.7582778E-01 1.8011151E+00
 5.2129726E+00 8.3591226E-01 1.7938943E+00
 5.2129675E+00 7.9719038E-01 1.7848870E+00
 5.2129618E+00 7.5988305E-01 1.7742791E+00
 5.2129551E+00 7.2415711E-01 1.7622720E+00
 5.2129489E+00 6.9015615E-01 1.7490853E+00
 5.2129417E+00 6.5794840E-01 1.7349257E+00
 5.2129375E+00 6.2767475E-01 1.7200452E+00
 5.2129138E+00 5.9902052E-01 1.7044741E+00
 5.2644479E+00 5.8083107E-01 1.6952160E+00
 5.3209587E+00 5.8864563E-01 1.7017867E+00
 5.3801340E+00 5.9682173E-01 1.7088792E+00
 5.4416132E+00 6.0540877E-01 1.7164207E+00
 5.5053240E+00 6.1452221E-01 1.7243223E+00
 5.5710666E+00 6.2428475E-01 1.7324429E+00
 5.6386495E+00 6.3484493E-01 1.7406035E+00
 5.7078064E+00 6.4635437E-01 1.7485778E+00
 5.7782219E+00 6.5896798E-01 1.7561028E+00
 5.8495276E+00 6.7283109E-01 1.7628883E+00
 5.9213099E+00 6.8807049E-01 1.7686303E+00
 5.9931182E+00 7.0478415E-01 1.7730265E+00
 6.0644761E+00 7.2303339E-01 1.7757905E+00
 6.1348952E+00 7.4283700E-01 1.7766662E+00
 6.2038903E+00 7.6416841E-01 1.7754388E+00
 6.2709946E+00 7.8695518E-01 1.7719439E+00
 6.3357743E+00 8.1108148E-01 1.7660733E+00
 6.3978416E+00 8.3639233E-01 1.7577797E+00
 6.4568657E+00 8.6270083E-01 1.7470762E+00
 6.5125803E+00 8.8979724E-01 1.7340341E+00
 6.5647823E+00 9.1745710E-01 1.7187797E+00
 6.6132883E+00 9.4543190E-01 1.7014993E+00
 6.6578831E+00 9.7343060E-01 1.6824570E+00
 5.2693300E+00 1.3903875E+00 1.7119118E+00
 5.3272575E+00 1.3812856E+00 1.7187772E+00
 5.3875883E+00 1.3719178E+00 1.7260668E+00
 5.4501023E+00 1.3620739E+00 1.7337632E+00
 5.5147407E+00 1.3516090E+00 1.7417775E+00
 5.5813381E+00 1.3403982E+00 1.7499503E+00
 5.6496571E+00 1.3283006E+00 1.7580762E+00
 5.7194082E+00 1.3151715E+00 1.7659072E+00
 5.7902445E+00 1.3008710E+00 1.7731589E+00
 5.8617713E+00 1.2852746E+00 1.7795244E+00
 5.9335514E+00 1.2682830E+00 1.7846889E+00
 6.0051159E+00 1.2498314E+00 1.7883462E+00
 6.0759769E+00 1.2298954E+00 1.7902143E+00
 6.1456423E+00 1.2084952E+00 1.7900494E+00
 6.2136318E+00 1.1856963E+00 1.7876561E+00
 6.2794926E+00 1.1616079E+00 1.7828961E+00
 6.3428131E+00 1.1363786E+00 1.7756922E+00
 6.4032355E+00 1.1101887E+00 1.7660310E+00
 6.4604657E+00 1.0832400E+00 1.7539605E+00
 6.5142835E+00 1.0557379E+00 1.7395839E+00
 6.5645852E+00 1.0278798E+00 1.7230314E+00
 6.6116058E+00 9.9999991E-01 1.7043428E+00
 5.2707436E+00 1.3606032E+00 1.7274887E+00
 5.3302665E+00 1.3501425E+00 1.7345672E+00
 5.3917857E+00 1.3395165E+00 1.7419494E+00
 5.4554905E+00 1.3283144E+00 1.7497230E+00
 5.5212525E+00 1.3164100E+00 1.7577608E+00
 5.5888964E+00 1.3036689E+00 1.7658876E+00
 5.6581550E+00 1.2899566E+00 1.7738726E+00
 5.7287041E+00 1.2751383E+00 1.7814429E+00
 5.8001647E+00 1.2590913E+00 1.7882916E+00
 5.8721110E+00 1.2417149E+00 1.7940939E+00
 5.9440784E+00 1.2229401E+00 1.7985241E+00
 6.0155769E+00 1.2027370E+00 1.8012733E+00
 6.0861046E+00 1.1811198E+00 1.8020659E+00
 6.1551646E+00 1.1581484E+00 1.8006735E+00
 6.2222810E+00 1.1339270E+00 1.7969243E+00
 6.2870152E+00 1.1086004E+00 1.7907100E+00
 6.3489795E+00 1.0823461E+00 1.7819888E+00
 6.4078498E+00 1.0553633E+00 1.7707845E+00
 6.4633839E+00 1.0278525E+00 1.7571780E+00
 6.5154823E+00 9.9999991E-01 1.7412768E+00
 6.5645852E+00 9.7212006E-01 1.7230314E+00
 5.2720149E+00 1.3291027E+00 1.7423170E+00
 5.3326983E+00 1.3174089E+00 1.7493900E+00
 5.3953977E+00 1.3054245E+00 1.7567813E+00
 5.4601976E+00 1.2928012E+00 1.7645103E+00
 5.5270024E+00 1.2793871E+00 1.7724443E+00
 5.5955903E+00 1.2650590E+00 1.7803799E+00
 5.6656662E+00 1.2496890E+00 1.7880635E+00
 5.7368713E+00 1.2331583E+00 1.7951984E+00
 5.8087942E+00 1.2153659E+00 1.8014582E+00
 5.8809798E+00 1.1962395E+00 1.8065048E+00
 5.9529397E+00 1.1757440E+00 1.8100071E+00
 6.0241671E+00 1.1538870E+00 1.8116606E+00
 6.0941522E+00 1.1307221E+00 1.8112030E+00
 6.1623998E+00 1.1063482E+00 1.8084284E+00
 6.2284459E+00 1.0809053E+00 1.8031946E+00
 6.2918739E+00 1.0545680E+00 1.7954289E+00
 6.3523289E+00 1.0275334E+00 1.7851272E+00
 6.4095384E+00 9.9999991E-01 1.7723479E+00
 6.4633839E+00 9.7214733E-01 1.7571780E+00
 6.5142835E+00 9.4426187E-01 1.7395839E+00
 5.2731591E+00 1.2957760E+00 1.7562591E+00
 5.3349504E+00 1.2827852E+00 1.7632212E+00
 5.3986970E+00 1.2694234E+00 1.7704796E+00
 5.4644833E+00 1.2553372E+00 1.7780234E+00
 5.5321803E+00 1.2403892E+00 1.7856929E+00
 5.6015406E+00 1.2244602E+00 1.7932638E+00
 5.6722342E+00 1.2074374E+00 1.8004590E+00
 5.7438707E+00 1.1892222E+00 1.8069620E+00
 5.8160091E+00 1.1697408E+00 1.8124317E+00
 5.8881699E+00 1.1489539E+00 1.8165231E+00
 5.9598472E+00 1.1268632E+00 1.8189075E+00
 6.0305252E+00 1.1035159E+00 1.8192923E+00
 6.0996947E+00 1.0790045E+00 1.8174366E+00
 6.1668711E+00 1.0534639E+00 1.8131636E+00
 6.2316116E+00 1.0270643E+00 1.8063666E+00
 6.2935320E+00 9.9999991E-01 1.7970108E+00
 6.3523289E+00 9.7246641E-01 1.7851272E+00
 6.4078498E+00 9.4463655E-01 1.7707845E+00
 6.4604658E+00 9.1675978E-01 1.7539605E+00
 5.2742361E+00 1.2606540E+00 1.7691131E+00
 5.3370190E+00 1.2463526E+00 1.7758319E+00
 5.4016852E+00 1.2315847E+00 1.7828171E+00
 5.4682992E+00 1.2160235E+00 1.7900179E+00
 5.5367079E+00 1.1995392E+00 1.7972525E+00
 5.6066321E+00 1.1820264E+00 1.8042747E+00
 5.6777109E+00 1.1633910E+00 1.8107882E+00
 5.7495245E+00 1.1435599E+00 1.8164613E+00
 5.8216075E+00 1.1224909E+00 1.8209448E+00
 5.8934623E+00 1.1001808E+00 1.8238945E+00
 5.9645730E+00 1.0766701E+00 1.8249919E+00
 6.0344235E+00 1.0520446E+00 1.8239647E+00
 6.1025140E+00 1.0264329E+00 1.8206005E+00
 6.1683805E+00 9.9999991E-01 1.8147574E+00
 6.2316116E+00 9.7293548E-01 1.8063666E+00
 6.2918739E+00 9.4543179E-01 1.7954289E+00
 6.3489795E+00 9.1765375E-01 1.7819888E+00
 6.4032356E+00 8.8981111E-01 1.7660310E+00
 5.2751991E+00 1.2238292E+00 1.7806628E+00
 5.3388514E+00 1.2082159E+00 1.7869996E+00
 5.4042853E+00 1.1920483E+00 1.7935572E+00
 5.4715521E+00 1.1750299E+00 1.8002478E+00
 5.5404709E+00 1.1570456E+00 1.8068683E+00
 5.6107332E+00 1.1380072E+00 1.8131541E+00
 5.6819497E+00 1.1178442E+00 1.8187938E+00
 5.7536763E+00 1.0965134E+00 1.8234469E+00
 5.8254291E+00 1.0740073E+00 1.8267635E+00
 5.8966998E+00 1.0503601E+00 1.8284084E+00
 5.9669715E+00 1.0256505E+00 1.8280818E+00
 6.0357363E+00 9.9999991E-01 1.8255385E+00
 6.1025140E+00 9.7356695E-01 1.8206005E+00
 6.1668711E+00 9.4653595E-01 1.8131636E+00
 6.2284459E+00 9.1909452E-01 1.8031946E+00
 6.2870152E+00 8.9139944E-01 1.7907100E+00
 6.3428131E+00 8.6362125E-01 1.7756923E+00
 5.2760400E+00 1.1854596E+00 1.7906899E+00
 5.3404128E+00 1.1685619E+00 1.7964986E+00
 5.4064450E+00 1.1510300E+00 1.8024695E+00
 5.4741695E+00 1.1326073E+00 1.8084796E+00
 5.5433803E+00 1.1131973E+00 1.8143076E+00
 5.6137417E+00 1.0927333E+00 1.8196746E+00
 5.6848406E+00 1.0711724E+00 1.8242601E+00
 5.7562140E+00 1.0485038E+00 1.8277218E+00
 5.8273671E+00 1.0247559E+00 1.8297175E+00
 5.8977895E+00 9.9999991E-01 1.8299287E+00
 5.9669715E+00 9.7434934E-01 1.8280818E+00
 6.0344235E+00 9.4795522E-01 1.8239647E+00
 6.0996947E+00 9.2099531E-01 1.8174366E+00
 6.1623998E+00 8.9365164E-01 1.8084284E+00
 6.2222810E+00 8.6607277E-01 1.7969243E+00
 6.2794926E+00 8.3839193E-01 1.7828961E+00
 5.2767359E+00 1.1457439E+00 1.7989920E+00
 5.3416670E+00 1.1276184E+00 1.8041260E+00
 5.4081122E+00 1.1087931E+00 1.8093511E+00
 5.4760874E+00 1.0890569E+00 1.8145146E+00
 5.5453626E+00 1.0683363E+00 1.8193805E+00
 5.6155793E+00 1.0465892E+00 1.8236610E+00
 5.6863058E+00 1.0238028E+00 1.8270333E+00
 5.7570677E+00 9.9999991E-01 1.8291611E+00
 5.8273671E+00 9.7524392E-01 1.8297175E+00
 5.8966998E+00 9.4963972E-01 1.8284084E+00
 5.9645730E+00 9.2332971E-01 1.8249920E+00
 6.0305252E+00 8.9648388E-01 1.8192923E+00
 6.0941522E+00 8.6927767E-01 1.8112031E+00
 6.1551646E+00 8.4185141E-01 1.8006736E+00
 6.2136318E+00 8.1430355E-01 1.7876562E+00
 5.2772734E+00 1.1049270E+00 1.8053905E+00
 5.3425856E+00 1.0856630E+00 1.8097082E+00
 5.4092476E+00 1.0656494E+00 1.8140368E+00
 5.4772582E+00 1.0447275E+00 1.8181998E+00
 5.5463670E+00 1.0228493E+00 1.8219519E+00
 5.6161973E+00 9.9999991E-01 1.8250024E+00
 5.6863058E+00 9.7619699E-01 1.8270333E+00
 5.7562140E+00 9.5149604E-01 1.8277219E+00
 5.8254291E+00 9.2599254E-01 1.8267636E+00
 5.8934623E+00 8.9981902E-01 1.8238945E+00
 5.9598472E+00 8.7313658E-01 1.8189076E+00
 6.0241671E+00 8.4611283E-01 1.8116606E+00
 6.0861046E+00 8.1887998E-01 1.8020660E+00
 6.1456423E+00 7.9150463E-01 1.7900495E+00
 5.2776390E+00 1.0632923E+00 1.8097413E+00
 5.3431460E+00 1.0430095E+00 1.8131129E+00
 5.4098225E+00 1.0219461E+00 1.8164099E+00
 5.4776519E+00 9.9999991E-01 1.8194392E+00
 5.5463670E+00 9.7715049E-01 1.8219519E+00
 5.6155793E+00 9.5341057E-01 1.8236610E+00
 5.6848406E+00 9.2882743E-01 1.8242601E+00
 5.7536763E+00 9.0348639E-01 1.8234469E+00
 5.8216075E+00 8.7750891E-01 1.8209449E+00
 5.8881699E+00 8.5104593E-01 1.8165232E+00
 5.9529397E+00 8.2425585E-01 1.8100072E+00
 6.0155769E+00 7.9726276E-01 1.8012733E+00
 6.0759769E+00 7.7010438E-01 1.7902144E+00
 5.2778241E+00 1.0211541E+00 1.8119429E+00
 5.3433344E+00 9.9999991E-01 1.8142573E+00
 5.4098225E+00 9.7805368E-01 1.8164099E+00
 5.4772582E+00 9.5527229E-01 1.8181999E+00
 5.5453626E+00 9.3166356E-01 1.8193805E+00
 5.6137417E+00 9.0726650E-01 1.8196746E+00
 5.6819497E+00 8.8215558E-01 1.8187939E+00
 5.7495245E+00 8.5643994E-01 1.8164614E+00
 5.8160091E+00 8.3025898E-01 1.8124317E+00
 5.8809798E+00 8.0376028E-01 1.8065049E+00
 5.9440784E+00 7.7705970E-01 1.7985242E+00
 6.0051159E+00 7.5016835E-01 1.7883463E+00
 5.2778241E+00 9.7884575E-01 1.8119429E+00
 5.3431460E+00 9.5699032E-01 1.8131130E+00
 5.4092476E+00 9.3435037E-01 1.8140368E+00
 5.4760874E+00 9.1094289E-01 1.8145146E+00
 5.5433803E+00 8.8680252E-01 1.8143076E+00
 5.6107331E+00 8.6199261E-01 1.8131541E+00
 5.6777109E+00 8.3660883E-01 1.8107883E+00
 5.7438707E+00 8.1077761E-01 1.8069621E+00
 5.8087942E+00 7.8463393E-01 1.8014583E+00
 5.8721110E+00 7.5828485E-01 1.7940940E+00
 5.9335514E+00 7.3171675E-01 1.7846890E+00
 5.2776390E+00 9.3670752E-01 1.8097413E+00
 5.3425856E+00 9.1433683E-01 1.8097082E+00
 5.4081122E+00 8.9120671E-01 1.8093512E+00
 5.4741695E+00 8.6739252E-01 1.8084797E+00
 5.5404709E+00 8.4295419E-01 1.8068683E+00
 5.6066321E+00 8.1797338E-01 1.8042748E+00
 5.6722342E+00 7.9256240E-01 1.8004591E+00
 5.7368713E+00 7.6684152E-01 1.7951985E+00
 5.8001647E+00 7.4090847E-01 1.7882917E+00
 5.8617713E+00 7.1472523E-01 1.7795245E+00
 5.2772734E+00 8.9507286E-01 1.8053905E+00
 5.3416670E+00 8.7238137E-01 1.8041261E+00
 5.4064450E+00 8.4896981E-01 1.8024695E+00
 5.4715520E+00 8.2496993E-01 1.8002479E+00
 5.5367079E+00 8.0046059E-01 1.7972526E+00
 5.6015406E+00 7.7553963E-01 1.7932639E+00
 5.6656662E+00 7.5031079E-01 1.7880636E+00
 5.7287041E+00 7.2486146E-01 1.7814430E+00
 5.7902445E+00 6.9912882E-01 1.7731590E+00
 5.2767359E+00 8.5425595E-01 1.7989921E+00
 5.3404127E+00 8.3143788E-01 1.7964987E+00
 5.4042853E+00 8.0795150E-01 1.7935573E+00
 5.4682992E+00 7.8397629E-01 1.7900180E+00
 5.5321803E+00 7.5961057E-01 1.7856930E+00
 5.5955903E+00 7.3494076E-01 1.7803800E+00
 5.6581550E+00 7.1004319E-01 1.7738727E+00
 5.7194082E+00 6.8482831E-01 1.7659073E+00
 5.2760399E+00 8.1454017E-01 1.7906900E+00
 5.3388514E+00 7.9178393E-01 1.7869997E+00
 5.4016851E+00 7.6841506E-01 1.7828172E+00
 5.4644832E+00 7.4466257E-01 1.7780235E+00
 5.5270024E+00 7.2061267E-01 1.7724444E+00
 5.5888964E+00 6.9633086E-01 1.7658877E+00
 5.6496571E+00 6.7169915E-01 1.7580764E+00
 5.2751991E+00 7.7617055E-01 1.7806629E+00
 5.3370190E+00 7.5364723E-01 1.7758320E+00
 5.3986970E+00 7.3057642E-01 1.7704797E+00
 5.4601976E+00 7.0719855E-01 1.7645104E+00
 5.5212525E+00 6.8358981E-01 1.7577609E+00
 5.5813381E+00 6.5960160E-01 1.7499504E+00
 5.2742361E+00 7.3934581E-01 1.7691132E+00
 5.3349504E+00 7.1721461E-01 1.7632213E+00
 5.3953977E+00 6.9457527E-01 1.7567815E+00
 5.4554905E+00 6.7168536E-01 1.7497231E+00
 5.5147407E+00 6.4839075E-01 1.7417777E+00
 5.2731591E+00 7.0422382E-01 1.7562592E+00
 5.3326982E+00 6.8259083E-01 1.7493902E+00
 5.3917857E+00 6.6048327E-01 1.7419496E+00
 5.4501023E+00 6.3792580E-01 1.7337633E+00
 5.2720149E+00 6.7089707E-01 1.7423171E+00
 5.3302665E+00 6.4985729E-01 1.7345673E+00
 5.3875882E+00 6.2808196E-01 1.7260670E+00
 5.2707436E+00 6.3939656E-01 1.7274888E+00
 5.3272575E+00 6.1871418E-01 1.7187774E+00
 5.2693300E+00 6.0961229E-01 1.7119119E+00
 5.1809815E+00 1.4458103E+00 1.6763729E+00
 5.1458622E+00 1.4672384E+00 1.6612555E+00
 5.1094338E+00 1.4892420E+00 1.6448698E+00
 5.0715903E+00 1.5117448E+00 1.6271600E+00
 5.0325456E+00 1.5346748E+00 1.6080634E+00
 4.9924550E+00 1.5579389E+00 1.5875147E+00
 4.9515301E+00 1.5814369E+00 1.5654380E+00
 4.9100131E+00 1.6050301E+00 1.5417730E+00
 4.8681816E+00 1.6285548E+00 1.5164665E+00
 4.8263394E+00 1.6518158E+00 1.4894851E+00
 4.7848068E+00 1.6745919E+00 1.4608187E+00
 4.7439099E+00 1.6966406E+00 1.4304904E+00
 4.7039689E+00 1.7177069E+00 1.3985624E+00
 4.6652863E+00 1.7375352E+00 1.3651423E+00
 4.6281360E+00 1.7558828E+00 1.3303844E+00
 4.5927551E+00 1.7725333E+00 1.2944882E+00
 4.5593367E+00 1.7873091E+00 1.2576922E+00
 4.5280262E+00 1.8000806E+00 1.2202648E+00
 4.4989199E+00 1.8107720E+00 1.1824905E+00
 4.4720666E+00 1.8193623E+00 1.1446564E+00
 4.4474781E+00 1.8258815E+00 1.1070437E+00
 4.4251582E+00 1.8303982E+00 1.0699358E+00
 4.4051387E+00 1.8330185E+00 1.0336446E+00
 3.7495918E+00 1.0779701E+00 1.6905557E+00
 3.7410690E+00 1.1287697E+00 1.6777162E+00
 3.7355512E+00 1.1812364E+00 1.6621329E+00
 3.7337355E+00 1.2351974E+00 1.6438066E+00
 3.7360461E+00 1.2902264E+00 1.6226274E+00
 3.7428685E+00 1.3457483E+00 1.5985531E+00
 3.7545213E+00 1.4010888E+00 1.5716183E+00
 3.7712257E+00 1.4554950E+00 1.5419459E+00
 3.7930753E+00 1.5081684E+00 1.5097518E+00
 3.8200143E+00 1.5583036E+00 1.4753481E+00
 3.8518243E+00 1.6051375E+00 1.4391390E+00
 3.8881256E+00 1.6480005E+00 1.4016072E+00
 3.9283923E+00 1.6863666E+00 1.3632916E+00
 3.9719844E+00 1.7198927E+00 1.3247572E+00
 4.0181900E+00 1.7484398E+00 1.2865592E+00
 4.0662733E+00 1.7720729E+00 1.2492092E+00
 4.1155208E+00 1.7910395E+00 1.2131457E+00
 4.1652808E+00 1.8057304E+00 1.1787139E+00
 4.2149861E+00 1.8166324E+00 1.1461591E+00
 4.2641902E+00 1.8242802E+00 1.1156234E+00
 4.3125424E+00 1.8292132E+00 1.0871398E+00
 4.3597575E+00 1.8319534E+00 1.0604820E+00
 3.7959451E+00 1.1082976E+00 1.7126607E+00
 3.7898041E+00 1.1601810E+00 1.6996045E+00
 3.7867504E+00 1.2133240E+00 1.6836496E+00
 3.7875370E+00 1.2676666E+00 1.6647839E+00
 3.7925654E+00 1.3227482E+00 1.6428968E+00
 3.8021761E+00 1.3779360E+00 1.6179577E+00
 3.8166261E+00 1.4325009E+00 1.5900281E+00
 3.8360589E+00 1.4856511E+00 1.5592705E+00
 3.8604770E+00 1.5365743E+00 1.5259516E+00
 3.8897267E+00 1.5844850E+00 1.4904419E+00
 3.9234940E+00 1.6286769E+00 1.4532048E+00
 3.9613171E+00 1.6685748E+00 1.4147770E+00
 4.0026123E+00 1.7037769E+00 1.3757389E+00
 4.0467128E+00 1.7340815E+00 1.3366784E+00
 4.0929145E+00 1.7594920E+00 1.2981537E+00
 4.1405201E+00 1.7802007E+00 1.2606598E+00
 4.1888802E+00 1.7965537E+00 1.2246035E+00
 4.2374197E+00 1.8090054E+00 1.1902900E+00
 4.2856769E+00 1.8180715E+00 1.1579140E+00
 4.3332905E+00 1.8242870E+00 1.1275453E+00
 4.3800251E+00 1.8281939E+00 1.0988456E+00
 3.8467472E+00 1.1379998E+00 1.7322195E+00
 3.8430457E+00 1.1904634E+00 1.7187372E+00
 3.8425662E+00 1.2439452E+00 1.7022345E+00
 3.8460293E+00 1.2983167E+00 1.6826576E+00
 3.8537974E+00 1.3530634E+00 1.6599049E+00
 3.8661532E+00 1.4075004E+00 1.6339701E+00
 3.8832815E+00 1.4608586E+00 1.6049532E+00
 3.9052406E+00 1.5123300E+00 1.5730667E+00
 3.9319408E+00 1.5611166E+00 1.5386365E+00
 3.9631372E+00 1.6064837E+00 1.5020949E+00
 3.9984366E+00 1.6478117E+00 1.4639634E+00
 4.0373185E+00 1.6846428E+00 1.4248245E+00
 4.0791699E+00 1.7167111E+00 1.3852865E+00
 4.1233264E+00 1.7439544E+00 1.3459440E+00
 4.1691154E+00 1.7665028E+00 1.3073407E+00
 4.2158970E+00 1.7846494E+00 1.2699396E+00
 4.2630918E+00 1.7988069E+00 1.2341048E+00
 4.3102249E+00 1.8094629E+00 1.2000877E+00
 4.3569231E+00 1.8171382E+00 1.1679999E+00
 4.4029308E+00 1.8223839E+00 1.1375702E+00
 3.9018122E+00 1.1670490E+00 1.7487293E+00
 3.9006727E+00 1.2197278E+00 1.7346294E+00
 3.9028702E+00 1.2731521E+00 1.7174019E+00
 3.9090620E+00 1.3271245E+00 1.6969619E+00
 3.9195517E+00 1.3810764E+00 1.6732277E+00
 3.9345525E+00 1.4342873E+00 1.6462288E+00
 3.9541690E+00 1.4859720E+00 1.6161144E+00
 3.9783723E+00 1.5353356E+00 1.5831552E+00
 4.0069871E+00 1.5816273E+00 1.5477391E+00
 4.0396929E+00 1.6241938E+00 1.5103569E+00
 4.0760403E+00 1.6625269E+00 1.4715777E+00
 4.1154795E+00 1.6962989E+00 1.4320143E+00
 4.1573973E+00 1.7253791E+00 1.3922834E+00
 4.2011568E+00 1.7498291E+00 1.3529661E+00
 4.2461381E+00 1.7698791E+00 1.3145738E+00
 4.2917666E+00 1.7858895E+00 1.2775252E+00
 4.3375614E+00 1.7983082E+00 1.2421259E+00
 4.3831356E+00 1.8076303E+00 1.2085450E+00
 4.4282292E+00 1.8144047E+00 1.1765747E+00
 3.9608959E+00 1.1950975E+00 1.7618372E+00
 3.9623951E+00 1.2476069E+00 1.7469412E+00
 3.9673093E+00 1.3005580E+00 1.7288354E+00