# TIME = 3.500000
variables = x, y, z
zone N=5762 E=11520 F=FEPOINT ET=TRIANGLE
 5.6071512E+00 1.4269972E+00 1.6906266E+00
 5.6071512E+00 1.4269972E+00 3.0937327E-01
 5.6071512E+00 5.7300190E-01 1.6906269E+00
 5.6071513E+00 5.7300196E-01 3.0937301E-01
 4.1133851E+00 9.9999965E-01 1.6787934E+00
 7.0900360E+00 9.9999965E-01 1.6588203E+00
 4.1133848E+00 9.9999965E-01 3.2120603E-01
 7.0900359E+00 9.9999965E-01 3.4117968E-01
 4.7785956E+00 1.8406695E+00 9.9999991E-01
 4.7785956E+00 1.5933038E-01 9.9999992E-01
 6.4312468E+00 1.8183642E+00 9.9999992E-01
 6.4312469E+00 1.8163444E-01 9.9999991E-01
 5.5556925E+00 1.4187156E+00 1.6944706E+00
 5.4988102E+00 1.4096861E+00 1.6989983E+00
 5.4391406E+00 1.4004425E+00 1.7041218E+00
 5.3768902E+00 1.3909899E+00 1.7100056E+00
 5.3123113E+00 1.3813564E+00 1.7167561E+00
 5.2456656E+00 1.3715027E+00 1.7244605E+00
 5.1772136E+00 1.3613440E+00 1.7331398E+00
 5.1072739E+00 1.3507420E+00 1.7427215E+00
 5.0362085E+00 1.3395044E+00 1.7530120E+00
 4.9644017E+00 1.3273912E+00 1.7636815E+00
 4.8922373E+00 1.3141295E+00 1.7742645E+00
 4.8200865E+00 1.2994375E+00 1.7841789E+00
 4.7483147E+00 1.2830535E+00 1.7927597E+00
 4.6773005E+00 1.2647681E+00 1.7993077E+00
 4.6074586E+00 1.2444531E+00 1.8031483E+00
 4.5392551E+00 1.2220845E+00 1.8036953E+00
 4.4732048E+00 1.1977539E+00 1.8005093E+00
 4.4098481E+00 1.1716646E+00 1.7933424E+00
 4.3497140E+00 1.1441138E+00 1.7821579E+00
 4.2932798E+00 1.1154662E+00 1.7671242E+00
 4.2409673E+00 1.0861401E+00 1.7486021E+00
 4.1931127E+00 1.0565839E+00 1.7271017E+00
 4.1500152E+00 1.0273372E+00 1.7032865E+00
 5.5499042E+00 6.1060657E-01 1.7112023E+00
 5.4912155E+00 6.2121781E-01 1.7161274E+00
 5.4301235E+00 6.3168705E-01 1.7214629E+00
 5.3668646E+00 6.4227591E-01 1.7274901E+00
 5.3014900E+00 6.5313439E-01 1.7343956E+00
 5.2342043E+00 6.6432616E-01 1.7422521E+00
 5.1652759E+00 6.7595432E-01 1.7510569E+00
 5.0950428E+00 6.8816436E-01 1.7607001E+00
 5.0238884E+00 7.0115031E-01 1.7709450E+00
 4.9522112E+00 7.1514185E-01 1.7814170E+00
 4.8804017E+00 7.3038560E-01 1.7916109E+00
 4.8088334E+00 7.4711916E-01 1.8009163E+00
 4.7378723E+00 7.6554281E-01 1.8086567E+00
 4.6678960E+00 7.8579195E-01 1.8141435E+00
 4.5993150E+00 8.0791471E-01 1.8167349E+00
 4.5325832E+00 8.3185877E-01 1.8158974E+00
 4.4681920E+00 8.5747137E-01 1.8112589E+00
 4.4066425E+00 8.8451426E-01 1.8026424E+00
 4.3484084E+00 9.1268641E-01 1.7900749E+00
 4.2938660E+00 9.4164088E-01 1.7737548E+00
 4.2431561E+00 9.7095780E-01 1.7539525E+00
 4.1959338E+00 9.9999965E-01 1.7308026E+00
 5.5480018E+00 6.4077839E-01 1.7268622E+00
 5.4872154E+00 6.5297562E-01 1.7320071E+00
 5.4247528E+00 6.6470125E-01 1.7374029E+00
 5.3603082E+00 6.7656639E-01 1.7434845E+00
 5.2939472E+00 6.8876050E-01 1.7504293E+00
 5.2258113E+00 7.0139714E-01 1.7583121E+00
 5.1561857E+00 7.1458924E-01 1.7671030E+00
 5.0854304E+00 7.2849225E-01 1.7766587E+00
 5.0139529E+00 7.4329802E-01 1.7866997E+00
 4.9421686E+00 7.5922159E-01 1.7968076E+00
 4.8704786E+00 7.7647835E-01 1.8064380E+00
 4.7992629E+00 7.9525786E-01 1.8149532E+00
 4.7288914E+00 8.1569774E-01 1.8216679E+00
 4.6597429E+00 8.3786107E-01 1.8259066E+00
 4.5922245E+00 8.6172223E-01 1.8270638E+00
 4.5267763E+00 8.8716419E-01 1.8246617E+00
 4.4638587E+00 9.1399091E-01 1.8183950E+00
 4.4039110E+00 9.4195032E-01 1.8081492E+00
 4.3472597E+00 9.7074872E-01 1.7939721E+00
 4.2939234E+00 9.9999965E-01 1.7759624E+00
 4.2431561E+00 1.0290415E+00 1.7539526E+00
 5.5467137E+00 6.7252167E-01 1.7416865E+00
 5.4845850E+00 6.8598396E-01 1.7467456E+00
 5.4208534E+00 6.9900454E-01 1.7520804E+00
 5.3553173E+00 7.1218926E-01 1.7580841E+00
 5.2879700E+00 7.2579152E-01 1.7649400E+00
 5.2189858E+00 7.3993517E-01 1.7727021E+00
 5.1486638E+00 7.5474865E-01 1.7813172E+00
 5.0773943E+00 7.7038898E-01 1.7906058E+00
 5.0056078E+00 7.8704052E-01 1.8002477E+00
 4.9337373E+00 8.0489591E-01 1.8097834E+00
 4.8621950E+00 8.2413273E-01 1.8186347E+00
 4.7913667E+00 8.4488789E-01 1.8261450E+00
 4.7216253E+00 8.6723518E-01 1.8316301E+00
 4.6533478E+00 8.9116939E-01 1.8344380E+00
 4.5869313E+00 9.1660155E-01 1.8340079E+00
 4.5227896E+00 9.4336847E-01 1.8299223E+00
 4.4613224E+00 9.7125358E-01 1.8219354E+00
 4.4028259E+00 9.9999965E-01 1.8099617E+00
 4.3472597E+00 1.0292506E+00 1.7939722E+00
 4.2938659E+00 1.0583584E+00 1.7737549E+00
 5.5456078E+00 7.0592705E-01 1.7555442E+00
 5.4823365E+00 7.2056957E-01 1.7603558E+00
 5.4175223E+00 7.3485195E-01 1.7654805E+00
 5.3510033E+00 7.4938248E-01 1.7712711E+00
 5.2827950E+00 7.6441592E-01 1.7778865E+00
 5.2130887E+00 7.8008959E-01 1.7853613E+00
 5.1422150E+00 7.9653516E-01 1.7936135E+00
 5.0705898E+00 8.1390683E-01 1.8024291E+00
 4.9986661E+00 8.3237297E-01 1.8114498E+00
 4.9268912E+00 8.5209646E-01 1.8201818E+00
 4.8556848E+00 8.7321072E-01 1.8280239E+00
 4.7854351E+00 8.9579684E-01 1.8343134E+00
 4.7165120E+00 9.1986658E-01 1.8383812E+00
 4.6492825E+00 9.4535516E-01 1.8396114E+00
 4.5841182E+00 9.7212805E-01 1.8374962E+00
 4.5213772E+00 9.9999966E-01 1.8316747E+00
 4.4613224E+00 1.0287457E+00 1.8219355E+00
 4.4039110E+00 1.0580490E+00 1.8081494E+00
 4.3484083E+00 1.0873129E+00 1.7900751E+00
 5.5445767E+00 7.4102180E-01 1.7682729E+00
 5.4802806E+00 7.5679078E-01 1.7726997E+00
 5.4145282E+00 7.7231944E-01 1.7774753E+00
 5.3471824E+00 7.8818978E-01 1.7829039E+00
 5.2782821E+00 8.0464950E-01 1.7891154E+00
 5.2080449E+00 8.2183720E-01 1.7961203E+00
 5.1368285E+00 8.3988371E-01 1.8038083E+00
 5.0650734E+00 8.5893259E-01 1.8119325E+00
 4.9932499E+00 8.7912942E-01 1.8201026E+00
 4.9218144E+00 9.0060070E-01 1.8278006E+00
 4.8511889E+00 9.2343167E-01 1.8344152E+00
 4.7817573E+00 9.4764799E-01 1.8392926E+00
 4.7138775E+00 9.7320661E-01 1.8417926E+00
 4.6478916E+00 9.9999966E-01 1.8413456E+00
 4.5841182E+00 1.0278713E+00 1.8374963E+00
 4.5227896E+00 1.0566309E+00 1.8299225E+00
 4.4638587E+00 1.0860084E+00 1.8183953E+00
 4.4066424E+00 1.1154851E+00 1.8026428E+00
 5.5436294E+00 7.7773446E-01 1.7796793E+00
 5.4784358E+00 7.9458418E-01 1.7835916E+00
 5.4118989E+00 8.1133154E-01 1.7878779E+00
 5.3439031E+00 8.2851262E-01 1.7927888E+00
 5.2745090E+00 8.4636052E-01 1.7984245E+00
 5.2039595E+00 8.6500946E-01 1.8047703E+00
 5.1326364E+00 8.8458323E-01 1.8116885E+00
 5.0610000E+00 9.0520881E-01 1.8189043E+00
 4.9895315E+00 9.2700293E-01 1.8260036E+00
 4.9186905E+00 9.5005167E-01 1.8324559E+00
 4.8488937E+00 9.7439178E-01 1.8376539E+00
 4.7805118E+00 9.9999967E-01 1.8409663E+00
 4.7138775E+00 1.0267927E+00 1.8417927E+00
 4.6492825E+00 1.0546442E+00 1.8396116E+00
 4.5869313E+00 1.0833978E+00 1.8340082E+00
 4.5267763E+00 1.1128352E+00 1.8246620E+00
 4.4681919E+00 1.1425280E+00 1.8112593E+00
 5.5427947E+00 8.1592320E-01 1.7895621E+00
 5.4768513E+00 8.3379926E-01 1.7928346E+00
 5.4097028E+00 8.5171475E-01 1.7964893E+00
 5.3412521E+00 8.7014896E-01 1.8007252E+00
 5.2715798E+00 8.8931305E-01 1.8056123E+00
 5.2009511E+00 9.0933192E-01 1.8111117E+00
 5.1297674E+00 9.3031714E-01 1.8170618E+00
 5.0585018E+00 9.5237390E-01 1.8231659E+00
 4.9876399E+00 9.7558638E-01 1.8289962E+00
 4.9176363E+00 9.9999967E-01 1.8340224E+00
 4.8488937E+00 1.0256076E+00 1.8376539E+00
 4.7817573E+00 1.0523514E+00 1.8392928E+00
 4.7165120E+00 1.0801328E+00 1.8383814E+00
 4.6533478E+00 1.1088300E+00 1.8344383E+00
 4.5922245E+00 1.1382772E+00 1.8270642E+00
 4.5325832E+00 1.1681406E+00 1.8158979E+00
 5.5420989E+00 8.5539860E-01 1.7977316E+00
 5.4755730E+00 8.7422489E-01 1.8002431E+00
 5.4080018E+00 8.9323046E-01 1.8031274E+00
 5.3393044E+00 9.1282795E-01 1.8065349E+00
 5.2695795E+00 9.3320047E-01 1.8105076E+00
 5.1991099E+00 9.5445904E-01 1.8149850E+00
 5.1283105E+00 9.7669870E-01 1.8197860E+00
 5.0576600E+00 9.9999967E-01 1.8246000E+00
 4.9876399E+00 1.0244130E+00 1.8289963E+00
 4.9186905E+00 1.0499477E+00 1.8324560E+00
 4.8511889E+00 1.0765677E+00 1.8344154E+00
 4.7854351E+00 1.1042025E+00 1.8343137E+00
 4.7216253E+00 1.1327642E+00 1.8316305E+00
 4.6597429E+00 1.1621383E+00 1.8259071E+00
 4.5993150E+00 1.1920847E+00 1.8167354E+00
 5.5415607E+00 8.9592650E-01 1.8040203E+00
 5.4746352E+00 9.1560152E-01 1.8056582E+00
 5.4068420E+00 9.3559038E-01 1.8076420E+00
 5.3381141E+00 9.5622913E-01 1.8100792E+00
 5.2685650E+00 9.7766777E-01 1.8129874E+00
 5.1984901E+00 9.9999966E-01 1.8162879E+00
 5.1283105E+00 1.0233006E+00 1.8197860E+00
 5.0585017E+00 1.0476254E+00 1.8231659E+00
 4.9895315E+00 1.0729964E+00 1.8260036E+00
 4.9218144E+00 1.0993987E+00 1.8278007E+00
 4.8556848E+00 1.1267887E+00 1.8280242E+00
 4.7913668E+00 1.1551115E+00 1.8261454E+00
 4.7288914E+00 1.1843017E+00 1.8216683E+00
 4.6678960E+00 1.2142075E+00 1.8141441E+00
 5.5411942E+00 9.3723513E-01 1.8082927E+00
 5.4740627E+00 9.5763351E-01 1.8089581E+00
 5.4062543E+00 9.7847121E-01 1.8099268E+00
 5.3377138E+00 9.9999965E-01 1.8112706E+00
 5.2685650E+00 1.0223315E+00 1.8129874E+00
 5.1991098E+00 1.0455403E+00 1.8149850E+00
 5.1297673E+00 1.0696822E+00 1.8170618E+00
 5.0609999E+00 1.0947905E+00 1.8189043E+00
 4.9932498E+00 1.1208699E+00 1.8201027E+00
 4.9268912E+00 1.1479029E+00 1.8201820E+00
 4.8621950E+00 1.1758667E+00 1.8186350E+00
 4.7992630E+00 1.2047416E+00 1.8149536E+00
 4.7378723E+00 1.2344567E+00 1.8086573E+00
 5.5410086E+00 9.7902409E-01 1.8104534E+00
 5.4738702E+00 9.9999964E-01 1.8100668E+00
 5.4062543E+00 1.0215281E+00 1.8099268E+00
 5.3381141E+00 1.0437702E+00 1.8100792E+00
 5.2695795E+00 1.0667988E+00 1.8105076E+00
 5.2009510E+00 1.0906674E+00 1.8111117E+00
 5.1326364E+00 1.1154161E+00 1.8116886E+00
 5.0650734E+00 1.1410668E+00 1.8119325E+00
 4.9986661E+00 1.1676264E+00 1.8114500E+00
 4.9337373E+00 1.1951035E+00 1.8097836E+00
 4.8704786E+00 1.2235211E+00 1.8064384E+00
 4.8088334E+00 1.2528803E+00 1.8009168E+00
 5.5410086E+00 1.0209752E+00 1.8104534E+00
 5.4740627E+00 1.0423658E+00 1.8089581E+00
 5.4068420E+00 1.0644089E+00 1.8076419E+00
 5.3393044E+00 1.0871713E+00 1.8065348E+00
 5.2715798E+00 1.1106862E+00 1.8056123E+00
 5.2039594E+00 1.1349899E+00 1.8047703E+00
 5.1368284E+00 1.1601156E+00 1.8038083E+00
 5.0705897E+00 1.1860925E+00 1.8024292E+00
 5.0056077E+00 1.2129589E+00 1.8002479E+00
 4.9421685E+00 1.2407778E+00 1.7968079E+00
 4.8804017E+00 1.2696139E+00 1.7916114E+00
 5.5411942E+00 1.0627642E+00 1.8082926E+00
 5.4746352E+00 1.0843978E+00 1.8056581E+00
 5.4080018E+00 1.1067688E+00 1.8031273E+00
 5.3412521E+00 1.1298503E+00 1.8007251E+00
 5.2745090E+00 1.1536388E+00 1.7984245E+00
 5.2080449E+00 1.1781621E+00 1.7961203E+00
 5.1422149E+00 1.2034642E+00 1.7936135E+00
 5.0773942E+00 1.2296104E+00 1.7906060E+00
 5.0139528E+00 1.2567014E+00 1.7866999E+00
 4.9522112E+00 1.2848576E+00 1.7814173E+00
 5.5415607E+00 1.1040728E+00 1.8040203E+00
 5.4755730E+00 1.1257744E+00 1.8002430E+00
 5.4097028E+00 1.1482845E+00 1.7964893E+00
 5.3439031E+00 1.1714867E+00 1.7927887E+00
 5.2782821E+00 1.1953498E+00 1.7891153E+00
 5.2130887E+00 1.2199097E+00 1.7853613E+00
 5.1486637E+00 1.2452507E+00 1.7813172E+00
 5.0854303E+00 1.2715071E+00 1.7766588E+00
 5.0238883E+00 1.2988491E+00 1.7709452E+00
 5.5420989E+00 1.1446007E+00 1.7977315E+00
 5.4768513E+00 1.1662000E+00 1.7928345E+00
 5.4118989E+00 1.1886677E+00 1.7878778E+00
 5.3471823E+00 1.2118095E+00 1.7829038E+00
 5.2827949E+00 1.2355834E+00 1.7778864E+00
 5.2189857E+00 1.2600641E+00 1.7727021E+00
 5.1561856E+00 1.2854101E+00 1.7671031E+00
 5.0950427E+00 1.3118350E+00 1.7607003E+00
 5.5427947E+00 1.1840761E+00 1.7895619E+00
 5.4784357E+00 1.2054151E+00 1.7835915E+00
 5.4145282E+00 1.2276798E+00 1.7774752E+00
 5.3510032E+00 1.2506168E+00 1.7712710E+00
 5.2879699E+00 1.2742078E+00 1.7649399E+00
 5.2258113E+00 1.2986022E+00 1.7583121E+00
 5.1652759E+00 1.3240450E+00 1.7510569E+00
 5.5436294E+00 1.2222648E+00 1.7796791E+00
 5.4802806E+00 1.2432085E+00 1.7726995E+00
 5.4175222E+00 1.2651473E+00 1.7654803E+00
 5.3553172E+00 1.2878100E+00 1.7580840E+00
 5.2939472E+00 1.3112388E+00 1.7504292E+00
 5.2342043E+00 1.3356731E+00 1.7422521E+00
 5.5445767E+00 1.2589774E+00 1.7682727E+00
 5.4823364E+00 1.2794297E+00 1.7603557E+00
 5.4208533E+00 1.3009947E+00 1.7520803E+00
 5.3603081E+00 1.3234329E+00 1.7434843E+00
 5.3014899E+00 1.3468649E+00 1.7343955E+00
 5.5456078E+00 1.2940722E+00 1.7555440E+00
 5.4845850E+00 1.3140153E+00 1.7467454E+00
 5.4247528E+00 1.3352980E+00 1.7374027E+00
 5.3668646E+00 1.3577233E+00 1.7274900E+00
 5.5467137E+00 1.3274775E+00 1.7416863E+00
 5.4872154E+00 1.3470236E+00 1.7320069E+00
 5.4301235E+00 1.3683122E+00 1.7214627E+00
 5.5480018E+00 1.3592208E+00 1.7268619E+00
 5.4912155E+00 1.3787814E+00 1.7161271E+00
 5.5499042E+00 1.3893926E+00 1.7112021E+00
 5.6073010E+00 1.4017820E+00 1.7055863E+00
 5.6074489E+00 1.3730648E+00 1.7211974E+00
 5.6075239E+00 1.3425635E+00 1.7361946E+00
 5.6075775E+00 1.3101913E+00 1.7504211E+00
 5.6076223E+00 1.2760256E+00 1.7636606E+00
 5.6076635E+00 1.2401830E+00 1.7756911E+00
 5.6077007E+00 1.2027946E+00 1.7863043E+00
 5.6077330E+00 1.1640283E+00 1.7953040E+00
 5.6077594E+00 1.1240982E+00 1.8025115E+00
 5.6077789E+00 1.0832563E+00 1.8077760E+00
 5.6077908E+00 1.0417876E+00 1.8109826E+00
 5.6077948E+00 9.9999964E-01 1.8120596E+00
 5.6077908E+00 9.5821164E-01 1.8109826E+00
 5.6077789E+00 9.1674297E-01 1.8077761E+00
 5.6077594E+00 8.7590112E-01 1.8025116E+00
 5.6077330E+00 8.3597094E-01 1.7953041E+00
 5.6077007E+00 7.9720470E-01 1.7863044E+00
 5.6076635E+00 7.5981627E-01 1.7756913E+00
 5.6076223E+00 7.2397365E-01 1.7636608E+00
 5.6075774E+00 6.8980791E-01 1.7504213E+00
 5.6075239E+00 6.5743568E-01 1.7361949E+00
 5.6074489E+00 6.2693433E-01 1.7211977E+00
 5.6073010E+00 5.9821709E-01 1.7055865E+00
 5.6587007E+00 5.8000596E-01 1.6965699E+00
 5.7155543E+00 5.8777237E-01 1.7033125E+00
 5.7750524E+00 5.9595116E-01 1.7104548E+00
 5.8369549E+00 6.0465894E-01 1.7179160E+00
 5.9010334E+00 6.1398371E-01 1.7255421E+00
 5.9670501E+00 6.2405139E-01 1.7331666E+00
 6.0347957E+00 6.3499473E-01 1.7406003E+00
 6.1040084E+00 6.4694457E-01 1.7476352E+00
 6.1743784E+00 6.6002243E-01 1.7540506E+00
 6.2455439E+00 6.7433354E-01 1.7596207E+00
 6.3170991E+00 6.8996278E-01 1.7641215E+00
 6.3886041E+00 7.0697089E-01 1.7673366E+00
 6.4595974E+00 7.2539217E-01 1.7690606E+00
 6.5296102E+00 7.4523221E-01 1.7691042E+00
 6.5981821E+00 7.6646633E-01 1.7672986E+00
 6.6648770E+00 7.8903838E-01 1.7635014E+00
 6.7292969E+00 8.1286107E-01 1.7576028E+00
 6.7910923E+00 8.3781782E-01 1.7495326E+00
 6.8499661E+00 8.6376587E-01 1.7392642E+00
 6.9056670E+00 8.9054114E-01 1.7268199E+00
 6.9579472E+00 9.1794480E-01 1.7122870E+00
 7.0065658E+00 9.4575197E-01 1.6958157E+00
 7.0511989E+00 9.7361305E-01 1.6776721E+00
 5.6647485E+00 1.3907595E+00 1.7135811E+00
 5.7233244E+00 1.3813436E+00 1.7208102E+00
 5.7841647E+00 1.3718237E+00 1.7282020E+00
 5.8470074E+00 1.3618389E+00 1.7357717E+00
 5.9118127E+00 1.3511548E+00 1.7434404E+00
 5.9784131E+00 1.3396423E+00 1.7510305E+00
 6.0465937E+00 1.3271773E+00 1.7583380E+00
 6.1160810E+00 1.3136466E+00 1.7651389E+00
 6.1865420E+00 1.2989486E+00 1.7712005E+00
 6.2575945E+00 1.2830008E+00 1.7762893E+00
 6.3288154E+00 1.2657435E+00 1.7801777E+00
 6.3997536E+00 1.2471435E+00 1.7826503E+00
 6.4699428E+00 1.2271958E+00 1.7835073E+00
 6.5389177E+00 1.2059252E+00 1.7825695E+00
 6.6062296E+00 1.1833864E+00 1.7796834E+00
 6.6714619E+00 1.1596627E+00 1.7747267E+00
 6.7342429E+00 1.1348625E+00 1.7676148E+00
 6.7942562E+00 1.1091119E+00 1.7583045E+00
 6.8512448E+00 1.0825477E+00 1.7467961E+00
 6.9050376E+00 1.0553253E+00 1.7331207E+00
 6.9556550E+00 1.0276576E+00 1.7172886E+00
 7.0035621E+00 9.9999965E-01 1.6991619E+00
 5.6668771E+00 1.3605636E+00 1.7293690E+00
 5.7274990E+00 1.3494981E+00 1.7369377E+00
 5.7896449E+00 1.3386207E+00 1.7444418E+00
 5.8536086E+00 1.3272497E+00 1.7520576E+00
 5.9193394E+00 1.3151298E+00 1.7596870E+00
 5.9867352E+00 1.3021066E+00 1.7671528E+00
 6.0555735E+00 1.2880688E+00 1.7742320E+00
 6.1255619E+00 1.2729167E+00 1.7806861E+00
 6.1963435E+00 1.2565688E+00 1.7862701E+00
 6.2675125E+00 1.2389651E+00 1.7907425E+00
 6.3386263E+00 1.2200723E+00 1.7938725E+00
 6.4092194E+00 1.1998852E+00 1.7954461E+00
 6.4788189E+00 1.1784287E+00 1.7952706E+00
 6.5469613E+00 1.1557573E+00 1.7931793E+00
 6.6132088E+00 1.1319534E+00 1.7890363E+00
 6.6771665E+00 1.1071219E+00 1.7827422E+00
 6.7384962E+00 1.0813814E+00 1.7742371E+00
 6.7969382E+00 1.0548516E+00 1.7634980E+00
 6.8523681E+00 1.0276587E+00 1.7505168E+00
 6.9049631E+00 9.9999965E-01 1.7352262E+00
 6.9556550E+00 9.7234167E-01 1.7172886E+00
 5.6683056E+00 1.3287414E+00 1.7443083E+00
 5.7302408E+00 1.3163216E+00 1.7518848E+00
 5.7936145E+00 1.3040476E+00 1.7593825E+00
 5.8586228E+00 1.2912574E+00 1.7669167E+00
 5.9252915E+00 1.2776509E+00 1.7743883E+00
 5.9934931E+00 1.2630846E+00 1.7815971E+00
 6.0629969E+00 1.2474540E+00 1.7883055E+00
 6.1334841E+00 1.2306779E+00 1.7942603E+00
 6.2045730E+00 1.2126953E+00 1.7992058E+00
 6.2758347E+00 1.1934714E+00 1.8028952E+00
 6.3468080E+00 1.1730001E+00 1.8050975E+00
 6.4170159E+00 1.1513057E+00 1.8056039E+00
 6.4859819E+00 1.1284423E+00 1.8042327E+00
 6.5532493E+00 1.1044919E+00 1.8008339E+00
 6.6183981E+00 1.0795581E+00 1.7952930E+00
 6.6810659E+00 1.0537562E+00 1.7875342E+00
 6.7409749E+00 1.0271990E+00 1.7775158E+00
 6.7979996E+00 9.9999965E-01 1.7652084E+00
 6.8523681E+00 9.7234060E-01 1.7505168E+00
 6.9050376E+00 9.4467399E-01 1.7331207E+00
 5.6695073E+00 1.2952324E+00 1.7582745E+00
 5.7325653E+00 1.2815222E+00 1.7656905E+00
 5.7969897E+00 1.2678769E+00 1.7730248E+00
 5.8629435E+00 1.2536442E+00 1.7803390E+00
 5.9304345E+00 1.2385411E+00 1.7875017E+00
 5.9993245E+00 1.2224312E+00 1.7942944E+00
 6.0693569E+00 1.2052278E+00 1.8004633E+00
 6.1401894E+00 1.1868686E+00 1.8057437E+00
 6.2114163E+00 1.1673172E+00 1.8098733E+00
 6.2825890E+00 1.1465658E+00 1.8126040E+00
 6.3532327E+00 1.1246369E+00 1.8137095E+00
 6.4228649E+00 1.1015835E+00 1.8129919E+00
 6.4910136E+00 1.0774867E+00 1.8102854E+00
 6.5572379E+00 1.0524491E+00 1.8054611E+00
 6.6211495E+00 1.0265838E+00 1.7984276E+00
 6.6824445E+00 9.9999965E-01 1.7891275E+00
 6.7409750E+00 9.7280031E-01 1.7775159E+00
 6.7969382E+00 9.4514767E-01 1.7634980E+00
 6.8512448E+00 9.1745159E-01 1.7467962E+00
 5.6706191E+00 1.2600175E+00 1.7711066E+00
 5.7346823E+00 1.2450577E+00 1.7782164E+00
 5.8000172E+00 1.2300496E+00 1.7852400E+00
 5.8667648E+00 1.2143823E+00 1.7921791E+00
 5.9349148E+00 1.1977978E+00 1.7988699E+00
 6.0043084E+00 1.1801791E+00 1.8050747E+00
 6.0746663E+00 1.1614589E+00 1.8105270E+00
 6.1456233E+00 1.1415990E+00 1.8149546E+00
 6.2167539E+00 1.1205894E+00 1.8180934E+00
 6.2875955E+00 1.0984503E+00 1.8196998E+00
 6.3576668E+00 1.0752328E+00 1.8195578E+00
 6.4264885E+00 1.0510163E+00 1.8174857E+00
 6.4936034E+00 1.0259015E+00 1.8133386E+00
 6.5586010E+00 9.9999965E-01 1.8070102E+00
 6.6211495E+00 9.7341545E-01 1.7984277E+00
 6.6810659E+00 9.4624309E-01 1.7875342E+00
 6.7384962E+00 9.1861787E-01 1.7742371E+00
 6.7942562E+00 8.9088742E-01 1.7583046E+00
 5.6716395E+00 1.2231719E+00 1.7826082E+00
 5.7365819E+00 1.2069976E+00 1.7892724E+00
 5.8026753E+00 1.1906499E+00 1.7958354E+00
 5.8700434E+00 1.1735789E+00 1.8022391E+00
 5.9386593E+00 1.1555604E+00 1.8082895E+00
 6.0083437E+00 1.1365016E+00 1.8137332E+00
 6.0787969E+00 1.1163589E+00 1.8182952E+00
 6.1496345E+00 1.0951201E+00 1.8217007E+00
 6.2204172E+00 1.0728029E+00 1.8236897E+00
 6.2906753E+00 1.0494557E+00 1.8240285E+00
 6.3599298E+00 1.0251551E+00 1.8225173E+00
 6.4277152E+00 9.9999965E-01 1.8189948E+00
 6.4936034E+00 9.7409776E-01 1.8133386E+00
 6.5572379E+00 9.4755021E-01 1.8054612E+00
 6.6183981E+00 9.2044119E-01 1.7952931E+00
 6.6771666E+00 8.9287734E-01 1.7827423E+00
 6.7342429E+00 8.6513679E-01 1.7676149E+00
 5.6725394E+00 1.1848379E+00 1.7925756E+00
 5.7382137E+00 1.1674949E+00 1.7986567E+00
 5.8048954E+00 1.1498545E+00 1.8046076E+00
 5.8726935E+00 1.1314401E+00 1.8103150E+00
 5.9415654E+00 1.1120685E+00 1.8155595E+00
 6.0113143E+00 1.0916745E+00 1.8200762E+00
 6.0816231E+00 1.0702408E+00 1.8235868E+00
 6.1520940E+00 1.0477823E+00 1.8258199E+00
 6.2222806E+00 1.0243441E+00 1.8265249E+00
 6.2917145E+00 9.9999965E-01 1.8254839E+00
 6.3599298E+00 9.7484419E-01 1.8225173E+00
 6.4264885E+00 9.4898300E-01 1.8174858E+00
 6.4910136E+00 9.2251259E-01 1.8102855E+00
 6.5532493E+00 8.9550742E-01 1.8008340E+00
 6.6132088E+00 8.6804592E-01 1.7890364E+00
 6.6714619E+00 8.4033658E-01 1.7747268E+00
 5.6732903E+00 1.1452062E+00 1.8008162E+00
 5.7395307E+00 1.1267633E+00 1.8061800E+00
 5.8066149E+00 1.1079061E+00 1.8113702E+00
 5.8746400E+00 1.0882414E+00 1.8162263E+00
 5.9435495E+00 1.0676321E+00 1.8205091E+00
 6.0131319E+00 1.0460436E+00 1.8239484E+00
 6.0830579E+00 1.0234856E+00 1.8262680E+00
 6.1529226E+00 9.9999965E-01 1.8272053E+00
 6.2222806E+00 9.7565517E-01 1.8265249E+00
 6.2906753E+00 9.5054360E-01 1.8240285E+00
 6.3576668E+00 9.2476645E-01 1.8195579E+00
 6.4228649E+00 8.9841578E-01 1.8129919E+00
 6.4859819E+00 8.7155694E-01 1.8042328E+00
 6.5469613E+00 8.4424200E-01 1.7931794E+00
 6.6062296E+00 8.1661289E-01 1.7796835E+00
 5.6738716E+00 1.1045126E+00 1.8071603E+00
 5.7404970E+00 1.0850658E+00 1.8116796E+00
 5.8077874E+00 1.0650978E+00 1.8159697E+00
 5.8758295E+00 1.0443083E+00 1.8198323E+00
 5.9445555E+00 1.0226100E+00 1.8230160E+00
 6.0137436E+00 9.9999965E-01 1.8252506E+00
 6.0830579E+00 9.7651370E-01 1.8262680E+00
 6.1520940E+00 9.5221698E-01 1.8258199E+00
 6.2204172E+00 9.2719637E-01 1.8236897E+00
 6.2875955E+00 9.0154900E-01 1.8196999E+00
 6.3532327E+00 8.7536243E-01 1.8137096E+00
 6.4170159E+00 8.4869354E-01 1.8056040E+00
 6.4788189E+00 8.2157060E-01 1.7952708E+00
 6.5389178E+00 7.9407401E-01 1.7825697E+00
 5.6742676E+00 1.0630311E+00 1.8114707E+00
 5.7410869E+00 1.0427025E+00 1.8150314E+00
 5.8083814E+00 1.0217588E+00 1.8182976E+00
 5.8762295E+00 9.9999965E-01 1.8210444E+00
 5.9445555E+00 9.7738933E-01 1.8230160E+00
 6.0131319E+00 9.5395574E-01 1.8239485E+00
 6.0816231E+00 9.2975849E-01 1.8235869E+00
 6.1496345E+00 9.0487917E-01 1.8217008E+00
 6.2167539E+00 8.7940992E-01 1.8180936E+00
 6.2825890E+00 8.5343348E-01 1.8126042E+00
 6.3468080E+00 8.2699912E-01 1.8050976E+00
 6.4092194E+00 8.0011407E-01 1.7954463E+00
 6.4699428E+00 7.7280342E-01 1.7835075E+00
 5.6744681E+00 1.0210647E+00 1.8136508E+00
 5.7412852E+00 9.9999964E-01 1.8161575E+00
 5.8083814E+00 9.7824046E-01 1.8182976E+00
 5.8758295E+00 9.5569095E-01 1.8198323E+00
 5.9435495E+00 9.3236717E-01 1.8205092E+00
 6.0113143E+00 9.0832481E-01 1.8200763E+00
 6.0787969E+00 8.8364035E-01 1.8182953E+00
 6.1456232E+00 8.5840022E-01 1.8149548E+00
 6.2114163E+00 8.3268201E-01 1.8098735E+00
 6.2758347E+00 8.0652786E-01 1.8028954E+00
 6.3386263E+00 7.7992698E-01 1.7938727E+00
 6.3997536E+00 7.5285576E-01 1.7826506E+00
 5.6744681E+00 9.7893461E-01 1.8136508E+00
 5.7410869E+00 9.5729677E-01 1.8150314E+00
 5.8077874E+00 9.3490148E-01 1.8159698E+00
 5.8746400E+00 9.1175785E-01 1.8162264E+00
 5.9415654E+00 8.8793081E-01 1.8155596E+00
 6.0083437E+00 8.6349772E-01 1.8137334E+00
 6.0746663E+00 8.3854035E-01 1.8105272E+00
 6.1401894E+00 8.1313066E-01 1.8057439E+00
 6.2045730E+00 7.8730397E-01 1.7992060E+00
 6.2675125E+00 7.6103409E-01 1.7907427E+00
 6.3288154E+00 7.3425575E-01 1.7801780E+00
 5.6742675E+00 9.3696823E-01 1.8114708E+00
 5.7404970E+00 9.1493345E-01 1.8116797E+00
 5.8066149E+00 8.9209321E-01 1.8113703E+00
 5.8726934E+00 8.6855914E-01 1.8103152E+00
 5.9386593E+00 8.4443889E-01 1.8082897E+00
 6.0043084E+00 8.1982020E-01 1.8050749E+00
 6.0693568E+00 7.9477146E-01 1.8004636E+00
 6.1334840E+00 7.6932134E-01 1.7942605E+00
 6.1963435E+00 7.4343045E-01 1.7862703E+00
 6.2575945E+00 7.1699843E-01 1.7762895E+00
 5.6738716E+00 8.9548669E-01 1.8071604E+00
 5.7395307E+00 8.7323596E-01 1.8061801E+00
 5.8048953E+00 8.5014480E-01 1.8046078E+00
 5.8700434E+00 8.2642040E-01 1.8022393E+00
 5.9349148E+00 8.0220147E-01 1.7988701E+00
 5.9993245E+00 7.7756799E-01 1.7942947E+00
 6.0629969E+00 7.5254517E-01 1.7883058E+00
 6.1255618E+00 7.2708246E-01 1.7806864E+00
 6.1865420E+00 7.0105056E-01 1.7712008E+00
 5.6732903E+00 8.5479305E-01 1.8008163E+00
 5.7382137E+00 8.3250437E-01 1.7986569E+00
 5.8026752E+00 8.0934939E-01 1.7958356E+00
 5.8667647E+00 7.8561693E-01 1.7921794E+00
 5.9304345E+00 7.6145811E-01 1.7875019E+00
 5.9934931E+00 7.3691464E-01 1.7815973E+00
 6.0555735E+00 7.1193038E-01 1.7742322E+00
 6.1160810E+00 6.8635257E-01 1.7651392E+00
 5.6725394E+00 8.1516136E-01 1.7925757E+00
 5.7365818E+00 7.9300162E-01 1.7892726E+00
 5.8000172E+00 7.6994958E-01 1.7852402E+00
 5.8629434E+00 7.4635502E-01 1.7803393E+00
 5.9252915E+00 7.2234833E-01 1.7743886E+00
 5.9867352E+00 6.9789256E-01 1.7671530E+00
 6.0465937E+00 6.7282181E-01 1.7583383E+00
 5.6716395E+00 7.7682733E-01 1.7826084E+00
 5.7346823E+00 7.5494152E-01 1.7782166E+00
 5.7969896E+00 7.3212232E-01 1.7730250E+00
 5.8586228E+00 7.0874179E-01 1.7669170E+00
 5.9193394E+00 6.8486939E-01 1.7596873E+00
 5.9784131E+00 6.6035683E-01 1.7510308E+00
 5.6706191E+00 7.3998172E-01 1.7711068E+00
 5.7325653E+00 7.1847696E-01 1.7656907E+00
 5.7936144E+00 6.9595156E-01 1.7593827E+00
 5.8536085E+00 6.7274946E-01 1.7520579E+00
 5.9118127E+00 6.4884436E-01 1.7434407E+00
 5.6695073E+00 7.0476679E-01 1.7582747E+00
 5.7302408E+00 6.8367758E-01 1.7518851E+00
 5.7896449E+00 6.6137844E-01 1.7444421E+00
 5.8470074E+00 6.3816023E-01 1.7357720E+00
 5.6683056E+00 6.7125780E-01 1.7443086E+00
 5.7274990E+00 6.5050103E-01 1.7369380E+00
 5.7841647E+00 6.2817546E-01 1.7282023E+00
 5.6668771E+00 6.3943551E-01 1.7293693E+00
 5.7233244E+00 6.1865552E-01 1.7208105E+00
 5.6647485E+00 6.0923961E-01 1.7135814E+00
 5.5754896E+00 1.4464491E+00 1.6773865E+00
 5.5402713E+00 1.4678108E+00 1.6620668E+00
 5.5034957E+00 1.4897747E+00 1.6454415E+00
 5.4653220E+00 1.5122341E+00 1.6274858E+00
 5.4258777E+00 1.5351043E+00 1.6081685E+00
 5.3853823E+00 1.5582953E+00 1.5874508E+00
 5.3440509E+00 1.5817208E+00 1.5652752E+00
 5.3021273E+00 1.6052686E+00 1.5415867E+00
 5.2598933E+00 1.6287975E+00 1.5163354E+00
 5.2176614E+00 1.6521330E+00 1.4894836E+00
 5.1757629E+00 1.6750688E+00 1.4610116E+00
 5.1345349E+00 1.6973711E+00 1.4309257E+00
 5.0943060E+00 1.7187862E+00 1.3992667E+00
 5.0553830E+00 1.7390530E+00 1.3661166E+00
 5.0180400E+00 1.7579163E+00 1.3316036E+00
 4.9825091E+00 1.7751429E+00 1.2959017E+00
 4.9489755E+00 1.7905352E+00 1.2592261E+00
 4.9175756E+00 1.8039423E+00 1.2218236E+00
 4.8884001E+00 1.8152669E+00 1.1839614E+00
 4.8615102E+00 1.8244650E+00 1.1459169E+00
 4.8369709E+00 1.8315400E+00 1.1079944E+00
 4.8148411E+00 1.8365410E+00 1.0704943E+00
 4.7952320E+00 1.8395599E+00 1.0338680E+00
 4.1414851E+00 1.0793638E+00 1.6939667E+00
 4.1335536E+00 1.1310858E+00 1.6808609E+00
 4.1283268E+00 1.1840690E+00 1.6649258E+00
 4.1266646E+00 1.2383466E+00 1.6463346E+00
 4.1290474E+00 1.2935829E+00 1.6250618E+00
 4.1358273E+00 1.3492698E+00 1.6010704E+00
 4.1472855E+00 1.4047895E+00 1.5743721E+00
 4.1636281E+00 1.4594415E+00 1.5450548E+00
 4.1849581E+00 1.5124670E+00 1.5132921E+00
 4.2112501E+00 1.5630829E+00 1.4793470E+00
 4.2423329E+00 1.6105261E+00 1.4435705E+00
 4.2778840E+00 1.6541034E+00 1.4063934E+00
 4.3174376E+00 1.6932411E+00 1.3683102E+00
 4.3604080E+00 1.7275306E+00 1.3298546E+00
 4.4061259E+00 1.7567589E+00 1.2915693E+00
 4.4538837E+00 1.7809209E+00 1.2539718E+00
 4.5029839E+00 1.8002091E+00 1.2175236E+00
 4.5527848E+00 1.8149823E+00 1.1826049E+00
 4.6027278E+00 1.8257201E+00 1.1495013E+00
 4.6523565E+00 1.8329718E+00 1.1183868E+00
 4.7012883E+00 1.8373149E+00 1.0892535E+00
 4.7491044E+00 1.8393259E+00 1.0617421E+00
 4.1871410E+00 1.1108634E+00 1.7175660E+00
 4.1818590E+00 1.1643215E+00 1.7042690E+00
 4.1791973E+00 1.2182422E+00 1.6879492E+00
 4.1801826E+00 1.2729480E+00 1.6688171E+00
 4.1853248E+00 1.3281873E+00 1.6468554E+00
 4.1949357E+00 1.3834458E+00 1.6220274E+00
 4.2092330E+00 1.4380715E+00 1.5943607E+00
 4.2283433E+00 1.4913282E+00 1.5639758E+00
 4.2522775E+00 1.5424407E+00 1.5310919E+00
 4.2809108E+00 1.5906408E+00 1.4960272E+00
 4.3139733E+00 1.6352180E+00 1.4591912E+00
 4.3510555E+00 1.6755705E+00 1.4210705E+00
 4.3916278E+00 1.7112510E+00 1.3822053E+00
 4.4350729E+00 1.7419998E+00 1.3431595E+00
 4.4807283E+00 1.7677607E+00 1.3044855E+00
 4.5279319E+00 1.7886746E+00 1.2666899E+00
 4.5760676E+00 1.8050529E+00 1.2302044E+00
 4.6246043E+00 1.8173367E+00 1.1953603E+00
 4.6731197E+00 1.8260500E+00 1.1623481E+00
 4.7212617E+00 1.8317619E+00 1.1311221E+00
 4.7686950E+00 1.8350667E+00 1.1010483E+00
 4.2374159E+00 1.1412952E+00 1.7385508E+00
 4.2346765E+00 1.1955508E+00 1.7248001E+00
 4.2346092E+00 1.2499394E+00 1.7079217E+00
 4.2382640E+00 1.3047206E+00 1.6880793E+00
 4.2461381E+00 1.3596271E+00 1.6652506E+00
 4.2584923E+00 1.4141114E+00 1.6394135E+00
 4.2754740E+00 1.4674875E+00 1.6106281E+00
 4.2971263E+00 1.5190008E+00 1.5790609E+00
 4.3233686E+00 1.5678850E+00 1.5449887E+00
 4.3539844E+00 1.6134158E+00 1.5087921E+00
 4.3886211E+00 1.6549643E+00 1.4709422E+00
 4.4268067E+00 1.6920444E+00 1.4319784E+00
 4.4679774E+00 1.7243488E+00 1.3924783E+00
 4.5115163E+00 1.7517682E+00 1.3530222E+00
 4.5567968E+00 1.7743893E+00 1.3141562E+00
 4.6032280E+00 1.7924733E+00 1.2763585E+00
 4.6502953E+00 1.8064186E+00 1.2400070E+00
 4.6975859E+00 1.8167189E+00 1.2053358E+00
 4.7447620E+00 1.8239328E+00 1.1723034E+00
 4.7914387E+00 1.8286685E+00 1.1403285E+00
 4.2920545E+00 1.1708632E+00 1.7562881E+00
 4.2918299E+00 1.2253498E+00 1.7418481E+00
 4.2943769E+00 1.2797217E+00 1.7242140E+00
 4.3007067E+00 1.3341330E+00 1.7034894E+00
 4.3112587E+00 1.3882554E+00 1.6796473E+00
 4.3262267E+00 1.4415070E+00 1.6526932E+00
 4.3456803E+00 1.4931839E+00 1.6227326E+00
 4.3695785E+00 1.5425398E+00 1.5899896E+00
 4.3977563E+00 1.5888488E+00 1.5548042E+00
 4.4299208E+00 1.6314626E+00 1.5176206E+00
 4.4656614E+00 1.6698606E+00 1.4789650E+00
 4.5044731E+00 1.7036892E+00 1.4394170E+00
 4.5457905E+00 1.7327844E+00 1.3995733E+00
 4.5890280E+00 1.7571746E+00 1.3600097E+00
 4.6336235E+00 1.7770643E+00 1.3212436E+00
 4.6790794E+00 1.7928016E+00 1.2836990E+00
 4.7249930E+00 1.8048411E+00 1.2476544E+00
 4.7710247E+00 1.8137182E+00 1.2131285E+00
 4.8167623E+00 1.8200461E+00 1.1796222E+00
 4.3507588E+00 1.1993272E+00 1.7703220E+00
 4.3530298E+00 1.2535814E+00 1.7549898E+00
 4.3581866E+00 1.3074722E+00 1.7364295E+00