# TIME = 7.300000
variables = x, y, z
zone N=5762 E=11520 F=FEPOINT ET=TRIANGLE
 6.2490230E+00 1.4256625E+00 1.6884320E+00
 6.2490230E+00 1.4256624E+00 3.1156828E-01
 6.2490230E+00 5.7433609E-01 1.6884326E+00
 6.2490231E+00 5.7433611E-01 3.1156755E-01
 4.7529568E+00 9.9999951E-01 1.6813873E+00
 7.7333287E+00 9.9999947E-01 1.6571016E+00
 4.7529568E+00 9.9999950E-01 3.1861275E-01
 7.7333287E+00 9.9999947E-01 3.4289856E-01
 5.4127876E+00 1.8486931E+00 1.0000001E+00
 5.4127876E+00 1.5130676E-01 1.0000001E+00
 7.0734290E+00 1.8113168E+00 1.0000001E+00
 7.0734291E+00 1.8868114E-01 1.0000001E+00
 6.1964300E+00 1.4175559E+00 1.6928233E+00
 6.1382621E+00 1.4087343E+00 1.6979970E+00
 6.0773711E+00 1.3997700E+00 1.7038181E+00
 6.0139490E+00 1.3906657E+00 1.7104565E+00
 5.9482109E+00 1.3814348E+00 1.7180286E+00
 5.8804272E+00 1.3720226E+00 1.7266233E+00
 5.8109161E+00 1.3623309E+00 1.7362479E+00
 5.7400694E+00 1.3522020E+00 1.7468004E+00
 5.6683199E+00 1.3414194E+00 1.7580431E+00
 5.5961067E+00 1.3297181E+00 1.7695933E+00
 5.5238410E+00 1.3168042E+00 1.7809334E+00
 5.4518914E+00 1.3023823E+00 1.7914391E+00
 5.3805930E+00 1.2861857E+00 1.8004214E+00
 5.3102722E+00 1.2680063E+00 1.8071775E+00
 5.2412779E+00 1.2477202E+00 1.8110467E+00
 5.1740028E+00 1.2253059E+00 1.8114663E+00
 5.1088904E+00 1.2008531E+00 1.8080217E+00
 5.0464224E+00 1.1745586E+00 1.8004835E+00
 4.9870886E+00 1.1467126E+00 1.7888243E+00
 4.9313437E+00 1.1176743E+00 1.7732125E+00
 4.8795881E+00 1.0878620E+00 1.7539966E+00
 4.8321332E+00 1.0577327E+00 1.7316594E+00
 4.7893204E+00 1.0278843E+00 1.7068725E+00
 6.1904268E+00 6.1218124E-01 1.7098475E+00
 6.1303699E+00 6.2273165E-01 1.7155120E+00
 6.0680042E+00 6.3303605E-01 1.7216186E+00
 6.0035475E+00 6.4332294E-01 1.7284347E+00
 5.9370271E+00 6.5378655E-01 1.7361737E+00
 5.8686790E+00 6.6454042E-01 1.7449237E+00
 5.7988224E+00 6.7572048E-01 1.7546719E+00
 5.7278548E+00 6.8749432E-01 1.7652765E+00
 5.6562149E+00 7.0007472E-01 1.7764538E+00
 5.5843408E+00 7.1370762E-01 1.7877766E+00
 5.5126363E+00 7.2865152E-01 1.7986917E+00
 5.4414595E+00 7.4515020E-01 1.8085543E+00
 5.3711352E+00 7.6340566E-01 1.8166732E+00
 5.3019809E+00 7.8355395E-01 1.8223641E+00
 5.2343359E+00 8.0564732E-01 1.8250038E+00
 5.1685794E+00 8.2964433E-01 1.8240827E+00
 5.1051323E+00 8.5540912E-01 1.8192478E+00
 5.0444337E+00 8.8271700E-01 1.8103282E+00
 4.9868964E+00 9.1126120E-01 1.7973351E+00
 4.9328249E+00 9.4065786E-01 1.7804224E+00
 4.8823108E+00 9.7044862E-01 1.7597992E+00
 4.8351026E+00 9.9999951E-01 1.7355912E+00
 6.1883264E+00 6.4276444E-01 1.7256950E+00
 6.1258768E+00 6.5506569E-01 1.7316656E+00
 6.0619342E+00 6.6673933E-01 1.7378933E+00
 5.9961984E+00 6.7834674E-01 1.7447992E+00
 5.9287250E+00 6.9015867E-01 1.7525974E+00
 5.8596638E+00 7.0236750E-01 1.7613830E+00
 5.7893237E+00 7.1513039E-01 1.7711149E+00
 5.7180989E+00 7.2862465E-01 1.7816151E+00
 5.6464315E+00 7.4305496E-01 1.7925569E+00
 5.5747575E+00 7.5864460E-01 1.8034730E+00
 5.5034742E+00 7.7561342E-01 1.8137793E+00
 5.4329299E+00 7.9415280E-01 1.8228154E+00
 5.3634396E+00 8.1440294E-01 1.8298929E+00
 5.2953104E+00 8.3643532E-01 1.8343499E+00
 5.2288678E+00 8.6024299E-01 1.8356026E+00
 5.1644659E+00 8.8573823E-01 1.8331918E+00
 5.1024749E+00 9.1275479E-01 1.8268140E+00
 5.0432271E+00 9.4104752E-01 1.8163246E+00
 4.9869180E+00 9.7028025E-01 1.8016963E+00
 4.9334724E+00 9.9999951E-01 1.7829215E+00
 4.8823107E+00 1.0295504E+00 1.7597992E+00
 6.1869406E+00 6.7481884E-01 1.7406077E+00
 6.1229598E+00 6.8851009E-01 1.7465337E+00
 6.0576107E+00 7.0156183E-01 1.7527328E+00
 5.9907338E+00 7.1452723E-01 1.7595847E+00
 5.9223225E+00 7.2776413E-01 1.7673111E+00
 5.8525433E+00 7.4149368E-01 1.7759849E+00
 5.7816971E+00 7.5589444E-01 1.7855383E+00
 5.7101880E+00 7.7114451E-01 1.7957558E+00
 5.6384627E+00 7.8743674E-01 1.8062714E+00
 5.5669568E+00 8.0496701E-01 1.8165823E+00
 5.4960611E+00 8.2391403E-01 1.8260798E+00
 5.4261143E+00 8.4441752E-01 1.8340948E+00
 5.3574198E+00 8.6656103E-01 1.8399489E+00
 5.2902695E+00 8.9036173E-01 1.8430074E+00
 5.2249630E+00 9.1576736E-01 1.8427265E+00
 5.1618018E+00 9.4265641E-01 1.8386896E+00
 5.1010439E+00 9.7083230E-01 1.8306174E+00
 5.0428064E+00 9.9999950E-01 1.8183383E+00
 4.9869180E+00 1.0297188E+00 1.8016964E+00
 4.9328249E+00 1.0593412E+00 1.7804224E+00
 6.1858627E+00 7.0838845E-01 1.7544592E+00
 6.1206887E+00 7.2331418E-01 1.7601388E+00
 6.0542065E+00 7.3766501E-01 1.7661328E+00
 5.9863368E+00 7.5199512E-01 1.7727827E+00
 5.9171086E+00 7.6667681E-01 1.7802822E+00
 5.8467018E+00 7.8195000E-01 1.7886783E+00
 5.7754355E+00 7.9799778E-01 1.7978707E+00
 5.7037255E+00 8.1499361E-01 1.8076081E+00
 5.6320250E+00 8.3311182E-01 1.8174890E+00
 5.5607682E+00 8.5251705E-01 1.8269823E+00
 5.4903376E+00 8.7334578E-01 1.8354634E+00
 5.4210595E+00 8.9568927E-01 1.8422641E+00
 5.3532204E+00 9.1958279E-01 1.8467238E+00
 5.2870854E+00 9.4500145E-01 1.8482393E+00
 5.2229027E+00 9.7185909E-01 1.8463036E+00
 5.1608695E+00 9.9999949E-01 1.8405265E+00
 5.1010439E+00 1.0291667E+00 1.8306174E+00
 5.0432271E+00 1.0589515E+00 1.8163246E+00
 4.9868964E+00 1.0887378E+00 1.7973352E+00
 6.1849274E+00 7.4349954E-01 1.7671106E+00
 6.1187363E+00 7.5954196E-01 1.7723830E+00
 6.0513089E+00 7.7512741E-01 1.7780164E+00
 5.9826180E+00 7.9079328E-01 1.7843090E+00
 5.9127327E+00 8.0690542E-01 1.7914177E+00
 5.8418579E+00 8.2370238E-01 1.7993569E+00
 5.7703323E+00 8.4136295E-01 1.8079934E+00
 5.6985842E+00 8.6004778E-01 1.8170428E+00
 5.6270707E+00 8.7990791E-01 1.8260746E+00
 5.5562203E+00 9.0107431E-01 1.8345382E+00
 5.4864034E+00 9.2364306E-01 1.8418039E+00
 5.4179278E+00 9.4766377E-01 1.8472141E+00
 5.3510521E+00 9.7313449E-01 1.8501329E+00
 5.2859928E+00 9.9999949E-01 1.8499892E+00
 5.2229027E+00 1.0281399E+00 1.8463036E+00
 5.1618018E+00 1.0573426E+00 1.8386896E+00
 5.1024748E+00 1.0872442E+00 1.8268140E+00
 5.0444337E+00 1.1172820E+00 1.8103282E+00
 6.1840768E+00 7.8009113E-01 1.7783939E+00
 6.1170069E+00 7.9715618E-01 1.7831212E+00
 6.0487985E+00 8.1391337E-01 1.7882503E+00
 5.9794674E+00 8.3086695E-01 1.7940307E+00
 5.9091145E+00 8.4836321E-01 1.8005798E+00
 5.8379694E+00 8.6662723E-01 1.8078779E+00
 5.7663877E+00 8.8582517E-01 1.8157606E+00
 5.6948060E+00 9.0609948E-01 1.8239155E+00
 5.6236792E+00 9.2757494E-01 1.8318912E+00
 5.5534248E+00 9.5034980E-01 1.8391280E+00
 5.4843937E+00 9.7448529E-01 1.8450014E+00
 5.4168653E+00 9.9999949E-01 1.8488725E+00
 5.3510521E+00 1.0268645E+00 1.8501329E+00
 5.2870854E+00 1.0549975E+00 1.8482392E+00
 5.2249630E+00 1.0842316E+00 1.8427265E+00
 5.1644659E+00 1.1142608E+00 1.8331918E+00
 5.1051323E+00 1.1445899E+00 1.8192478E+00
 6.1833163E+00 8.1803520E-01 1.7881315E+00
 6.1155079E+00 8.3603970E-01 1.7921919E+00
 6.0466909E+00 8.5389639E-01 1.7966795E+00
 5.9769128E+00 8.7206929E-01 1.8017954E+00
 5.9063003E+00 8.9087372E-01 1.8076175E+00
 5.8351022E+00 9.1051348E-01 1.8140933E+00
 5.7636850E+00 9.3113645E-01 1.8210312E+00
 5.6924865E+00 9.5286389E-01 1.8280976E+00
 5.6219523E+00 9.7579480E-01 1.8348296E+00
 5.5524805E+00 9.9999949E-01 1.8406679E+00
 5.4843937E+00 1.0255137E+00 1.8450014E+00
 5.4179278E+00 1.0523352E+00 1.8472141E+00
 5.3532204E+00 1.0804162E+00 1.8467238E+00
 5.2902695E+00 1.1096373E+00 1.8430074E+00
 5.2288678E+00 1.1397560E+00 1.8356026E+00
 5.1685794E+00 1.1703547E+00 1.8240827E+00
 6.1826699E+00 8.5715851E-01 1.7961556E+00
 6.1142821E+00 8.7601179E-01 1.7994375E+00
 6.0450427E+00 8.9488041E-01 1.8031541E+00
 5.9750231E+00 9.1418034E-01 1.8074597E+00
 5.9043689E+00 9.3418801E-01 1.8123946E+00
 5.8333410E+00 9.5508034E-01 1.8178778E+00
 5.7623092E+00 9.7698403E-01 1.8236959E+00
 5.6917038E+00 9.9999949E-01 1.8295019E+00
 5.6219523E+00 1.0242042E+00 1.8348296E+00
 5.5534248E+00 1.0496492E+00 1.8391280E+00
 5.4864034E+00 1.0763559E+00 1.8418039E+00
 5.4210595E+00 1.1043097E+00 1.8422641E+00
 5.3574198E+00 1.1334379E+00 1.8399489E+00
 5.2953104E+00 1.1635637E+00 1.8343499E+00
 5.2343359E+00 1.1943517E+00 1.8250038E+00
 6.1821624E+00 8.9724744E-01 1.8023174E+00
 6.1133732E+00 9.1684363E-01 1.8047207E+00
 6.0439102E+00 9.3661667E-01 1.8075472E+00
 5.9738617E+00 9.5692667E-01 1.8109079E+00
 5.9033856E+00 9.7800528E-01 1.8148099E+00
 5.8327468E+00 9.9999948E-01 1.8191489E+00
 5.7623092E+00 1.0230149E+00 1.8236959E+00
 5.6924865E+00 1.0471351E+00 1.8280976E+00
 5.6236792E+00 1.0724240E+00 1.8318912E+00
 5.5562203E+00 1.0989247E+00 1.8345382E+00
 5.4903376E+00 1.1266532E+00 1.8354634E+00
 5.4261143E+00 1.1555815E+00 1.8340948E+00
 5.3634396E+00 1.1855960E+00 1.8298929E+00
 5.3019809E+00 1.2164450E+00 1.8223641E+00
 6.1818134E+00 9.3805345E-01 1.8064965E+00
 6.1128144E+00 9.5826976E-01 1.8079354E+00
 6.0433336E+00 9.7881923E-01 1.8097676E+00
 5.9734700E+00 9.9999948E-01 1.8120658E+00
 5.9033856E+00 1.0219937E+00 1.8148099E+00
 5.8333410E+00 1.0449186E+00 1.8178777E+00
 5.7636850E+00 1.0688625E+00 1.8210311E+00
 5.6948059E+00 1.0938995E+00 1.8239155E+00
 5.6270706E+00 1.1200911E+00 1.8260746E+00
 5.5607681E+00 1.1474819E+00 1.8269823E+00
 5.4960610E+00 1.1760849E+00 1.8260798E+00
 5.4329299E+00 1.2058462E+00 1.8228154E+00
 5.3711352E+00 1.2365933E+00 1.8166732E+00
 6.1816357E+00 9.7930108E-01 1.8086081E+00
 6.1126260E+00 9.9999947E-01 1.8090145E+00
 6.0433336E+00 1.0211797E+00 1.8097676E+00
 5.9738617E+00 1.0430723E+00 1.8109078E+00
 5.9043689E+00 1.0658109E+00 1.8123945E+00
 5.8351022E+00 1.0894855E+00 1.8140932E+00
 5.7663877E+00 1.1141738E+00 1.8157606E+00
 5.6985842E+00 1.1399512E+00 1.8170428E+00
 5.6320250E+00 1.1668871E+00 1.8174890E+00
 5.5669567E+00 1.1950320E+00 1.8165822E+00
 5.5034742E+00 1.2243856E+00 1.8137793E+00
 5.4414595E+00 1.2548488E+00 1.8085543E+00
 6.1816357E+00 1.0206979E+00 1.8086080E+00
 6.1128144E+00 1.0417292E+00 1.8079353E+00
 6.0439102E+00 1.0633823E+00 1.8075471E+00
 5.9750230E+00 1.0858186E+00 1.8074596E+00
 5.9063003E+00 1.1091252E+00 1.8076173E+00
 5.8379694E+00 1.1333717E+00 1.8078778E+00
 5.7703322E+00 1.1586360E+00 1.8079933E+00
 5.7037254E+00 1.1850053E+00 1.8076080E+00
 5.6384626E+00 1.2125622E+00 1.8062713E+00
 5.5747575E+00 1.2413544E+00 1.8034730E+00
 5.5126363E+00 1.2713475E+00 1.7986917E+00
 6.1818134E+00 1.0619455E+00 1.8064964E+00
 6.1133732E+00 1.0831553E+00 1.8047206E+00
 6.0450427E+00 1.1051185E+00 1.8031540E+00
 5.9769127E+00 1.1279296E+00 1.8017953E+00
 5.9091144E+00 1.1516357E+00 1.8005797E+00
 5.8418579E+00 1.1762966E+00 1.7993568E+00
 5.7754355E+00 1.2020012E+00 1.7978706E+00
 5.7101879E+00 1.2288544E+00 1.7957557E+00
 5.6464315E+00 1.2569440E+00 1.7925568E+00
 5.5843407E+00 1.2862913E+00 1.7877766E+00
 6.1821624E+00 1.1027515E+00 1.8023172E+00
 6.1142821E+00 1.1239871E+00 1.7994373E+00
 6.0466909E+00 1.1461025E+00 1.7966793E+00
 5.9794673E+00 1.1691320E+00 1.7940305E+00
 5.9127327E+00 1.1930935E+00 1.7914176E+00
 5.8467017E+00 1.2180489E+00 1.7886782E+00
 5.7816970E+00 1.2441045E+00 1.7855382E+00
 5.7180989E+00 1.2713743E+00 1.7816150E+00
 5.6562149E+00 1.2999242E+00 1.7764537E+00
 6.1826699E+00 1.1428404E+00 1.7961553E+00
 6.1155079E+00 1.1639592E+00 1.7921916E+00
 6.0487985E+00 1.1860855E+00 1.7882501E+00
 5.9826180E+00 1.2092056E+00 1.7843088E+00
 5.9171085E+00 1.2333221E+00 1.7802820E+00
 5.8525432E+00 1.2585052E+00 1.7759847E+00
 5.7893236E+00 1.2848685E+00 1.7711148E+00
 5.7278547E+00 1.3125046E+00 1.7652764E+00
 6.1833163E+00 1.1819637E+00 1.7881312E+00
 6.1170069E+00 1.2028427E+00 1.7831209E+00
 6.0513089E+00 1.2248715E+00 1.7780162E+00
 5.9863367E+00 1.2480037E+00 1.7727824E+00
 5.9223224E+00 1.2722347E+00 1.7673109E+00
 5.8596637E+00 1.2976314E+00 1.7613827E+00
 5.7988223E+00 1.3242784E+00 1.7546718E+00
 6.1840768E+00 1.2199077E+00 1.7783935E+00
 6.1187362E+00 1.2404569E+00 1.7723826E+00
 6.0542064E+00 1.2623338E+00 1.7661324E+00
 5.9907337E+00 1.2854716E+00 1.7595844E+00
 5.9287250E+00 1.3098402E+00 1.7525971E+00
 5.8686790E+00 1.3354584E+00 1.7449234E+00
 6.1849274E+00 1.2564993E+00 1.7671102E+00
 6.1206887E+00 1.2766846E+00 1.7601384E+00
 6.0576107E+00 1.2984370E+00 1.7527324E+00
 5.9961983E+00 1.3216521E+00 1.7447988E+00
 5.9370270E+00 1.3462123E+00 1.7361734E+00
 6.1858627E+00 1.2916103E+00 1.7544587E+00
 6.1229598E+00 1.3114887E+00 1.7465332E+00
 6.0619342E+00 1.3332594E+00 1.7378928E+00
 6.0035474E+00 1.3566758E+00 1.7284343E+00
 6.1869405E+00 1.3251799E+00 1.7406072E+00
 6.1258768E+00 1.3449330E+00 1.7316651E+00
 6.0680041E+00 1.3669627E+00 1.7216181E+00
 6.1883264E+00 1.3572342E+00 1.7256945E+00
 6.1303699E+00 1.3772670E+00 1.7155115E+00
 6.1904268E+00 1.3878174E+00 1.7098469E+00
 6.2492158E+00 1.4001289E+00 1.7035679E+00
 6.2494710E+00 1.3710908E+00 1.7193215E+00
 6.2496597E+00 1.3403379E+00 1.7343919E+00
 6.2498042E+00 1.3078243E+00 1.7486146E+00
 6.2499165E+00 1.2736261E+00 1.7617910E+00
 6.2500084E+00 1.2378626E+00 1.7737149E+00
 6.2500861E+00 1.2006615E+00 1.7841959E+00
 6.2501516E+00 1.1621851E+00 1.7930556E+00
 6.2502044E+00 1.1226332E+00 1.8001331E+00
 6.2502434E+00 1.0822397E+00 1.8052928E+00
 6.2502673E+00 1.0412671E+00 1.8084317E+00
 6.2502753E+00 9.9999947E-01 1.8094853E+00
 6.2502673E+00 9.5873183E-01 1.8084317E+00
 6.2502434E+00 9.1775926E-01 1.8052929E+00
 6.2502044E+00 8.7736568E-01 1.8001333E+00
 6.2501516E+00 8.3781382E-01 1.7930559E+00
 6.2500861E+00 7.9933739E-01 1.7841962E+00
 6.2500084E+00 7.6213618E-01 1.7737153E+00
 6.2499165E+00 7.2637269E-01 1.7617915E+00
 6.2498042E+00 6.9217444E-01 1.7486151E+00
 6.2496597E+00 6.5966075E-01 1.7343925E+00
 6.2494710E+00 6.2890789E-01 1.7193221E+00
 6.2492158E+00 5.9986968E-01 1.7035685E+00
 6.3016841E+00 5.8171908E-01 1.6939895E+00
 6.3596589E+00 5.8985560E-01 1.7003161E+00
 6.4200243E+00 5.9834928E-01 1.7070094E+00
 6.4825178E+00 6.0732260E-01 1.7139964E+00
 6.5469387E+00 6.1686681E-01 1.7211357E+00
 6.6130674E+00 6.2710305E-01 1.7282748E+00
 6.6807050E+00 6.3815260E-01 1.7352400E+00
 6.7496128E+00 6.5013526E-01 1.7418427E+00
 6.8195186E+00 6.6316359E-01 1.7478848E+00
 6.8901052E+00 6.7733759E-01 1.7531632E+00
 6.9610113E+00 6.9274094E-01 1.7574733E+00
 7.0318378E+00 7.0943786E-01 1.7606133E+00
 7.1021593E+00 7.2747111E-01 1.7623869E+00
 7.1715418E+00 7.4686013E-01 1.7626078E+00
 7.2395599E+00 7.6760000E-01 1.7611033E+00
 7.3058135E+00 7.8966055E-01 1.7577208E+00
 7.3699382E+00 8.1298652E-01 1.7523332E+00
 7.4316092E+00 8.3749841E-01 1.7448460E+00
 7.4905371E+00 8.6309432E-01 1.7352041E+00
 7.5464656E+00 8.8965608E-01 1.7233971E+00
 7.5991432E+00 9.1703301E-01 1.7094713E+00
 7.6483410E+00 9.4503108E-01 1.6935184E+00
 7.6937040E+00 9.7324335E-01 1.6757525E+00
 6.3080559E+00 1.3886296E+00 1.7111560E+00
 6.3677995E+00 1.3787335E+00 1.7179999E+00
 6.4294965E+00 1.3688202E+00 1.7249596E+00
 6.4928826E+00 1.3585660E+00 1.7320369E+00
 6.5579470E+00 1.3477082E+00 1.7391806E+00
 6.6245316E+00 1.3360919E+00 1.7462443E+00
 6.6924462E+00 1.3235880E+00 1.7530498E+00
 6.7614573E+00 1.3100904E+00 1.7593970E+00
 6.8312832E+00 1.2955065E+00 1.7650771E+00
 6.9015943E+00 1.2797592E+00 1.7698790E+00
 6.9720169E+00 1.2627892E+00 1.7735942E+00
 7.0421433E+00 1.2445574E+00 1.7760209E+00
 7.1115468E+00 1.2250464E+00 1.7769673E+00
 7.1797988E+00 1.2042612E+00 1.7762559E+00
 7.2464869E+00 1.1822281E+00 1.7737280E+00
 7.3112296E+00 1.1589936E+00 1.7692489E+00
 7.3736868E+00 1.1346220E+00 1.7627128E+00
 7.4335689E+00 1.1091967E+00 1.7540449E+00
 7.4906499E+00 1.0828260E+00 1.7431996E+00
 7.5448113E+00 1.0556596E+00 1.7301424E+00
 7.5961239E+00 1.0279063E+00 1.7148085E+00
 7.6449994E+00 9.9999947E-01 1.6970193E+00
 6.3105844E+00 1.3580606E+00 1.7270756E+00
 6.3726064E+00 1.3463831E+00 1.7342856E+00
 6.4357278E+00 1.3350388E+00 1.7413630E+00
 6.5002397E+00 1.3233984E+00 1.7484615E+00
 6.5661212E+00 1.3111483E+00 1.7555255E+00
 6.6333112E+00 1.2980841E+00 1.7624215E+00
 6.7016438E+00 1.2840797E+00 1.7689605E+00
 6.7708934E+00 1.2690397E+00 1.7749330E+00
 6.8407717E+00 1.2528904E+00 1.7801209E+00
 6.9109372E+00 1.2355764E+00 1.7843073E+00
 6.9810046E+00 1.2170615E+00 1.7872816E+00
 7.0505594E+00 1.1973303E+00 1.7888440E+00
 7.1191744E+00 1.1763885E+00 1.7888091E+00
 7.1864294E+00 1.1542609E+00 1.7870102E+00
 7.2519298E+00 1.1309884E+00 1.7833031E+00
 7.3153240E+00 1.1066236E+00 1.7775689E+00
 7.3763242E+00 1.0812308E+00 1.7697133E+00
 7.4347442E+00 1.0548939E+00 1.7596560E+00
 7.4905727E+00 1.0277432E+00 1.7473010E+00
 7.5440917E+00 9.9999947E-01 1.7324778E+00
 7.5961239E+00 9.7209261E-01 1.7148085E+00
 6.3123094E+00 1.3259717E+00 1.7420599E+00
 6.3757772E+00 1.3128618E+00 1.7492722E+00
 6.4401870E+00 1.3000872E+00 1.7563231E+00
 6.5057137E+00 1.2870454E+00 1.7633084E+00
 6.5724155E+00 1.2733588E+00 1.7701777E+00
 6.6402312E+00 1.2588193E+00 1.7767814E+00
 6.7090139E+00 1.2433011E+00 1.7829213E+00
 6.7785334E+00 1.2267240E+00 1.7883774E+00
 6.8484917E+00 1.2090327E+00 1.7929244E+00
 6.9185352E+00 1.1901927E+00 1.7963419E+00
 6.9882687E+00 1.1701903E+00 1.7984196E+00
 7.0572736E+00 1.1490319E+00 1.7989626E+00
 7.1251272E+00 1.1267421E+00 1.7977941E+00
 7.1914249E+00 1.1033590E+00 1.7947595E+00
 7.2558022E+00 1.0789293E+00 1.7897274E+00
 7.3179648E+00 1.0535057E+00 1.7825867E+00
 7.3777377E+00 1.0271568E+00 1.7732339E+00
 7.4351511E+00 9.9999947E-01 1.7615422E+00
 7.4905727E+00 9.7225577E-01 1.7473010E+00
 7.5448114E+00 9.4433933E-01 1.7301424E+00
 6.3136365E+00 1.2923434E+00 1.7559795E+00
 6.3782342E+00 1.2779402E+00 1.7629893E+00
 6.4436869E+00 1.2638152E+00 1.7698362E+00
 6.5101059E+00 1.2493791E+00 1.7765655E+00
 6.5775297E+00 1.2342610E+00 1.7830963E+00
 6.6458989E+00 1.2182546E+00 1.7892619E+00
 6.7150588E+00 1.2012484E+00 1.7948502E+00
 6.7847713E+00 1.1831781E+00 1.7996327E+00
 6.8547264E+00 1.1640083E+00 1.8033794E+00
 6.9245601E+00 1.1437256E+00 1.8058694E+00
 6.9938717E+00 1.1223369E+00 1.8068962E+00
 7.0622448E+00 1.0998666E+00 1.8062724E+00
 7.1292701E+00 1.0763518E+00 1.8038324E+00
 7.1945713E+00 1.0518360E+00 1.7994327E+00
 7.2578393E+00 1.0263657E+00 1.7929487E+00
 7.3188865E+00 9.9999947E-01 1.7842624E+00
 7.3777377E+00 9.7284212E-01 1.7732340E+00
 7.4347442E+00 9.4510504E-01 1.7596561E+00
 7.4906500E+00 9.1717293E-01 1.7431997E+00
 6.3147640E+00 1.2571583E+00 1.7686952E+00
 6.3803254E+00 1.2415685E+00 1.7753378E+00
 6.4466506E+00 1.2261561E+00 1.7818230E+00
 6.5138089E+00 1.2103647E+00 1.7881435E+00
 6.5818139E+00 1.1938482E+00 1.7941827E+00
 6.6505938E+00 1.1764202E+00 1.7997526E+00
 6.7199835E+00 1.1579878E+00 1.8046288E+00
 6.7897335E+00 1.1385068E+00 1.8085767E+00
 6.8595244E+00 1.1179618E+00 1.8113651E+00
 6.9289864E+00 1.0963595E+00 1.8127764E+00
 6.9977201E+00 1.0737237E+00 1.8126113E+00
 7.0653208E+00 1.0500908E+00 1.8106928E+00
 7.1314056E+00 1.0255020E+00 1.8068657E+00
 7.1956492E+00 9.9999947E-01 1.8009939E+00
 7.2578393E+00 9.7363326E-01 1.7929487E+00
 7.3179648E+00 9.4649323E-01 1.7825867E+00
 7.3763242E+00 9.1876818E-01 1.7697133E+00
 7.4335689E+00 8.9080223E-01 1.7540450E+00
 6.3157716E+00 1.2204821E+00 1.7800377E+00
 6.3821650E+00 1.2037924E+00 1.7861701E+00
 6.4492087E+00 1.1871554E+00 1.7921468E+00
 6.5169397E+00 1.1700648E+00 1.7979067E+00
 6.5853521E+00 1.1522115E+00 1.8032985E+00
 6.6543605E+00 1.1334382E+00 1.8081146E+00
 6.7237893E+00 1.1136754E+00 1.8121211E+00
 6.7933802E+00 1.0929001E+00 1.8150810E+00
 6.8628088E+00 1.0711167E+00 1.8167659E+00
 6.9317066E+00 1.0483481E+00 1.8169652E+00
 6.9996850E+00 1.0246292E+00 1.8154894E+00
 7.0663636E+00 9.9999947E-01 1.8121721E+00
 7.1314056E+00 9.7449695E-01 1.8068657E+00
 7.1945713E+00 9.4816291E-01 1.7994327E+00
 7.2558022E+00 9.2106964E-01 1.7897275E+00
 7.3153240E+00 8.9337530E-01 1.7775690E+00
 7.3736868E+00 8.6537691E-01 1.7627128E+00
 6.3166641E+00 1.1824452E+00 1.7898282E+00
 6.3837537E+00 1.1647341E+00 1.7953219E+00
 6.4513522E+00 1.1469456E+00 1.8006501E+00
 6.5194752E+00 1.1286315E+00 1.8057023E+00
 6.5881019E+00 1.1095294E+00 1.8102960E+00
 6.6571367E+00 1.0895163E+00 1.8142078E+00
 6.7263964E+00 1.0685487E+00 1.8171989E+00
 6.7956187E+00 1.0466242E+00 1.8190340E+00
 6.8644812E+00 1.0237634E+00 1.8194911E+00
 6.9326254E+00 9.9999946E-01 1.8183693E+00
 6.9996850E+00 9.7536973E-01 1.8154895E+00
 7.0653208E+00 9.4990815E-01 1.8106928E+00
 7.1292701E+00 9.2364708E-01 1.8038324E+00
 7.1914249E+00 8.9663991E-01 1.7947596E+00
 7.2519298E+00 8.6901053E-01 1.7833032E+00
 7.3112297E+00 8.4100532E-01 1.7692490E+00
 6.3174193E+00 1.1432223E+00 1.7978969E+00
 6.3850507E+00 1.1245772E+00 1.8026333E+00
 6.4530267E+00 1.1057265E+00 1.8071815E+00
 6.5213493E+00 1.0862874E+00 1.8113874E+00
 6.5899882E+00 1.0660504E+00 1.8150433E+00
 6.6588414E+00 1.0449298E+00 1.8179153E+00
 6.7277233E+00 1.0229078E+00 1.8197643E+00
 6.7963741E+00 9.9999946E-01 1.8203605E+00
 6.8644812E+00 9.7623557E-01 1.8194912E+00
 6.9317066E+00 9.5165084E-01 1.8169653E+00
 6.9977201E+00 9.2627519E-01 1.8126114E+00
 7.0622448E+00 9.0013228E-01 1.8062726E+00
 7.1251272E+00 8.7325684E-01 1.7977942E+00
 7.1864294E+00 8.4573798E-01 1.7870104E+00
 7.2464869E+00 8.1777078E-01 1.7737281E+00
 6.3180112E+00 1.1030284E+00 1.8040937E+00
 6.3860116E+00 1.0835530E+00 1.8079649E+00
 6.4541766E+00 1.0637494E+00 1.8116130E+00
 6.5225006E+00 1.0433069E+00 1.8148476E+00
 6.5909482E+00 1.0220729E+00 1.8174428E+00
 6.6594165E+00 9.9999946E-01 1.8191601E+00
 6.7277233E+00 9.7709113E-01 1.8197643E+00
 6.7956187E+00 9.5337472E-01 1.8190341E+00
 6.8628088E+00 9.2888220E-01 1.8167660E+00
 6.9289864E+00 9.0363946E-01 1.8127766E+00
 6.9938717E+00 8.7766200E-01 1.8068963E+00
 7.0572736E+00 8.5096698E-01 1.7989627E+00
 7.1191744E+00 8.2361042E-01 1.7888093E+00
 7.1797988E+00 7.9573772E-01 1.7762561E+00
 6.3184179E+00 1.0621133E+00 1.8082968E+00
 6.3866021E+00 1.0419294E+00 1.8112093E+00
 6.4547619E+00 1.0213025E+00 1.8138528E+00
 6.5228888E+00 9.9999946E-01 1.8160095E+00
 6.5909482E+00 9.7792600E-01 1.8174428E+00
 6.6588414E+00 9.5506908E-01 1.8179154E+00
 6.7263964E+00 9.3145021E-01 1.8171991E+00
 6.7933802E+00 9.0709877E-01 1.8150812E+00
 6.8595244E+00 8.8203709E-01 1.8113653E+00
 6.9245601E+00 8.5627329E-01 1.8058696E+00
 6.9882687E+00 8.2980860E-01 1.7984199E+00
 7.0505594E+00 8.0266860E-01 1.7888442E+00
 7.1115468E+00 7.7495249E-01 1.7769675E+00
 6.3186249E+00 1.0207541E+00 1.8104206E+00
 6.3868012E+00 9.9999946E-01 1.8122985E+00
 6.4547619E+00 9.7869645E-01 1.8138528E+00
 6.5225006E+00 9.5669206E-01 1.8148477E+00
 6.5899882E+00 9.3394856E-01 1.8150434E+00
 6.6571367E+00 9.1048257E-01 1.8142080E+00
 6.7237893E+00 8.8632352E-01 1.8121213E+00
 6.7897335E+00 8.6149210E-01 1.8085770E+00
 6.8547264E+00 8.3599056E-01 1.8033796E+00
 6.9185352E+00 8.0980616E-01 1.7963422E+00
 6.9810046E+00 7.8293740E-01 1.7872819E+00
 7.0421433E+00 7.5544148E-01 1.7760212E+00
 6.3186249E+00 9.7924484E-01 1.8104206E+00
 6.3866021E+00 9.5806954E-01 1.8112093E+00
 6.4541766E+00 9.3624953E-01 1.8116131E+00
 6.5213493E+00 9.1371156E-01 1.8113876E+00
 6.5881019E+00 8.9046949E-01 1.8102962E+00
 6.6543605E+00 8.6656073E-01 1.8081148E+00
 6.7199835E+00 8.4201105E-01 1.8046291E+00
 6.7847713E+00 8.1682073E-01 1.7996330E+00
 6.8484917E+00 7.9096617E-01 1.7929247E+00
 6.9109372E+00 7.6442240E-01 1.7843077E+00
 6.9720168E+00 7.3720961E-01 1.7735945E+00
 6.3184179E+00 9.3788562E-01 1.8082969E+00
 6.3860116E+00 9.1644588E-01 1.8079651E+00
 6.4530267E+00 8.9427241E-01 1.8071817E+00
 6.5194752E+00 8.7136735E-01 1.8057025E+00
 6.5853521E+00 8.4778738E-01 1.8032988E+00
 6.6505938E+00 8.2357865E-01 1.7997529E+00
 6.7150588E+00 7.9875045E-01 1.7948506E+00
 6.7785333E+00 7.7327477E-01 1.7883777E+00
 6.8407716E+00 7.4710835E-01 1.7801213E+00
 6.9015943E+00 7.2023953E-01 1.7698794E+00
 6.3180112E+00 8.9697055E-01 1.8040939E+00
 6.3850507E+00 8.7542170E-01 1.8026335E+00
 6.4513522E+00 8.5305328E-01 1.8006504E+00
 6.5169397E+00 8.2993401E-01 1.7979070E+00
 6.5818139E+00 8.0615067E-01 1.7941831E+00
 6.6458988E+00 7.8174422E-01 1.7892623E+00
 6.7090139E+00 7.5669772E-01 1.7829218E+00
 6.7708933E+00 7.3095912E-01 1.7749335E+00
 6.8312832E+00 7.0449221E-01 1.7650776E+00
 6.3174193E+00 8.5677660E-01 1.7978972E+00
 6.3837537E+00 8.3526480E-01 1.7953222E+00
 6.4492087E+00 8.1284348E-01 1.7921471E+00
 6.5138089E+00 7.8963409E-01 1.7881439E+00
 6.5775296E+00 7.6573784E-01 1.7830967E+00
 6.6402311E+00 7.4117948E-01 1.7767818E+00
 6.7016437E+00 7.1591906E-01 1.7689610E+00
 6.7614573E+00 6.8990827E-01 1.7593976E+00
 6.3166641E+00 8.1755366E-01 1.7898286E+00
 6.3821650E+00 7.9620638E-01 1.7861705E+00
 6.4466506E+00 7.7384274E-01 1.7818235E+00
 6.5101059E+00 7.5061966E-01 1.7765660E+00
 6.5724155E+00 7.2663990E-01 1.7701782E+00
 6.6333112E+00 7.0191457E-01 1.7624220E+00
 6.6924461E+00 6.7641066E-01 1.7530504E+00
 6.3157716E+00 7.7951667E-01 1.7800381E+00
 6.3803254E+00 7.5843025E-01 1.7753383E+00
 6.4436868E+00 7.3618358E-01 1.7698367E+00
 6.5057136E+00 7.1295328E-01 1.7633090E+00
 6.5661211E+00 6.8885040E-01 1.7555260E+00
 6.6245316E+00 6.6390675E-01 1.7462449E+00
 6.3147639E+00 7.4284047E-01 1.7686956E+00
 6.3782342E+00 7.2205859E-01 1.7629899E+00
 6.4401869E+00 6.9991148E-01 1.7563237E+00
 6.5002397E+00 6.7660027E-01 1.7484621E+00
 6.5579469E+00 6.5229045E-01 1.7391813E+00
 6.3136364E+00 7.0765531E-01 1.7559800E+00
 6.3757771E+00 6.8713695E-01 1.7492728E+00
 6.4357277E+00 6.6495986E-01 1.7413636E+00
 6.4928825E+00 6.4143257E-01 1.7320376E+00
 6.3123094E+00 6.7402696E-01 1.7420605E+00
 6.3726064E+00 6.5361551E-01 1.7342862E+00
 6.4294964E+00 6.3117838E-01 1.7249602E+00
 6.3105844E+00 6.4193805E-01 1.7270762E+00
 6.3677995E+00 6.2126509E-01 1.7180006E+00
 6.3080559E+00 6.1136900E-01 1.7111566E+00
 6.2167219E+00 1.4455510E+00 1.6753060E+00
 6.1808245E+00 1.4673888E+00 1.6601126E+00
 6.1433895E+00 1.4897836E+00 1.6436618E+00
 6.1045979E+00 1.5126137E+00 1.6259499E+00
 6.0645489E+00 1.5358187E+00 1.6069384E+00
 6.0234647E+00 1.5593271E+00 1.5865816E+00
 5.9815694E+00 1.5830631E+00 1.5648187E+00
 5.9391140E+00 1.6069239E+00 1.5415892E+00
 5.8963844E+00 1.6307778E+00 1.5168339E+00
 5.8536962E+00 1.6544589E+00 1.4905012E+00
 5.8113860E+00 1.6777664E+00 1.4625552E+00
 5.7697960E+00 1.7004686E+00 1.4329843E+00
 5.7292577E+00 1.7223115E+00 1.4018097E+00
 5.6900770E+00 1.7430315E+00 1.3690927E+00
 5.6525214E+00 1.7623702E+00 1.3349388E+00
 5.6168136E+00 1.7800893E+00 1.2994976E+00
 5.5831304E+00 1.7959847E+00 1.2629587E+00
 5.5516081E+00 1.8098949E+00 1.2255447E+00
 5.5223532E+00 1.8217078E+00 1.1875024E+00
 5.4954585E+00 1.8313616E+00 1.1490911E+00
 5.4710122E+00 1.8388411E+00 1.1105966E+00
 5.4490396E+00 1.8441773E+00 1.0723104E+00
 5.4295385E+00 1.8474425E+00 1.0347728E+00
 4.7809385E+00 1.0810573E+00 1.6972440E+00
 4.7733051E+00 1.1338477E+00 1.6838007E+00
 4.7683717E+00 1.1876249E+00 1.6675223E+00
 4.7669021E+00 1.2424065E+00 1.6486018E+00
 4.7693664E+00 1.2979134E+00 1.6270676E+00
 4.7761124E+00 1.3536923E+00 1.6029308E+00
 4.7873908E+00 1.4091710E+00 1.5762241E+00
 4.8033693E+00 1.4637021E+00 1.5470318E+00
 4.8241250E+00 1.5165865E+00 1.5155093E+00
 4.8496297E+00 1.5671025E+00 1.4818921E+00
 4.8797352E+00 1.6145419E+00 1.4464966E+00
 4.9141663E+00 1.6582521E+00 1.4097142E+00
 4.9525254E+00 1.6976811E+00 1.3719965E+00
 4.9943100E+00 1.7324171E+00 1.3338350E+00
 5.0389411E+00 1.7622188E+00 1.2957352E+00
 5.0858005E+00 1.7870304E+00 1.2581883E+00
 5.1342689E+00 1.8069779E+00 1.2216445E+00
 5.1837600E+00 1.8223489E+00 1.1864879E+00
 5.2337391E+00 1.8335592E+00 1.1530154E+00
 5.2837404E+00 1.8411137E+00 1.1214015E+00
 5.3333706E+00 1.8455668E+00 1.0916307E+00
 5.3822000E+00 1.8474868E+00 1.0633796E+00
 4.8262693E+00 1.1134549E+00 1.7217565E+00
 4.8213975E+00 1.1682947E+00 1.7081028E+00
 4.8191055E+00 1.2231906E+00 1.6913975E+00
 4.8202759E+00 1.2784312E+00 1.6718850E+00
 4.8254441E+00 1.3338629E+00 1.6496366E+00
 4.8349425E+00 1.3890731E+00 1.6246780E+00
 4.8489672E+00 1.4434951E+00 1.5970551E+00
 4.8676087E+00 1.4964725E+00 1.5668757E+00
 4.8908575E+00 1.5473065E+00 1.5343300E+00
 4.9185943E+00 1.5952978E+00 1.4996975E+00
 4.9505838E+00 1.6397909E+00 1.4633429E+00
 4.9864759E+00 1.6802191E+00 1.4257035E+00
 5.0258203E+00 1.7161456E+00 1.3872692E+00
 5.0680920E+00 1.7472946E+00 1.3485568E+00
 5.1127261E+00 1.7735689E+00 1.3100808E+00
 5.1591549E+00 1.7950496E+00 1.2723222E+00
 5.2068421E+00 1.8119792E+00 1.2356984E+00
 5.2553062E+00 1.8247332E+00 1.2005253E+00
 5.3041314E+00 1.8337855E+00 1.1669585E+00
 5.3529521E+00 1.8396716E+00 1.1349080E+00
 5.4014475E+00 1.8429522E+00 1.1038112E+00
 4.8760856E+00 1.1446349E+00 1.7435050E+00
 4.8738460E+00 1.2004409E+00 1.7293549E+00
 4.8741947E+00 1.2558876E+00 1.7120442E+00
 4.8780142E+00 1.3111927E+00 1.6917915E+00
 4.8858535E+00 1.3662102E+00 1.6686797E+00
 4.8980121E+00 1.4205274E+00 1.6427500E+00
 4.9146234E+00 1.4735726E+00 1.6140732E+00
 4.9357017E+00 1.5246919E+00 1.5827939E+00
 4.9611549E+00 1.5732067E+00 1.5491491E+00
 4.9907841E+00 1.6184649E+00 1.5134703E+00
 5.0242838E+00 1.6598885E+00 1.4761733E+00
 5.0612538E+00 1.6970167E+00 1.4377398E+00
 5.1012203E+00 1.7295395E+00 1.3986910E+00
 5.1436681E+00 1.7573182E+00 1.3595578E+00
 5.1880764E+00 1.7803882E+00 1.3208471E+00
 5.2339520E+00 1.7989468E+00 1.2830063E+00
 5.2808522E+00 1.8133288E+00 1.2463779E+00
 5.3283858E+00 1.8239766E+00 1.2111357E+00
 5.3761971E+00 1.8314102E+00 1.1771736E+00
 5.4239204E+00 1.8361844E+00 1.1439948E+00
 4.9301248E+00 1.1747049E+00 1.7618982E+00
 4.9304205E+00 1.2307435E+00 1.7470171E+00
 4.9333570E+00 1.2861572E+00 1.7289139E+00
 4.9397814E+00 1.3410528E+00 1.7077694E+00
 4.9502068E+00 1.3952280E+00 1.6836644E+00
 4.9648781E+00 1.4482481E+00 1.6566596E+00
 4.9838600E+00 1.4995387E+00 1.6268618E+00
 5.0070923E+00 1.5484640E+00 1.5944633E+00
 5.0344106E+00 1.5943892E+00 1.5597549E+00
 5.0655525E+00 1.6367337E+00 1.5231218E+00
 5.1001665E+00 1.6750180E+00 1.4850274E+00
 5.1378302E+00 1.7089004E+00 1.4459879E+00
 5.1780780E+00 1.7382004E+00 1.4065417E+00
 5.2204341E+00 1.7629062E+00 1.3672141E+00
 5.2644444E+00 1.7831667E+00 1.3284792E+00
 5.3096969E+00 1.7992715E+00 1.2907123E+00
 5.3558194E+00 1.8116276E+00 1.2541202E+00
 5.4024467E+00 1.8207320E+00 1.2186484E+00
 5.4491694E+00 1.8271329E+00 1.1838906E+00
 4.9880829E+00 1.2034725E+00 1.7764962E+00
 4.9908028E+00 1.2591890E+00 1.7606809E+00
 4.9962405E+00 1.3140545E+00 1.7416226E+00