# TIME = 13.800000
variables = x, y, z
zone N=5762 E=11520 F=FEPOINT ET=TRIANGLE
 7.3333182E+00 1.4205193E+00 1.6800409E+00
 7.3333182E+00 1.4205193E+00 3.1995920E-01
 7.3333183E+00 5.7947910E-01 1.6800412E+00
 7.3333183E+00 5.7947909E-01 3.1995894E-01
 5.8335012E+00 9.9999927E-01 1.6864325E+00
 8.8242516E+00 9.9999931E-01 1.6591831E+00
 5.8335022E+00 9.9999926E-01 3.1356895E-01
 8.8242521E+00 9.9999931E-01 3.4081594E-01
 6.4838919E+00 1.8552975E+00 1.0000001E+00
 6.4838919E+00 1.4470117E-01 1.0000000E+00
 8.1604295E+00 1.8075128E+00 1.0000001E+00
 8.1604291E+00 1.9248832E-01 1.0000001E+00
 7.2786953E+00 1.4126653E+00 1.6850368E+00
 7.2181881E+00 1.4042039E+00 1.6910556E+00
 7.1549269E+00 1.3957368E+00 1.6979120E+00
 7.0892107E+00 1.3872660E+00 1.7057717E+00
 7.0213641E+00 1.3787967E+00 1.7147230E+00
 6.9517307E+00 1.3702374E+00 1.7248179E+00
 6.8807114E+00 1.3614452E+00 1.7360029E+00
 6.8087797E+00 1.3522114E+00 1.7480965E+00
 6.7364294E+00 1.3422727E+00 1.7607720E+00
 6.6641198E+00 1.3313265E+00 1.7735674E+00
 6.5922396E+00 1.3190558E+00 1.7859110E+00
 6.5211002E+00 1.3051577E+00 1.7971596E+00
 6.4509553E+00 1.2893699E+00 1.8066408E+00
 6.3820362E+00 1.2714943E+00 1.8136971E+00
 6.3145888E+00 1.2514154E+00 1.8177281E+00
 6.2489010E+00 1.2291131E+00 1.8182316E+00
 6.1853144E+00 1.2046678E+00 1.8148387E+00
 6.1242155E+00 1.1782581E+00 1.8073389E+00
 6.0660111E+00 1.1501497E+00 1.7956913E+00
 6.0110933E+00 1.1206809E+00 1.7800190E+00
 5.9598422E+00 1.0902665E+00 1.7606088E+00
 5.9126132E+00 1.0593903E+00 1.7378966E+00
 5.8698560E+00 1.0287063E+00 1.7125602E+00
 7.2723477E+00 6.1737299E-01 1.7023022E+00
 7.2099702E+00 6.2757858E-01 1.7088609E+00
 7.1452492E+00 6.3742956E-01 1.7160701E+00
 7.0785752E+00 6.4711319E-01 1.7241574E+00
 7.0100374E+00 6.5683321E-01 1.7333096E+00
 6.9399566E+00 6.6674241E-01 1.7435734E+00
 6.8687374E+00 6.7703597E-01 1.7548778E+00
 6.7968563E+00 6.8793936E-01 1.7670022E+00
 6.7247971E+00 6.9971275E-01 1.7795787E+00
 6.6529997E+00 7.1263454E-01 1.7921079E+00
 6.5818297E+00 7.2698096E-01 1.8039927E+00
 6.5115777E+00 7.4300196E-01 1.8145792E+00
 6.4424828E+00 7.6089947E-01 1.8232009E+00
 6.3747667E+00 7.8080866E-01 1.8292215E+00
 6.3086672E+00 8.0278389E-01 1.8320753E+00
 6.2444595E+00 8.2678928E-01 1.8313033E+00
 6.1824587E+00 8.5269494E-01 1.8265814E+00
 6.1229997E+00 8.8027895E-01 1.8177350E+00
 6.0664054E+00 9.0923418E-01 1.8047371E+00
 6.0129344E+00 9.3917758E-01 1.7876820E+00
 5.9627128E+00 9.6965172E-01 1.7667297E+00
 5.9156046E+00 9.9999926E-01 1.7419971E+00
 7.2701508E+00 6.4823848E-01 1.7182631E+00
 7.2052103E+00 6.6023640E-01 1.7251861E+00
 7.1388537E+00 6.7149470E-01 1.7325690E+00
 7.0708760E+00 6.8252843E-01 1.7407966E+00
 7.0014273E+00 6.9360922E-01 1.7500432E+00
 6.9307420E+00 7.0498188E-01 1.7603621E+00
 6.8592130E+00 7.1687320E-01 1.7716512E+00
 6.7872934E+00 7.2952260E-01 1.7836542E+00
 6.7154450E+00 7.4317935E-01 1.7959642E+00
 6.6440808E+00 7.5809429E-01 1.8080509E+00
 6.5735406E+00 7.7450224E-01 1.8192979E+00
 6.5040926E+00 7.9260307E-01 1.8290468E+00
 6.4359578E+00 8.1254431E-01 1.8366415E+00
 6.3693418E+00 8.3440685E-01 1.8414691E+00
 6.3044612E+00 8.5819415E-01 1.8429961E+00
 6.2415532E+00 8.8382447E-01 1.8407974E+00
 6.1808644E+00 9.1112643E-01 1.8345730E+00
 6.1226125E+00 9.3983902E-01 1.8241448E+00
 6.0669276E+00 9.6961293E-01 1.8094260E+00
 6.0137718E+00 9.9999926E-01 1.7903575E+00
 5.9627130E+00 1.0303468E+00 1.7667294E+00
 7.2686802E+00 6.8047342E-01 1.7331851E+00
 7.2020984E+00 6.9388914E-01 1.7400925E+00
 7.1342571E+00 7.0656390E-01 1.7474891E+00
 7.0651182E+00 7.1898098E-01 1.7557027E+00
 6.9947800E+00 7.3150171E-01 1.7649112E+00
 6.9235015E+00 7.4440969E-01 1.7751399E+00
 6.8516551E+00 7.5796045E-01 1.7862561E+00
 6.7796808E+00 7.7239512E-01 1.7979656E+00
 6.7080170E+00 7.8794839E-01 1.8098273E+00
 6.6370512E+00 8.0484131E-01 1.8212852E+00
 6.5670975E+00 8.2326890E-01 1.8317096E+00
 6.4984001E+00 8.4338522E-01 1.8404428E+00
 6.4311575E+00 8.6529013E-01 1.8468421E+00
 6.3655477E+00 8.8901773E-01 1.8503172E+00
 6.3017436E+00 9.1452647E-01 1.8503604E+00
 6.2399082E+00 9.4168976E-01 1.8465651E+00
 6.1801647E+00 9.7028771E-01 1.8386258E+00
 6.1225481E+00 9.9999927E-01 1.8263155E+00
 6.0669277E+00 1.0303856E+00 1.8094258E+00
 6.0129347E+00 1.0608209E+00 1.7876816E+00
 7.2675725E+00 7.1405093E-01 1.7469370E+00
 7.1997539E+00 7.2871429E-01 1.7536131E+00
 7.1307559E+00 7.4271031E-01 1.7608305E+00
 7.0606389E+00 7.5650893E-01 1.7688718E+00
 6.9895508E+00 7.7048974E-01 1.7778828E+00
 6.9177684E+00 7.8496217E-01 1.7878566E+00
 6.8456710E+00 8.0018979E-01 1.7986234E+00
 6.7736878E+00 8.1640849E-01 1.8098529E+00
 6.7022390E+00 8.3383316E-01 1.8210738E+00
 6.6316882E+00 8.5265474E-01 1.8317100E+00
 6.5623234E+00 8.7303088E-01 1.8411246E+00
 6.4943624E+00 8.9507472E-01 1.8486648E+00
 6.4279722E+00 9.1884385E-01 1.8537028E+00
 6.3632857E+00 9.4432906E-01 1.8556682E+00
 6.3004033E+00 9.7144169E-01 1.8540694E+00
 6.2393752E+00 9.9999929E-01 1.8485004E+00
 6.1801647E+00 1.0297108E+00 1.8386257E+00
 6.1226127E+00 1.0601595E+00 1.8241444E+00
 6.0664057E+00 1.0907643E+00 1.8047365E+00
 7.2666778E+00 7.4896702E-01 1.7593986E+00
 7.1978656E+00 7.6473746E-01 1.7656741E+00
 7.1279523E+00 7.7996659E-01 1.7725453E+00
 7.0570574E+00 7.9510387E-01 1.7802515E+00
 6.9853835E+00 8.1052753E-01 1.7888987E+00
 6.9132353E+00 8.2655008E-01 1.7984416E+00
 6.8410016E+00 8.4343111E-01 1.8086726E+00
 6.7691060E+00 8.6139270E-01 1.8192280E+00
 6.6979512E+00 8.8062709E-01 1.8296118E+00
 6.6278768E+00 9.0129547E-01 1.8392339E+00
 6.5591433E+00 9.2352134E-01 1.8474556E+00
 6.4919356E+00 9.4738093E-01 1.8536326E+00
 6.4263764E+00 9.7289198E-01 1.8571520E+00
 6.3625318E+00 9.9999930E-01 1.8574590E+00
 6.3004033E+00 1.0285569E+00 1.8540693E+00
 6.2399083E+00 1.0583088E+00 1.8465648E+00
 6.1808645E+00 1.0888721E+00 1.8345726E+00
 6.1230000E+00 1.1197195E+00 1.8177342E+00
 7.2659180E+00 7.8515523E-01 1.7704322E+00
 7.1962941E+00 8.0191454E-01 1.7761664E+00
 7.1256557E+00 8.1828966E-01 1.7825433E+00
 7.0541732E+00 8.3470282E-01 1.7897578E+00
 6.9820912E+00 8.5152036E-01 1.7978743E+00
 6.9097410E+00 8.6904354E-01 1.8068079E+00
 6.8375191E+00 8.8751793E-01 1.8163150E+00
 6.7658414E+00 9.0714643E-01 1.8260034E+00
 6.6950922E+00 9.2809712E-01 1.8353582E+00
 6.6255850E+00 9.5050314E-01 1.8437818E+00
 6.5575480E+00 9.7445675E-01 1.8506383E+00
 6.4911241E+00 9.9999931E-01 1.8552944E+00
 6.4263764E+00 1.0271066E+00 1.8571520E+00
 6.3632857E+00 1.0556695E+00 1.8556681E+00
 6.3017437E+00 1.0854721E+00 1.8503602E+00
 6.2415533E+00 1.1161740E+00 1.8407969E+00
 6.1824589E+00 1.1473035E+00 1.8265807E+00
 7.2652672E+00 8.2249698E-01 1.7798943E+00
 7.1949840E+00 8.4014306E-01 1.7849685E+00
 7.1237953E+00 8.5757303E-01 1.7907168E+00
 7.0519102E+00 8.7518400E-01 1.7972912E+00
 6.9796062E+00 8.9332134E-01 1.8047150E+00
 6.9072323E+00 9.1226638E-01 1.8128650E+00
 6.8351871E+00 9.3224409E-01 1.8214661E+00
 6.7638750E+00 9.5343546E-01 1.8301032E+00
 6.6936576E+00 9.7598481E-01 1.8382488E+00
 6.6248188E+00 9.9999932E-01 1.8453036E+00
 6.5575480E+00 1.0255419E+00 1.8506383E+00
 6.4919356E+00 1.0526177E+00 1.8536326E+00
 6.4279723E+00 1.0811548E+00 1.8537028E+00
 6.3655477E+00 1.1109808E+00 1.8503170E+00
 6.3044612E+00 1.1418044E+00 1.8429957E+00
 6.2444597E+00 1.1732092E+00 1.8313027E+00
 7.2647236E+00 8.6083835E-01 1.7876497E+00
 7.1939308E+00 8.7927026E-01 1.7919604E+00
 7.1223649E+00 8.9765824E-01 1.7969584E+00
 7.0502642E+00 9.1637403E-01 1.8027546E+00
 6.9779277E+00 9.3573635E-01 1.8093324E+00
 6.9057132E+00 9.5600094E-01 1.8165347E+00
 6.8340141E+00 9.7736904E-01 1.8240598E+00
 6.7632170E+00 9.9999931E-01 1.8314759E+00
 6.6936576E+00 1.0240138E+00 1.8382489E+00
 6.6255850E+00 1.0494955E+00 1.8437818E+00
 6.5591433E+00 1.0764773E+00 1.8474557E+00
 6.4943624E+00 1.1049239E+00 1.8486648E+00
 6.4311576E+00 1.1347085E+00 1.8468420E+00
 6.3693418E+00 1.1655917E+00 1.8414688E+00
 6.3086673E+00 1.1972146E+00 1.8320748E+00
 7.2642977E+00 8.9999343E-01 1.7935799E+00
 7.1931531E+00 9.1910507E-01 1.7970371E+00
 7.1213877E+00 9.3834558E-01 1.8011760E+00
 7.0492596E+00 9.5805939E-01 1.8060676E+00
 6.9770792E+00 9.7853485E-01 1.8116593E+00
 6.9052037E+00 9.9999930E-01 1.8177641E+00
 6.8340141E+00 1.0226296E+00 1.8240599E+00
 6.7638749E+00 1.0465632E+00 1.8301033E+00
 6.6950922E+00 1.0719015E+00 1.8353583E+00
 6.6278768E+00 1.0987032E+00 1.8392341E+00
 6.5623234E+00 1.1269678E+00 1.8411247E+00
 6.4984001E+00 1.1566134E+00 1.8404428E+00
 6.4359578E+00 1.1874543E+00 1.8366414E+00
 6.3747668E+00 1.2191899E+00 1.8292212E+00
 7.2640036E+00 9.3974961E-01 1.7975893E+00
 7.1926746E+00 9.5942776E-01 1.8001174E+00
 7.1208908E+00 9.7940594E-01 1.8033024E+00
 7.0489214E+00 9.9999928E-01 1.8071780E+00
 6.9770792E+00 1.0214637E+00 1.8116593E+00
 6.9057132E+00 1.0439977E+00 1.8165348E+00
 6.8351871E+00 1.0677545E+00 1.8214663E+00
 6.7658414E+00 1.0928522E+00 1.8260036E+00
 6.6979511E+00 1.1193716E+00 1.8296120E+00
 6.6316882E+00 1.1473439E+00 1.8317102E+00
 6.5670975E+00 1.1767298E+00 1.8317097E+00
 6.5040926E+00 1.2073956E+00 1.8290468E+00
 6.4424829E+00 1.2390991E+00 1.8232007E+00
 7.2638533E+00 9.7987460E-01 1.7996112E+00
 7.1925129E+00 9.9999926E-01 1.8011500E+00
 7.1208908E+00 1.0205926E+00 1.8033024E+00
 7.0492595E+00 1.0419392E+00 1.8060676E+00
 6.9779277E+00 1.0642622E+00 1.8093325E+00
 6.9072322E+00 1.0877322E+00 1.8128652E+00
 6.8375190E+00 1.1124807E+00 1.8163152E+00
 6.7691059E+00 1.1386060E+00 1.8192283E+00
 6.7022390E+00 1.1661655E+00 1.8210740E+00
 6.6370512E+00 1.1951574E+00 1.8212855E+00
 6.5735406E+00 1.2254964E+00 1.8192981E+00
 6.5115778E+00 1.2569967E+00 1.8145793E+00
 7.2638533E+00 1.0201239E+00 1.7996112E+00
 7.1926746E+00 1.0405708E+00 1.8001174E+00
 7.1213877E+00 1.0616530E+00 1.8011761E+00
 7.0502641E+00 1.0836245E+00 1.8027546E+00
 6.9796061E+00 1.1066773E+00 1.8047152E+00
 6.9097409E+00 1.1309551E+00 1.8068081E+00
 6.8410016E+00 1.1565676E+00 1.8086729E+00
 6.7736877E+00 1.1835902E+00 1.8098532E+00
 6.7080170E+00 1.2120503E+00 1.8098277E+00
 6.6440808E+00 1.2419044E+00 1.8080513E+00
 6.5818297E+00 1.2730178E+00 1.8039930E+00
 7.2640036E+00 1.0602489E+00 1.7975893E+00
 7.1931531E+00 1.0808934E+00 1.7970371E+00
 7.1223649E+00 1.1023403E+00 1.7969585E+00
 7.0519101E+00 1.1248146E+00 1.7972914E+00
 6.9820911E+00 1.1484783E+00 1.7978745E+00
 6.9132352E+00 1.1734486E+00 1.7984419E+00
 6.8456709E+00 1.1998089E+00 1.7986237E+00
 6.7796808E+00 1.2276036E+00 1.7979660E+00
 6.7154449E+00 1.2568194E+00 1.7959646E+00
 6.6529997E+00 1.2873642E+00 1.7921084E+00
 7.2642977E+00 1.1000051E+00 1.7935798E+00
 7.1939307E+00 1.1207283E+00 1.7919604E+00
 7.1237952E+00 1.1424255E+00 1.7907169E+00
 7.0541731E+00 1.1652958E+00 1.7897579E+00
 6.9853834E+00 1.1894711E+00 1.7888989E+00
 6.9177683E+00 1.2150365E+00 1.7878570E+00
 6.8516550E+00 1.2420383E+00 1.7862565E+00
 6.7872934E+00 1.2704762E+00 1.7836546E+00
 6.7247971E+00 1.3002861E+00 1.7795792E+00
 7.2647235E+00 1.1391602E+00 1.7876497E+00
 7.1949839E+00 1.1598555E+00 1.7849685E+00
 7.1256556E+00 1.1817089E+00 1.7825434E+00
 7.0570573E+00 1.2048947E+00 1.7802517E+00
 6.9895507E+00 1.2295089E+00 1.7778831E+00
 6.9235013E+00 1.2555890E+00 1.7751403E+00
 6.8592129E+00 1.2831256E+00 1.7716517E+00
 6.7968562E+00 1.3120595E+00 1.7670028E+00
 7.2652671E+00 1.1775015E+00 1.7798942E+00
 7.1962940E+00 1.1980840E+00 1.7761665E+00
 7.1279521E+00 1.2200320E+00 1.7725454E+00
 7.0606387E+00 1.2434897E+00 1.7688720E+00
 6.9947799E+00 1.2684970E+00 1.7649116E+00
 6.9307419E+00 1.2950169E+00 1.7603626E+00
 6.8687373E+00 1.3229629E+00 1.7548783E+00
 7.2659179E+00 1.2148433E+00 1.7704322E+00
 7.1978655E+00 1.2352611E+00 1.7656741E+00
 7.1307558E+00 1.2572883E+00 1.7608306E+00
 7.0651181E+00 1.2810177E+00 1.7557029E+00
 7.0014271E+00 1.3063895E+00 1.7500435E+00
 6.9399564E+00 1.3332564E+00 1.7435739E+00
 7.2666777E+00 1.2510315E+00 1.7593985E+00
 7.1997538E+00 1.2712842E+00 1.7536131E+00
 7.1342570E+00 1.2934347E+00 1.7474893E+00
 7.0708758E+00 1.3174702E+00 1.7407968E+00
 7.0100372E+00 1.3431655E+00 1.7333100E+00
 7.2675724E+00 1.2859476E+00 1.7469369E+00
 7.2020983E+00 1.3061094E+00 1.7400925E+00
 7.1388535E+00 1.3285039E+00 1.7325692E+00
 7.0785750E+00 1.3528855E+00 1.7241576E+00
 7.2686801E+00 1.3195251E+00 1.7331850E+00
 7.2052102E+00 1.3397621E+00 1.7251862E+00
 7.1452490E+00 1.3625691E+00 1.7160702E+00
 7.2701507E+00 1.3517600E+00 1.7182630E+00
 7.2099701E+00 1.3724200E+00 1.7088609E+00
 7.2723476E+00 1.3826255E+00 1.7023021E+00
 7.3334629E+00 1.3947253E+00 1.6952983E+00
 7.3337034E+00 1.3653705E+00 1.7111698E+00
 7.3339209E+00 1.3344357E+00 1.7262468E+00
 7.3341106E+00 1.3018883E+00 1.7403762E+00
 7.3342642E+00 1.2678412E+00 1.7533696E+00
 7.3343853E+00 1.2324285E+00 1.7650444E+00
 7.3344802E+00 1.1957730E+00 1.7752414E+00
 7.3345547E+00 1.1580227E+00 1.7838138E+00
 7.3346118E+00 1.1193563E+00 1.7906306E+00
 7.3346528E+00 1.0799778E+00 1.7955826E+00
 7.3346776E+00 1.0401122E+00 1.7985878E+00
 7.3346859E+00 9.9999925E-01 1.7995953E+00
 7.3346776E+00 9.5988627E-01 1.7985878E+00
 7.3346528E+00 9.2002068E-01 1.7955826E+00
 7.3346119E+00 8.8064219E-01 1.7906307E+00
 7.3345547E+00 8.4197575E-01 1.7838139E+00
 7.3344803E+00 8.0422552E-01 1.7752415E+00
 7.3343854E+00 7.6756992E-01 1.7650445E+00
 7.3342643E+00 7.3215722E-01 1.7533697E+00
 7.3341107E+00 6.9811016E-01 1.7403764E+00
 7.3339210E+00 6.6556268E-01 1.7262470E+00
 7.3337034E+00 6.3462793E-01 1.7111700E+00
 7.3334630E+00 6.0527315E-01 1.6952985E+00
 7.3878246E+00 5.8721028E-01 1.6852134E+00
 7.4476481E+00 5.9561747E-01 1.6912698E+00
 7.5095703E+00 6.0423490E-01 1.6978080E+00
 7.5732367E+00 6.1318497E-01 1.7047693E+00
 7.6383970E+00 6.2255618E-01 1.7120176E+00
 7.7048512E+00 6.3248042E-01 1.7194114E+00
 7.7724419E+00 6.4308877E-01 1.7267823E+00
 7.8409816E+00 6.5451282E-01 1.7339417E+00
 7.9102564E+00 6.6687939E-01 1.7406838E+00
 7.9800174E+00 6.8030706E-01 1.7467908E+00
 8.0499811E+00 6.9490261E-01 1.7520371E+00
 8.1198316E+00 7.1075745E-01 1.7561939E+00
 8.1892277E+00 7.2794466E-01 1.7590341E+00
 8.2578135E+00 7.4651641E-01 1.7603377E+00
 8.3252297E+00 7.6650240E-01 1.7598978E+00
 8.3911245E+00 7.8790917E-01 1.7575276E+00
 8.4551614E+00 8.1072095E-01 1.7530670E+00
 8.5170238E+00 8.3490128E-01 1.7463893E+00
 8.5764167E+00 8.6039297E-01 1.7374060E+00
 8.6330680E+00 8.8711413E-01 1.7260693E+00
 8.6866921E+00 9.1491939E-01 1.7123845E+00
 8.7369958E+00 9.4356286E-01 1.6964104E+00
 8.7835331E+00 9.7252845E-01 1.6783517E+00
 7.3944438E+00 1.3828069E+00 1.7024822E+00
 7.4559970E+00 1.3726672E+00 1.7090363E+00
 7.5191927E+00 1.3626390E+00 1.7158481E+00
 7.5836304E+00 1.3524387E+00 1.7229037E+00
 7.6493075E+00 1.3418050E+00 1.7301577E+00
 7.7160881E+00 1.3305705E+00 1.7374746E+00
 7.7838251E+00 1.3185810E+00 1.7446879E+00
 7.8523367E+00 1.3057065E+00 1.7516013E+00
 7.9214057E+00 1.2918317E+00 1.7579998E+00
 7.9907794E+00 1.2768562E+00 1.7636577E+00
 8.0601690E+00 1.2606948E+00 1.7683443E+00
 8.1292546E+00 1.2432781E+00 1.7718296E+00
 8.1976941E+00 1.2245545E+00 1.7738897E+00
 8.2651341E+00 1.2044914E+00 1.7743124E+00
 8.3312230E+00 1.1830763E+00 1.7729028E+00
 8.3956236E+00 1.1603179E+00 1.7694883E+00
 8.4580252E+00 1.1362480E+00 1.7639226E+00
 8.5181584E+00 1.1109247E+00 1.7560869E+00
 8.5758078E+00 1.0844385E+00 1.7458866E+00
 8.6308426E+00 1.0569292E+00 1.7332386E+00
 8.6832770E+00 1.0286170E+00 1.7180396E+00
 8.7334296E+00 9.9999931E-01 1.7000926E+00
 7.3970623E+00 1.3519876E+00 1.7184426E+00
 7.4610344E+00 1.3400600E+00 1.7253482E+00
 7.5256618E+00 1.3286104E+00 1.7322727E+00
 7.5911926E+00 1.3170508E+00 1.7393490E+00
 7.6576017E+00 1.3050793E+00 1.7465200E+00
 7.7248620E+00 1.2924653E+00 1.7536678E+00
 7.7928558E+00 1.2790448E+00 1.7606186E+00
 7.8614230E+00 1.2646882E+00 1.7671693E+00
 7.9303556E+00 1.2492931E+00 1.7730971E+00
 7.9994035E+00 1.2327765E+00 1.7781704E+00
 8.0682782E+00 1.2150718E+00 1.7821559E+00
 8.1366611E+00 1.1961285E+00 1.7848247E+00
 8.2042143E+00 1.1759115E+00 1.7859576E+00
 8.2705959E+00 1.1544022E+00 1.7853503E+00
 8.3354761E+00 1.1315990E+00 1.7828166E+00
 8.3985584E+00 1.1075211E+00 1.7781904E+00
 8.4596039E+00 1.0822134E+00 1.7713228E+00
 8.5184664E+00 1.0557554E+00 1.7620723E+00
 8.5751418E+00 1.0282771E+00 1.7502820E+00
 8.6298476E+00 9.9999931E-01 1.7357366E+00
 8.6832769E+00 9.7138162E-01 1.7180394E+00
 7.3989295E+00 1.3197639E+00 1.7333795E+00
 7.4644182E+00 1.3064230E+00 1.7402619E+00
 7.5303516E+00 1.2935573E+00 1.7471494E+00
 7.5968568E+00 1.2806322E+00 1.7541059E+00
 7.6639941E+00 1.2672797E+00 1.7610796E+00
 7.7317382E+00 1.2532550E+00 1.7679386E+00
 7.8000037E+00 1.2383836E+00 1.7745020E+00
 7.8686424E+00 1.2225430E+00 1.7805574E+00
 7.9374552E+00 1.2056431E+00 1.7858753E+00
 8.0061956E+00 1.1876166E+00 1.7902202E+00
 8.0745783E+00 1.1684129E+00 1.7933582E+00
 8.1422907E+00 1.1479958E+00 1.7950628E+00
 8.2090075E+00 1.1263423E+00 1.7951197E+00
 8.2744116E+00 1.1034432E+00 1.7933296E+00
 8.3382190E+00 1.0793065E+00 1.7895086E+00
 8.4002131E+00 1.0539647E+00 1.7834835E+00
 8.4602876E+00 1.0274870E+00 1.7750801E+00
 8.5184984E+00 9.9999930E-01 1.7641006E+00
 8.5751417E+00 9.7172147E-01 1.7502818E+00
 8.6308424E+00 9.4306950E-01 1.7332382E+00
 7.4003618E+00 1.2861795E+00 1.7471517E+00
 7.4669814E+00 1.2715870E+00 1.7538004E+00
 7.5339258E+00 1.2574092E+00 1.7604652E+00
 7.6012556E+00 1.2431411E+00 1.7671564E+00
 7.6690103E+00 1.2284181E+00 1.7737933E+00
 7.7371702E+00 1.2129881E+00 1.7802270E+00
 7.8056533E+00 1.1966827E+00 1.7862628E+00
 7.8743197E+00 1.1793888E+00 1.7916790E+00
 7.9429742E+00 1.1610297E+00 1.7962405E+00
 8.0113751E+00 1.1415518E+00 1.7997097E+00
 8.0792438E+00 1.1209173E+00 1.8018533E+00
 8.1462805E+00 1.0991005E+00 1.8024478E+00
 8.2121845E+00 1.0760872E+00 1.8012818E+00
 8.2766832E+00 1.0518776E+00 1.7981565E+00
 8.3395693E+00 1.0264947E+00 1.7928807E+00
 8.4007478E+00 9.9999929E-01 1.7852607E+00
 8.4602875E+00 9.7251162E-01 1.7750799E+00
 8.5184663E+00 9.4424328E-01 1.7620719E+00
 8.5758077E+00 9.1556023E-01 1.7458860E+00
 7.4015102E+00 1.2512451E+00 1.7596348E+00
 7.4690330E+00 1.2355361E+00 1.7658826E+00
 7.5367766E+00 1.2201393E+00 1.7721636E+00
 7.6047617E+00 1.2045875E+00 1.7784388E+00
 7.6729992E+00 1.1885347E+00 1.7845934E+00
 7.7414592E+00 1.1717414E+00 1.7904562E+00
 7.8100586E+00 1.1540517E+00 1.7958176E+00
 7.8786589E+00 1.1353666E+00 1.8004473E+00
 7.9470694E+00 1.1156225E+00 1.8041058E+00
 8.0150552E+00 1.0947776E+00 1.8065549E+00
 8.0823500E+00 1.0728036E+00 1.8075629E+00
 8.1486766E+00 1.0496827E+00 1.8069081E+00
 8.2137746E+00 1.0254095E+00 1.8043792E+00
 8.2774395E+00 9.9999928E-01 1.7997720E+00
 8.3395693E+00 9.7350392E-01 1.7928806E+00
 8.4002130E+00 9.4603395E-01 1.7834832E+00
 8.4596038E+00 9.1778525E-01 1.7713223E+00
 8.5181582E+00 8.8907397E-01 1.7560862E+00
 7.4024660E+00 1.2150316E+00 1.7706889E+00
 7.4707257E+00 1.1983211E+00 1.7763956E+00
 7.5391002E+00 1.1817968E+00 1.7821495E+00
 7.6075777E+00 1.1650361E+00 1.7878644E+00
 7.6761461E+00 1.1477208E+00 1.7933920E+00
 7.7447637E+00 1.1296339E+00 1.7985386E+00
 7.8133443E+00 1.1106384E+00 1.8030806E+00
 7.8817514E+00 1.0906508E+00 1.8067804E+00
 7.9498004E+00 1.0696201E+00 1.8093962E+00
 8.0172679E+00 1.0475137E+00 1.8106902E+00
 8.0839076E+00 1.0243101E+00 1.8104319E+00
 8.1494773E+00 9.9999927E-01 1.8083998E+00
 8.2137746E+00 9.7458905E-01 1.8043791E+00
 8.2766831E+00 9.4812102E-01 1.7981562E+00
 8.3382189E+00 9.2069209E-01 1.7895082E+00
 8.3985583E+00 8.9247757E-01 1.7781898E+00
 8.4580250E+00 8.6375072E-01 1.7639218E+00
 7.4032689E+00 1.1776598E+00 1.7801693E+00
 7.4721259E+00 1.1600487E+00 1.7852156E+00
 7.5409755E+00 1.1424922E+00 1.7903129E+00
 7.6097833E+00 1.1246103E+00 1.7953325E+00
 7.6785201E+00 1.1061197E+00 1.8000954E+00
 7.7471364E+00 1.0868316E+00 1.8043872E+00
 7.8155451E+00 1.0666309E+00 1.8079732E+00
 7.8836149E+00 1.0454499E+00 1.8106104E+00
 7.9511710E+00 1.0232480E+00 1.8120563E+00
 8.0180075E+00 9.9999926E-01 1.8120735E+00
 8.0839076E+00 9.7568840E-01 1.8104318E+00
 8.1486765E+00 9.5031582E-01 1.8069080E+00
 8.2121844E+00 9.2391139E-01 1.8012815E+00
 8.2744115E+00 8.9655537E-01 1.7933292E+00
 8.3354760E+00 8.6839967E-01 1.7828160E+00
 8.3956234E+00 8.3968088E-01 1.7694874E+00
 7.4039301E+00 1.1392854E+00 1.7879401E+00
 7.4732455E+00 1.1208746E+00 1.7922219E+00
 7.5424140E+00 1.1023863E+00 1.7965461E+00
 7.6113862E+00 1.0834833E+00 1.8007470E+00
 7.6801233E+00 1.0639207E+00 1.8046183E+00
 7.7485733E+00 1.0435413E+00 1.8079290E+00
 7.8166527E+00 1.0222519E+00 1.8104356E+00
 7.8842385E+00 9.9999925E-01 1.8118923E+00
 7.9511710E+00 9.7675049E-01 1.8120562E+00
 8.0172678E+00 9.5248486E-01 1.8106901E+00
 8.0823500E+00 9.2719491E-01 1.8075627E+00
 8.1462805E+00 9.0089809E-01 1.8024475E+00
 8.2090074E+00 8.7365630E-01 1.7951192E+00
 8.2705958E+00 8.4559653E-01 1.7853497E+00
 8.3312228E+00 8.1692248E-01 1.7729019E+00
 7.4044432E+00 1.1000956E+00 1.7938821E+00
 7.4740696E+00 1.0809915E+00 1.7973089E+00
 7.5433954E+00 1.0616797E+00 1.8007575E+00
 7.6123640E+00 1.0418669E+00 1.8040297E+00
 7.6809338E+00 1.0213487E+00 1.8068969E+00
 7.7490554E+00 9.9999924E-01 1.8091152E+00
 7.8166526E+00 9.7774656E-01 1.8104356E+00
 7.8836148E+00 9.5454859E-01 1.8106104E+00
 7.9498004E+00 9.3037841E-01 1.8093962E+00
 8.0150552E+00 9.0522092E-01 1.8065548E+00
 8.0792438E+00 8.7908131E-01 1.8018530E+00
 8.1422906E+00 8.5200279E-01 1.7950624E+00
 8.2042142E+00 8.2408716E-01 1.7859570E+00
 8.2651339E+00 7.9550734E-01 1.7743116E+00
 7.4047956E+00 1.0603035E+00 1.7978996E+00
 7.4745758E+00 1.0406199E+00 1.8003953E+00
 7.5438943E+00 1.0206013E+00 1.8028806E+00
 7.6126931E+00 9.9999924E-01 1.8051298E+00
 7.6809338E+00 9.7864980E-01 1.8068969E+00
 7.7485733E+00 9.5645723E-01 1.8079290E+00
 7.8155451E+00 9.3336759E-01 1.8079732E+00
 7.8817513E+00 9.0934771E-01 1.8067803E+00
 7.9470694E+00 8.8437603E-01 1.8041057E+00
 8.0113750E+00 8.5844680E-01 1.7997095E+00
 8.0745782E+00 8.3158570E-01 1.7933578E+00
 8.1366610E+00 8.0387018E-01 1.7848242E+00
 8.1976939E+00 7.7544427E-01 1.7738889E+00
 7.4049753E+00 1.0201422E+00 1.7999255E+00
 7.4747467E+00 9.9999924E-01 1.8014300E+00
 7.5438943E+00 9.7939714E-01 1.8028806E+00
 7.6123640E+00 9.5813159E-01 1.8040297E+00
 7.6801233E+00 9.3607774E-01 1.8046184E+00
 7.7471363E+00 9.1316688E-01 1.8043873E+00
 7.8133442E+00 8.8936011E-01 1.8030806E+00
 7.8786588E+00 8.6463193E-01 1.8004472E+00
 7.9429741E+00 8.3896889E-01 1.7962403E+00
 8.0061955E+00 8.1238198E-01 1.7902199E+00
 8.0682781E+00 7.8492683E-01 1.7821554E+00
 8.1292545E+00 7.5672067E-01 1.7718289E+00
 7.4049753E+00 9.7985631E-01 1.7999256E+00
 7.4745758E+00 9.5937861E-01 1.8003954E+00
 7.5433954E+00 9.3831875E-01 1.8007576E+00
 7.6113861E+00 9.1651519E-01 1.8007471E+00
 7.6785201E+00 8.9387882E-01 1.8000954E+00
 7.7447637E+00 8.7036454E-01 1.7985386E+00
 7.8100585E+00 8.4594675E-01 1.7958176E+00
 7.8743196E+00 8.2060976E-01 1.7916789E+00
 7.9374551E+00 7.9435544E-01 1.7858750E+00
 7.9994034E+00 7.6722213E-01 1.7781701E+00
 8.0601689E+00 7.3930395E-01 1.7683437E+00
 7.4047957E+00 9.3969493E-01 1.7978996E+00
 7.4740696E+00 9.1900699E-01 1.7973090E+00
 7.5424140E+00 8.9761213E-01 1.7965462E+00
 7.6097833E+00 8.7538813E-01 1.7953326E+00
 7.6761461E+00 8.5227768E-01 1.7933921E+00
 7.7414592E+00 8.2825705E-01 1.7904562E+00
 7.8056533E+00 8.0331578E-01 1.7862628E+00
 7.8686423E+00 7.7745553E-01 1.7805573E+00
 7.9303555E+00 7.5070544E-01 1.7730968E+00
 7.9907793E+00 7.2314244E-01 1.7636573E+00
 7.4044432E+00 8.9990290E-01 1.7938821E+00
 7.4732455E+00 8.7912382E-01 1.7922220E+00
 7.5409755E+00 8.5750621E-01 1.7903130E+00
 7.6075777E+00 8.3496230E-01 1.7878645E+00
 7.6729991E+00 8.1146380E-01 1.7845935E+00
 7.7371701E+00 7.8701032E-01 1.7802270E+00
 7.8000036E+00 7.6161493E-01 1.7745020E+00
 7.8614229E+00 7.3531033E-01 1.7671692E+00
 7.9214056E+00 7.0816695E-01 1.7579995E+00
 7.4039301E+00 8.6071303E-01 1.7879402E+00
 7.4721259E+00 8.3994971E-01 1.7852158E+00
 7.5391001E+00 8.1820159E-01 1.7821497E+00
 7.6047616E+00 7.9541097E-01 1.7784390E+00
 7.6690102E+00 7.7158038E-01 1.7737934E+00
 7.7317381E+00 7.4674342E-01 1.7679387E+00
 7.7928557E+00 7.2095368E-01 1.7606186E+00
 7.8523366E+00 6.9429202E-01 1.7516012E+00
 7.4032690E+00 8.2233867E-01 1.7801694E+00
 7.4707257E+00 8.0167736E-01 1.7763958E+00
 7.5367766E+00 7.7985910E-01 1.7721638E+00
 7.6012556E+00 7.5685731E-01 1.7671566E+00
 7.6639941E+00 7.3271869E-01 1.7610798E+00
 7.7248620E+00 7.0753314E-01 1.7536679E+00
 7.7838250E+00 6.8141745E-01 1.7446880E+00
 7.4024660E+00 7.8496689E-01 1.7706891E+00
 7.4690331E+00 7.6446228E-01 1.7658828E+00
 7.5339258E+00 7.4258924E-01 1.7604654E+00
 7.5968568E+00 7.1936622E-01 1.7541061E+00
 7.6576016E+00 6.9491906E-01 1.7465202E+00
 7.7160881E+00 6.6942795E-01 1.7374747E+00
 7.4015103E+00 7.4875334E-01 1.7596350E+00
 7.4669814E+00 7.2841144E-01 1.7538007E+00
 7.5303516E+00 7.0644112E-01 1.7471496E+00
 7.5911926E+00 6.8294761E-01 1.7393493E+00
 7.6493074E+00 6.5819337E-01 1.7301579E+00
 7.4003618E+00 7.1381895E-01 1.7471519E+00
 7.4644182E+00 6.9357534E-01 1.7402622E+00
 7.5256618E+00 6.7138791E-01 1.7322730E+00
 7.5836303E+00 6.4755966E-01 1.7229040E+00
 7.3989296E+00 6.8023444E-01 1.7333798E+00
 7.4610344E+00 6.5993837E-01 1.7253484E+00
 7.5191926E+00 6.3735932E-01 1.7158485E+00
 7.3970624E+00 6.4801080E-01 1.7184429E+00
 7.4559970E+00 6.2733112E-01 1.7090367E+00
 7.3944439E+00 6.1719145E-01 1.7024824E+00
 7.2997817E+00 1.4407688E+00 1.6671139E+00
 7.2624579E+00 1.4630886E+00 1.6521581E+00
 7.2236420E+00 1.4859528E+00 1.6360422E+00
 7.1835455E+00 1.5092175E+00 1.6187877E+00
 7.1422766E+00 1.5328149E+00 1.6003770E+00
 7.1000754E+00 1.5566876E+00 1.5807617E+00
 7.0571783E+00 1.5807802E+00 1.5598663E+00
 7.0138486E+00 1.6050065E+00 1.5376101E+00
 6.9703803E+00 1.6292463E+00 1.5139093E+00
 6.9270901E+00 1.6533419E+00 1.4886845E+00
 6.8843057E+00 1.6770987E+00 1.4618673E+00
 6.8423517E+00 1.7002904E+00 1.4334102E+00
 6.8015363E+00 1.7226669E+00 1.4032956E+00
 6.7621397E+00 1.7439670E+00 1.3715440E+00
 6.7244073E+00 1.7639312E+00 1.3382189E+00
 6.6885485E+00 1.7823161E+00 1.3034277E+00
 6.6547393E+00 1.7989063E+00 1.2673184E+00
 6.6231282E+00 1.8135233E+00 1.2300742E+00
 6.5938385E+00 1.8260318E+00 1.1919059E+00
 6.5669662E+00 1.8363421E+00 1.1530502E+00
 6.5425676E+00 1.8444062E+00 1.1138020E+00
 6.5205938E+00 1.8502237E+00 1.0745160E+00
 6.5009587E+00 1.8538421E+00 1.0358709E+00
 5.8615111E+00 1.0834360E+00 1.7026016E+00
 5.8539952E+00 1.1376514E+00 1.6886997E+00
 5.8492509E+00 1.1926341E+00 1.6719085E+00
 5.8479726E+00 1.2483027E+00 1.6524613E+00
 5.8505558E+00 1.3043480E+00 1.6304254E+00
 5.8572910E+00 1.3603364E+00 1.6058558E+00
 5.8683837E+00 1.4157416E+00 1.5788271E+00
 5.8839598E+00 1.4699766E+00 1.5494546E+00
 5.9040613E+00 1.5224173E+00 1.5179066E+00
 5.9286411E+00 1.5724285E+00 1.4844125E+00
 5.9575588E+00 1.6193935E+00 1.4492652E+00
 5.9905794E+00 1.6627443E+00 1.4128168E+00
 6.0273771E+00 1.7019940E+00 1.3754694E+00
 6.0675473E+00 1.7367655E+00 1.3376596E+00
 6.1106247E+00 1.7668156E+00 1.2998401E+00
 6.1561078E+00 1.7920494E+00 1.2624572E+00
 6.2034838E+00 1.8125235E+00 1.2259286E+00
 6.2522547E+00 1.8284384E+00 1.1906185E+00
 6.3019521E+00 1.8401189E+00 1.1568156E+00
 6.3521504E+00 1.8479873E+00 1.1247009E+00
 6.4024550E+00 1.8525329E+00 1.0942887E+00
 6.4523559E+00 1.8542902E+00 1.0652989E+00
 5.9067596E+00 1.1167099E+00 1.7275847E+00
 5.9020136E+00 1.1730024E+00 1.7134151E+00
 5.8999122E+00 1.2290667E+00 1.6961497E+00
 5.9012187E+00 1.2850927E+00 1.6760682E+00
 5.9063775E+00 1.3409089E+00 1.6532886E+00
 5.9156779E+00 1.3961464E+00 1.6278964E+00
 5.9292933E+00 1.4503118E+00 1.5999912E+00
 5.9472938E+00 1.5028355E+00 1.5697127E+00
 5.9696535E+00 1.5531142E+00 1.5372566E+00
 5.9962546E+00 1.6005470E+00 1.5028831E+00
 6.0268911E+00 1.6445708E+00 1.4669176E+00
 6.0612742E+00 1.6846931E+00 1.4297434E+00
 6.0990439E+00 1.7205221E+00 1.3917887E+00
 6.1397853E+00 1.7517912E+00 1.3535067E+00
 6.1830502E+00 1.7783745E+00 1.3153531E+00
 6.2283799E+00 1.8002922E+00 1.2777588E+00
 6.2753274E+00 1.8177052E+00 1.2411006E+00
 6.3234762E+00 1.8309002E+00 1.2056645E+00
 6.3724561E+00 1.8402654E+00 1.1715977E+00
 6.4219296E+00 1.8462620E+00 1.1388432E+00
 6.4715494E+00 1.8493992E+00 1.1069183E+00
 5.9562640E+00 1.1486315E+00 1.7496096E+00
 5.9541243E+00 1.2058784E+00 1.7348768E+00
 5.9546351E+00 1.2624383E+00 1.7169565E+00
 5.9585094E+00 1.3184214E+00 1.6961041E+00
 5.9661980E+00 1.3736776E+00 1.6724618E+00
 5.9779736E+00 1.4278601E+00 1.6461415E+00
 5.9939678E+00 1.4804953E+00 1.6172700E+00
 6.0141934E+00 1.5310384E+00 1.5860163E+00
 6.0385621E+00 1.5789221E+00 1.5526096E+00
 6.0668967E+00 1.6235983E+00 1.5173455E+00
 6.0989427E+00 1.6645760E+00 1.4805839E+00
 6.1343805E+00 1.7014530E+00 1.4427374E+00
 6.1728414E+00 1.7339423E+00 1.4042534E+00
 6.2139270E+00 1.7618890E+00 1.3655901E+00
 6.2572289E+00 1.7852787E+00 1.3271875E+00
 6.3023478E+00 1.8042346E+00 1.2894334E+00
 6.3489083E+00 1.8190064E+00 1.2526209E+00
 6.3965664E+00 1.8299497E+00 1.2168996E+00
 6.4450061E+00 1.8375010E+00 1.1821979E+00
 6.4938823E+00 1.8421468E+00 1.1481253E+00
 6.0096839E+00 1.1792386E+00 1.7681208E+00
 6.0100272E+00 1.2366403E+00 1.7526134E+00
 6.0130618E+00 1.2930645E+00 1.7338771E+00
 6.0194297E+00 1.3485152E+00 1.7121356E+00
 6.0295498E+00 1.4027993E+00 1.6875401E+00
 6.0436593E+00 1.4555645E+00 1.6602255E+00
 6.0618413E+00 1.5063503E+00 1.6303480E+00
 6.0840538E+00 1.5546430E+00 1.5981114E+00
 6.1101558E+00 1.5999243E+00 1.5637823E+00
 6.1399275E+00 1.6417145E+00 1.5276932E+00
 6.1730875E+00 1.6796078E+00 1.4902357E+00
 6.2093095E+00 1.7133011E+00 1.4518440E+00
 6.2482405E+00 1.7426135E+00 1.4129727E+00
 6.2895176E+00 1.7674968E+00 1.3740662E+00
 6.3327836E+00 1.7880370E+00 1.3355236E+00
 6.3776949E+00 1.8044461E+00 1.2976557E+00
 6.4239241E+00 1.8170471E+00 1.2606324E+00
 6.4711498E+00 1.8262491E+00 1.2244283E+00
 6.5190120E+00 1.8325179E+00 1.1887631E+00
 6.0666986E+00 1.2083105E+00 1.7827490E+00
 6.0693848E+00 1.2652540E+00 1.7662990E+00
 6.0748136E+00 1.3209944E+00 1.7466160E+00