# TIME = 4.000000
VARIABLES = X, Y, Z, FX, FY, FZ
ZONE N=29232 E=58212 F=FEPOINT ET=TRIANGLE
  0.000E+00  9.502E-01  1.243E-03 3.4429590E+00 2.7795758E-02 5.5906957E-01
  0.000E+00  1.000E+00  0.000E+00 3.4415656E+00 -1.3815213E-06 5.5978263E-01
  4.318E-02  9.751E-01  3.108E-04 3.4413484E+00 1.3530358E-02 5.4488728E-01
  0.000E+00  1.050E+00  1.243E-03 3.4429576E+00 -2.7798521E-02 5.5906956E-01
  4.318E-02  1.025E+00  3.108E-04 3.4413477E+00 -1.3533443E-02 5.4488727E-01
  0.000E+00  1.100E+00  4.969E-03 3.4484157E+00 -5.5621363E-02 5.5698712E-01
  4.318E-02  1.075E+00  2.796E-03 3.4447392E+00 -4.0608839E-02 5.4351608E-01
  0.000E+00  1.149E+00  1.117E-02 3.4603735E+00 -8.3473935E-02 5.5362798E-01
  4.318E-02  1.124E+00  7.761E-03 3.4536204E+00 -6.7720284E-02 5.4085937E-01
  0.000E+00  1.198E+00  1.983E-02 3.4782401E+00 -1.1117529E-01 5.4893076E-01
  4.318E-02  1.174E+00  1.519E-02 3.4692630E+00 -9.4804533E-02 5.3695666E-01
  0.000E+00  1.247E+00  3.092E-02 3.4947610E+00 -1.3836053E-01 5.4268245E-01
  4.318E-02  1.223E+00  2.507E-02 3.4875962E+00 -1.2157122E-01 5.3165611E-01
  0.000E+00  1.295E+00  4.443E-02 3.5014750E+00 -1.6494136E-01 5.3490015E-01
  4.318E-02  1.271E+00  3.738E-02 3.4992654E+00 -1.4771810E-01 5.2478863E-01
  0.000E+00  1.342E+00  6.031E-02 3.5123099E+00 -1.9130226E-01 5.2596505E-01
  4.318E-02  1.318E+00  5.207E-02 3.5019725E+00 -1.7344137E-01 5.1660369E-01
  0.000E+00  1.388E+00  7.852E-02 3.5466674E+00 -2.1748490E-01 5.1593761E-01
  4.318E-02  1.365E+00  6.913E-02 3.5309923E+00 -1.9907474E-01 5.0741213E-01
  0.000E+00  1.434E+00  9.903E-02 3.5544507E+00 -2.4295772E-01 5.0444707E-01
  4.318E-02  1.411E+00  8.849E-02 3.5570693E+00 -2.2426890E-01 4.9695796E-01
  0.000E+00  1.478E+00  1.218E-01 3.5720638E+00 -2.6772954E-01 4.9165295E-01
  4.318E-02  1.456E+00  1.101E-01 3.5537182E+00 -2.4869692E-01 4.8509044E-01
  0.000E+00  1.521E+00  1.467E-01 3.5982115E+00 -2.9192910E-01 4.7772526E-01
  4.318E-02  1.500E+00  1.340E-01 3.5885066E+00 -2.7255063E-01 4.7208854E-01
  0.000E+00  1.563E+00  1.738E-01 3.5942205E+00 -3.1538071E-01 4.6257625E-01
  4.318E-02  1.543E+00  1.600E-01 3.5872062E+00 -2.9576827E-01 4.5793561E-01
  0.000E+00  1.604E+00  2.029E-01 3.6156881E+00 -3.3804111E-01 4.4627594E-01
  4.318E-02  1.584E+00  1.881E-01 3.6191779E+00 -3.1821615E-01 4.4261119E-01
  0.000E+00  1.643E+00  2.340E-01 3.6231262E+00 -3.5986985E-01 4.2887570E-01
  4.318E-02  1.623E+00  2.182E-01 3.6090742E+00 -3.3988652E-01 4.2620306E-01
  0.000E+00  1.680E+00  2.669E-01 3.6244676E+00 -3.8079855E-01 4.1040354E-01
  4.318E-02  1.662E+00  2.502E-01 3.6259685E+00 -3.6070819E-01 4.0873196E-01
  0.000E+00  1.716E+00  3.018E-01 3.6257018E+00 -4.0078240E-01 3.9091187E-01
  4.318E-02  1.698E+00  2.841E-01 3.6257132E+00 -3.8063304E-01 3.9024354E-01
  0.000E+00  1.750E+00  3.383E-01 3.6259564E+00 -4.1977005E-01 3.7044890E-01
  4.318E-02  1.733E+00  3.198E-01 3.6244781E+00 -3.9961203E-01 3.7078507E-01
  0.000E+00  1.782E+00  3.765E-01 3.6090613E+00 -4.3771301E-01 3.4906497E-01
  4.318E-02  1.766E+00  3.572E-01 3.6231358E+00 -4.1759846E-01 3.5040670E-01
  0.000E+00  1.812E+00  4.163E-01 3.6191643E+00 -4.5456440E-01 3.2680951E-01
  4.318E-02  1.797E+00  3.962E-01 3.6156970E+00 -4.3454123E-01 3.2915203E-01
  0.000E+00  1.840E+00  4.575E-01 3.5871918E+00 -4.7030258E-01 3.0375542E-01
  4.318E-02  1.826E+00  4.367E-01 3.5942286E+00 -4.5041305E-01 3.0708768E-01
  0.000E+00  1.866E+00  5.000E-01 3.5884913E+00 -4.8483743E-01 2.7991064E-01
  4.318E-02  1.853E+00  4.786E-01 3.5982186E+00 -4.6516339E-01 2.8425268E-01
  0.000E+00  1.890E+00  5.438E-01 3.5537021E+00 -4.9819054E-01 2.5541271E-01
  4.318E-02  1.878E+00  5.217E-01 3.5720701E+00 -4.7872475E-01 2.6068931E-01
  0.000E+00  1.912E+00  5.887E-01 3.5570526E+00 -5.1037871E-01 2.3032525E-01
  4.318E-02  1.901E+00  5.661E-01 3.5544561E+00 -4.9118245E-01 2.3656874E-01
  0.000E+00  1.931E+00  6.347E-01 3.5309749E+00 -5.2111538E-01 2.0445086E-01
  4.318E-02  1.921E+00  6.116E-01 3.5466720E+00 -5.0237092E-01 2.1176586E-01
  0.000E+00  1.948E+00  6.815E-01 3.5019542E+00 -5.3055521E-01 1.7812518E-01
  4.318E-02  1.940E+00  6.580E-01 3.5123135E+00 -5.1213497E-01 1.8627203E-01
  0.000E+00  1.963E+00  7.292E-01 3.4992461E+00 -5.3896095E-01 1.5170705E-01
  4.318E-02  1.956E+00  7.052E-01 3.5014776E+00 -5.2083500E-01 1.6060451E-01
  0.000E+00  1.975E+00  7.775E-01 3.4875760E+00 -5.4601371E-01 1.2485389E-01
  4.318E-02  1.969E+00  7.532E-01 3.4947625E+00 -5.2841241E-01 1.3472259E-01
  0.000E+00  1.985E+00  8.264E-01 3.4692420E+00 -5.5145743E-01 9.7364314E-02
  4.318E-02  1.980E+00  8.019E-01 3.4782409E+00 -5.3449639E-01 1.0825197E-01
  0.000E+00  1.992E+00  8.757E-01 3.4535988E+00 -5.5546563E-01 6.9548678E-02
  4.318E-02  1.989E+00  8.510E-01 3.4603737E+00 -5.3907021E-01 8.1278808E-02
  0.000E+00  1.997E+00  9.253E-01 3.4447170E+00 -5.5819418E-01 4.1705139E-02
  4.318E-02  1.995E+00  9.004E-01 3.4484153E+00 -5.4234112E-01 5.4158553E-02
  0.000E+00  2.000E+00  9.751E-01 3.4413249E+00 -5.5960247E-01 1.3898625E-02
  4.318E-02  1.999E+00  9.502E-01 3.4429565E+00 -5.4436886E-01 2.7067394E-02
  0.000E+00  2.000E+00  1.025E+00 3.4413249E+00 -5.5960246E-01 -1.3895982E-02
  4.318E-02  2.000E+00  1.000E+00 3.4415638E+00 -5.4506321E-01 1.3480692E-06
  0.000E+00  1.997E+00  1.075E+00 3.4447169E+00 -5.5819417E-01 -4.1702497E-02
  4.318E-02  1.999E+00  1.050E+00 3.4429565E+00 -5.4436886E-01 -2.7064698E-02
  0.000E+00  1.992E+00  1.124E+00 3.4535987E+00 -5.5546561E-01 -6.9546038E-02
  4.318E-02  1.995E+00  1.100E+00 3.4484152E+00 -5.4234110E-01 -5.4155858E-02
  0.000E+00  1.985E+00  1.174E+00 3.4692419E+00 -5.5145748E-01 -9.7361675E-02
  4.318E-02  1.989E+00  1.149E+00 3.4603736E+00 -5.3907022E-01 -8.1276115E-02
  0.000E+00  1.975E+00  1.223E+00 3.4875758E+00 -5.4601388E-01 -1.2485126E-01
  4.318E-02  1.980E+00  1.198E+00 3.4782408E+00 -5.3449652E-01 -1.0824928E-01
  0.000E+00  1.963E+00  1.271E+00 3.4992460E+00 -5.3896106E-01 -1.5170441E-01
  4.318E-02  1.969E+00  1.247E+00 3.4947624E+00 -5.2841259E-01 -1.3471990E-01
  0.000E+00  1.948E+00  1.318E+00 3.5019540E+00 -5.3055514E-01 -1.7812255E-01
  4.318E-02  1.956E+00  1.295E+00 3.5014774E+00 -5.2083502E-01 -1.6060183E-01
  0.000E+00  1.931E+00  1.365E+00 3.5309747E+00 -5.2111556E-01 -2.0444823E-01
  4.318E-02  1.940E+00  1.342E+00 3.5123133E+00 -5.1213499E-01 -1.8626935E-01
  0.000E+00  1.912E+00  1.411E+00 3.5570523E+00 -5.1037895E-01 -2.3032263E-01
  4.318E-02  1.921E+00  1.388E+00 3.5466717E+00 -5.0237122E-01 -2.1176319E-01
  0.000E+00  1.890E+00  1.456E+00 3.5537018E+00 -4.9819053E-01 -2.5541008E-01
  4.318E-02  1.901E+00  1.434E+00 3.5544559E+00 -4.9118254E-01 -2.3656607E-01
  0.000E+00  1.866E+00  1.500E+00 3.5884909E+00 -4.8483769E-01 -2.7990803E-01
  4.318E-02  1.878E+00  1.478E+00 3.5720698E+00 -4.7872485E-01 -2.6068665E-01
  0.000E+00  1.840E+00  1.543E+00 3.5871914E+00 -4.7030277E-01 -3.0375281E-01
  4.318E-02  1.853E+00  1.521E+00 3.5982183E+00 -4.6516366E-01 -2.8425002E-01
  0.000E+00  1.812E+00  1.584E+00 3.6191639E+00 -4.5456460E-01 -3.2680691E-01
  4.318E-02  1.826E+00  1.563E+00 3.5942283E+00 -4.5041317E-01 -3.0708502E-01
  0.000E+00  1.782E+00  1.623E+00 3.6090609E+00 -4.3771322E-01 -3.4906237E-01
  4.318E-02  1.797E+00  1.604E+00 3.6156967E+00 -4.3454147E-01 -3.2914938E-01
  0.000E+00  1.750E+00  1.662E+00 3.6259560E+00 -4.1977023E-01 -3.7044631E-01
  4.318E-02  1.766E+00  1.643E+00 3.6231355E+00 -4.1759864E-01 -3.5040405E-01
  0.000E+00  1.716E+00  1.698E+00 3.6257015E+00 -4.0078260E-01 -3.9090928E-01
  4.318E-02  1.733E+00  1.680E+00 3.6244778E+00 -3.9961227E-01 -3.7078242E-01
  0.000E+00  1.680E+00  1.733E+00 3.6244673E+00 -3.8079871E-01 -4.1040094E-01
  4.318E-02  1.698E+00  1.716E+00 3.6257128E+00 -3.8063325E-01 -3.9024091E-01
  0.000E+00  1.643E+00  1.766E+00 3.6231257E+00 -3.5987001E-01 -4.2887310E-01
  4.318E-02  1.662E+00  1.750E+00 3.6259681E+00 -3.6070842E-01 -4.0872935E-01
  0.000E+00  1.604E+00  1.797E+00 3.6156877E+00 -3.3804127E-01 -4.4627335E-01
  4.318E-02  1.623E+00  1.782E+00 3.6090737E+00 -3.3988675E-01 -4.2620044E-01
  0.000E+00  1.563E+00  1.826E+00 3.5942201E+00 -3.1538093E-01 -4.6257368E-01
  4.318E-02  1.584E+00  1.812E+00 3.6191774E+00 -3.1821635E-01 -4.4260858E-01
  0.000E+00  1.521E+00  1.853E+00 3.5982110E+00 -2.9192940E-01 -4.7772272E-01
  4.318E-02  1.543E+00  1.840E+00 3.5872057E+00 -2.9576840E-01 -4.5793297E-01
  0.000E+00  1.478E+00  1.878E+00 3.5720634E+00 -2.6772975E-01 -4.9165040E-01
  4.318E-02  1.500E+00  1.866E+00 3.5885061E+00 -2.7255075E-01 -4.7208591E-01
  0.000E+00  1.434E+00  1.901E+00 3.5544502E+00 -2.4295765E-01 -5.0444443E-01
  4.318E-02  1.456E+00  1.890E+00 3.5537176E+00 -2.4869714E-01 -4.8508786E-01
  0.000E+00  1.388E+00  1.921E+00 3.5466668E+00 -2.1748466E-01 -5.1593492E-01
  4.318E-02  1.411E+00  1.912E+00 3.5570688E+00 -2.2426928E-01 -4.9695543E-01
  0.000E+00  1.342E+00  1.940E+00 3.5123092E+00 -1.9130229E-01 -5.2596242E-01
  4.318E-02  1.365E+00  1.931E+00 3.5309919E+00 -1.9907507E-01 -5.0740961E-01
  0.000E+00  1.295E+00  1.956E+00 3.5014743E+00 -1.6494188E-01 -5.3489766E-01
  4.318E-02  1.318E+00  1.948E+00 3.5019722E+00 -1.7344141E-01 -5.1660109E-01
  0.000E+00  1.247E+00  1.969E+00 3.4947604E+00 -1.3836125E-01 -5.4268007E-01
  4.318E-02  1.271E+00  1.963E+00 3.4992650E+00 -1.4771787E-01 -5.2478595E-01
  0.000E+00  1.198E+00  1.980E+00 3.4782397E+00 -1.1117581E-01 -5.4892841E-01
  4.318E-02  1.223E+00  1.975E+00 3.4875956E+00 -1.2157097E-01 -5.3165338E-01
  0.000E+00  1.149E+00  1.989E+00 3.4603732E+00 -8.3474089E-02 -5.5362560E-01
  4.318E-02  1.174E+00  1.985E+00 3.4692622E+00 -9.4804462E-02 -5.3695394E-01
  0.000E+00  1.100E+00  1.995E+00 3.4484153E+00 -5.5621298E-02 -5.5698471E-01
  4.318E-02  1.124E+00  1.992E+00 3.4536197E+00 -6.7720367E-02 -5.4085668E-01
  0.000E+00  1.050E+00  1.999E+00 3.4429571E+00 -2.7798439E-02 -5.5906713E-01
  4.318E-02  1.075E+00  1.997E+00 3.4447386E+00 -4.0608960E-02 -5.4351340E-01
  0.000E+00  1.000E+00  2.000E+00 3.4415650E+00 -1.3976036E-06 -5.5978020E-01
  4.318E-02  1.025E+00  2.000E+00 3.4413472E+00 -1.3533505E-02 -5.4488460E-01
  0.000E+00  9.502E-01  1.999E+00 3.4429585E+00 2.7795644E-02 -5.5906715E-01
  4.318E-02  9.751E-01  2.000E+00 3.4413479E+00 1.3530388E-02 -5.4488461E-01
  0.000E+00  9.004E-01  1.995E+00 3.4484180E+00 5.5618504E-02 -5.5698474E-01
  4.318E-02  9.253E-01  1.997E+00 3.4447407E+00 4.0605843E-02 -5.4351343E-01
  0.000E+00  8.510E-01  1.989E+00 3.4603773E+00 8.3471296E-02 -5.5362564E-01
  4.318E-02  8.757E-01  1.992E+00 3.4536231E+00 6.7717251E-02 -5.4085671E-01
  0.000E+00  8.019E-01  1.980E+00 3.4782452E+00 1.1117302E-01 -5.4892846E-01
  4.318E-02  8.264E-01  1.985E+00 3.4692670E+00 9.4801347E-02 -5.3695399E-01
  0.000E+00  7.532E-01  1.969E+00 3.4947672E+00 1.3835846E-01 -5.4268014E-01
  4.318E-02  7.775E-01  1.975E+00 3.4876017E+00 1.2156786E-01 -5.3165344E-01
  0.000E+00  7.052E-01  1.956E+00 3.5014824E+00 1.6493909E-01 -5.3489774E-01
  4.318E-02  7.292E-01  1.963E+00 3.4992724E+00 1.4771476E-01 -5.2478602E-01
  0.000E+00  6.580E-01  1.940E+00 3.5123185E+00 1.9129951E-01 -5.2596251E-01
  4.318E-02  6.815E-01  1.948E+00 3.5019809E+00 1.7343831E-01 -5.1660117E-01
  0.000E+00  6.116E-01  1.921E+00 3.5466773E+00 2.1748187E-01 -5.1593501E-01
  4.318E-02  6.347E-01  1.931E+00 3.5310019E+00 1.9907197E-01 -5.0740970E-01
  0.000E+00  5.661E-01  1.901E+00 3.5544620E+00 2.4295488E-01 -5.0444454E-01
  4.318E-02  5.887E-01  1.912E+00 3.5570800E+00 2.2426618E-01 -4.9695554E-01
  0.000E+00  5.217E-01  1.878E+00 3.5720763E+00 2.6772698E-01 -4.9165051E-01
  4.318E-02  5.438E-01  1.890E+00 3.5537300E+00 2.4869405E-01 -4.8508797E-01
  0.000E+00  4.786E-01  1.853E+00 3.5982251E+00 2.9192663E-01 -4.7772284E-01
  4.318E-02  5.000E-01  1.866E+00 3.5885195E+00 2.7254765E-01 -4.7208604E-01
  0.000E+00  4.367E-01  1.826E+00 3.5942351E+00 3.1537817E-01 -4.6257381E-01
  4.318E-02  4.575E-01  1.840E+00 3.5872203E+00 2.9576532E-01 -4.5793311E-01
  0.000E+00  3.962E-01  1.797E+00 3.6157038E+00 3.3803851E-01 -4.4627347E-01
  4.318E-02  4.163E-01  1.812E+00 3.6191930E+00 3.1821327E-01 -4.4260872E-01
  0.000E+00  3.572E-01  1.766E+00 3.6231428E+00 3.5986725E-01 -4.2887323E-01
  4.318E-02  3.765E-01  1.782E+00 3.6090903E+00 3.3988368E-01 -4.2620059E-01
  0.000E+00  3.198E-01  1.733E+00 3.6244852E+00 3.8079596E-01 -4.1040107E-01
  4.318E-02  3.383E-01  1.750E+00 3.6259856E+00 3.6070534E-01 -4.0872949E-01
  0.000E+00  2.841E-01  1.698E+00 3.6257202E+00 4.0077984E-01 -3.9090942E-01
  4.318E-02  3.018E-01  1.716E+00 3.6257311E+00 3.8063019E-01 -3.9024106E-01
  0.000E+00  2.502E-01  1.662E+00 3.6259756E+00 4.1976749E-01 -3.7044644E-01
  4.318E-02  2.669E-01  1.680E+00 3.6244970E+00 3.9960918E-01 -3.7078257E-01
  0.000E+00  2.182E-01  1.623E+00 3.6090812E+00 4.3771046E-01 -3.4906251E-01
  4.318E-02  2.340E-01  1.643E+00 3.6231555E+00 4.1759560E-01 -3.5040420E-01
  0.000E+00  1.881E-01  1.584E+00 3.6191849E+00 4.5456186E-01 -3.2680704E-01
  4.318E-02  2.029E-01  1.604E+00 3.6157174E+00 4.3453837E-01 -3.2914952E-01
  0.000E+00  1.600E-01  1.543E+00 3.5872130E+00 4.7030004E-01 -3.0375294E-01
  4.318E-02  1.738E-01  1.563E+00 3.5942496E+00 4.5041018E-01 -3.0708516E-01
  0.000E+00  1.340E-01  1.500E+00 3.5885131E+00 4.8483488E-01 -2.7990815E-01
  4.318E-02  1.467E-01  1.521E+00 3.5982402E+00 4.6516052E-01 -2.8425016E-01
  0.000E+00  1.101E-01  1.456E+00 3.5537245E+00 4.9818798E-01 -2.5541020E-01
  4.318E-02  1.218E-01  1.478E+00 3.5720923E+00 4.7872187E-01 -2.6068677E-01
  0.000E+00  8.849E-02  1.411E+00 3.5570755E+00 5.1037613E-01 -2.3032273E-01
  4.318E-02  9.903E-02  1.434E+00 3.5544788E+00 4.9117957E-01 -2.3656619E-01
  0.000E+00  6.913E-02  1.365E+00 3.5309982E+00 5.2111279E-01 -2.0444833E-01
  4.318E-02  7.852E-02  1.388E+00 3.5466951E+00 5.0236803E-01 -2.1176330E-01
  0.000E+00  5.207E-02  1.318E+00 3.5019779E+00 5.3055261E-01 -1.7812264E-01
  4.318E-02  6.031E-02  1.342E+00 3.5123371E+00 5.1213208E-01 -1.8626945E-01
  0.000E+00  3.738E-02  1.271E+00 3.4992702E+00 5.3895833E-01 -1.5170449E-01
  4.318E-02  4.443E-02  1.295E+00 3.5015015E+00 5.2083209E-01 -1.6060192E-01
  0.000E+00  2.507E-02  1.223E+00 3.4876003E+00 5.4601108E-01 -1.2485133E-01
  4.318E-02  3.092E-02  1.247E+00 3.4947868E+00 5.2840948E-01 -1.3471998E-01
  0.000E+00  1.519E-02  1.174E+00 3.4692666E+00 5.5145478E-01 -9.7361733E-02
  4.318E-02  1.983E-02  1.198E+00 3.4782654E+00 5.3449345E-01 -1.0824935E-01
  0.000E+00  7.761E-03  1.124E+00 3.4536235E+00 5.5546297E-01 -6.9546084E-02
  4.318E-02  1.117E-02  1.149E+00 3.4603984E+00 5.3906724E-01 -8.1276171E-02
  0.000E+00  2.796E-03  1.075E+00 3.4447419E+00 5.5819150E-01 -4.1702532E-02
  4.318E-02  4.969E-03  1.100E+00 3.4484401E+00 5.4233814E-01 -5.4155902E-02
  0.000E+00  3.108E-04  1.025E+00 3.4413499E+00 5.5959977E-01 -1.3896004E-02
  4.318E-02  1.243E-03  1.050E+00 3.4429815E+00 5.4436586E-01 -2.7064728E-02
  0.000E+00  3.108E-04  9.751E-01 3.4413499E+00 5.5959974E-01 1.3898615E-02
  4.318E-02  0.000E+00  1.000E+00 3.4415888E+00 5.4506019E-01 1.3322855E-06
  0.000E+00  2.796E-03  9.253E-01 3.4447419E+00 5.5819142E-01 4.1705142E-02
  4.318E-02  1.243E-03  9.502E-01 3.4429815E+00 5.4436581E-01 2.7067392E-02
  0.000E+00  7.761E-03  8.757E-01 3.4536236E+00 5.5546286E-01 6.9548693E-02
  4.318E-02  4.969E-03  9.004E-01 3.4484402E+00 5.4233804E-01 5.4158565E-02
  0.000E+00  1.519E-02  8.264E-01 3.4692667E+00 5.5145471E-01 9.7364340E-02
  4.318E-02  1.117E-02  8.510E-01 3.4603985E+00 5.3906714E-01 8.1278833E-02
  0.000E+00  2.507E-02  7.775E-01 3.4876005E+00 5.4601109E-01 1.2485393E-01
  4.318E-02  1.983E-02  8.019E-01 3.4782655E+00 5.3449342E-01 1.0825201E-01
  0.000E+00  3.738E-02  7.292E-01 3.4992704E+00 5.3895825E-01 1.5170709E-01
  4.318E-02  3.092E-02  7.532E-01 3.4947869E+00 5.2840947E-01 1.3472264E-01
  0.000E+00  5.207E-02  6.815E-01 3.5019781E+00 5.3055232E-01 1.7812524E-01
  4.318E-02  4.443E-02  7.052E-01 3.5015017E+00 5.2083188E-01 1.6060457E-01
  0.000E+00  6.913E-02  6.347E-01 3.5309985E+00 5.2111272E-01 2.0445093E-01
  4.318E-02  6.031E-02  6.580E-01 3.5123373E+00 5.1213183E-01 1.8627210E-01
  0.000E+00  8.849E-02  5.887E-01 3.5570758E+00 5.1037610E-01 2.3032533E-01
  4.318E-02  7.852E-02  6.116E-01 3.5466954E+00 5.0236805E-01 2.1176594E-01
  0.000E+00  1.101E-01  5.438E-01 3.5537248E+00 4.9818765E-01 2.5541279E-01
  4.318E-02  9.903E-02  5.661E-01 3.5544791E+00 4.9117935E-01 2.3656883E-01
  0.000E+00  1.340E-01  5.000E-01 3.5885135E+00 4.8483480E-01 2.7991074E-01
  4.318E-02  1.218E-01  5.217E-01 3.5720925E+00 4.7872166E-01 2.6068941E-01
  0.000E+00  1.600E-01  4.575E-01 3.5872134E+00 4.7029986E-01 3.0375551E-01
  4.318E-02  1.467E-01  4.786E-01 3.5982405E+00 4.6516046E-01 2.8425279E-01
  0.000E+00  1.881E-01  4.163E-01 3.6191853E+00 4.5456168E-01 3.2680961E-01
  4.318E-02  1.738E-01  4.367E-01 3.5942499E+00 4.5040996E-01 3.0708779E-01
  0.000E+00  2.182E-01  3.765E-01 3.6090816E+00 4.3771031E-01 3.4906507E-01
  4.318E-02  2.029E-01  3.962E-01 3.6157177E+00 4.3453825E-01 3.2915215E-01
  0.000E+00  2.502E-01  3.383E-01 3.6259760E+00 4.1976732E-01 3.7044901E-01
  4.318E-02  2.340E-01  3.572E-01 3.6231558E+00 4.1759540E-01 3.5040683E-01
  0.000E+00  2.841E-01  3.018E-01 3.6257206E+00 4.0077969E-01 3.9091198E-01
  4.318E-02  2.669E-01  3.198E-01 3.6244973E+00 3.9960901E-01 3.7078519E-01
  0.000E+00  3.198E-01  2.669E-01 3.6244856E+00 3.8079581E-01 4.1040364E-01
  4.318E-02  3.018E-01  2.841E-01 3.6257316E+00 3.8062999E-01 3.9024367E-01
  0.000E+00  3.572E-01  2.340E-01 3.6231432E+00 3.5986713E-01 4.2887580E-01
  4.318E-02  3.383E-01  2.502E-01 3.6259860E+00 3.6070515E-01 4.0873209E-01
  0.000E+00  3.962E-01  2.029E-01 3.6157042E+00 3.3803837E-01 4.4627605E-01
  4.318E-02  3.765E-01  2.182E-01 3.6090908E+00 3.3988347E-01 4.2620318E-01
  0.000E+00  4.367E-01  1.738E-01 3.5942356E+00 3.1537796E-01 4.6257635E-01
  4.318E-02  4.163E-01  1.881E-01 3.6191935E+00 3.1821310E-01 4.4261132E-01
  0.000E+00  4.786E-01  1.467E-01 3.5982255E+00 2.9192635E-01 4.7772535E-01
  4.318E-02  4.575E-01  1.600E-01 3.5872208E+00 2.9576520E-01 4.5793572E-01
  0.000E+00  5.217E-01  1.218E-01 3.5720767E+00 2.6772680E-01 4.9165304E-01
  4.318E-02  5.000E-01  1.340E-01 3.5885201E+00 2.7254758E-01 4.7208866E-01
  0.000E+00  5.661E-01  9.903E-02 3.5544625E+00 2.4295497E-01 5.0444715E-01
  4.318E-02  5.438E-01  1.101E-01 3.5537305E+00 2.4869385E-01 4.8509055E-01
  0.000E+00  6.116E-01  7.852E-02 3.5466779E+00 2.1748215E-01 5.1593768E-01
  4.318E-02  5.887E-01  8.849E-02 3.5570804E+00 2.2426584E-01 4.9695806E-01
  0.000E+00  6.580E-01  6.031E-02 3.5123192E+00 1.9129951E-01 5.2596512E-01
  4.318E-02  6.347E-01  6.913E-02 3.5310022E+00 1.9907167E-01 5.0741222E-01
  0.000E+00  7.052E-01  4.443E-02 3.5014831E+00 1.6493860E-01 5.3490021E-01
  4.318E-02  6.815E-01  5.207E-02 3.5019812E+00 1.7343830E-01 5.1660377E-01
  0.000E+00  7.532E-01  3.092E-02 3.4947678E+00 1.3835777E-01 5.4268250E-01
  4.318E-02  7.292E-01  3.738E-02 3.4992728E+00 1.4771503E-01 5.2478870E-01
  0.000E+00  8.019E-01  1.983E-02 3.4782455E+00 1.1117253E-01 5.4893081E-01
  4.318E-02  7.775E-01  2.507E-02 3.4876023E+00 1.2156814E-01 5.3165616E-01
  0.000E+00  8.510E-01  1.117E-02 3.4603776E+00 8.3471174E-02 5.5362802E-01
  4.318E-02  8.264E-01  1.519E-02 3.4692677E+00 9.4801451E-02 5.3695670E-01
  0.000E+00  9.004E-01  4.969E-03 3.4484185E+00 5.5618601E-02 5.5698714E-01
  4.318E-02  8.757E-01  7.761E-03 3.4536238E+00 6.7717200E-02 5.4085940E-01
  4.318E-02  9.253E-01  2.796E-03 3.4447412E+00 4.0605755E-02 5.4351610E-01
  1.000E+01  1.050E+00  1.243E-03 3.4429576E+00 -2.7798521E-02 5.5906956E-01
  1.000E+01  1.000E+00  5.551E-16 3.4415656E+00 -1.3815213E-06 5.5978263E-01
  9.957E+00  1.025E+00  3.108E-04 3.4413426E+00 -1.4264975E-02 5.7436121E-01
  1.000E+01  9.502E-01  1.243E-03 3.4429590E+00 2.7795758E-02 5.5906957E-01
  9.957E+00  9.751E-01  3.108E-04 3.4413433E+00 1.4262536E-02 5.7436121E-01
  1.000E+01  9.004E-01  4.969E-03 3.4484185E+00 5.5618601E-02 5.5698714E-01
  9.957E+00  9.253E-01  2.796E-03 3.4447361E+00 4.2802309E-02 5.7291580E-01
  1.000E+01  8.510E-01  1.117E-02 3.4603776E+00 8.3471174E-02 5.5362802E-01
  9.957E+00  8.757E-01  7.761E-03 3.4536186E+00 7.1380196E-02 5.7011533E-01
  1.000E+01  8.019E-01  1.983E-02 3.4782455E+00 1.1117253E-01 5.4893081E-01
  9.957E+00  8.264E-01  1.519E-02 3.4692625E+00 9.9929601E-02 5.6600153E-01
  1.000E+01  7.532E-01  3.092E-02 3.4947678E+00 1.3835777E-01 5.4268250E-01
  9.957E+00  7.775E-01  2.507E-02 3.4875971E+00 1.2814446E-01 5.6041439E-01
  1.000E+01  7.052E-01  4.443E-02 3.5014831E+00 1.6493860E-01 5.3490021E-01
  9.957E+00  7.292E-01  3.738E-02 3.4992677E+00 1.5570602E-01 5.5317560E-01
  1.000E+01  6.580E-01  6.031E-02 3.5123192E+00 1.9129951E-01 5.2596512E-01
  9.957E+00  6.815E-01  5.207E-02 3.5019762E+00 1.8282079E-01 5.4454788E-01
  1.000E+01  6.116E-01  7.852E-02 3.5466779E+00 2.1748215E-01 5.1593768E-01
  9.957E+00  6.347E-01  6.913E-02 3.5309971E+00 2.0984044E-01 5.3485887E-01
  1.000E+01  5.661E-01  9.903E-02 3.5544625E+00 2.4295497E-01 5.0444715E-01
  9.957E+00  5.887E-01  8.849E-02 3.5570752E+00 2.3639707E-01 5.2383904E-01
  1.000E+01  5.217E-01  1.218E-01 3.5720767E+00 2.6772680E-01 4.9165304E-01
  9.957E+00  5.438E-01  1.101E-01 3.5537253E+00 2.6214629E-01 5.1132957E-01
  1.000E+01  4.786E-01  1.467E-01 3.5982255E+00 2.9192635E-01 4.7772535E-01
  9.957E+00  5.000E-01  1.340E-01 3.5885149E+00 2.8729055E-01 4.9762459E-01
  1.000E+01  4.367E-01  1.738E-01 3.5942356E+00 3.1537796E-01 4.6257635E-01
  9.957E+00  4.575E-01  1.600E-01 3.5872156E+00 3.1176420E-01 4.8270632E-01
  1.000E+01  3.962E-01  2.029E-01 3.6157042E+00 3.3803837E-01 4.4627605E-01
  9.957E+00  4.163E-01  1.881E-01 3.6191883E+00 3.3542615E-01 4.6655290E-01
  1.000E+01  3.572E-01  2.340E-01 3.6231432E+00 3.5986713E-01 4.2887580E-01
  9.957E+00  3.765E-01  2.182E-01 3.6090856E+00 3.5826853E-01 4.4925711E-01
  1.000E+01  3.198E-01  2.669E-01 3.6244856E+00 3.8079581E-01 4.1040364E-01
  9.957E+00  3.383E-01  2.502E-01 3.6259808E+00 3.8021649E-01 4.3084097E-01
  1.000E+01  2.841E-01  3.018E-01 3.6257206E+00 4.0077969E-01 3.9091198E-01
  9.957E+00  3.018E-01  2.841E-01 3.6257264E+00 4.0121912E-01 4.1135256E-01
  1.000E+01  2.502E-01  3.383E-01 3.6259760E+00 4.1976732E-01 3.7044901E-01
  9.957E+00  2.669E-01  3.198E-01 3.6244922E+00 4.2122483E-01 3.9084159E-01
  1.000E+01  2.182E-01  3.765E-01 3.6090816E+00 4.3771031E-01 3.4906507E-01
  9.957E+00  2.340E-01  3.572E-01 3.6231506E+00 4.4018420E-01 3.6936093E-01
  1.000E+01  1.881E-01  4.163E-01 3.6191853E+00 4.5456168E-01 3.2680961E-01
  9.957E+00  2.029E-01  3.962E-01 3.6157125E+00 4.5804346E-01 3.4695652E-01
  1.000E+01  1.600E-01  4.575E-01 3.5872134E+00 4.7029986E-01 3.0375551E-01
  9.957E+00  1.738E-01  4.367E-01 3.5942447E+00 4.7477358E-01 3.2369839E-01
  1.000E+01  1.340E-01  5.000E-01 3.5885135E+00 4.8483480E-01 2.7991074E-01
  9.957E+00  1.467E-01  4.786E-01 3.5982353E+00 4.9032207E-01 2.9962824E-01
  1.000E+01  1.101E-01  5.438E-01 3.5537248E+00 4.9818765E-01 2.5541279E-01
  9.957E+00  1.218E-01  5.217E-01 3.5720874E+00 5.0461707E-01 2.7479048E-01
  1.000E+01  8.849E-02  5.887E-01 3.5570758E+00 5.1037610E-01 2.3032533E-01
  9.957E+00  9.903E-02  5.661E-01 3.5544740E+00 5.1774884E-01 2.4936533E-01
  1.000E+01  6.913E-02  6.347E-01 3.5309985E+00 5.2111272E-01 2.0445093E-01
  9.957E+00  7.852E-02  6.116E-01 3.5466902E+00 5.2954261E-01 2.2322051E-01
  1.000E+01  5.207E-02  6.815E-01 3.5019781E+00 5.3055232E-01 1.7812524E-01
  9.957E+00  6.031E-02  6.580E-01 3.5123321E+00 5.3983428E-01 1.9634730E-01
  1.000E+01  3.738E-02  7.292E-01 3.4992704E+00 5.3895825E-01 1.5170709E-01
  9.957E+00  4.443E-02  7.052E-01 3.5014965E+00 5.4900488E-01 1.6929134E-01
  1.000E+01  2.507E-02  7.775E-01 3.4876005E+00 5.4601109E-01 1.2485393E-01
  9.957E+00  3.092E-02  7.532E-01 3.4947817E+00 5.5699244E-01 1.4200965E-01
  1.000E+01  1.519E-02  8.264E-01 3.4692667E+00 5.5145471E-01 9.7364340E-02
  9.957E+00  1.983E-02  8.019E-01 3.4782603E+00 5.6340560E-01 1.1410751E-01
  1.000E+01  7.761E-03  8.757E-01 3.4536236E+00 5.5546286E-01 6.9548693E-02
  9.957E+00  1.117E-02  8.510E-01 3.4603933E+00 5.6822682E-01 8.5675519E-02
  1.000E+01  2.796E-03  9.253E-01 3.4447419E+00 5.5819142E-01 4.1705142E-02
  9.957E+00  4.969E-03  9.004E-01 3.4484351E+00 5.7167466E-01 5.7088291E-02
  1.000E+01  3.108E-04  9.751E-01 3.4413499E+00 5.5959974E-01 1.3898615E-02
  9.957E+00  1.243E-03  9.502E-01 3.4429764E+00 5.7381208E-01 2.8531589E-02
  1.000E+01  3.108E-04  1.025E+00 3.4413499E+00 5.5959977E-01 -1.3896004E-02
  9.957E+00  0.000E+00  1.000E+00 3.4415836E+00 5.7454399E-01 1.2742320E-06
  1.000E+01  2.796E-03  1.075E+00 3.4447419E+00 5.5819150E-01 -4.1702532E-02
  9.957E+00  1.243E-03  1.050E+00 3.4429763E+00 5.7381213E-01 -2.8529041E-02
  1.000E+01  7.761E-03  1.124E+00 3.4536235E+00 5.5546297E-01 -6.9546084E-02
  9.957E+00  4.969E-03  1.100E+00 3.4484350E+00 5.7167476E-01 -5.7085743E-02
  1.000E+01  1.519E-02  1.174E+00 3.4692666E+00 5.5145478E-01 -9.7361733E-02
  9.957E+00  1.117E-02  1.149E+00 3.4603932E+00 5.6822692E-01 -8.5672973E-02
  1.000E+01  2.507E-02  1.223E+00 3.4876003E+00 5.4601108E-01 -1.2485133E-01
  9.957E+00  1.983E-02  1.198E+00 3.4782602E+00 5.6340563E-01 -1.1410497E-01
  1.000E+01  3.738E-02  1.271E+00 3.4992702E+00 5.3895833E-01 -1.5170449E-01
  9.957E+00  3.092E-02  1.247E+00 3.4947816E+00 5.5699244E-01 -1.4200711E-01
  1.000E+01  5.207E-02  1.318E+00 3.5019779E+00 5.3055261E-01 -1.7812264E-01
  9.957E+00  4.443E-02  1.295E+00 3.5014963E+00 5.4900510E-01 -1.6928880E-01
  1.000E+01  6.913E-02  1.365E+00 3.5309982E+00 5.2111279E-01 -2.0444833E-01
  9.957E+00  6.031E-02  1.342E+00 3.5123319E+00 5.3983453E-01 -1.9634476E-01
  1.000E+01  8.849E-02  1.411E+00 3.5570755E+00 5.1037613E-01 -2.3032273E-01
  9.957E+00  7.852E-02  1.388E+00 3.5466900E+00 5.2954258E-01 -2.2321797E-01
  1.000E+01  1.101E-01  1.456E+00 3.5537245E+00 4.9818798E-01 -2.5541020E-01
  9.957E+00  9.903E-02  1.434E+00 3.5544737E+00 5.1774906E-01 -2.4936280E-01
  1.000E+01  1.340E-01  1.500E+00 3.5885131E+00 4.8483488E-01 -2.7990815E-01
  9.957E+00  1.218E-01  1.478E+00 3.5720871E+00 5.0461728E-01 -2.7478795E-01
  1.000E+01  1.600E-01  1.543E+00 3.5872130E+00 4.7030004E-01 -3.0375294E-01
  9.957E+00  1.467E-01  1.521E+00 3.5982350E+00 4.9032212E-01 -2.9962572E-01
  1.000E+01  1.881E-01  1.584E+00 3.6191849E+00 4.5456186E-01 -3.2680704E-01
  9.957E+00  1.738E-01  1.563E+00 3.5942444E+00 4.7477380E-01 -3.2369588E-01
  1.000E+01  2.182E-01  1.623E+00 3.6090812E+00 4.3771046E-01 -3.4906251E-01
  9.957E+00  2.029E-01  1.604E+00 3.6157122E+00 4.5804357E-01 -3.4695400E-01
  1.000E+01  2.502E-01  1.662E+00 3.6259756E+00 4.1976749E-01 -3.7044644E-01
  9.957E+00  2.340E-01  1.643E+00 3.6231503E+00 4.4018439E-01 -3.6935842E-01
  1.000E+01  2.841E-01  1.698E+00 3.6257202E+00 4.0077984E-01 -3.9090942E-01
  9.957E+00  2.669E-01  1.680E+00 3.6244918E+00 4.2122499E-01 -3.9083909E-01
  1.000E+01  3.198E-01  1.733E+00 3.6244852E+00 3.8079596E-01 -4.1040107E-01
  9.957E+00  3.018E-01  1.716E+00 3.6257260E+00 4.0121931E-01 -4.1135007E-01
  1.000E+01  3.572E-01  1.766E+00 3.6231428E+00 3.5986725E-01 -4.2887323E-01
  9.957E+00  3.383E-01  1.750E+00 3.6259804E+00 3.8021667E-01 -4.3083849E-01
  1.000E+01  3.962E-01  1.797E+00 3.6157038E+00 3.3803851E-01 -4.4627347E-01
  9.957E+00  3.765E-01  1.782E+00 3.6090851E+00 3.5826873E-01 -4.4925463E-01
  1.000E+01  4.367E-01  1.826E+00 3.5942351E+00 3.1537817E-01 -4.6257381E-01
  9.957E+00  4.163E-01  1.812E+00 3.6191878E+00 3.3542631E-01 -4.6655042E-01
  1.000E+01  4.786E-01  1.853E+00 3.5982251E+00 2.9192663E-01 -4.7772284E-01
  9.957E+00  4.575E-01  1.840E+00 3.5872151E+00 3.1176430E-01 -4.8270382E-01
  1.000E+01  5.217E-01  1.878E+00 3.5720763E+00 2.6772698E-01 -4.9165051E-01
  9.957E+00  5.000E-01  1.866E+00 3.5885144E+00 2.8729062E-01 -4.9762208E-01
  1.000E+01  5.661E-01  1.901E+00 3.5544620E+00 2.4295488E-01 -5.0444454E-01
  9.957E+00  5.438E-01  1.890E+00 3.5537248E+00 2.6214650E-01 -5.1132710E-01
  1.000E+01  6.116E-01  1.921E+00 3.5466773E+00 2.1748187E-01 -5.1593501E-01
  9.957E+00  5.887E-01  1.912E+00 3.5570747E+00 2.3639743E-01 -5.2383662E-01
  1.000E+01  6.580E-01  1.940E+00 3.5123185E+00 1.9129951E-01 -5.2596251E-01
  9.957E+00  6.347E-01  1.931E+00 3.5309967E+00 2.0984075E-01 -5.3485646E-01
  1.000E+01  7.052E-01  1.956E+00 3.5014824E+00 1.6493909E-01 -5.3489774E-01
  9.957E+00  6.815E-01  1.948E+00 3.5019757E+00 1.8282078E-01 -5.4454540E-01
  1.000E+01  7.532E-01  1.969E+00 3.4947672E+00 1.3835846E-01 -5.4268014E-01
  9.957E+00  7.292E-01  1.963E+00 3.4992672E+00 1.5570572E-01 -5.5317304E-01
  1.000E+01  8.019E-01  1.980E+00 3.4782452E+00 1.1117302E-01 -5.4892846E-01
  9.957E+00  7.775E-01  1.975E+00 3.4875965E+00 1.2814414E-01 -5.6041179E-01
  1.000E+01  8.510E-01  1.989E+00 3.4603773E+00 8.3471296E-02 -5.5362564E-01
  9.957E+00  8.264E-01  1.985E+00 3.4692619E+00 9.9929483E-02 -5.6599893E-01
  1.000E+01  9.004E-01  1.995E+00 3.4484180E+00 5.5618504E-02 -5.5698474E-01
  9.957E+00  8.757E-01  1.992E+00 3.4536180E+00 7.1380261E-02 -5.7011275E-01
  1.000E+01  9.502E-01  1.999E+00 3.4429585E+00 2.7795644E-02 -5.5906715E-01
  9.957E+00  9.253E-01  1.997E+00 3.4447355E+00 4.2802421E-02 -5.7291324E-01
  1.000E+01  1.000E+00  2.000E+00 3.4415650E+00 -1.3976036E-06 -5.5978020E-01
  9.957E+00  9.751E-01  2.000E+00 3.4413427E+00 1.4262577E-02 -5.7435865E-01
  1.000E+01  1.050E+00  1.999E+00 3.4429571E+00 -2.7798439E-02 -5.5906713E-01
  9.957E+00  1.025E+00  2.000E+00 3.4413421E+00 -1.4265048E-02 -5.7435865E-01
  1.000E+01  1.100E+00  1.995E+00 3.4484153E+00 -5.5621298E-02 -5.5698471E-01
  9.957E+00  1.075E+00  1.997E+00 3.4447334E+00 -4.2804891E-02 -5.7291322E-01
  1.000E+01  1.149E+00  1.989E+00 3.4603732E+00 -8.3474089E-02 -5.5362560E-01
  9.957E+00  1.124E+00  1.992E+00 3.4536146E+00 -7.1382731E-02 -5.7011272E-01
  1.000E+01  1.198E+00  1.980E+00 3.4782397E+00 -1.1117581E-01 -5.4892841E-01
  9.957E+00  1.174E+00  1.985E+00 3.4692571E+00 -9.9931952E-02 -5.6599889E-01