# TIME = 13.000000
VARIABLES = X, Y, Z, FX, FY, FZ
ZONE N=29232 E=58212 F=FEPOINT ET=TRIANGLE
  0.000E+00  9.502E-01  1.243E-03 3.4457704E+00 6.2046742E-02 1.2479318E+00
  0.000E+00  1.000E+00  0.000E+00 3.4443775E+00 1.2259338E-06 1.2495236E+00
  4.318E-02  9.751E-01  3.108E-04 3.4425752E+00 3.0637984E-02 1.2336872E+00
  0.000E+00  1.050E+00  1.243E-03 3.4457693E+00 -6.2044293E-02 1.2479320E+00
  4.318E-02  1.025E+00  3.108E-04 3.4425746E+00 -3.0635687E-02 1.2336872E+00
  0.000E+00  1.100E+00  4.969E-03 3.4512281E+00 -1.2414721E-01 1.2432844E+00
  4.318E-02  1.075E+00  2.796E-03 3.4459664E+00 -9.1935653E-02 1.2305832E+00
  0.000E+00  1.149E+00  1.117E-02 3.4631907E+00 -1.8631765E-01 1.2357881E+00
  4.318E-02  1.124E+00  7.761E-03 3.4548496E+00 -1.5331776E-01 1.2245695E+00
  0.000E+00  1.198E+00  1.983E-02 3.4810662E+00 -2.4815312E-01 1.2253037E+00
  4.318E-02  1.174E+00  1.519E-02 3.4704972E+00 -2.1463987E-01 1.2157345E+00
  0.000E+00  1.247E+00  3.092E-02 3.4975929E+00 -3.0883837E-01 1.2113521E+00
  4.318E-02  1.223E+00  2.507E-02 3.4888365E+00 -2.7524493E-01 1.2037315E+00
  0.000E+00  1.295E+00  4.443E-02 3.5043009E+00 -3.6817305E-01 1.1939753E+00
  4.318E-02  1.271E+00  3.738E-02 3.5005076E+00 -3.3444686E-01 1.1881774E+00
  0.000E+00  1.342E+00  6.031E-02 3.5151346E+00 -4.2701335E-01 1.1740385E+00
  4.318E-02  1.318E+00  5.207E-02 3.5032114E+00 -3.9268786E-01 1.1696462E+00
  0.000E+00  1.388E+00  7.852E-02 3.5495163E+00 -4.8545571E-01 1.1516555E+00
  4.318E-02  1.365E+00  6.913E-02 3.5322452E+00 -4.5072398E-01 1.1488443E+00
  0.000E+00  1.434E+00  9.903E-02 3.5572926E+00 -5.4231618E-01 1.1259943E+00
  4.318E-02  1.411E+00  8.849E-02 3.5583311E+00 -5.0776639E-01 1.1251658E+00
  0.000E+00  1.478E+00  1.218E-01 3.5749136E+00 -5.9761361E-01 1.0974513E+00
  4.318E-02  1.456E+00  1.101E-01 3.5549722E+00 -5.6307471E-01 1.0982943E+00
  0.000E+00  1.521E+00  1.467E-01 3.6010771E+00 -6.5162854E-01 1.0663514E+00
  4.318E-02  1.500E+00  1.340E-01 3.5897787E+00 -6.1708062E-01 1.0688621E+00
  0.000E+00  1.563E+00  1.738E-01 3.5970717E+00 -7.0397611E-01 1.0325393E+00
  4.318E-02  1.543E+00  1.600E-01 3.5884715E+00 -6.6964902E-01 1.0368092E+00
  0.000E+00  1.604E+00  2.029E-01 3.6185547E+00 -7.5455568E-01 9.9614999E-01
  4.318E-02  1.584E+00  1.881E-01 3.6204618E+00 -7.2047636E-01 1.0021243E+00
  0.000E+00  1.643E+00  2.340E-01 3.6259963E+00 -8.0328779E-01 9.5731825E-01
  4.318E-02  1.623E+00  2.182E-01 3.6103470E+00 -7.6953554E-01 9.6496175E-01
  0.000E+00  1.680E+00  2.669E-01 3.6273347E+00 -8.4999444E-01 9.1607326E-01
  4.318E-02  1.662E+00  2.502E-01 3.6272518E+00 -8.1667979E-01 9.2541256E-01
  0.000E+00  1.716E+00  3.018E-01 3.6285714E+00 -8.9460725E-01 8.7257505E-01
  4.318E-02  1.698E+00  2.841E-01 3.6269963E+00 -8.6179619E-01 8.8355137E-01
  0.000E+00  1.750E+00  3.383E-01 3.6288289E+00 -9.3699194E-01 8.2689310E-01
  4.318E-02  1.733E+00  3.198E-01 3.6257596E+00 -9.0475827E-01 8.3949024E-01
  0.000E+00  1.782E+00  3.765E-01 3.6119192E+00 -9.7703384E-01 7.7915860E-01
  4.318E-02  1.766E+00  3.572E-01 3.6244207E+00 -9.4549138E-01 7.9335884E-01
  0.000E+00  1.812E+00  4.163E-01 3.6220435E+00 -1.0146639E+00 7.2948699E-01
  4.318E-02  1.797E+00  3.962E-01 3.6169788E+00 -9.8384460E-01 7.4522998E-01
  0.000E+00  1.840E+00  4.575E-01 3.5900440E+00 -1.0497794E+00 6.7802307E-01
  4.318E-02  1.826E+00  4.367E-01 3.5955016E+00 -1.0197836E+00 6.9527515E-01
  0.000E+00  1.866E+00  5.000E-01 3.5913591E+00 -1.0822343E+00 6.2479685E-01
  4.318E-02  1.853E+00  4.786E-01 3.5994983E+00 -1.0531773E+00 6.4357404E-01
  0.000E+00  1.890E+00  5.438E-01 3.5565435E+00 -1.1120330E+00 5.7011567E-01
  4.318E-02  1.878E+00  5.217E-01 3.5733407E+00 -1.0838907E+00 5.9022602E-01
  0.000E+00  1.912E+00  5.887E-01 3.5599132E+00 -1.1392411E+00 5.1411588E-01
  4.318E-02  1.901E+00  5.661E-01 3.5557196E+00 -1.1120837E+00 5.3561240E-01
  0.000E+00  1.931E+00  6.347E-01 3.5338231E+00 -1.1632173E+00 4.5636026E-01
  4.318E-02  1.921E+00  6.116E-01 3.5479388E+00 -1.1374254E+00 4.7945503E-01
  0.000E+00  1.948E+00  6.815E-01 3.5047838E+00 -1.1842770E+00 3.9759846E-01
  4.318E-02  1.940E+00  6.580E-01 3.5135655E+00 -1.1595322E+00 4.2173517E-01
  0.000E+00  1.963E+00  7.292E-01 3.5020873E+00 -1.2030391E+00 3.3862891E-01
  4.318E-02  1.956E+00  7.052E-01 3.5027278E+00 -1.1792233E+00 3.6362217E-01
  0.000E+00  1.975E+00  7.775E-01 3.4904178E+00 -1.2187883E+00 2.7868611E-01
  4.318E-02  1.969E+00  7.532E-01 3.4960147E+00 -1.1963836E+00 3.0502135E-01
  0.000E+00  1.985E+00  8.264E-01 3.4720758E+00 -1.2309417E+00 2.1732291E-01
  4.318E-02  1.980E+00  8.019E-01 3.4794888E+00 -1.2101620E+00 2.4508675E-01
  0.000E+00  1.992E+00  8.757E-01 3.4564255E+00 -1.2398869E+00 1.5523427E-01
  4.318E-02  1.989E+00  8.510E-01 3.4616160E+00 -1.2205172E+00 1.8401578E-01
  0.000E+00  1.997E+00  9.253E-01 3.4475414E+00 -1.2459755E+00 9.3085200E-02
  4.318E-02  1.995E+00  9.004E-01 3.4496547E+00 -1.2279214E+00 1.2261368E-01
  0.000E+00  2.000E+00  9.751E-01 3.4441497E+00 -1.2491183E+00 3.1019341E-02
  4.318E-02  1.999E+00  9.502E-01 3.4441956E+00 -1.2325118E+00 6.1278283E-02
  0.000E+00  2.000E+00  1.025E+00 3.4441498E+00 -1.2491182E+00 -3.1019923E-02
  4.318E-02  2.000E+00  1.000E+00 3.4428031E+00 -1.2340837E+00 -2.7619886E-07
  0.000E+00  1.997E+00  1.075E+00 3.4475418E+00 -1.2459754E+00 -9.3085779E-02
  4.318E-02  1.999E+00  1.050E+00 3.4441958E+00 -1.2325117E+00 -6.1278834E-02
  0.000E+00  1.992E+00  1.124E+00 3.4564261E+00 -1.2398867E+00 -1.5523484E-01
  4.318E-02  1.995E+00  1.100E+00 3.4496552E+00 -1.2279212E+00 -1.2261423E-01
  0.000E+00  1.985E+00  1.174E+00 3.4720766E+00 -1.2309416E+00 -2.1732348E-01
  4.318E-02  1.989E+00  1.149E+00 3.4616167E+00 -1.2205170E+00 -1.8401632E-01
  0.000E+00  1.975E+00  1.223E+00 3.4904188E+00 -1.2187884E+00 -2.7868667E-01
  4.318E-02  1.980E+00  1.198E+00 3.4794897E+00 -1.2101620E+00 -2.4508729E-01
  0.000E+00  1.963E+00  1.271E+00 3.5020885E+00 -1.2030390E+00 -3.3862945E-01
  4.318E-02  1.969E+00  1.247E+00 3.4960158E+00 -1.1963837E+00 -3.0502187E-01
  0.000E+00  1.948E+00  1.318E+00 3.5047852E+00 -1.1842764E+00 -3.9759898E-01
  4.318E-02  1.956E+00  1.295E+00 3.5027291E+00 -1.1792229E+00 -3.6362269E-01
  0.000E+00  1.931E+00  1.365E+00 3.5338247E+00 -1.1632172E+00 -4.5636077E-01
  4.318E-02  1.940E+00  1.342E+00 3.5135670E+00 -1.1595318E+00 -4.2173567E-01
  0.000E+00  1.912E+00  1.411E+00 3.5599150E+00 -1.1392412E+00 -5.1411638E-01
  4.318E-02  1.921E+00  1.388E+00 3.5479405E+00 -1.1374256E+00 -4.7945551E-01
  0.000E+00  1.890E+00  1.456E+00 3.5565455E+00 -1.1120324E+00 -5.7011613E-01
  4.318E-02  1.901E+00  1.434E+00 3.5557215E+00 -1.1120834E+00 -5.3561287E-01
  0.000E+00  1.866E+00  1.500E+00 3.5913614E+00 -1.0822342E+00 -6.2479730E-01
  4.318E-02  1.878E+00  1.478E+00 3.5733428E+00 -1.0838904E+00 -5.9022647E-01
  0.000E+00  1.840E+00  1.543E+00 3.5900464E+00 -1.0497791E+00 -6.7802347E-01
  4.318E-02  1.853E+00  1.521E+00 3.5995006E+00 -1.0531774E+00 -6.4357448E-01
  0.000E+00  1.812E+00  1.584E+00 3.6220461E+00 -1.0146636E+00 -7.2948737E-01
  4.318E-02  1.826E+00  1.563E+00 3.5955041E+00 -1.0197832E+00 -6.9527556E-01
  0.000E+00  1.782E+00  1.623E+00 3.6119220E+00 -9.7703360E-01 -7.7915894E-01
  4.318E-02  1.797E+00  1.604E+00 3.6169814E+00 -9.8384452E-01 -7.4523039E-01
  0.000E+00  1.750E+00  1.662E+00 3.6288318E+00 -9.3699164E-01 -8.2689342E-01
  4.318E-02  1.766E+00  1.643E+00 3.6244235E+00 -9.4549114E-01 -7.9335921E-01
  0.000E+00  1.716E+00  1.698E+00 3.6285745E+00 -8.9460701E-01 -8.7257535E-01
  4.318E-02  1.733E+00  1.680E+00 3.6257625E+00 -9.0475811E-01 -8.3949060E-01
  0.000E+00  1.680E+00  1.733E+00 3.6273379E+00 -8.4999416E-01 -9.1607354E-01
  4.318E-02  1.698E+00  1.716E+00 3.6269994E+00 -8.6179596E-01 -8.8355170E-01
  0.000E+00  1.643E+00  1.766E+00 3.6259997E+00 -8.0328753E-01 -9.5731850E-01
  4.318E-02  1.662E+00  1.750E+00 3.6272551E+00 -8.1667958E-01 -9.2541286E-01
  0.000E+00  1.604E+00  1.797E+00 3.6185582E+00 -7.5455543E-01 -9.9615022E-01
  4.318E-02  1.623E+00  1.782E+00 3.6103503E+00 -7.6953530E-01 -9.6496201E-01
  0.000E+00  1.563E+00  1.826E+00 3.5970753E+00 -7.0397586E-01 -1.0325395E+00
  4.318E-02  1.584E+00  1.812E+00 3.6204653E+00 -7.2047615E-01 -1.0021245E+00
  0.000E+00  1.521E+00  1.853E+00 3.6010807E+00 -6.5162829E-01 -1.0663516E+00
  4.318E-02  1.543E+00  1.840E+00 3.5884751E+00 -6.6964879E-01 -1.0368094E+00
  0.000E+00  1.478E+00  1.878E+00 3.5749173E+00 -5.9761329E-01 -1.0974514E+00
  4.318E-02  1.500E+00  1.866E+00 3.5897824E+00 -6.1708046E-01 -1.0688623E+00
  0.000E+00  1.434E+00  1.901E+00 3.5572964E+00 -5.4231575E-01 -1.1259944E+00
  4.318E-02  1.456E+00  1.890E+00 3.5549760E+00 -5.6307460E-01 -1.0982945E+00
  0.000E+00  1.388E+00  1.921E+00 3.5495204E+00 -4.8545530E-01 -1.1516555E+00
  4.318E-02  1.411E+00  1.912E+00 3.5583349E+00 -5.0776638E-01 -1.1251661E+00
  0.000E+00  1.342E+00  1.940E+00 3.5151388E+00 -4.2701323E-01 -1.1740386E+00
  4.318E-02  1.365E+00  1.931E+00 3.5322490E+00 -4.5072389E-01 -1.1488444E+00
  0.000E+00  1.295E+00  1.956E+00 3.5043050E+00 -3.6817350E-01 -1.1939754E+00
  4.318E-02  1.318E+00  1.948E+00 3.5032153E+00 -3.9268748E-01 -1.1696463E+00
  0.000E+00  1.247E+00  1.969E+00 3.4975968E+00 -3.0883921E-01 -1.2113524E+00
  4.318E-02  1.271E+00  1.963E+00 3.5005117E+00 -3.3444615E-01 -1.1881774E+00
  0.000E+00  1.198E+00  1.980E+00 3.4810701E+00 -2.4815388E-01 -1.2253041E+00
  4.318E-02  1.223E+00  1.975E+00 3.4888408E+00 -2.7524416E-01 -1.2037314E+00
  0.000E+00  1.149E+00  1.989E+00 3.4631947E+00 -1.8631798E-01 -1.2357886E+00
  4.318E-02  1.174E+00  1.985E+00 3.4705014E+00 -2.1463935E-01 -1.2157343E+00
  0.000E+00  1.100E+00  1.995E+00 3.4512323E+00 -1.2414715E-01 -1.2432848E+00
  4.318E-02  1.124E+00  1.992E+00 3.4548537E+00 -1.5331757E-01 -1.2245694E+00
  0.000E+00  1.050E+00  1.999E+00 3.4457737E+00 -6.2044138E-02 -1.2479323E+00
  4.318E-02  1.075E+00  1.997E+00 3.4459704E+00 -9.1935654E-02 -1.2305831E+00
  0.000E+00  1.000E+00  2.000E+00 3.4443819E+00 1.2602029E-06 -1.2495239E+00
  4.318E-02  1.025E+00  2.000E+00 3.4425786E+00 -3.0635691E-02 -1.2336871E+00
  0.000E+00  9.502E-01  1.999E+00 3.4457748E+00 6.2046647E-02 -1.2479322E+00
  4.318E-02  9.751E-01  2.000E+00 3.4425792E+00 3.0638053E-02 -1.2336870E+00
  0.000E+00  9.004E-01  1.995E+00 3.4512346E+00 1.2414965E-01 -1.2432845E+00
  4.318E-02  9.253E-01  1.997E+00 3.4459720E+00 9.1938003E-02 -1.2305829E+00
  0.000E+00  8.510E-01  1.989E+00 3.4631981E+00 1.8632044E-01 -1.2357882E+00
  4.318E-02  8.757E-01  1.992E+00 3.4548565E+00 1.5331990E-01 -1.2245691E+00
  0.000E+00  8.019E-01  1.980E+00 3.4810746E+00 2.4815630E-01 -1.2253036E+00
  4.318E-02  8.264E-01  1.985E+00 3.4705053E+00 2.1464164E-01 -1.2157339E+00
  0.000E+00  7.532E-01  1.969E+00 3.4976024E+00 3.0884158E-01 -1.2113517E+00
  4.318E-02  7.775E-01  1.975E+00 3.4888458E+00 2.7524642E-01 -1.2037309E+00
  0.000E+00  7.052E-01  1.956E+00 3.5043117E+00 3.6817579E-01 -1.1939747E+00
  4.318E-02  7.292E-01  1.963E+00 3.5005178E+00 3.3444835E-01 -1.1881767E+00
  0.000E+00  6.580E-01  1.940E+00 3.5151466E+00 4.2701544E-01 -1.1740377E+00
  4.318E-02  6.815E-01  1.948E+00 3.5032224E+00 3.9268961E-01 -1.1696456E+00
  0.000E+00  6.116E-01  1.921E+00 3.5495292E+00 4.8545742E-01 -1.1516545E+00
  4.318E-02  6.347E-01  1.931E+00 3.5322572E+00 4.5072595E-01 -1.1488436E+00
  0.000E+00  5.661E-01  1.901E+00 3.5573062E+00 5.4231778E-01 -1.1259933E+00
  4.318E-02  5.887E-01  1.912E+00 3.5583440E+00 5.0776836E-01 -1.1251652E+00
  0.000E+00  5.217E-01  1.878E+00 3.5749280E+00 5.9761520E-01 -1.0974502E+00
  4.318E-02  5.438E-01  1.890E+00 3.5549861E+00 5.6307650E-01 -1.0982936E+00
  0.000E+00  4.786E-01  1.853E+00 3.6010924E+00 6.5163009E-01 -1.0663504E+00
  4.318E-02  5.000E-01  1.866E+00 3.5897935E+00 6.1708224E-01 -1.0688613E+00
  0.000E+00  4.367E-01  1.826E+00 3.5970878E+00 7.0397754E-01 -1.0325382E+00
  4.318E-02  4.575E-01  1.840E+00 3.5884870E+00 6.6965050E-01 -1.0368084E+00
  0.000E+00  3.962E-01  1.797E+00 3.6185716E+00 7.5455698E-01 -9.9614889E-01
  4.318E-02  4.163E-01  1.812E+00 3.6204781E+00 7.2047773E-01 -1.0021234E+00
  0.000E+00  3.572E-01  1.766E+00 3.6260139E+00 8.0328894E-01 -9.5731714E-01
  4.318E-02  3.765E-01  1.782E+00 3.6103639E+00 7.6953679E-01 -9.6496087E-01
  0.000E+00  3.198E-01  1.733E+00 3.6273529E+00 8.4999545E-01 -9.1607216E-01
  4.318E-02  3.383E-01  1.750E+00 3.6272694E+00 8.1668094E-01 -9.2541169E-01
  0.000E+00  2.841E-01  1.698E+00 3.6285902E+00 8.9460812E-01 -8.7257397E-01
  4.318E-02  3.018E-01  1.716E+00 3.6270145E+00 8.6179723E-01 -8.8355052E-01
  0.000E+00  2.502E-01  1.662E+00 3.6288482E+00 9.3699267E-01 -8.2689205E-01
  4.318E-02  2.669E-01  1.680E+00 3.6257783E+00 9.0475920E-01 -8.3948941E-01
  0.000E+00  2.182E-01  1.623E+00 3.6119390E+00 9.7703444E-01 -7.7915759E-01
  4.318E-02  2.340E-01  1.643E+00 3.6244399E+00 9.4549222E-01 -7.9335805E-01
  0.000E+00  1.881E-01  1.584E+00 3.6220637E+00 1.0146644E+00 -7.2948605E-01
  4.318E-02  2.029E-01  1.604E+00 3.6169984E+00 9.8384533E-01 -7.4522924E-01
  0.000E+00  1.600E-01  1.543E+00 3.5900645E+00 1.0497797E+00 -6.7802221E-01
  4.318E-02  1.738E-01  1.563E+00 3.5955216E+00 1.0197842E+00 -6.9527446E-01
  0.000E+00  1.340E-01  1.500E+00 3.5913800E+00 1.0822346E+00 -6.2479608E-01
  4.318E-02  1.467E-01  1.521E+00 3.5995187E+00 1.0531779E+00 -6.4357341E-01
  0.000E+00  1.101E-01  1.456E+00 3.5565645E+00 1.1120332E+00 -5.7011501E-01
  4.318E-02  1.218E-01  1.478E+00 3.5733613E+00 1.0838912E+00 -5.9022546E-01
  0.000E+00  8.849E-02  1.411E+00 3.5599345E+00 1.1392412E+00 -5.1411532E-01
  4.318E-02  9.903E-02  1.434E+00 3.5557404E+00 1.1120840E+00 -5.3561193E-01
  0.000E+00  6.913E-02  1.365E+00 3.5338445E+00 1.1632173E+00 -4.5635981E-01
  4.318E-02  7.852E-02  1.388E+00 3.5479598E+00 1.1374257E+00 -4.7945465E-01
  0.000E+00  5.207E-02  1.318E+00 3.5048053E+00 1.1842770E+00 -3.9759813E-01
  4.318E-02  6.031E-02  1.342E+00 3.5135866E+00 1.1595324E+00 -4.2173490E-01
  0.000E+00  3.738E-02  1.271E+00 3.5021088E+00 1.2030390E+00 -3.3862871E-01
  4.318E-02  4.443E-02  1.295E+00 3.5027490E+00 1.1792235E+00 -3.6362201E-01
  0.000E+00  2.507E-02  1.223E+00 3.4904394E+00 1.2187882E+00 -2.7868604E-01
  4.318E-02  3.092E-02  1.247E+00 3.4960359E+00 1.1963837E+00 -3.0502129E-01
  0.000E+00  1.519E-02  1.174E+00 3.4720973E+00 1.2309415E+00 -2.1732298E-01
  4.318E-02  1.983E-02  1.198E+00 3.4795100E+00 1.2101621E+00 -2.4508681E-01
  0.000E+00  7.761E-03  1.124E+00 3.4564469E+00 1.2398867E+00 -1.5523447E-01
  4.318E-02  1.117E-02  1.149E+00 3.4616371E+00 1.2205173E+00 -1.8401594E-01
  0.000E+00  2.796E-03  1.075E+00 3.4475627E+00 1.2459754E+00 -9.3085543E-02
  4.318E-02  4.969E-03  1.100E+00 3.4496757E+00 1.2279215E+00 -1.2261396E-01
  0.000E+00  3.108E-04  1.025E+00 3.4441708E+00 1.2491181E+00 -3.1019822E-02
  4.318E-02  1.243E-03  1.050E+00 3.4442164E+00 1.2325118E+00 -6.1278685E-02
  0.000E+00  3.108E-04  9.751E-01 3.4441707E+00 1.2491181E+00 3.1019307E-02
  4.318E-02  0.000E+00  1.000E+00 3.4428237E+00 1.2340838E+00 -2.4262076E-07
  0.000E+00  2.796E-03  9.253E-01 3.4475624E+00 1.2459753E+00 9.3085031E-02
  4.318E-02  1.243E-03  9.502E-01 3.4442162E+00 1.2325118E+00 6.1278201E-02
  0.000E+00  7.761E-03  8.757E-01 3.4564464E+00 1.2398866E+00 1.5523397E-01
  4.318E-02  4.969E-03  9.004E-01 3.4496753E+00 1.2279214E+00 1.2261348E-01
  0.000E+00  1.519E-02  8.264E-01 3.4720965E+00 1.2309416E+00 2.1732248E-01
  4.318E-02  1.117E-02  8.510E-01 3.4616365E+00 1.2205172E+00 1.8401547E-01
  0.000E+00  2.507E-02  7.775E-01 3.4904383E+00 1.2187885E+00 2.7868555E-01
  4.318E-02  1.983E-02  8.019E-01 3.4795091E+00 1.2101623E+00 2.4508634E-01
  0.000E+00  3.738E-02  7.292E-01 3.5021076E+00 1.2030391E+00 3.3862823E-01
  4.318E-02  3.092E-02  7.532E-01 3.4960348E+00 1.1963840E+00 3.0502082E-01
  0.000E+00  5.207E-02  6.815E-01 3.5048038E+00 1.1842767E+00 3.9759767E-01
  4.318E-02  4.443E-02  7.052E-01 3.5027477E+00 1.1792233E+00 3.6362156E-01
  0.000E+00  6.913E-02  6.347E-01 3.5338428E+00 1.1632176E+00 4.5635937E-01
  4.318E-02  6.031E-02  6.580E-01 3.5135851E+00 1.1595323E+00 4.2173446E-01
  0.000E+00  8.849E-02  5.887E-01 3.5599326E+00 1.1392416E+00 5.1411490E-01
  4.318E-02  7.852E-02  6.116E-01 3.5479581E+00 1.1374262E+00 4.7945423E-01
  0.000E+00  1.101E-01  5.438E-01 3.5565625E+00 1.1120330E+00 5.7011459E-01
  4.318E-02  9.903E-02  5.661E-01 3.5557385E+00 1.1120840E+00 5.3561153E-01
  0.000E+00  1.340E-01  5.000E-01 3.5913777E+00 1.0822350E+00 6.2479570E-01
  4.318E-02  1.218E-01  5.217E-01 3.5733592E+00 1.0838912E+00 5.9022508E-01
  0.000E+00  1.600E-01  4.575E-01 3.5900621E+00 1.0497799E+00 6.7802185E-01
  4.318E-02  1.467E-01  4.786E-01 3.5995164E+00 1.0531782E+00 6.4357304E-01
  0.000E+00  1.881E-01  4.163E-01 3.6220611E+00 1.0146646E+00 7.2948573E-01
  4.318E-02  1.738E-01  4.367E-01 3.5955191E+00 1.0197842E+00 6.9527410E-01
  0.000E+00  2.182E-01  3.765E-01 3.6119362E+00 9.7703473E-01 7.7915730E-01
  4.318E-02  2.029E-01  3.962E-01 3.6169958E+00 9.8384559E-01 7.4522890E-01
  0.000E+00  2.502E-01  3.383E-01 3.6288452E+00 9.3699290E-01 8.2689178E-01
  4.318E-02  2.340E-01  3.572E-01 3.6244371E+00 9.4549233E-01 7.9335772E-01
  0.000E+00  2.841E-01  3.018E-01 3.6285871E+00 8.9460838E-01 8.7257372E-01
  4.318E-02  2.669E-01  3.198E-01 3.6257753E+00 9.0475942E-01 8.3948911E-01
  0.000E+00  3.198E-01  2.669E-01 3.6273497E+00 8.4999566E-01 9.1607193E-01
  4.318E-02  3.018E-01  2.841E-01 3.6270114E+00 8.6179739E-01 8.8355024E-01
  0.000E+00  3.572E-01  2.340E-01 3.6260105E+00 8.0328916E-01 9.5731693E-01
  4.318E-02  3.383E-01  2.502E-01 3.6272662E+00 8.1668113E-01 9.2541144E-01
  0.000E+00  3.962E-01  2.029E-01 3.6185681E+00 7.5455717E-01 9.9614870E-01
  4.318E-02  3.765E-01  2.182E-01 3.6103606E+00 7.6953696E-01 9.6496064E-01
  0.000E+00  4.367E-01  1.738E-01 3.5970842E+00 7.0397771E-01 1.0325380E+00
  4.318E-02  4.163E-01  1.881E-01 3.6204746E+00 7.2047791E-01 1.0021232E+00
  0.000E+00  4.786E-01  1.467E-01 3.6010887E+00 6.5163029E-01 1.0663502E+00
  4.318E-02  4.575E-01  1.600E-01 3.5884834E+00 6.6965065E-01 1.0368082E+00
  0.000E+00  5.217E-01  1.218E-01 3.5749243E+00 5.9761546E-01 1.0974501E+00
  4.318E-02  5.000E-01  1.340E-01 3.5897898E+00 6.1708238E-01 1.0688611E+00
  0.000E+00  5.661E-01  9.903E-02 3.5573023E+00 5.4231813E-01 1.1259933E+00
  4.318E-02  5.438E-01  1.101E-01 3.5549823E+00 5.6307652E-01 1.0982934E+00
  0.000E+00  6.116E-01  7.852E-02 3.5495251E+00 4.8545778E-01 1.1516545E+00
  4.318E-02  5.887E-01  8.849E-02 3.5583402E+00 5.0776832E-01 1.1251650E+00
  0.000E+00  6.580E-01  6.031E-02 3.5151424E+00 4.2701548E-01 1.1740377E+00
  4.318E-02  6.347E-01  6.913E-02 3.5322533E+00 4.5072598E-01 1.1488435E+00
  0.000E+00  7.052E-01  4.443E-02 3.5043076E+00 3.6817528E-01 1.1939745E+00
  4.318E-02  6.815E-01  5.207E-02 3.5032185E+00 3.9268993E-01 1.1696455E+00
  0.000E+00  7.532E-01  3.092E-02 3.4975985E+00 3.0884067E-01 1.2113514E+00
  4.318E-02  7.292E-01  3.738E-02 3.5005137E+00 3.3444900E-01 1.1881768E+00
  0.000E+00  8.019E-01  1.983E-02 3.4810708E+00 2.4815548E-01 1.2253032E+00
  4.318E-02  7.775E-01  2.507E-02 3.4888415E+00 2.7524713E-01 1.2037310E+00
  0.000E+00  8.510E-01  1.117E-02 3.4631941E+00 1.8632005E-01 1.2357877E+00
  4.318E-02  8.264E-01  1.519E-02 3.4705011E+00 2.1464210E-01 1.2157341E+00
  0.000E+00  9.004E-01  4.969E-03 3.4512304E+00 1.2414964E-01 1.2432842E+00
  4.318E-02  8.757E-01  7.761E-03 3.4548524E+00 1.5332002E-01 1.2245693E+00
  4.318E-02  9.253E-01  2.796E-03 3.4459680E+00 9.1937940E-02 1.2305831E+00
  1.000E+01  1.050E+00  1.243E-03 3.4457693E+00 -6.2044293E-02 1.2479320E+00
  1.000E+01  1.000E+00  5.551E-16 3.4443775E+00 1.2259338E-06 1.2495236E+00
  9.957E+00  1.025E+00  3.108E-04 3.4461068E+00 -3.1401955E-02 1.2645660E+00
  1.000E+01  9.502E-01  1.243E-03 3.4457704E+00 6.2046742E-02 1.2479318E+00
  9.957E+00  9.751E-01  3.108E-04 3.4461074E+00 3.1404571E-02 1.2645659E+00
  1.000E+01  9.004E-01  4.969E-03 3.4512304E+00 1.2414964E-01 1.2432842E+00
  9.957E+00  9.253E-01  2.796E-03 3.4494996E+00 9.4238055E-02 1.2613843E+00
  1.000E+01  8.510E-01  1.117E-02 3.4631941E+00 1.8632005E-01 1.2357877E+00
  9.957E+00  8.757E-01  7.761E-03 3.4583853E+00 1.5715598E-01 1.2552206E+00
  1.000E+01  8.019E-01  1.983E-02 3.4810708E+00 2.4815548E-01 1.2253032E+00
  9.957E+00  8.264E-01  1.519E-02 3.4740394E+00 2.2001319E-01 1.2461650E+00
  1.000E+01  7.532E-01  3.092E-02 3.4975985E+00 3.0884067E-01 1.2113514E+00
  9.957E+00  7.775E-01  2.507E-02 3.4923857E+00 2.8213648E-01 1.2338609E+00
  1.000E+01  7.052E-01  4.443E-02 3.5043076E+00 3.6817528E-01 1.1939745E+00
  9.957E+00  7.292E-01  3.738E-02 3.5040542E+00 3.4282166E-01 1.2179150E+00
  1.000E+01  6.580E-01  6.031E-02 3.5151424E+00 4.2701548E-01 1.1740377E+00
  9.957E+00  6.815E-01  5.207E-02 3.5067429E+00 4.0252063E-01 1.1989198E+00
  1.000E+01  6.116E-01  7.852E-02 3.5495251E+00 4.8545778E-01 1.1516545E+00
  9.957E+00  6.347E-01  6.913E-02 3.5357896E+00 4.6200877E-01 1.1776013E+00
  1.000E+01  5.661E-01  9.903E-02 3.5573023E+00 5.4231813E-01 1.1259933E+00
  9.957E+00  5.887E-01  8.849E-02 3.5618862E+00 5.2047861E-01 1.1533262E+00
  1.000E+01  5.217E-01  1.218E-01 3.5749243E+00 5.9761546E-01 1.0974501E+00
  9.957E+00  5.438E-01  1.101E-01 3.5585051E+00 5.7717108E-01 1.1257806E+00
  1.000E+01  4.786E-01  1.467E-01 3.6010887E+00 6.5163029E-01 1.0663502E+00
  9.957E+00  5.000E-01  1.340E-01 3.5933335E+00 6.3252836E-01 1.0956151E+00
  1.000E+01  4.367E-01  1.738E-01 3.5970842E+00 7.0397771E-01 1.0325380E+00
  9.957E+00  4.575E-01  1.600E-01 3.5920103E+00 6.8641250E-01 1.0627556E+00
  1.000E+01  3.962E-01  2.029E-01 3.6185681E+00 7.5455717E-01 9.9614870E-01
  9.957E+00  4.163E-01  1.881E-01 3.6240225E+00 7.3851328E-01 1.0272082E+00
  1.000E+01  3.572E-01  2.340E-01 3.6260105E+00 8.0328916E-01 9.5731693E-01
  9.957E+00  3.765E-01  2.182E-01 3.6138886E+00 7.8879733E-01 9.8910929E-01
  1.000E+01  3.198E-01  2.669E-01 3.6273497E+00 8.4999566E-01 9.1607193E-01
  9.957E+00  3.383E-01  2.502E-01 3.6308058E+00 8.3712226E-01 9.4857399E-01
  1.000E+01  2.841E-01  3.018E-01 3.6285871E+00 8.9460838E-01 8.7257372E-01
  9.957E+00  3.018E-01  2.841E-01 3.6305476E+00 8.8336948E-01 9.0566452E-01
  1.000E+01  2.502E-01  3.383E-01 3.6288452E+00 9.3699290E-01 8.2689178E-01
  9.957E+00  2.669E-01  3.198E-01 3.6293125E+00 9.2740273E-01 8.6049846E-01
  1.000E+01  2.182E-01  3.765E-01 3.6119362E+00 9.7703473E-01 7.7915730E-01
  9.957E+00  2.340E-01  3.572E-01 3.6279762E+00 9.6915952E-01 8.1321605E-01
  1.000E+01  1.881E-01  4.163E-01 3.6220611E+00 1.0146646E+00 7.2948573E-01
  9.957E+00  2.029E-01  3.962E-01 3.6205365E+00 1.0084693E+00 7.6387996E-01
  1.000E+01  1.600E-01  4.575E-01 3.5900621E+00 1.0497799E+00 6.7802185E-01
  9.957E+00  1.738E-01  4.367E-01 3.5990475E+00 1.0453083E+00 7.1267522E-01
  1.000E+01  1.340E-01  5.000E-01 3.5913777E+00 1.0822350E+00 6.2479570E-01
  9.957E+00  1.467E-01  4.786E-01 3.6030644E+00 1.0795371E+00 6.5968034E-01
  1.000E+01  1.101E-01  5.438E-01 3.5565625E+00 1.1120330E+00 5.7011459E-01
  9.957E+00  1.218E-01  5.217E-01 3.5768945E+00 1.1110226E+00 6.0499817E-01
  1.000E+01  8.849E-02  5.887E-01 3.5599326E+00 1.1392416E+00 5.1411490E-01
  9.957E+00  9.903E-02  5.661E-01 3.5592748E+00 1.1399151E+00 5.4901690E-01
  1.000E+01  6.913E-02  6.347E-01 3.5338428E+00 1.1632176E+00 4.5635937E-01
  9.957E+00  7.852E-02  6.116E-01 3.5515050E+00 1.1658961E+00 4.9145358E-01
  1.000E+01  5.207E-02  6.815E-01 3.5048038E+00 1.1842767E+00 3.9759767E-01
  9.957E+00  6.031E-02  6.580E-01 3.5171134E+00 1.1885545E+00 4.3228928E-01
  1.000E+01  3.738E-02  7.292E-01 3.5021076E+00 1.2030391E+00 3.3862823E-01
  9.957E+00  4.443E-02  7.052E-01 3.5062840E+00 1.2087352E+00 3.7272237E-01
  1.000E+01  2.507E-02  7.775E-01 3.4904383E+00 1.2187885E+00 2.7868555E-01
  9.957E+00  3.092E-02  7.532E-01 3.4995817E+00 1.2263275E+00 3.1265440E-01
  1.000E+01  1.519E-02  8.264E-01 3.4720965E+00 1.2309416E+00 2.1732248E-01
  9.957E+00  1.983E-02  8.019E-01 3.4830537E+00 1.2404521E+00 2.5121894E-01
  1.000E+01  7.761E-03  8.757E-01 3.4564464E+00 1.2398866E+00 1.5523397E-01
  9.957E+00  1.117E-02  8.510E-01 3.4651749E+00 1.2510659E+00 1.8861932E-01
  1.000E+01  2.796E-03  9.253E-01 3.4475624E+00 1.2459753E+00 9.3085031E-02
  9.957E+00  4.969E-03  9.004E-01 3.4532108E+00 1.2586544E+00 1.2568101E-01
  1.000E+01  3.108E-04  9.751E-01 3.4441707E+00 1.2491181E+00 3.1019307E-02
  9.957E+00  1.243E-03  9.502E-01 3.4477522E+00 1.2633593E+00 6.2811296E-02
  1.000E+01  3.108E-04  1.025E+00 3.4441708E+00 1.2491181E+00 -3.1019822E-02
  9.957E+00  0.000E+00  1.000E+00 3.4463603E+00 1.2649707E+00 -2.7491114E-07
  1.000E+01  2.796E-03  1.075E+00 3.4475627E+00 1.2459754E+00 -9.3085543E-02
  9.957E+00  1.243E-03  1.050E+00 3.4477524E+00 1.2633594E+00 -6.2811845E-02
  1.000E+01  7.761E-03  1.124E+00 3.4564469E+00 1.2398867E+00 -1.5523447E-01
  9.957E+00  4.969E-03  1.100E+00 3.4532113E+00 1.2586545E+00 -1.2568155E-01
  1.000E+01  1.519E-02  1.174E+00 3.4720973E+00 1.2309415E+00 -2.1732298E-01
  9.957E+00  1.117E-02  1.149E+00 3.4651756E+00 1.2510659E+00 -1.8861985E-01
  1.000E+01  2.507E-02  1.223E+00 3.4904394E+00 1.2187882E+00 -2.7868604E-01
  9.957E+00  1.983E-02  1.198E+00 3.4830546E+00 1.2404519E+00 -2.5121947E-01
  1.000E+01  3.738E-02  1.271E+00 3.5021088E+00 1.2030390E+00 -3.3862871E-01
  9.957E+00  3.092E-02  1.247E+00 3.4995828E+00 1.2263271E+00 -3.1265492E-01
  1.000E+01  5.207E-02  1.318E+00 3.5048053E+00 1.1842770E+00 -3.9759813E-01
  9.957E+00  4.443E-02  1.295E+00 3.5062854E+00 1.2087353E+00 -3.7272287E-01
  1.000E+01  6.913E-02  1.365E+00 3.5338445E+00 1.1632173E+00 -4.5635981E-01
  9.957E+00  6.031E-02  1.342E+00 3.5171149E+00 1.1885546E+00 -4.3228976E-01
  1.000E+01  8.849E-02  1.411E+00 3.5599345E+00 1.1392412E+00 -5.1411532E-01
  9.957E+00  7.852E-02  1.388E+00 3.5515068E+00 1.1658955E+00 -4.9145404E-01
  1.000E+01  1.101E-01  1.456E+00 3.5565645E+00 1.1120332E+00 -5.7011501E-01
  9.957E+00  9.903E-02  1.434E+00 3.5592768E+00 1.1399150E+00 -5.4901734E-01
  1.000E+01  1.340E-01  1.500E+00 3.5913800E+00 1.0822346E+00 -6.2479608E-01
  9.957E+00  1.218E-01  1.478E+00 3.5768967E+00 1.1110226E+00 -6.0499859E-01
  1.000E+01  1.600E-01  1.543E+00 3.5900645E+00 1.0497797E+00 -6.7802221E-01
  9.957E+00  1.467E-01  1.521E+00 3.6030667E+00 1.0795367E+00 -6.5968073E-01
  1.000E+01  1.881E-01  1.584E+00 3.6220637E+00 1.0146644E+00 -7.2948605E-01
  9.957E+00  1.738E-01  1.563E+00 3.5990501E+00 1.0453082E+00 -7.1267559E-01
  1.000E+01  2.182E-01  1.623E+00 3.6119390E+00 9.7703444E-01 -7.7915759E-01
  9.957E+00  2.029E-01  1.604E+00 3.6205392E+00 1.0084689E+00 -7.6388030E-01
  1.000E+01  2.502E-01  1.662E+00 3.6288482E+00 9.3699267E-01 -8.2689205E-01
  9.957E+00  2.340E-01  1.643E+00 3.6279790E+00 9.6915932E-01 -8.1321637E-01
  1.000E+01  2.841E-01  1.698E+00 3.6285902E+00 8.9460812E-01 -8.7257397E-01
  9.957E+00  2.669E-01  1.680E+00 3.6293156E+00 9.2740243E-01 -8.6049874E-01
  1.000E+01  3.198E-01  1.733E+00 3.6273529E+00 8.4999545E-01 -9.1607216E-01
  9.957E+00  3.018E-01  1.716E+00 3.6305508E+00 8.8336924E-01 -9.0566477E-01
  1.000E+01  3.572E-01  1.766E+00 3.6260139E+00 8.0328894E-01 -9.5731714E-01
  9.957E+00  3.383E-01  1.750E+00 3.6308091E+00 8.3712199E-01 -9.4857421E-01
  1.000E+01  3.962E-01  1.797E+00 3.6185716E+00 7.5455698E-01 -9.9614889E-01
  9.957E+00  3.765E-01  1.782E+00 3.6138921E+00 7.8879708E-01 -9.8910947E-01
  1.000E+01  4.367E-01  1.826E+00 3.5970878E+00 7.0397754E-01 -1.0325382E+00
  9.957E+00  4.163E-01  1.812E+00 3.6240260E+00 7.3851302E-01 -1.0272084E+00
  1.000E+01  4.786E-01  1.853E+00 3.6010924E+00 6.5163009E-01 -1.0663504E+00
  9.957E+00  4.575E-01  1.840E+00 3.5920140E+00 6.8641228E-01 -1.0627557E+00
  1.000E+01  5.217E-01  1.878E+00 3.5749280E+00 5.9761520E-01 -1.0974502E+00
  9.957E+00  5.000E-01  1.866E+00 3.5933374E+00 6.3252815E-01 -1.0956152E+00
  1.000E+01  5.661E-01  1.901E+00 3.5573062E+00 5.4231778E-01 -1.1259933E+00
  9.957E+00  5.438E-01  1.890E+00 3.5585091E+00 5.7717098E-01 -1.1257807E+00
  1.000E+01  6.116E-01  1.921E+00 3.5495292E+00 4.8545742E-01 -1.1516545E+00
  9.957E+00  5.887E-01  1.912E+00 3.5618902E+00 5.2047855E-01 -1.1533263E+00
  1.000E+01  6.580E-01  1.940E+00 3.5151466E+00 4.2701544E-01 -1.1740377E+00
  9.957E+00  6.347E-01  1.931E+00 3.5357935E+00 4.6200867E-01 -1.1776014E+00
  1.000E+01  7.052E-01  1.956E+00 3.5043117E+00 3.6817579E-01 -1.1939747E+00
  9.957E+00  6.815E-01  1.948E+00 3.5067468E+00 4.0252029E-01 -1.1989197E+00
  1.000E+01  7.532E-01  1.969E+00 3.4976024E+00 3.0884158E-01 -1.2113517E+00
  9.957E+00  7.292E-01  1.963E+00 3.5040584E+00 3.4282101E-01 -1.2179148E+00
  1.000E+01  8.019E-01  1.980E+00 3.4810746E+00 2.4815630E-01 -1.2253036E+00
  9.957E+00  7.775E-01  1.975E+00 3.4923900E+00 2.8213575E-01 -1.2338607E+00
  1.000E+01  8.510E-01  1.989E+00 3.4631981E+00 1.8632044E-01 -1.2357882E+00
  9.957E+00  8.264E-01  1.985E+00 3.4740439E+00 2.2001268E-01 -1.2461648E+00
  1.000E+01  9.004E-01  1.995E+00 3.4512346E+00 1.2414965E-01 -1.2432845E+00
  9.957E+00  8.757E-01  1.992E+00 3.4583896E+00 1.5715579E-01 -1.2552203E+00
  1.000E+01  9.502E-01  1.999E+00 3.4457748E+00 6.2046647E-02 -1.2479322E+00
  9.957E+00  9.253E-01  1.997E+00 3.4495038E+00 9.4238076E-02 -1.2613840E+00
  1.000E+01  1.000E+00  2.000E+00 3.4443819E+00 1.2602029E-06 -1.2495239E+00
  9.957E+00  9.751E-01  2.000E+00 3.4461115E+00 3.1404627E-02 -1.2645656E+00
  1.000E+01  1.050E+00  1.999E+00 3.4457737E+00 -6.2044138E-02 -1.2479323E+00
  9.957E+00  1.025E+00  2.000E+00 3.4461109E+00 -3.1401945E-02 -1.2645657E+00
  1.000E+01  1.100E+00  1.995E+00 3.4512323E+00 -1.2414715E-01 -1.2432848E+00
  9.957E+00  1.075E+00  1.997E+00 3.4495021E+00 -9.4235412E-02 -1.2613843E+00
  1.000E+01  1.149E+00  1.989E+00 3.4631947E+00 -1.8631798E-01 -1.2357886E+00
  9.957E+00  1.124E+00  1.992E+00 3.4583868E+00 -1.5715315E-01 -1.2552207E+00
  1.000E+01  1.198E+00  1.980E+00 3.4810701E+00 -2.4815388E-01 -1.2253041E+00
  9.957E+00  1.174E+00  1.985E+00 3.4740398E+00 -2.2001008E-01 -1.2461653E+00