# TIME = 12.300000
variables = x, y, z
zone N=5762 E=11520 F=FEPOINT ET=TRIANGLE
 2.3919000E-01 1.4835576E+00 1.7822479E+00
 2.3919010E-01 1.4835574E+00 2.1775217E-01
 2.3919008E-01 5.1644254E-01 1.7822478E+00
 2.3919011E-01 5.1644244E-01 2.1775210E-01
 -9.4485594E-01 9.9999998E-01 1.6075190E+00
 1.4511900E+00 9.9999998E-01 1.6156464E+00
 -9.4485597E-01 9.9999999E-01 3.9248084E-01
 1.4511900E+00 9.9999998E-01 3.8435350E-01
 -4.7171677E-01 1.9263141E+00 9.9999970E-01
 -4.7171676E-01 7.3685845E-02 1.0000002E+00
 9.3584731E-01 1.8659742E+00 9.9999994E-01
 9.3584729E-01 1.3402580E-01 9.9999996E-01
 1.9198316E-01 1.4756255E+00 1.7896843E+00
 1.3960872E-01 1.4668762E+00 1.7980895E+00
 8.4468685E-02 1.4578243E+00 1.8071340E+00
 2.7201377E-02 1.4484283E+00 1.8167874E+00
 -3.1568528E-02 1.4385549E+00 1.8269225E+00
 -9.1097318E-02 1.4279728E+00 1.8372594E+00
 -1.5070201E-01 1.4163860E+00 1.8473489E+00
 -2.0988424E-01 1.4034718E+00 1.8565999E+00
 -2.6839626E-01 1.3889192E+00 1.8643377E+00
 -3.2619000E-01 1.3724648E+00 1.8698660E+00
 -3.8329904E-01 1.3539222E+00 1.8725256E+00
 -4.3970905E-01 1.3332042E+00 1.8717509E+00
 -4.9526739E-01 1.3103376E+00 1.8671222E+00
 -5.4966143E-01 1.2854654E+00 1.8584045E+00
 -6.0245755E-01 1.2588344E+00 1.8455658E+00
 -6.5317125E-01 1.2307713E+00 1.8287673E+00
 -7.0133644E-01 1.2016518E+00 1.8083329E+00
 -7.4655793E-01 1.1718682E+00 1.7847050E+00
 -7.8854319E-01 1.1418028E+00 1.7583961E+00
 -8.2711480E-01 1.1118067E+00 1.7299429E+00
 -8.6218179E-01 1.0822053E+00 1.6998959E+00
 -8.9371154E-01 1.0532971E+00 1.6688119E+00
 -9.2162398E-01 1.0254477E+00 1.6373735E+00
 1.8644431E-01 5.5865040E-01 1.8096535E+00
 1.3216049E-01 5.6949882E-01 1.8187653E+00
 7.5738337E-02 5.8018362E-01 1.8281805E+00
 1.7627222E-02 5.9106319E-01 1.8380247E+00
 -4.1636509E-02 6.0245985E-01 1.8482354E+00
 -1.0136134E-01 6.1467150E-01 1.8585214E+00
 -1.6090429E-01 6.2800863E-01 1.8684010E+00
 -2.1983205E-01 6.4276562E-01 1.8772513E+00
 -2.7795587E-01 6.5919732E-01 1.8843779E+00
 -3.3526392E-01 6.7749631E-01 1.8890824E+00
 -3.9179812E-01 6.9777406E-01 1.8907213E+00
 -4.4753159E-01 7.2004581E-01 1.8887632E+00
 -5.0229304E-01 7.4422375E-01 1.8828354E+00
 -5.5575977E-01 7.7012051E-01 1.8727579E+00
 -6.0750345E-01 7.9746525E-01 1.8585541E+00
 -6.5706078E-01 8.2592805E-01 1.8404337E+00
 -7.0400200E-01 8.5514653E-01 1.8187543E+00
 -7.4798392E-01 8.8475076E-01 1.7939688E+00
 -7.8878036E-01 9.1438088E-01 1.7665704E+00
 -8.2630241E-01 9.4369737E-01 1.7370300E+00
 -8.6061376E-01 9.7237780E-01 1.7057296E+00
 -8.9196409E-01 9.9999998E-01 1.6728720E+00
 1.8415860E-01 5.9402539E-01 1.8280921E+00
 1.2766508E-01 6.0693298E-01 1.8376796E+00
 6.9755589E-02 6.1930688E-01 1.8473201E+00
 1.0563774E-02 6.3180124E-01 1.8572714E+00
 -4.9378246E-02 6.4483258E-01 1.8674642E+00
 -1.0943908E-01 6.5876451E-01 1.8775931E+00
 -1.6904359E-01 6.7390682E-01 1.8871429E+00
 -2.2783064E-01 6.9051933E-01 1.8954639E+00
 -2.8567138E-01 7.0880006E-01 1.9018490E+00
 -3.4258819E-01 7.2887587E-01 1.9056046E+00
 -3.9863094E-01 7.5079142E-01 1.9061093E+00
 -4.5376381E-01 7.7450150E-01 1.9028685E+00
 -5.0780343E-01 7.9986980E-01 1.8955574E+00
 -5.6042535E-01 8.2667731E-01 1.8840477E+00
 -6.1121706E-01 8.5464092E-01 1.8684103E+00
 -6.5975107E-01 8.8343669E-01 1.8488882E+00
 -7.0565676E-01 9.1272001E-01 1.8258458E+00
 -7.4868103E-01 9.4214140E-01 1.7996994E+00
 -7.8873120E-01 9.7135363E-01 1.7708375E+00
 -8.2590723E-01 9.9999998E-01 1.7395293E+00
 -8.6061374E-01 1.0276222E+00 1.7057296E+00
 1.8254894E-01 6.3101303E-01 1.8453333E+00
 1.2457792E-01 6.4561240E-01 1.8549743E+00
 6.5357057E-02 6.5967238E-01 1.8646550E+00
 5.1904841E-03 6.7382233E-01 1.8745561E+00
 -5.5411863E-02 6.8855636E-01 1.8845941E+00
 -1.1582616E-01 7.0425481E-01 1.8944233E+00
 -1.7553288E-01 7.2121635E-01 1.9034958E+00
 -2.3423126E-01 7.3965993E-01 1.9111386E+00
 -2.9184244E-01 7.5972924E-01 1.9166387E+00
 -3.4841646E-01 7.8149123E-01 1.9193133E+00
 -4.0400929E-01 8.0493283E-01 1.9185687E+00
 -4.5857903E-01 8.2995885E-01 1.9139490E+00
 -5.1193793E-01 8.5639589E-01 1.9051758E+00
 -5.6377101E-01 8.8400421E-01 1.8921669E+00
 -6.1369795E-01 9.1249618E-01 1.8750265E+00
 -6.6135101E-01 9.4155406E-01 1.8540064E+00
 -7.0645363E-01 9.7084047E-01 1.8294372E+00
 -7.4888538E-01 9.9999997E-01 1.8016426E+00
 -7.8873118E-01 1.0286463E+00 1.7708375E+00
 -8.2630237E-01 1.0563026E+00 1.7370299E+00
 1.8130028E-01 6.6960389E-01 1.8612419E+00
 1.2219020E-01 6.8572440E-01 1.8706892E+00
 6.1944998E-02 7.0137769E-01 1.8801907E+00
 9.5692891E-04 7.1717978E-01 1.8898668E+00
 -6.0204381E-02 7.3362319E-01 1.8995799E+00
 -1.2092143E-01 7.5108543E-01 1.9089416E+00
 -1.8070774E-01 7.6983523E-01 1.9173689E+00
 -2.3931013E-01 7.9004787E-01 1.9241717E+00
 -2.9668820E-01 8.1181434E-01 1.9286374E+00
 -3.5291344E-01 8.3514795E-01 1.9301008E+00
 -4.0804690E-01 8.5998635E-01 1.9279993E+00
 -4.6204562E-01 8.8619448E-01 1.9219168E+00
 -5.1472812E-01 9.1357195E-01 1.9116177E+00
 -5.6580493E-01 9.4186551E-01 1.8970546E+00
 -6.1495036E-01 9.7078277E-01 1.8783453E+00
 -6.6188465E-01 9.9999997E-01 1.8557195E+00
 -7.0645361E-01 1.0291595E+00 1.8294372E+00
 -7.4868099E-01 1.0578585E+00 1.7996994E+00
 -7.8878030E-01 1.0856191E+00 1.7665703E+00
 1.8026877E-01 7.0980212E-01 1.8756846E+00
 1.2024195E-01 7.2729699E-01 1.8847348E+00
 5.9175740E-02 7.4445870E-01 1.8938649E+00
 -2.4640607E-03 7.6186325E-01 1.9031304E+00
 -6.4058926E-02 7.7998091E-01 1.9123372E+00
 -1.2498396E-01 7.9915906E-01 1.9210503E+00
 -1.8477939E-01 8.1962701E-01 1.9286567E+00
 -2.4322798E-01 8.4151214E-01 1.9344558E+00
 -3.0031952E-01 8.6485591E-01 1.9377428E+00
 -3.5614281E-01 8.8962437E-01 1.9378760E+00
 -4.1076563E-01 9.1571500E-01 1.9343262E+00
 -4.6415214E-01 9.4296232E-01 1.9267163E+00
 -5.1614137E-01 9.7114602E-01 1.9148456E+00
 -5.6648985E-01 9.9999997E-01 1.8986858E+00
 -6.1495035E-01 1.0292172E+00 1.8783453E+00
 -6.6135097E-01 1.0584459E+00 1.8540064E+00
 -7.0565670E-01 1.0872799E+00 1.8258457E+00
 -7.4798384E-01 1.1152492E+00 1.7939688E+00
 1.7938697E-01 7.5152780E-01 1.8884957E+00
 1.1860685E-01 7.7027703E-01 1.8969782E+00
 5.6888203E-02 7.8885544E-01 1.9055604E+00
 -5.2421516E-03 8.0779025E-01 1.9142345E+00
 -6.7127742E-02 8.2751171E-01 1.9227515E+00
 -1.2813945E-01 8.4832295E-01 1.9306345E+00
 -1.8783976E-01 8.7040512E-01 1.9372479E+00
 -2.4604173E-01 8.9383733E-01 1.9418886E+00
 -3.0276010E-01 9.1861578E-01 1.9438673E+00
 -3.5809943E-01 9.4466743E-01 1.9425697E+00
 -4.1213882E-01 9.7185838E-01 1.9375013E+00
 -4.6486047E-01 9.9999998E-01 1.9283190E+00
 -5.1614136E-01 1.0288539E+00 1.9148456E+00
 -5.6580490E-01 1.0581344E+00 1.8970545E+00
 -6.1369790E-01 1.0875038E+00 1.8750265E+00
 -6.5975099E-01 1.1165632E+00 1.8488882E+00
 -7.0400190E-01 1.1448534E+00 1.8187542E+00
 1.7863320E-01 7.9463843E-01 1.8995000E+00
 1.1723888E-01 8.1453600E-01 1.9072676E+00
 5.5025978E-02 8.3443229E-01 1.9151388E+00
 -7.4336747E-03 8.5480556E-01 1.9230489E+00
 -6.9457342E-02 8.7603344E-01 1.9306995E+00
 -1.3041819E-01 8.9836542E-01 1.9375797E+00
 -1.8990098E-01 9.2193125E-01 1.9430407E+00
 -2.4774615E-01 9.4676404E-01 1.9463856E+00
 -3.0399082E-01 9.7282156E-01 1.9469464E+00
 -3.5875609E-01 9.9999999E-01 1.9441391E+00
 -4.1213880E-01 1.0281416E+00 1.9375013E+00
 -4.6415211E-01 1.0570376E+00 1.9267163E+00
 -5.1472807E-01 1.0864280E+00 1.9116177E+00
 -5.6377095E-01 1.1159957E+00 1.8921668E+00
 -6.1121697E-01 1.1453590E+00 1.8684102E+00
 -6.5706067E-01 1.1740719E+00 1.8404336E+00
 1.7800714E-01 8.3894894E-01 1.9085321E+00
 1.1613905E-01 8.5988579E-01 1.9154527E+00
 5.3591249E-02 8.8099228E-01 1.9224636E+00
 -9.0326081E-03 9.0269335E-01 1.9294491E+00
 -7.1036393E-02 9.2530683E-01 1.9360692E+00
 -1.3180308E-01 9.4902404E-01 1.9417896E+00
 -1.9094149E-01 9.7392419E-01 1.9459578E+00
 -2.4831801E-01 1.0000000E+00 1.9478910E+00
 -3.0399082E-01 1.0271784E+00 1.9469464E+00
 -3.5809941E-01 1.0553326E+00 1.9425697E+00
 -4.1076560E-01 1.0842850E+00 1.9343262E+00
 -4.6204556E-01 1.1138055E+00 1.9219168E+00
 -5.1193785E-01 1.1436041E+00 1.9051758E+00
 -5.6042525E-01 1.1733226E+00 1.8840476E+00
 -6.0750332E-01 1.2025347E+00 1.8585540E+00
 1.7751990E-01 8.8423605E-01 1.9154460E+00
 1.1532807E-01 9.0609446E-01 1.9214023E+00
 5.2610566E-02 9.2829007E-01 1.9274180E+00
 -1.0009880E-02 9.5119025E-01 1.9333333E+00
 -7.1836145E-02 9.7504919E-01 1.9387765E+00
 -1.3226840E-01 1.0000000E+00 1.9432003E+00
 -1.9094150E-01 1.0260758E+00 1.9459578E+00
 -2.4774615E-01 1.0532360E+00 1.9463856E+00
 -3.0276008E-01 1.0813842E+00 1.9438672E+00
 -3.5614277E-01 1.1103756E+00 1.9378760E+00
 -4.0804684E-01 1.1400136E+00 1.9279993E+00
 -4.5857895E-01 1.1700411E+00 1.9139490E+00
 -5.0780332E-01 1.2001301E+00 1.8955573E+00
 -5.5575963E-01 1.2298794E+00 1.8727578E+00
 1.7718540E-01 9.3024537E-01 1.9201244E+00
 1.1482982E-01 9.5289591E-01 1.9250149E+00
 5.2111876E-02 9.7604507E-01 1.9299174E+00
 -1.0339037E-02 1.0000000E+00 1.9346356E+00
 -7.1836151E-02 1.0249509E+00 1.9387765E+00
 -1.3180309E-01 1.0509760E+00 1.9417896E+00
 -1.8990099E-01 1.0780688E+00 1.9430407E+00
 -2.4604173E-01 1.1061627E+00 1.9418886E+00
 -3.0031950E-01 1.1351441E+00 1.9377428E+00
 -3.5291338E-01 1.1648520E+00 1.9301008E+00
 -4.0400921E-01 1.1950671E+00 1.9185687E+00
 -4.5376370E-01 1.2254984E+00 1.9028685E+00
 -5.0229290E-01 1.2557762E+00 1.8828353E+00
 1.7701503E-01 9.7669853E-01 1.9224848E+00
 1.1466164E-01 1.0000000E+00 1.9262264E+00
 5.2111869E-02 1.0239550E+00 1.9299174E+00
 -1.0009894E-02 1.0488098E+00 1.9333333E+00
 -7.1036412E-02 1.0746932E+00 1.9360692E+00
 -1.3041821E-01 1.1016346E+00 1.9375797E+00
 -1.8783977E-01 1.1295949E+00 1.9372479E+00
 -2.4322797E-01 1.1584879E+00 1.9344558E+00
 -2.9668816E-01 1.1881857E+00 1.9286374E+00
 -3.4841640E-01 1.2185088E+00 1.9193132E+00
 -3.9863084E-01 1.2492085E+00 1.9061092E+00
 -4.4753145E-01 1.2799541E+00 1.8887631E+00
 1.7701503E-01 1.0233015E+00 1.9224848E+00
 1.1482980E-01 1.0471041E+00 1.9250149E+00
 5.2610545E-02 1.0717100E+00 1.9274180E+00
 -9.0326372E-03 1.0973067E+00 1.9294491E+00
 -6.9457374E-02 1.1239666E+00 1.9306995E+00
 -1.2813947E-01 1.1516771E+00 1.9306345E+00
 -1.8477940E-01 1.1803730E+00 1.9286567E+00
 -2.3931012E-01 1.2099522E+00 1.9241717E+00
 -2.9184239E-01 1.2402708E+00 1.9166386E+00
 -3.4258810E-01 1.2711241E+00 1.9056045E+00
 -3.9179799E-01 1.3022259E+00 1.8907212E+00
 1.7718539E-01 1.0697546E+00 1.9201244E+00
 1.1532805E-01 1.0939056E+00 1.9214023E+00
 5.3591213E-02 1.1190078E+00 1.9224636E+00
 -7.4337195E-03 1.1451945E+00 1.9230489E+00
 -6.7127789E-02 1.1724883E+00 1.9227515E+00
 -1.2498399E-01 1.2008410E+00 1.9210503E+00
 -1.8070775E-01 1.2301648E+00 1.9173689E+00
 -2.3423124E-01 1.2603401E+00 1.9111386E+00
 -2.8567131E-01 1.2911999E+00 1.9018490E+00
 -3.3526381E-01 1.3225037E+00 1.8890823E+00
 1.7751988E-01 1.1157639E+00 1.9154461E+00
 1.1613901E-01 1.1401142E+00 1.9154527E+00
 5.5025927E-02 1.1655678E+00 1.9151388E+00
 -5.2422126E-03 1.1922098E+00 1.9142345E+00
 -6.4058986E-02 1.2200192E+00 1.9123373E+00
 -1.2092147E-01 1.2489146E+00 1.9089417E+00
 -1.7553289E-01 1.2787837E+00 1.9034958E+00
 -2.2783061E-01 1.3094807E+00 1.8954639E+00
 -2.7795579E-01 1.3408027E+00 1.8843779E+00
 1.7800711E-01 1.1610511E+00 1.9085321E+00
 1.1723883E-01 1.1854640E+00 1.9072676E+00
 5.6888136E-02 1.2111446E+00 1.9055604E+00
 -2.4641372E-03 1.2381368E+00 1.9031304E+00
 -6.0204453E-02 1.2663769E+00 1.8995800E+00
 -1.1582621E-01 1.2957453E+00 1.8944234E+00
 -1.6904360E-01 1.3260932E+00 1.8871429E+00
 -2.1983202E-01 1.3572344E+00 1.8772513E+00
 1.7863316E-01 1.2053616E+00 1.8995000E+00
 1.1860678E-01 1.2297230E+00 1.8969783E+00
 5.9175657E-02 1.2555414E+00 1.8938649E+00
 9.5683898E-04 1.2828203E+00 1.8898668E+00
 -5.5411943E-02 1.3114437E+00 1.8845941E+00
 -1.0943913E-01 1.3412356E+00 1.8775931E+00
 -1.6090430E-01 1.3719914E+00 1.8684011E+00
 1.7938692E-01 1.2484722E+00 1.8884957E+00
 1.2024187E-01 1.2727031E+00 1.8847348E+00
 6.1944902E-02 1.2986224E+00 1.8801907E+00
 5.1903846E-03 1.3261777E+00 1.8745561E+00
 -4.9378329E-02 1.3551675E+00 1.8674643E+00
 -1.0136139E-01 1.3853286E+00 1.8585215E+00
 1.8026871E-01 1.2901979E+00 1.8756846E+00
 1.2219011E-01 1.3142757E+00 1.8706893E+00
 6.5356952E-02 1.3403277E+00 1.8646551E+00
 1.0563671E-02 1.3681988E+00 1.8572715E+00
 -4.1636589E-02 1.3975402E+00 1.8482354E+00
 1.8130020E-01 1.3303962E+00 1.8612420E+00
 1.2457782E-01 1.3543877E+00 1.8549744E+00
 6.9755478E-02 1.3806932E+00 1.8473202E+00
 1.7627119E-02 1.4089369E+00 1.8380248E+00
 1.8254886E-01 1.3689870E+00 1.8453333E+00
 1.2766498E-01 1.3930671E+00 1.8376797E+00
 7.5738227E-02 1.4198165E+00 1.8281806E+00
 1.8415852E-01 1.4059747E+00 1.8280922E+00
 1.3216039E-01 1.4305013E+00 1.8187653E+00
 1.8644421E-01 1.4413497E+00 1.8096536E+00
 2.3916368E-01 1.4540081E+00 1.7997881E+00
 2.3912983E-01 1.4205042E+00 1.8179393E+00
 2.3907480E-01 1.3850622E+00 1.8352460E+00
 2.3901056E-01 1.3477338E+00 1.8514929E+00
 2.3894307E-01 1.3086482E+00 1.8664560E+00
 2.3887880E-01 1.2679464E+00 1.8799225E+00
 2.3882191E-01 1.2257655E+00 1.8917033E+00
 2.3877514E-01 1.1822827E+00 1.9016205E+00
 2.3873939E-01 1.1377110E+00 1.9095150E+00
 2.3871450E-01 1.0922925E+00 1.9152545E+00
 2.3869989E-01 1.0462938E+00 1.9187395E+00
 2.3869509E-01 9.9999998E-01 1.9199081E+00
 2.3869990E-01 9.5370617E-01 1.9187395E+00
 2.3871451E-01 9.0770746E-01 1.9152544E+00
 2.3873941E-01 8.6228896E-01 1.9095149E+00
 2.3877516E-01 8.1771731E-01 1.9016205E+00
 2.3882194E-01 7.7423450E-01 1.8917032E+00
 2.3887883E-01 7.3205363E-01 1.8799224E+00
 2.3894312E-01 6.9135186E-01 1.8664560E+00
 2.3901062E-01 6.5226629E-01 1.8514928E+00
 2.3907486E-01 6.1493787E-01 1.8352459E+00
 2.3912990E-01 5.7949583E-01 1.8179392E+00
 2.3916376E-01 5.4599203E-01 1.7997880E+00
 2.8595513E-01 5.2644510E-01 1.7862420E+00
 3.3688259E-01 5.3744794E-01 1.7906969E+00
 3.8958152E-01 5.4888495E-01 1.7953095E+00
 4.4363233E-01 5.6082230E-01 1.7999746E+00
 4.9885735E-01 5.7335980E-01 1.8045466E+00
 5.5508675E-01 5.8662354E-01 1.8088478E+00
 6.1216635E-01 6.0074569E-01 1.8126656E+00
 6.6990776E-01 6.1585440E-01 1.8157559E+00
 7.2808980E-01 6.3206907E-01 1.8178527E+00
 7.8645867E-01 6.4949301E-01 1.8186777E+00
 8.4473105E-01 6.6820598E-01 1.8179536E+00
 9.0259893E-01 6.8825683E-01 1.8154178E+00
 9.5973573E-01 7.0965758E-01 1.8108373E+00
 1.0158044E+00 7.3237997E-01 1.8040220E+00
 1.0704654E+00 7.5635475E-01 1.7948368E+00
 1.1233860E+00 7.8147379E-01 1.7832091E+00
 1.1742510E+00 8.0759432E-01 1.7691321E+00
 1.2227725E+00 8.3454658E-01 1.7526650E+00
 1.2686985E+00 8.6214160E-01 1.7339280E+00
 1.3118207E+00 8.9017851E-01 1.7130939E+00
 1.3519537E+00 9.1842705E-01 1.6903938E+00
 1.3889292E+00 9.4661655E-01 1.6661141E+00
 1.4224899E+00 9.7432171E-01 1.6406975E+00
 2.9131308E-01 1.4391966E+00 1.8057198E+00
 3.4394022E-01 1.4262000E+00 1.8106100E+00
 3.9771336E-01 1.4132648E+00 1.8153386E+00
 4.5246166E-01 1.4000240E+00 1.8199406E+00
 5.0814316E-01 1.3862085E+00 1.8243436E+00
 5.6465655E-01 1.3716381E+00 1.8283842E+00
 6.2185574E-01 1.3561650E+00 1.8318483E+00
 6.7955875E-01 1.3396694E+00 1.8344835E+00
 7.3754519E-01 1.3220542E+00 1.8360152E+00
 7.9556094E-01 1.3032455E+00 1.8361607E+00
 8.5332240E-01 1.2831963E+00 1.8346441E+00
 9.1052289E-01 1.2618902E+00 1.8312113E+00
 9.6683995E-01 1.2393455E+00 1.8256445E+00
 1.0219444E+00 1.2156155E+00 1.8177746E+00
 1.0755089E+00 1.1907879E+00 1.8074915E+00
 1.1272184E+00 1.1649824E+00 1.7947483E+00
 1.1767839E+00 1.1383478E+00 1.7795605E+00
 1.2239603E+00 1.1110597E+00 1.7619968E+00
 1.2685612E+00 1.0833186E+00 1.7421664E+00
 1.3104827E+00 1.0553522E+00 1.7201910E+00
 1.3497443E+00 1.0274284E+00 1.6961578E+00
 1.3865699E+00 9.9999998E-01 1.6700347E+00
 2.9344752E-01 1.4039228E+00 1.8238915E+00
 3.4811414E-01 1.3889704E+00 1.8289807E+00
 4.0318556E-01 1.3744978E+00 1.8336787E+00
 4.5887865E-01 1.3598449E+00 1.8381314E+00
 5.1520519E-01 1.3446661E+00 1.8422771E+00
 5.7213217E-01 1.3287219E+00 1.8459632E+00
 6.2954977E-01 1.3118545E+00 1.8489695E+00
 6.8729453E-01 1.2939536E+00 1.8510358E+00
 7.4515641E-01 1.2749438E+00 1.8518816E+00
 8.0288614E-01 1.2547784E+00 1.8512227E+00
 8.6020336E-01 1.2334388E+00 1.8487884E+00
 9.1680552E-01 1.2109361E+00 1.8443359E+00
 9.7237768E-01 1.1873118E+00 1.8376640E+00
 1.0266036E+00 1.1626366E+00 1.8286242E+00
 1.0791769E+00 1.1370088E+00 1.8171266E+00
 1.1298169E+00 1.1105527E+00 1.8031391E+00
 1.1782919E+00 1.0834198E+00 1.7866767E+00
 1.2244510E+00 1.0557925E+00 1.7677778E+00
 1.2682644E+00 1.0278918E+00 1.7464652E+00
 1.3098708E+00 9.9999999E-01 1.7226876E+00
 1.3497443E+00 9.7257156E-01 1.6961578E+00
 2.9489458E-01 1.3670711E+00 1.8409237E+00
 3.5091058E-01 1.3505861E+00 1.8458477E+00
 4.0713849E-01 1.3346166E+00 1.8503529E+00
 4.6369575E-01 1.3185502E+00 1.8545220E+00
 5.2065841E-01 1.3019742E+00 1.8582956E+00
 5.7800875E-01 1.2846335E+00 1.8615092E+00
 6.3566227E-01 1.2663662E+00 1.8639345E+00
 6.9346963E-01 1.2470760E+00 1.8653034E+00
 7.5122926E-01 1.2267085E+00 1.8653320E+00
 8.0869721E-01 1.2052413E+00 1.8637383E+00
 8.6559800E-01 1.1826799E+00 1.8602594E+00
 9.2163599E-01 1.1590567E+00 1.8546659E+00
 9.7650842E-01 1.1344294E+00 1.8467733E+00
 1.0299206E+00 1.1088795E+00 1.8364495E+00
 1.0816032E+00 1.0825116E+00 1.8236155E+00
 1.1313383E+00 1.0554566E+00 1.8082348E+00
 1.1789949E+00 1.0278805E+00 1.7902895E+00
 1.2245740E+00 9.9999999E-01 1.7697403E+00
 1.2682644E+00 9.7210816E-01 1.7464652E+00
 1.3104827E+00 9.4464782E-01 1.7201910E+00
 2.9597423E-01 1.3286425E+00 1.8566558E+00
 3.5302952E-01 1.3108259E+00 1.8612001E+00
 4.1016299E-01 1.2934904E+00 1.8653255E+00
 4.6745687E-01 1.2760499E+00 1.8690651E+00
 5.2496591E-01 1.2581012E+00 1.8723282E+00
 5.8268265E-01 1.2393863E+00 1.8749341E+00
 6.4052867E-01 1.2197557E+00 1.8766414E+00
 6.9836269E-01 1.1991298E+00 1.8771761E+00
 7.5598873E-01 1.1774752E+00 1.8762532E+00
 8.1316828E-01 1.1547907E+00 1.8735961E+00
 8.6963307E-01 1.1311009E+00 1.8689522E+00
 9.2509901E-01 1.1064534E+00 1.8621057E+00
 9.7928344E-01 1.0809164E+00 1.8528864E+00
 1.0319269E+00 1.0545792E+00 1.8411716E+00
 1.0828206E+00 1.0275564E+00 1.8268783E+00
 1.1318415E+00 9.9999999E-01 1.8099437E+00
 1.1789949E+00 9.7211952E-01 1.7902895E+00
 1.2244510E+00 9.4420746E-01 1.7677778E+00
 1.2685612E+00 9.1668140E-01 1.7421664E+00
 2.9684129E-01 1.2886279E+00 1.8709438E+00
 3.5473611E-01 1.2696512E+00 1.8749300E+00
 4.1260029E-01 1.2510636E+00 1.8785125E+00
 4.7048454E-01 1.2323288E+00 1.8816700E+00
 5.2842525E-01 1.2130673E+00 1.8842777E+00
 5.8640848E-01 1.1930416E+00 1.8861328E+00
 6.4435788E-01 1.1721214E+00 1.8869819E+00
 7.0213550E-01 1.1502477E+00 1.8865463E+00
 7.5955060E-01 1.1274070E+00 1.8845436E+00
 8.1637191E-01 1.1036154E+00 1.8807048E+00
 8.7234256E-01 1.0789117E+00 1.8747888E+00
 9.2719720E-01 1.0533530E+00 1.8665922E+00
 9.8068509E-01 1.0270157E+00 1.8559537E+00
 1.0326008E+00 9.9999999E-01 1.8427496E+00
 1.0828206E+00 9.7244362E-01 1.8268783E+00
 1.1313383E+00 9.4454340E-01 1.8082348E+00
 1.1782919E+00 9.1658023E-01 1.7866767E+00
 1.2239603E+00 8.8894029E-01 1.7619968E+00
 2.9757367E-01 1.2471048E+00 1.8836179E+00
 3.5616268E-01 1.2271086E+00 1.8868981E+00
 4.1461123E-01 1.2073843E+00 1.8897895E+00
 4.7294448E-01 1.1874509E+00 1.8922195E+00
 5.3118309E-01 1.1669661E+00 1.8940288E+00
 5.8930669E-01 1.1457229E+00 1.8949933E+00
 6.4723881E-01 1.1236168E+00 1.8948495E+00
 7.0484536E-01 1.1006104E+00 1.8933176E+00
 7.6194252E-01 1.0767073E+00 1.8901200E+00
 8.1831011E-01 1.0519367E+00 1.8849972E+00
 8.7370880E-01 1.0263462E+00 1.8777192E+00
 9.2790172E-01 9.9999999E-01 1.8680912E+00
 9.8068509E-01 9.7298430E-01 1.8559537E+00
 1.0319269E+00 9.4542083E-01 1.8411716E+00
 1.0816032E+00 9.1748836E-01 1.8236155E+00
 1.1298169E+00 8.8944726E-01 1.8031391E+00
 1.1767839E+00 8.6165216E-01 1.7795605E+00
 2.9820034E-01 1.2042142E+00 1.8945027E+00
 3.5735863E-01 1.1833227E+00 1.8969522E+00
 4.1625228E-01 1.1625795E+00 1.8990200E+00
 4.7488996E-01 1.1415570E+00 1.9005880E+00
 5.3328158E-01 1.1199588E+00 1.9014654E+00
 5.9140347E-01 1.0976147E+00 1.9014100E+00
 6.4918127E-01 1.0744482E+00 1.9001520E+00
 7.0648726E-01 1.0504422E+00 1.8974132E+00
 7.6314822E-01 1.0256137E+00 1.8929234E+00
 8.1896014E-01 9.9999999E-01 1.8864326E+00
 8.7370879E-01 9.7365375E-01 1.8777192E+00
 9.2719720E-01 9.4664696E-01 1.8665922E+00
 9.7928343E-01 9.1908358E-01 1.8528864E+00
 1.0299206E+00 8.9112053E-01 1.8364495E+00
 1.0791769E+00 8.6299116E-01 1.8171266E+00
 1.1272184E+00 8.3501761E-01 1.7947484E+00
 2.9872491E-01 1.1601394E+00 1.9034344E+00
 3.5832463E-01 1.1384771E+00 1.9049461E+00
 4.1752096E-01 1.1168374E+00 1.9060741E+00
 4.7631326E-01 1.0948481E+00 1.9066598E+00
 5.3470697E-01 1.0722627E+00 1.9064859E+00
 5.9267957E-01 1.0489508E+00 1.9052973E+00
 6.5016255E-01 1.0248633E+00 1.9028212E+00
 7.0703824E-01 9.9999999E-01 1.8987841E+00
 7.6314822E-01 9.7438626E-01 1.8929234E+00
 8.1831011E-01 9.4806324E-01 1.8849972E+00
 8.7234256E-01 9.2108831E-01 1.8747888E+00
 9.2509901E-01 8.9354656E-01 1.8621057E+00
 9.7650842E-01 8.6557062E-01 1.8467733E+00
 1.0266036E+00 8.3736337E-01 1.8286242E+00
 1.0755089E+00 8.0921212E-01 1.8074915E+00
 2.9913701E-01 1.1151017E+00 1.9102697E+00
 3.5904022E-01 1.0927986E+00 1.9107541E+00
 4.1839068E-01 1.0703929E+00 1.9108425E+00
 4.7718493E-01 1.0475702E+00 1.9103425E+00
 5.3542984E-01 1.0241363E+00 1.9090159E+00
 5.9310865E-01 9.9999998E-01 1.9065994E+00
 6.5016255E-01 9.7513664E-01 1.9028212E+00
 7.0648726E-01 9.4955776E-01 1.8974132E+00
 7.6194251E-01 9.2329268E-01 1.8901200E+00
 8.1637190E-01 8.9638454E-01 1.8807048E+00
 8.6963306E-01 8.6889904E-01 1.8689522E+00
 9.2163598E-01 8.4094328E-01 1.8546659E+00
 9.7237768E-01 8.1268818E-01 1.8376640E+00
 1.0219444E+00 7.8438453E-01 1.8177747E+00
 2.9942216E-01 1.0693527E+00 1.9148938E+00
 3.5948135E-01 1.0465458E+00 1.9142794E+00
 4.1883374E-01 1.0235134E+00 1.9132471E+00
 4.7747880E-01 9.9999997E-01 1.9115768E+00
 5.3542983E-01 9.7586363E-01 1.9090159E+00
 5.9267957E-01 9.5104919E-01 1.9052973E+00
 6.4918126E-01 9.2555176E-01 1.9001520E+00
 7.0484535E-01 8.9938956E-01 1.8933176E+00
 7.5955059E-01 8.7259298E-01 1.8845436E+00
 8.1316827E-01 8.4520932E-01 1.8735961E+00
 8.6559799E-01 8.1732007E-01 1.8602594E+00
 9.1680551E-01 7.8906388E-01 1.8443359E+00
 9.6683994E-01 7.6065452E-01 1.8256445E+00
 2.9956812E-01 1.0231667E+00 1.9172266E+00
 3.5963049E-01 9.9999997E-01 1.9154615E+00
 4.1883374E-01 9.7648655E-01 1.9132471E+00
 4.7718492E-01 9.5242979E-01 1.9103425E+00
 5.3470696E-01 9.2773722E-01 1.9064859E+00
 5.9140345E-01 9.0238527E-01 1.9014100E+00
 6.4723880E-01 8.7638314E-01 1.8948495E+00
 7.0213548E-01 8.4975223E-01 1.8865463E+00
 7.5598872E-01 8.2252478E-01 1.8762532E+00
 8.0869720E-01 7.9475872E-01 1.8637383E+00
 8.6020335E-01 7.6656120E-01 1.8487884E+00
 9.1052288E-01 7.3810978E-01 1.8312113E+00
 2.9956812E-01 9.7683326E-01 1.9172266E+00
 3.5948135E-01 9.5345415E-01 1.9142794E+00
 4.1839067E-01 9.2960702E-01 1.9108425E+00
 4.7631325E-01 9.0515188E-01 1.9066598E+00
 5.3328157E-01 8.8004112E-01 1.9014653E+00
 5.8930668E-01 8.5427704E-01 1.8949933E+00
 6.4435786E-01 8.2787862E-01 1.8869819E+00
 6.9836267E-01 8.0087016E-01 1.8771761E+00
 7.5122925E-01 7.7329150E-01 1.8653320E+00
 8.0288613E-01 7.4522162E-01 1.8512227E+00
 8.5332238E-01 7.1680373E-01 1.8346441E+00
 2.9942216E-01 9.3064725E-01 1.9148938E+00
 3.5904022E-01 9.0720134E-01 1.9107541E+00
 4.1752095E-01 8.8316250E-01 1.9060740E+00
 4.7488994E-01 8.5844295E-01 1.9005880E+00
 5.3118307E-01 8.3303383E-01 1.8940288E+00
 5.8640846E-01 8.0695837E-01 1.8861328E+00
 6.4052865E-01 7.8024426E-01 1.8766414E+00
 6.9346961E-01 7.5292397E-01 1.8653034E+00
 7.4515639E-01 7.2505617E-01 1.8518816E+00
 7.9556093E-01 6.9675445E-01 1.8361607E+00
 2.9913701E-01 8.8489822E-01 1.9102697E+00
 3.5832462E-01 8.6152281E-01 1.9049461E+00
 4.1625226E-01 8.3742049E-01 1.8990200E+00
 4.7294446E-01 8.1254905E-01 1.8922195E+00
 5.2842523E-01 7.8693267E-01 1.8842777E+00
 5.8268263E-01 7.6061366E-01 1.8749340E+00
 6.3566225E-01 7.3363377E-01 1.8639345E+00
 6.8729451E-01 7.0604637E-01 1.8510358E+00
 7.3754518E-01 6.7794580E-01 1.8360152E+00
 2.9872491E-01 8.3986060E-01 1.9034344E+00
 3.5735863E-01 8.1667730E-01 1.8969521E+00
 4.1461122E-01 7.9261566E-01 1.8897895E+00
 4.7048452E-01 7.6767118E-01 1.8816699E+00
 5.2496589E-01 7.4189876E-01 1.8723282E+00
 5.7800872E-01 7.1536649E-01 1.8615092E+00
 6.2954975E-01 6.8814547E-01 1.8489694E+00
 6.7955874E-01 6.6033060E-01 1.8344835E+00
 2.9820035E-01 7.9578583E-01 1.8945027E+00
 3.5616268E-01 7.7289133E-01 1.8868980E+00
 4.1260028E-01 7.4893641E-01 1.8785124E+00
 4.6745685E-01 7.2395010E-01 1.8690651E+00
 5.2065838E-01 6.9802574E-01 1.8582955E+00
 5.7213214E-01 6.7127810E-01 1.8459632E+00
 6.2185572E-01 6.4383500E-01 1.8318482E+00
 2.9757369E-01 7.5289515E-01 1.8836179E+00
 3.5473611E-01 7.3034882E-01 1.8749300E+00
 4.1016298E-01 7.0650958E-01 1.8653255E+00
 4.6369573E-01 6.8144984E-01 1.8545220E+00
 5.1520517E-01 6.5533391E-01 1.8422771E+00
 5.6465653E-01 6.2836191E-01 1.8283842E+00
 2.9684131E-01 7.1137215E-01 1.8709438E+00
 3.5302952E-01 6.8917410E-01 1.8612000E+00
 4.0713849E-01 6.6538340E-01 1.8503529E+00
 4.5887863E-01 6.4015509E-01 1.8381313E+00
 5.0814315E-01 6.1379156E-01 1.8243436E+00
 2.9597426E-01 6.7135752E-01 1.8566557E+00
 3.5091059E-01 6.4941388E-01 1.8458477E+00
 4.0318556E-01 6.2550227E-01 1.8336786E+00
 4.5246166E-01 5.9997603E-01 1.8199406E+00
 2.9489462E-01 6.3292894E-01 1.8409236E+00
 3.4811416E-01 6.1102964E-01 1.8289807E+00
 3.9771337E-01 5.8673528E-01 1.8153386E+00
 2.9344756E-01 5.9607722E-01 1.8238914E+00
 3.4394025E-01 5.7380007E-01 1.8106099E+00
 2.9131313E-01 5.6080349E-01 1.8057197E+00
 2.1008425E-01 1.5075646E+00 1.7684583E+00
 1.7773083E-01 1.5338429E+00 1.7523668E+00
 1.4385060E-01 1.5607630E+00 1.7347840E+00
 1.0868171E-01 1.5881302E+00 1.7157043E+00
 7.2446239E-02 1.6158312E+00 1.6950572E+00
 3.5449504E-02 1.6437442E+00 1.6727385E+00
 -1.9881724E-03 1.6717256E+00 1.6486232E+00
 -3.9513455E-02 1.6995775E+00 1.6225916E+00
 -7.6763560E-02 1.7270524E+00 1.5945386E+00
 -1.1339754E-01 1.7538603E+00 1.5643886E+00
 -1.4911846E-01 1.7796838E+00 1.5321092E+00
 -1.8368535E-01 1.8041963E+00 1.4977223E+00
 -2.1691348E-01 1.8270808E+00 1.4613112E+00
 -2.4866711E-01 1.8480486E+00 1.4230212E+00
 -2.7884893E-01 1.8668532E+00 1.3830548E+00
 -3.0738825E-01 1.8833028E+00 1.3416632E+00
 -3.3423070E-01 1.8972653E+00 1.2991357E+00
 -3.5933224E-01 1.9086703E+00 1.2557858E+00
 -3.8265733E-01 1.9175097E+00 1.2119376E+00
 -4.0418063E-01 1.9238306E+00 1.1679173E+00
 -4.2388697E-01 1.9277258E+00 1.1240774E+00
 -4.4179366E-01 1.9293202E+00 1.0807973E+00
 -4.5788507E-01 1.9287835E+00 1.0387484E+00
 -9.2660925E-01 1.0740493E+00 1.6274082E+00
 -9.3100985E-01 1.1221182E+00 1.6142197E+00
 -9.3367044E-01 1.1708849E+00 1.5989748E+00
 -9.3418735E-01 1.2204154E+00 1.5819010E+00
 -9.3229401E-01 1.2706261E+00 1.5630620E+00
 -9.2776760E-01 1.3213325E+00 1.5424938E+00
 -9.2042597E-01 1.3722729E+00 1.5202262E+00
 -9.1012939E-01 1.4231272E+00 1.4962959E+00
 -8.9678282E-01 1.4735285E+00 1.4707588E+00
 -8.8033892E-01 1.5230764E+00 1.4437000E+00
 -8.6080191E-01 1.5713492E+00 1.4152384E+00
 -8.3823189E-01 1.6179170E+00 1.3855297E+00
 -8.1274707E-01 1.6623567E+00 1.3547640E+00
 -7.8452442E-01 1.7042670E+00 1.3231630E+00
 -7.5379590E-01 1.7432835E+00 1.2909727E+00
 -7.2084320E-01 1.7790925E+00 1.2584578E+00
 -6.8598798E-01 1.8114447E+00 1.2258902E+00
 -6.4958266E-01 1.8401636E+00 1.1935375E+00
 -6.1199418E-01 1.8651556E+00 1.1616443E+00
 -5.7359369E-01 1.8864126E+00 1.1304043E+00
 -5.3474504E-01 1.9040104E+00 1.0998983E+00
 -4.9591280E-01 1.9180808E+00 1.0699456E+00
 -8.9708518E-01 1.1048049E+00 1.6588819E+00
 -8.9971728E-01 1.1554537E+00 1.6457566E+00
 -9.0069058E-01 1.2060384E+00 1.6303003E+00
 -8.9951612E-01 1.2568939E+00 1.6128360E+00
 -8.9587299E-01 1.3080575E+00 1.5934925E+00
 -8.8952113E-01 1.3594025E+00 1.5723332E+00
 -8.8028726E-01 1.4106850E+00 1.5493967E+00
 -8.6805782E-01 1.4615778E+00 1.5247228E+00
 -8.5277476E-01 1.5116976E+00 1.4983714E+00
 -8.3443351E-01 1.5606268E+00 1.4704362E+00
 -8.1308414E-01 1.6079313E+00 1.4410511E+00
 -7.8883263E-01 1.6531785E+00 1.4103909E+00
 -7.6184114E-01 1.6959544E+00 1.3786683E+00
 -7.3232385E-01 1.7358813E+00 1.3461273E+00
 -7.0054197E-01 1.7726327E+00 1.3130339E+00
 -6.6679308E-01 1.8059481E+00 1.2796616E+00
 -6.3140245E-01 1.8356431E+00 1.2462716E+00
 -5.9470674E-01 1.8616190E+00 1.2130811E+00
 -5.5703781E-01 1.8838684E+00 1.1802158E+00
 -5.1871903E-01 1.9024677E+00 1.1476380E+00
 -4.8009723E-01 1.9175651E+00 1.1149199E+00
 -8.6406379E-01 1.1354841E+00 1.6896383E+00
 -8.6499770E-01 1.1879065E+00 1.6762748E+00
 -8.6423837E-01 1.2399802E+00 1.6604496E+00
 -8.6130165E-01 1.2919753E+00 1.6424728E+00
 -8.5584031E-01 1.3439531E+00 1.6225015E+00
 -8.4761146E-01 1.3957957E+00 1.6006148E+00
 -8.3645975E-01 1.4472555E+00 1.5768585E+00
 -8.2230416E-01 1.4979928E+00 1.5512784E+00
 -8.0512705E-01 1.5476097E+00 1.5239452E+00
 -7.8496851E-01 1.5956769E+00 1.4949686E+00
 -7.6192408E-01 1.6417573E+00 1.4645036E+00
 -7.3614262E-01 1.6854272E+00 1.4327493E+00
 -7.0782306E-01 1.7262952E+00 1.3999430E+00
 -6.7720757E-01 1.7640217E+00 1.3663489E+00
 -6.4457261E-01 1.7983328E+00 1.3322423E+00
 -6.1021861E-01 1.8290350E+00 1.2978831E+00
 -5.7445953E-01 1.8560214E+00 1.2634796E+00
 -5.3760884E-01 1.8792793E+00 1.2291355E+00
 -4.9997673E-01 1.8988833E+00 1.1947752E+00
 -4.6189610E-01 1.9149763E+00 1.1600333E+00
 -8.2753641E-01 1.1662755E+00 1.7191202E+00
 -8.2679283E-01 1.2199358E+00 1.7052918E+00
 -8.2428149E-01 1.2730915E+00 1.6889234E+00
 -8.1953784E-01 1.3259267E+00 1.6702928E+00
 -8.1221931E-01 1.3784569E+00 1.6495571E+00
 -8.0209721E-01 1.4305401E+00 1.6268008E+00
 -7.8904516E-01 1.4819071E+00 1.6020766E+00
 -7.7302072E-01 1.5322005E+00 1.5754420E+00
 -7.5404986E-01 1.5810105E+00 1.5469849E+00
 -7.3221696E-01 1.6279045E+00 1.5168380E+00
 -7.0765914E-01 1.6724546E+00 1.4851824E+00
 -6.8056115E-01 1.7142595E+00 1.4522440E+00
 -6.5114774E-01 1.7529663E+00 1.4182824E+00
 -6.1967602E-01 1.7882876E+00 1.3835740E+00
 -5.8642483E-01 1.8200172E+00 1.3483832E+00