# TIME = 7.600000
variables = x, y, z
zone N=5762 E=11520 F=FEPOINT ET=TRIANGLE
 8.2229766E+00 1.4839066E+00 1.7828034E+00
 8.2229767E+00 1.4839064E+00 2.1719678E-01
 8.2229767E+00 5.1609361E-01 1.7828032E+00
 8.2229767E+00 5.1609347E-01 2.1719650E-01
 7.0378536E+00 1.0000000E+00 1.6040079E+00
 9.4328387E+00 1.0000000E+00 1.6158681E+00
 7.0378534E+00 1.0000000E+00 3.9599182E-01
 9.4328386E+00 1.0000000E+00 3.8413182E-01
 7.5157880E+00 1.9283202E+00 9.9999971E-01
 7.5157880E+00 7.1680008E-02 1.0000001E+00
 8.9155388E+00 1.8669336E+00 9.9999991E-01
 8.9155388E+00 1.3306642E-01 9.9999992E-01
 8.1777186E+00 1.4760822E+00 1.7900800E+00
 8.1275791E+00 1.4674281E+00 1.7982950E+00
 8.0746468E+00 1.4584322E+00 1.8071530E+00
 8.0193364E+00 1.4490521E+00 1.8166572E+00
 7.9620546E+00 1.4391738E+00 1.8267262E+00
 7.9034019E+00 1.4285976E+00 1.8371274E+00
 7.8440241E+00 1.4170488E+00 1.8474443E+00
 7.7844775E+00 1.4042020E+00 1.8570829E+00
 7.7251152E+00 1.3897198E+00 1.8653192E+00
 7.6660874E+00 1.3732966E+00 1.8713664E+00
 7.6074412E+00 1.3547010E+00 1.8744503E+00
 7.5492651E+00 1.3338117E+00 1.8738874E+00
 7.4918086E+00 1.3106447E+00 1.8691665E+00
 7.4355192E+00 1.2853629E+00 1.8600161E+00
 7.3809844E+00 1.2582615E+00 1.8464342E+00
 7.3288285E+00 1.2297319E+00 1.8286719E+00
 7.2796129E+00 1.2002155E+00 1.8071784E+00
 7.2337719E+00 1.1701586E+00 1.7825295E+00
 7.1915862E+00 1.1399798E+00 1.7553557E+00
 7.1531826E+00 1.1100505E+00 1.7262829E+00
 7.1185712E+00 1.0806988E+00 1.6959098E+00
 7.0876776E+00 1.0522042E+00 1.6647888E+00
 7.0604599E+00 1.0248863E+00 1.6335410E+00
 8.1725016E+00 5.5764557E-01 1.8097433E+00
 8.1204915E+00 5.6837219E-01 1.8186651E+00
 8.0662514E+00 5.7897292E-01 1.8278964E+00
 8.0099990E+00 5.8982576E-01 1.8376118E+00
 7.9520829E+00 6.0124028E-01 1.8477982E+00
 7.8930736E+00 6.1348256E-01 1.8582082E+00
 7.8335997E+00 6.2683751E-01 1.8683808E+00
 7.7741690E+00 6.4159846E-01 1.8776749E+00
 7.7150811E+00 6.5804325E-01 1.8853331E+00
 7.6564481E+00 6.7639943E-01 1.8905566E+00
 7.5983067E+00 6.9681262E-01 1.8925836E+00
 7.5407610E+00 7.1931821E-01 1.8907676E+00
 7.4840848E+00 7.4382419E-01 1.8846558E+00
 7.4287391E+00 7.7011133E-01 1.8740475E+00
 7.3753030E+00 7.9785541E-01 1.8590124E+00
 7.3243716E+00 8.2666582E-01 1.8398636E+00
 7.2764625E+00 8.5612802E-01 1.8170946E+00
 7.2319551E+00 8.8583933E-01 1.7913010E+00
 7.1910629E+00 9.1542639E-01 1.7631009E+00
 7.1538163E+00 9.4454545E-01 1.7330496E+00
 7.1200484E+00 9.7287186E-01 1.7015503E+00
 7.0893804E+00 1.0000000E+00 1.6687613E+00
 8.1704286E+00 5.9249780E-01 1.8279565E+00
 8.1163190E+00 6.0525001E-01 1.8373509E+00
 8.0606247E+00 6.1751227E-01 1.8468107E+00
 8.0032583E+00 6.2997358E-01 1.8566511E+00
 7.9445625E+00 6.4304412E-01 1.8668582E+00
 7.8850690E+00 6.5705048E-01 1.8771650E+00
 7.8253661E+00 6.7227270E-01 1.8870665E+00
 7.7659127E+00 6.8896713E-01 1.8958804E+00
 7.7069599E+00 7.0735070E-01 1.9028224E+00
 7.6485879E+00 7.2757733E-01 1.9070884E+00
 7.5908277E+00 7.4971376E-01 1.9079340E+00
 7.5337985E+00 7.7372009E-01 1.9047536E+00
 7.4777942E+00 7.9944053E-01 1.8971550E+00
 7.4232828E+00 8.2661325E-01 1.8850067E+00
 7.3708286E+00 8.5489883E-01 1.8684453E+00
 7.3209900E+00 8.8392011E-01 1.8478366E+00
 7.2742257E+00 9.1329777E-01 1.8236992E+00
 7.2308241E+00 9.4267103E-01 1.7966062E+00
 7.1908514E+00 9.7169293E-01 1.7670695E+00
 7.1541105E+00 1.0000000E+00 1.7354105E+00
 7.1200484E+00 1.0271282E+00 1.7015503E+00
 8.1690117E+00 6.2904387E-01 1.8450655E+00
 8.1135150E+00 6.4347009E-01 1.8545211E+00
 8.0565475E+00 6.5740098E-01 1.8640300E+00
 7.9981747E+00 6.7152220E-01 1.8738410E+00
 7.9387190E+00 6.8632383E-01 1.8839284E+00
 7.8787235E+00 7.0214551E-01 1.8939813E+00
 7.8187505E+00 7.1925322E-01 1.9034520E+00
 7.7592210E+00 7.3785982E-01 1.9116216E+00
 7.7003486E+00 7.5812225E-01 1.9176871E+00
 7.6421898E+00 7.8012484E-01 1.9208465E+00
 7.5847740E+00 8.0386266E-01 1.9203806E+00
 7.5282340E+00 8.2922971E-01 1.9157308E+00
 7.4728775E+00 8.5601880E-01 1.9065667E+00
 7.4191697E+00 8.8393978E-01 1.8928236E+00
 7.3676473E+00 9.1265192E-01 1.8746955E+00
 7.3188122E+00 9.4179973E-01 1.8525802E+00
 7.2730279E+00 9.7103318E-01 1.8269810E+00
 7.2304293E+00 1.0000000E+00 1.7983772E+00
 7.1908514E+00 1.0283071E+00 1.7670695E+00
 7.1538163E+00 1.0554546E+00 1.7330496E+00
 8.1679100E+00 6.6732854E-01 1.8609435E+00
 8.1113175E+00 6.8327868E-01 1.8702230E+00
 8.0533284E+00 6.9880622E-01 1.8795704E+00
 7.9940841E+00 7.1460012E-01 1.8891804E+00
 7.9339678E+00 7.3114952E-01 1.8989733E+00
 7.8735342E+00 7.4878897E-01 1.9085922E+00
 7.8133376E+00 7.6775267E-01 1.9174463E+00
 7.7537704E+00 7.8820624E-01 1.9247884E+00
 7.6950170E+00 8.1024660E-01 1.9298064E+00
 7.6371174E+00 8.3389248E-01 1.9317108E+00
 7.5801006E+00 8.5907420E-01 1.9298168E+00
 7.5241089E+00 8.8563043E-01 1.9236181E+00
 7.4694527E+00 9.1331663E-01 1.9128465E+00
 7.4165793E+00 9.4182917E-01 1.8974961E+00
 7.3659759E+00 9.7083641E-01 1.8777993E+00
 7.3180537E+00 1.0000000E+00 1.8541507E+00
 7.2730279E+00 1.0289668E+00 1.8269810E+00
 7.2308241E+00 1.0573290E+00 1.7966062E+00
 7.1910629E+00 1.0845737E+00 1.7631009E+00
 8.1669640E+00 7.0738317E-01 1.8754450E+00
 8.1094479E+00 7.2473422E-01 1.8843515E+00
 8.0506057E+00 7.4180027E-01 1.8933519E+00
 7.9906466E+00 7.5923697E-01 1.9025751E+00
 7.9300036E+00 7.7751024E-01 1.9118838E+00
 7.8692544E+00 7.9692328E-01 1.9208723E+00
 7.8089456E+00 8.1766980E-01 1.9289134E+00
 7.7494475E+00 8.3986306E-01 1.9352419E+00
 7.6909207E+00 8.6354122E-01 1.9390484E+00
 7.6333922E+00 8.8866228E-01 1.9395675E+00
 7.5768893E+00 9.1510136E-01 1.9361573E+00
 7.5215547E+00 9.4265484E-01 1.9283670E+00
 7.4676866E+00 9.7105605E-01 1.9159854E+00
 7.4156920E+00 1.0000000E+00 1.8990493E+00
 7.3659759E+00 1.0291636E+00 1.8777993E+00
 7.3188123E+00 1.0582003E+00 1.8525802E+00
 7.2742257E+00 1.0867023E+00 1.8236992E+00
 7.2319551E+00 1.1141607E+00 1.7913010E+00
 8.1661165E+00 7.4913186E-01 1.8883794E+00
 8.1078081E+00 7.6778855E-01 1.8967440E+00
 8.0482643E+00 7.8632775E-01 1.9052209E+00
 7.9877515E+00 8.0535396E-01 1.9138710E+00
 7.9267431E+00 8.2528950E-01 1.9225005E+00
 7.8658337E+00 8.4639307E-01 1.9306599E+00
 7.8055623E+00 8.6880942E-01 1.9376958E+00
 7.7462777E+00 8.9259821E-01 1.9428371E+00
 7.6881199E+00 9.1774175E-01 1.9452898E+00
 7.6311035E+00 9.4414564E-01 1.9443229E+00
 7.5752492E+00 9.7164201E-01 1.9393429E+00
 7.5206884E+00 1.0000000E+00 1.9299526E+00
 7.4676866E+00 1.0289439E+00 1.9159854E+00
 7.4165793E+00 1.0581708E+00 1.8974961E+00
 7.3676473E+00 1.0873481E+00 1.8746955E+00
 7.3209900E+00 1.1160799E+00 1.8478366E+00
 7.2764626E+00 1.1438720E+00 1.8170946E+00
 8.1653673E+00 7.9242370E-01 1.8995429E+00
 8.1063952E+00 8.1230079E-01 1.9072137E+00
 8.0463075E+00 8.3223539E-01 1.9149975E+00
 7.9854128E+00 8.5277251E-01 1.9228915E+00
 7.9242153E+00 8.7427615E-01 1.9306508E+00
 7.8633182E+00 8.9695117E-01 1.9377915E+00
 7.8032488E+00 9.2088994E-01 1.9436458E+00
 7.7443342E+00 9.4610010E-01 1.9474498E+00
 7.6866946E+00 9.7251528E-01 1.9484361E+00
 7.6303305E+00 1.0000000E+00 1.9459153E+00
 7.5752492E+00 1.0283580E+00 1.9393429E+00
 7.5215547E+00 1.0573452E+00 1.9283671E+00
 7.4694527E+00 1.0866834E+00 1.9128466E+00
 7.4191697E+00 1.1160602E+00 1.8928237E+00
 7.3708286E+00 1.1451012E+00 1.8684454E+00
 7.3243716E+00 1.1733342E+00 1.8398636E+00
 8.1647342E+00 8.3705840E-01 1.9087421E+00
 8.1052432E+00 8.5805994E-01 1.9155776E+00
 8.0447804E+00 8.7929443E-01 1.9225072E+00
 7.9836859E+00 9.0123632E-01 1.9294707E+00
 7.9224832E+00 9.2418191E-01 1.9361806E+00
 7.8617750E+00 9.4827720E-01 1.9421304E+00
 7.8020721E+00 9.7356265E-01 1.9466510E+00
 7.7436787E+00 1.0000001E+00 1.9489971E+00
 7.6866946E+00 1.0274848E+00 1.9484361E+00
 7.6311035E+00 1.0558544E+00 1.9443230E+00
 7.5768893E+00 1.0848987E+00 1.9361574E+00
 7.5241090E+00 1.1143696E+00 1.9236181E+00
 7.4728775E+00 1.1439812E+00 1.9065668E+00
 7.4232828E+00 1.1733868E+00 1.8850068E+00
 7.3753030E+00 1.2021446E+00 1.8590125E+00
 8.1642386E+00 8.8279111E-01 1.9158063E+00
 8.1043900E+00 9.0480338E-01 1.9216766E+00
 8.0437317E+00 9.2721842E-01 1.9276028E+00
 7.9826253E+00 9.5043049E-01 1.9334755E+00
 7.9216019E+00 9.7466223E-01 1.9389757E+00
 7.8612546E+00 1.0000001E+00 1.9435872E+00
 7.8020721E+00 1.0264375E+00 1.9466510E+00
 7.7443342E+00 1.0539000E+00 1.9474499E+00
 7.6881199E+00 1.0822583E+00 1.9452899E+00
 7.6333922E+00 1.1113378E+00 1.9395676E+00
 7.5801007E+00 1.1409259E+00 1.9298169E+00
 7.5282340E+00 1.1707703E+00 1.9157309E+00
 7.4777943E+00 1.2005595E+00 1.8971552E+00
 7.4287392E+00 1.2298887E+00 1.8740476E+00
 8.1638982E+00 9.2933915E-01 1.9205974E+00
 8.1038658E+00 9.5222766E-01 1.9253878E+00
 8.0431980E+00 9.7567890E-01 1.9301783E+00
 7.9822676E+00 1.0000001E+00 1.9348202E+00
 7.9216019E+00 1.0253379E+00 1.9389758E+00
 7.8617750E+00 1.0517230E+00 1.9421305E+00
 7.8032488E+00 1.0791102E+00 1.9436459E+00
 7.7462777E+00 1.1074019E+00 1.9428372E+00
 7.6909207E+00 1.1364589E+00 1.9390485E+00
 7.6371174E+00 1.1661076E+00 1.9317110E+00
 7.5847741E+00 1.1961374E+00 1.9203808E+00
 7.5337986E+00 1.2262800E+00 1.9047538E+00
 7.4840849E+00 1.2561759E+00 1.8846559E+00
 8.1637250E+00 9.7638978E-01 1.9230181E+00
 8.1036889E+00 1.0000000E+00 1.9266337E+00
 8.0431980E+00 1.0243212E+00 1.9301783E+00
 7.9826253E+00 1.0495697E+00 1.9334755E+00
 7.9224832E+00 1.0758183E+00 1.9361807E+00
 7.8633181E+00 1.1030490E+00 1.9377916E+00
 7.8055623E+00 1.1311907E+00 1.9376959E+00
 7.7494475E+00 1.1601371E+00 1.9352420E+00
 7.6950170E+00 1.1897535E+00 1.9298066E+00
 7.6421899E+00 1.2198753E+00 1.9208467E+00
 7.5908278E+00 1.2502863E+00 1.9079341E+00
 7.5407611E+00 1.2806819E+00 1.8907677E+00
 8.1637250E+00 1.0236103E+00 1.9230181E+00
 8.1038658E+00 1.0477724E+00 1.9253878E+00
 8.0437317E+00 1.0727817E+00 1.9276029E+00
 7.9836859E+00 1.0987638E+00 1.9294708E+00
 7.9242153E+00 1.1257240E+00 1.9306509E+00
 7.8658337E+00 1.1536071E+00 1.9306600E+00
 7.8089456E+00 1.1823304E+00 1.9289136E+00
 7.7537704E+00 1.2117939E+00 1.9247886E+00
 7.7003487E+00 1.2418779E+00 1.9176873E+00
 7.6485880E+00 1.2724228E+00 1.9070886E+00
 7.5983068E+00 1.3031875E+00 1.8925838E+00
 8.1638982E+00 1.0706609E+00 1.9205974E+00
 8.1043900E+00 1.0951967E+00 1.9216767E+00
 8.0447803E+00 1.1207057E+00 1.9225073E+00
 7.9854128E+00 1.1472277E+00 1.9228916E+00
 7.9267431E+00 1.1747107E+00 1.9225006E+00
 7.8692543E+00 1.2030769E+00 1.9208724E+00
 7.8133376E+00 1.2322475E+00 1.9174465E+00
 7.7592211E+00 1.2621404E+00 1.9116218E+00
 7.7069600E+00 1.2926495E+00 1.9028227E+00
 7.6564482E+00 1.3236007E+00 1.8905568E+00
 8.1642385E+00 1.1172090E+00 1.9158064E+00
 8.1052431E+00 1.1419402E+00 1.9155777E+00
 8.0463074E+00 1.1677648E+00 1.9149976E+00
 7.9877514E+00 1.1946462E+00 1.9138711E+00
 7.9300035E+00 1.2224900E+00 1.9118840E+00
 7.8735342E+00 1.2512112E+00 1.9085924E+00
 7.8187505E+00 1.2807470E+00 1.9034522E+00
 7.7659128E+00 1.3110331E+00 1.8958806E+00
 7.7150812E+00 1.3419569E+00 1.8853333E+00
 8.1647341E+00 1.1629417E+00 1.9087422E+00
 8.1063951E+00 1.1876993E+00 1.9072138E+00
 8.0482642E+00 1.2136724E+00 1.9052211E+00
 7.9906464E+00 1.2407632E+00 1.9025752E+00
 7.9339677E+00 1.2688507E+00 1.8989734E+00
 7.8787235E+00 1.2978547E+00 1.8939815E+00
 7.8253661E+00 1.3277275E+00 1.8870667E+00
 7.7741691E+00 1.3584018E+00 1.8776752E+00
 8.1653672E+00 1.2075764E+00 1.8995430E+00
 8.1078080E+00 1.2322116E+00 1.8967442E+00
 8.0506055E+00 1.2581999E+00 1.8933521E+00
 7.9940839E+00 1.2854001E+00 1.8891806E+00
 7.9387189E+00 1.3136764E+00 1.8839286E+00
 7.8850689E+00 1.3429498E+00 1.8771652E+00
 7.8335997E+00 1.3731627E+00 1.8683810E+00
 8.1661165E+00 1.2508683E+00 1.8883796E+00
 8.1094478E+00 1.2752660E+00 1.8843516E+00
 8.0533282E+00 1.3011940E+00 1.8795706E+00
 7.9981745E+00 1.3284780E+00 1.8738412E+00
 7.9445623E+00 1.3569561E+00 1.8668584E+00
 7.8930736E+00 1.3865177E+00 1.8582085E+00
 8.1669640E+00 1.2926170E+00 1.8754451E+00
 8.1113174E+00 1.3167215E+00 1.8702231E+00
 8.0565473E+00 1.3425992E+00 1.8640302E+00
 8.0032581E+00 1.3700267E+00 1.8566514E+00
 7.9520827E+00 1.3987600E+00 1.8477985E+00
 8.1679099E+00 1.3326716E+00 1.8609436E+00
 8.1135148E+00 1.3565301E+00 1.8545213E+00
 8.0606245E+00 1.3824880E+00 1.8468109E+00
 8.0099988E+00 1.4101745E+00 1.8376120E+00
 8.1690116E+00 1.3709563E+00 1.8450657E+00
 8.1163189E+00 1.3947502E+00 1.8373511E+00
 8.0662512E+00 1.4210273E+00 1.8278967E+00
 8.1704285E+00 1.4075024E+00 1.8279567E+00
 8.1204913E+00 1.4316280E+00 1.8186654E+00
 8.1725015E+00 1.4423547E+00 1.8097435E+00
 8.2230222E+00 1.4548434E+00 1.8000670E+00
 8.2230782E+00 1.4218593E+00 1.8179756E+00
 8.2230997E+00 1.3868741E+00 1.8351253E+00
 8.2231022E+00 1.3498865E+00 1.8513128E+00
 8.2230967E+00 1.3109936E+00 1.8663062E+00
 8.2230900E+00 1.2703275E+00 1.8798714E+00
 8.2230850E+00 1.2280306E+00 1.8917941E+00
 8.2230823E+00 1.1842914E+00 1.9018710E+00
 8.2230814E+00 1.1393394E+00 1.9099194E+00
 8.2230816E+00 1.0934390E+00 1.9157859E+00
 8.2230820E+00 1.0468859E+00 1.9193545E+00
 8.2230822E+00 1.0000000E+00 1.9205522E+00
 8.2230820E+00 9.5311411E-01 1.9193544E+00
 8.2230816E+00 9.0656104E-01 1.9157859E+00
 8.2230814E+00 8.6066061E-01 1.9099193E+00
 8.2230823E+00 8.1570865E-01 1.9018710E+00
 8.2230850E+00 7.7196953E-01 1.8917940E+00
 8.2230901E+00 7.2967262E-01 1.8798713E+00
 8.2230967E+00 6.8900660E-01 1.8663060E+00
 8.2231023E+00 6.5011367E-01 1.8513126E+00
 8.2230998E+00 6.1312612E-01 1.8351251E+00
 8.2230782E+00 5.7814089E-01 1.8179754E+00
 8.2230223E+00 5.4515685E-01 1.8000668E+00
 8.2679979E+00 5.2591357E-01 1.7867532E+00
 8.3172013E+00 5.3673611E-01 1.7911554E+00
 8.3684276E+00 5.4803605E-01 1.7957336E+00
 8.4213232E+00 5.5988484E-01 1.8003942E+00
 8.4757404E+00 5.7237969E-01 1.8049970E+00
 8.5314984E+00 5.8563822E-01 1.8093631E+00
 8.5884177E+00 5.9978912E-01 1.8132751E+00
 8.6462812E+00 6.1496244E-01 1.8164808E+00
 8.7048336E+00 6.3128249E-01 1.8187012E+00
 8.7637794E+00 6.4885747E-01 1.8196413E+00
 8.8227858E+00 6.6776945E-01 1.8190042E+00
 8.8814891E+00 6.8806525E-01 1.8165082E+00
 8.9395039E+00 7.0974915E-01 1.8119049E+00
 8.9964340E+00 7.3277895E-01 1.8049960E+00
 9.0518847E+00 7.5706514E-01 1.7956475E+00
 9.1054765E+00 7.8247487E-01 1.7837980E+00
 9.1568580E+00 8.0883745E-01 1.7694627E+00
 9.2057176E+00 8.3595354E-01 1.7527305E+00
 9.2517899E+00 8.6360546E-01 1.7337593E+00
 9.2948644E+00 8.9156769E-01 1.7127639E+00
 9.3347721E+00 9.1959975E-01 1.6900158E+00
 9.3713897E+00 9.4744834E-01 1.6658241E+00
 9.4045314E+00 9.7473680E-01 1.6406221E+00
 8.2732170E+00 1.4402998E+00 1.8059342E+00
 8.3241048E+00 1.4275049E+00 1.8107812E+00
 8.3764324E+00 1.4147219E+00 1.8154859E+00
 8.4300924E+00 1.4015615E+00 1.8201041E+00
 8.4850445E+00 1.3877545E+00 1.8245689E+00
 8.5411712E+00 1.3731329E+00 1.8287110E+00
 8.5983014E+00 1.3575630E+00 1.8323038E+00
 8.6562213E+00 1.3409323E+00 1.8350803E+00
 8.7146706E+00 1.3231442E+00 1.8367490E+00
 8.7733460E+00 1.3041237E+00 1.8370081E+00
 8.8319080E+00 1.2838250E+00 1.8355623E+00
 8.8899904E+00 1.2622385E+00 1.8321393E+00
 8.9472105E+00 1.2393957E+00 1.8265084E+00
 9.0031808E+00 1.2153705E+00 1.8184958E+00
 9.0575219E+00 1.1902756E+00 1.8079969E+00
 9.1098746E+00 1.1642568E+00 1.7949828E+00
 9.1599131E+00 1.1374859E+00 1.7794995E+00
 9.2073633E+00 1.1101541E+00 1.7616583E+00
 9.2520191E+00 1.0824721E+00 1.7416191E+00
 9.2937789E+00 1.0546765E+00 1.7195517E+00
 9.3327036E+00 1.0270412E+00 1.6955704E+00
 9.3690930E+00 1.0000000E+00 1.6696382E+00
 8.2753165E+00 1.4055493E+00 1.8238936E+00
 8.3281432E+00 1.3908308E+00 1.8289498E+00
 8.3817323E+00 1.3765298E+00 1.8336373E+00
 8.4363418E+00 1.3619514E+00 1.8381274E+00
 8.4919850E+00 1.3467442E+00 1.8423645E+00
 8.5486073E+00 1.3306910E+00 1.8461834E+00
 8.6060666E+00 1.3136583E+00 1.8493450E+00
 8.6641564E+00 1.2955502E+00 1.8515695E+00
 8.7226135E+00 1.2762965E+00 1.8525557E+00
 8.7811283E+00 1.2558534E+00 1.8519985E+00
 8.8393556E+00 1.2342087E+00 1.8496070E+00
 8.8969267E+00 1.2113868E+00 1.8451213E+00
 8.9534628E+00 1.1874500E+00 1.8383306E+00
 9.0085868E+00 1.1624966E+00 1.8290870E+00
 9.0619387E+00 1.1366536E+00 1.8173146E+00
 9.1131873E+00 1.1100692E+00 1.8030114E+00
 9.1620546E+00 1.0829069E+00 1.7862394E+00
 9.2083519E+00 1.0553493E+00 1.7670962E+00
 9.2520388E+00 1.0276164E+00 1.7456627E+00
 9.2932984E+00 1.0000000E+00 1.7219198E+00
 9.3327036E+00 9.7295890E-01 1.6955704E+00
 8.2767241E+00 1.3691330E+00 1.8408090E+00
 8.3308176E+00 1.3528937E+00 1.8457207E+00
 8.3855241E+00 1.3371058E+00 1.8502333E+00
 8.4410052E+00 1.3210989E+00 1.8544620E+00
 8.4973363E+00 1.3044548E+00 1.8583509E+00
 8.5544742E+00 1.2869479E+00 1.8617189E+00
 8.6122908E+00 1.2684492E+00 1.8643140E+00
 8.6705797E+00 1.2488822E+00 1.8658447E+00
 8.7290723E+00 1.2282028E+00 1.8660037E+00
 8.7874519E+00 1.2063972E+00 1.8644866E+00
 8.8453687E+00 1.1834846E+00 1.8610102E+00
 8.9024541E+00 1.1595186E+00 1.8553310E+00
 8.9583354E+00 1.1345859E+00 1.8472604E+00
 9.0126521E+00 1.1088002E+00 1.8366761E+00
 9.0650726E+00 1.0822932E+00 1.8235267E+00
 9.1153160E+00 1.0552086E+00 1.8078235E+00
 9.1631968E+00 1.0277085E+00 1.7896128E+00
 9.2086926E+00 1.0000000E+00 1.7689207E+00
 9.2520388E+00 9.7238370E-01 1.7456627E+00
 9.2937789E+00 9.4532357E-01 1.7195517E+00
 8.2777915E+00 1.3310006E+00 1.8565232E+00
 8.3328873E+00 1.3134176E+00 1.8610815E+00
 8.3884938E+00 1.2962510E+00 1.8652369E+00
 8.4447386E+00 1.2788399E+00 1.8690571E+00
 8.5016764E+00 1.2607765E+00 1.8724524E+00
 8.5592695E+00 1.2418388E+00 1.8752223E+00
 8.6173861E+00 1.2219155E+00 1.8770998E+00
 8.6758148E+00 1.2009520E+00 1.8777852E+00
 8.7342801E+00 1.1789310E+00 1.8769689E+00
 8.7924596E+00 1.1558671E+00 1.8743517E+00
 8.8500020E+00 1.1318074E+00 1.8696632E+00
 8.9065434E+00 1.1068287E+00 1.8626791E+00
 8.9617241E+00 1.0810336E+00 1.8532345E+00
 9.0152102E+00 1.0545411E+00 1.8412296E+00
 9.0667187E+00 1.0274812E+00 1.8266259E+00
 9.1160574E+00 1.0000000E+00 1.8094239E+00
 9.1631968E+00 9.7229162E-01 1.7896128E+00
 9.2083519E+00 9.4465076E-01 1.7670962E+00
 9.2520191E+00 9.1752796E-01 1.7416191E+00
 8.2786965E+00 1.2911177E+00 1.8708776E+00
 8.3346396E+00 1.2723368E+00 1.8749056E+00
 8.3910008E+00 1.2538777E+00 1.8785422E+00
 8.4478753E+00 1.2351233E+00 1.8817979E+00
 8.5053016E+00 1.2156923E+00 1.8845459E+00
 8.5632319E+00 1.1953881E+00 1.8865623E+00
 8.6215282E+00 1.1741221E+00 1.8875681E+00
 8.6799720E+00 1.1518653E+00 1.8872588E+00
 8.7382822E+00 1.1286267E+00 1.8853280E+00
 8.7961348E+00 1.1044469E+00 1.8814866E+00
 8.8531824E+00 1.0793947E+00 1.8754813E+00
 8.9090730E+00 1.0535626E+00 1.8671089E+00
 8.9634707E+00 1.0270586E+00 1.8562259E+00
 9.0160863E+00 1.0000000E+00 1.8427463E+00
 9.0667187E+00 9.7251893E-01 1.8266259E+00
 9.1153160E+00 9.4479145E-01 1.8078235E+00
 9.1620546E+00 9.1709323E-01 1.7862394E+00
 9.2073633E+00 8.8984595E-01 1.7616583E+00
 8.2795065E+00 1.2495595E+00 1.8836778E+00
 8.3361779E+00 1.2296965E+00 1.8870253E+00
 8.3931596E+00 1.2100343E+00 1.8899922E+00
 8.4505222E+00 1.1900144E+00 1.8925313E+00
 8.5082900E+00 1.1692989E+00 1.8944784E+00
 8.5664060E+00 1.1477250E+00 1.8955895E+00
 8.6247251E+00 1.1252328E+00 1.8955769E+00
 8.6830239E+00 1.1018192E+00 1.8941368E+00
 8.7410196E+00 1.0775177E+00 1.8909710E+00
 8.7983923E+00 1.0523895E+00 1.8858053E+00
 8.8548059E+00 1.0265179E+00 1.8784056E+00
 8.9099305E+00 1.0000000E+00 1.8685889E+00
 8.9634707E+00 9.7294151E-01 1.8562259E+00
 9.0152102E+00 9.4545898E-01 1.8412296E+00
 9.0650726E+00 9.1770689E-01 1.8235267E+00
 9.1131873E+00 8.8993089E-01 1.8030115E+00
 9.1599131E+00 8.6251413E-01 1.7794995E+00
 8.2802257E+00 1.2064759E+00 1.8947215E+00
 8.3375067E+00 1.1856350E+00 1.8972576E+00
 8.3949678E+00 1.1648675E+00 1.8994147E+00
 8.4526647E+00 1.1436800E+00 1.9010926E+00
 8.5106113E+00 1.1217889E+00 1.9020941E+00
 8.5687443E+00 1.0990710E+00 1.9021595E+00
 8.6269141E+00 1.0754968E+00 1.9009978E+00
 8.6848966E+00 1.0510880E+00 1.8983115E+00
 8.7424131E+00 1.0258977E+00 1.8938150E+00
 8.7991547E+00 1.0000000E+00 1.8872515E+00
 8.8548059E+00 9.7348223E-01 1.8784056E+00
 8.9090730E+00 9.4643744E-01 1.8671089E+00
 8.9617241E+00 9.1896653E-01 1.8532345E+00
 9.0126521E+00 8.9119983E-01 1.8366761E+00
 9.0619387E+00 8.6334648E-01 1.8173146E+00
 9.1098746E+00 8.3574327E-01 1.7949829E+00
 8.2808365E+00 1.1620659E+00 1.9038190E+00
 8.3385929E+00 1.1403595E+00 1.9054268E+00
 8.3963813E+00 1.1185981E+00 1.9066463E+00
 8.4542488E+00 1.0963622E+00 1.9073307E+00
 8.5122039E+00 1.0734285E+00 1.9072562E+00
 8.5701801E+00 1.0497166E+00 1.9061534E+00
 8.6280282E+00 1.0252265E+00 1.9037342E+00
 8.6855285E+00 1.0000000E+00 1.8997114E+00
 8.7424131E+00 9.7410242E-01 1.8938150E+00
 8.7983923E+00 9.4761054E-01 1.8858053E+00
 8.8531824E+00 9.2060534E-01 1.8754813E+00
 8.9065434E+00 8.9317136E-01 1.8626791E+00
 8.9583354E+00 8.6541418E-01 1.8472604E+00
 9.0085868E+00 8.3750347E-01 1.8290870E+00
 9.0575219E+00 8.0972452E-01 1.8079969E+00
 8.2813168E+00 1.1165722E+00 1.9108032E+00
 8.3393990E+00 1.0941268E+00 1.9113809E+00
 8.3973529E+00 1.0715013E+00 1.9115501E+00
 8.4552225E+00 1.0483575E+00 1.9111253E+00
 8.5130146E+00 1.0245364E+00 1.9098638E+00
 8.5706645E+00 1.0000000E+00 1.9074937E+00
 8.6280282E+00 9.7477360E-01 1.9037342E+00
 8.6848966E+00 9.4891208E-01 1.8983115E+00
 8.7410196E+00 9.2248236E-01 1.8909710E+00
 8.7961348E+00 8.9555322E-01 1.8814866E+00
 8.8500020E+00 8.6819273E-01 1.8696632E+00
 8.9024541E+00 8.4048151E-01 1.8553310E+00
 8.9534628E+00 8.1255010E-01 1.8383307E+00
 9.0031808E+00 7.8462960E-01 1.8184958E+00
 8.2816477E+00 1.0702742E+00 1.9155391E+00
 8.3398948E+00 1.0472325E+00 1.9150027E+00
 8.3978477E+00 1.0238917E+00 1.9140276E+00
 8.4555510E+00 1.0000000E+00 1.9123990E+00
 8.5130146E+00 9.7546359E-01 1.9098638E+00
 8.5701801E+00 9.5028346E-01 1.9061534E+00
 8.6269141E+00 9.2450331E-01 1.9009978E+00
 8.6830239E+00 8.9818083E-01 1.8941368E+00
 8.7382822E+00 8.7137338E-01 1.8853280E+00
 8.7924596E+00 8.4413294E-01 1.8743517E+00
 8.8453687E+00 8.1651550E-01 1.8610102E+00
 8.8969267E+00 7.8861333E-01 1.8451213E+00
 8.9472105E+00 7.6060440E-01 1.8265084E+00
 8.2818163E+00 1.0234806E+00 1.9179317E+00
 8.3400622E+00 1.0000000E+00 1.9162184E+00
 8.3978477E+00 9.7610831E-01 1.9140276E+00
 8.4552225E+00 9.5164249E-01 1.9111252E+00
 8.5122039E+00 9.2657157E-01 1.9072562E+00
 8.5687442E+00 9.0092910E-01 1.9021594E+00
 8.6247251E+00 8.7476726E-01 1.8955769E+00
 8.6799720E+00 8.4813478E-01 1.8872588E+00
 8.7342800E+00 8.2106913E-01 1.8769689E+00
 8.7874519E+00 7.9360284E-01 1.8644866E+00
 8.8393556E+00 7.6579137E-01 1.8496070E+00
 8.8899904E+00 7.3776161E-01 1.8321393E+00
 8.2818163E+00 9.7651944E-01 1.9179317E+00
 8.3398948E+00 9.5276754E-01 1.9150027E+00
 8.3973529E+00 9.2849871E-01 1.9115501E+00
 8.4542488E+00 9.0363788E-01 1.9073307E+00
 8.5106113E+00 8.7821118E-01 1.9020941E+00
 8.5664060E+00 8.5227504E-01 1.8955895E+00
 8.6215282E+00 8.2587802E-01 1.8875681E+00
 8.6758148E+00 7.9904811E-01 1.8777852E+00
 8.7290723E+00 7.7179728E-01 1.8660037E+00
 8.7811283E+00 7.4414671E-01 1.8519985E+00
 8.8319080E+00 7.1617508E-01 1.8355623E+00
 8.2816477E+00 9.2972579E-01 1.9155391E+00
 8.3393989E+00 9.0587322E-01 1.9113808E+00
 8.3963812E+00 8.8140196E-01 1.9066463E+00
 8.4526646E+00 8.5632005E-01 1.9010925E+00
 8.5082899E+00 8.3070113E-01 1.8944784E+00
 8.5632319E+00 8.0461202E-01 1.8865623E+00
 8.6173861E+00 7.7808460E-01 1.8770998E+00
 8.6705797E+00 7.5111789E-01 1.8658447E+00
 8.7226135E+00 7.2370361E-01 1.8525556E+00
 8.7733460E+00 6.9587636E-01 1.8370081E+00
 8.2813168E+00 8.8342779E-01 1.9108031E+00
 8.3385929E+00 8.5964052E-01 1.9054267E+00
 8.3949677E+00 8.3513257E-01 1.8994146E+00
 8.4505222E+00 8.0998570E-01 1.8925312E+00
 8.5053015E+00 7.8430777E-01 1.8845458E+00
 8.5592695E+00 7.5816127E-01 1.8752223E+00
 8.6122907E+00 7.3155089E-01 1.8643139E+00
 8.6641563E+00 7.0444990E-01 1.8515695E+00
 8.7146706E+00 6.7685592E-01 1.8367489E+00
 8.2808365E+00 8.3793411E-01 1.9038189E+00
 8.3375067E+00 8.1436505E-01 1.8972575E+00
 8.3931595E+00 7.8996581E-01 1.8899921E+00
 8.4478753E+00 7.6487682E-01 1.8817979E+00
 8.5016763E+00 7.3922361E-01 1.8724524E+00
 8.5544741E+00 7.1305215E-01 1.8617188E+00
 8.6060666E+00 6.8634176E-01 1.8493450E+00
 8.6562213E+00 6.5906785E-01 1.8350803E+00
 8.2802257E+00 7.9352419E-01 1.8947214E+00
 8.3361778E+00 7.7030358E-01 1.8870252E+00
 8.3910007E+00 7.4612234E-01 1.8785421E+00
 8.4447385E+00 7.2116023E-01 1.8690570E+00
 8.4973363E+00 6.9554531E-01 1.8583509E+00
 8.5486073E+00 6.6930912E-01 1.8461833E+00
 8.5983013E+00 6.4243707E-01 1.8323038E+00
 8.2795065E+00 7.5044061E-01 1.8836777E+00
 8.3346396E+00 7.2766326E-01 1.8749055E+00
 8.3884938E+00 7.0374915E-01 1.8652368E+00
 8.4410051E+00 6.7890116E-01 1.8544619E+00
 8.4919850E+00 6.5325596E-01 1.8423644E+00
 8.5411712E+00 6.2686724E-01 1.8287109E+00
 8.2786965E+00 7.0888241E-01 1.8708775E+00
 8.3328873E+00 6.8658255E-01 1.8610814E+00
 8.3855240E+00 6.6289429E-01 1.8502332E+00
 8.4363417E+00 6.3804876E-01 1.8381273E+00
 8.4850444E+00 6.1224566E-01 1.8245688E+00
 8.2777915E+00 6.6899955E-01 1.8565230E+00
 8.3308176E+00 6.4710649E-01 1.8457205E+00
 8.3817322E+00 6.2347030E-01 1.8336372E+00
 8.4300924E+00 5.9843862E-01 1.8201040E+00
 8.2767241E+00 6.3086715E-01 1.8408088E+00
 8.3281432E+00 6.0916936E-01 1.8289496E+00
 8.3764323E+00 5.8527831E-01 1.8154858E+00
 8.2753166E+00 5.9445090E-01 1.8238934E+00
 8.3241048E+00 5.7249525E-01 1.8107810E+00
 8.2732170E+00 5.5970040E-01 1.8059340E+00
 8.1950843E+00 1.5075233E+00 1.7692136E+00
 8.1641247E+00 1.5334059E+00 1.7533401E+00
 8.1316545E+00 1.5600006E+00 1.7359481E+00
 8.0978408E+00 1.5871503E+00 1.7169991E+00
 8.0628391E+00 1.6147527E+00 1.6964065E+00
 8.0268921E+00 1.6426792E+00 1.6740670E+00
 7.9902701E+00 1.6707760E+00 1.6498632E+00
 7.9532939E+00 1.6988374E+00 1.6236825E+00
 7.9163187E+00 1.7266072E+00 1.5954239E+00
 7.8797053E+00 1.7537821E+00 1.5650140E+00
 7.8437907E+00 1.7800234E+00 1.5324233E+00
 7.8088674E+00 1.8049764E+00 1.4976795E+00
 7.7751730E+00 1.8282926E+00 1.4608780E+00
 7.7428902E+00 1.8496513E+00 1.4221831E+00
 7.7121544E+00 1.8687807E+00 1.3818233E+00
 7.6830631E+00 1.8854705E+00 1.3400812E+00
 7.6556865E+00 1.8995800E+00 1.2972801E+00
 7.6300772E+00 1.9110421E+00 1.2537662E+00
 7.6062768E+00 1.9198601E+00 1.2098942E+00
 7.5843201E+00 1.9261022E+00 1.1660169E+00
 7.5642385E+00 1.9298907E+00 1.1224974E+00
 7.5460317E+00 1.9313870E+00 1.0796894E+00
 7.5297337E+00 1.9307932E+00 1.0382104E+00
 7.0555660E+00 1.0724227E+00 1.6237279E+00
 7.0511594E+00 1.1194878E+00 1.6107133E+00
 7.0483824E+00 1.1673738E+00 1.5956427E+00
 7.0476842E+00 1.2162283E+00 1.5787598E+00
 7.0493779E+00 1.2660045E+00 1.5601369E+00
 7.0537143E+00 1.3165187E+00 1.5397972E+00
 7.0608940E+00 1.3674936E+00 1.5177463E+00
 7.0710757E+00 1.4185898E+00 1.4939995E+00
 7.0843780E+00 1.4694175E+00 1.4686008E+00
 7.1008723E+00 1.5195473E+00 1.4416320E+00
 7.1205749E+00 1.5685219E+00 1.4132162E+00
 7.1434381E+00 1.6158698E+00 1.3835176E+00
 7.1693458E+00 1.6611233E+00 1.3527378E+00
 7.1981117E+00 1.7038351E+00 1.3211117E+00
 7.2294832E+00 1.7435983E+00 1.2888995E+00
 7.2631490E+00 1.7800623E+00 1.2563807E+00
 7.2987502E+00 1.8129491E+00 1.2238428E+00
 7.3358922E+00 1.8420635E+00 1.1915714E+00
 7.3741602E+00 1.8673038E+00 1.1598286E+00
 7.4131313E+00 1.8886664E+00 1.1288177E+00
 7.4524027E+00 1.9062491E+00 1.0986094E+00
 7.4915149E+00 1.9202237E+00 1.0689993E+00
 7.0843396E+00 1.1026375E+00 1.6550456E+00
 7.0816254E+00 1.1522706E+00 1.6421168E+00
 7.0804722E+00 1.2020028E+00 1.6268655E+00
 7.0814402E+00 1.2522630E+00 1.6096427E+00
 7.0849037E+00 1.3031263E+00 1.5905776E+00
 7.0911250E+00 1.3544562E+00 1.5697032E+00
 7.1002887E+00 1.4059790E+00 1.5470199E+00
 7.1125240E+00 1.4573319E+00 1.5225398E+00
 7.1279107E+00 1.5080934E+00 1.4963108E+00
 7.1464760E+00 1.5578023E+00 1.4684267E+00
 7.1681852E+00 1.6059758E+00 1.4390294E+00
 7.1929366E+00 1.6521284E+00 1.4083062E+00
 7.2205581E+00 1.6957921E+00 1.3764853E+00
 7.2508113E+00 1.7365374E+00 1.3438288E+00
 7.2833991E+00 1.7739929E+00 1.3106244E+00
 7.3179811E+00 1.8078641E+00 1.2771714E+00
 7.3541862E+00 1.8379461E+00 1.2437645E+00
 7.3916314E+00 1.8641342E+00 1.2106572E+00
 7.4299340E+00 1.8864308E+00 1.1779991E+00
 7.4687178E+00 1.9049397E+00 1.1457395E+00
 7.5076087E+00 1.9198539E+00 1.1134023E+00
 7.1167146E+00 1.1329347E+00 1.6859127E+00
 7.1156576E+00 1.1843666E+00 1.6727994E+00
 7.1162054E+00 1.2356452E+00 1.6572344E+00
 7.1189418E+00 1.2871520E+00 1.6395603E+00
 7.1242731E+00 1.3389845E+00 1.6199231E+00
 7.1324597E+00 1.3910040E+00 1.5983569E+00
 7.1436634E+00 1.4429172E+00 1.5748610E+00
 7.1579781E+00 1.4943319E+00 1.5494521E+00
 7.1754403E+00 1.5447943E+00 1.5221911E+00
 7.1960266E+00 1.5938155E+00 1.4931918E+00
 7.2196476E+00 1.6408949E+00 1.4626219E+00
 7.2461447E+00 1.6855443E+00 1.4306988E+00
 7.2752923E+00 1.7273105E+00 1.3976829E+00
 7.3068068E+00 1.7657995E+00 1.3638665E+00
 7.3403617E+00 1.8006965E+00 1.3295608E+00
 7.3756051E+00 1.8317831E+00 1.2950721E+00
 7.4121750E+00 1.8589471E+00 1.2606612E+00
 7.4497090E+00 1.8821907E+00 1.2264715E+00
 7.4878395E+00 1.9016242E+00 1.1924187E+00
 7.5261839E+00 1.9174469E+00 1.1580642E+00
 7.1528110E+00 1.1635571E+00 1.7158021E+00
 7.1534259E+00 1.2163131E+00 1.7022833E+00
 7.1557359E+00 1.2687860E+00 1.6862326E+00
 7.1603281E+00 1.3212776E+00 1.6679585E+00
 7.1676061E+00 1.3738346E+00 1.6475939E+00
 7.1778112E+00 1.4262836E+00 1.6251679E+00
 7.1910713E+00 1.4782961E+00 1.6006830E+00
 7.2074368E+00 1.5294460E+00 1.5741687E+00
 7.2268941E+00 1.5792509E+00 1.5457067E+00
 7.2493647E+00 1.6272034E+00 1.5154390E+00
 7.2747026E+00 1.6727993E+00 1.4835661E+00
 7.3026956E+00 1.7155650E+00 1.4503412E+00
 7.3330744E+00 1.7550839E+00 1.4160582E+00
 7.3655269E+00 1.7910198E+00 1.3810379E+00
 7.3997185E+00 1.8231370E+00 1.3456010E+00
 7.4353050E+00 1.8513115E+00 1.3100281E+00
 7.4719402E+00 1.8755401E+00 1.2744839E+00
 7.5092602E+00 1.8959351E+00 1.2389205E+00
 7.5468706E+00 1.9127048E+00 1.2029859E+00
 7.1927273E+00 1.1944208E+00 1.7441917E+00
 7.1950335E+00 1.2481411E+00 1.7300493E+00
 7.1991572E+00 1.3014759E+00 1.7133264E+00