# TIME = 11.400000
variables = x, y, z
zone N=5762 E=11520 F=FEPOINT ET=TRIANGLE
 9.8523888E+00 1.4835808E+00 1.7822834E+00
 9.8523889E+00 1.4835805E+00 2.1771683E-01
 9.8523888E+00 5.1641942E-01 1.7822831E+00
 9.8523889E+00 5.1641919E-01 2.1771656E-01
 8.6679549E+00 9.9999997E-01 1.6069738E+00
 1.1064010E+01 9.9999997E-01 1.6157924E+00
 8.6679549E+00 9.9999998E-01 3.9302614E-01
 1.1064010E+01 9.9999997E-01 3.8420753E-01
 9.1421569E+00 1.9265742E+00 9.9999970E-01
 9.1421569E+00 7.3425731E-02 1.0000001E+00
 1.0548203E+01 1.8661335E+00 9.9999993E-01
 1.0548203E+01 1.3386653E-01 9.9999995E-01
 9.8055337E+00 1.4756665E+00 1.7896902E+00
 9.7535562E+00 1.4669323E+00 1.7980598E+00
 9.6988018E+00 1.4578889E+00 1.8070681E+00
 9.6418696E+00 1.4484949E+00 1.8166907E+00
 9.5833462E+00 1.4386200E+00 1.8268088E+00
 9.5239537E+00 1.4280374E+00 1.8371510E+00
 9.4643737E+00 1.4164551E+00 1.8472735E+00
 9.4051184E+00 1.4035500E+00 1.8565845E+00
 9.3464554E+00 1.3890072E+00 1.8644019E+00
 9.2884500E+00 1.3725573E+00 1.8700162E+00
 9.2310823E+00 1.3540072E+00 1.8727509E+00
 9.1743782E+00 1.3332643E+00 1.8720223E+00
 9.1185046E+00 1.3103534E+00 1.8673957E+00
 9.0637930E+00 1.2854200E+00 1.8586290E+00
 9.0106992E+00 1.2587178E+00 1.8456922E+00
 8.9597289E+00 1.2305829E+00 1.8287579E+00
 8.9113645E+00 1.2014013E+00 1.8081675E+00
 8.8660103E+00 1.1715746E+00 1.7843837E+00
 8.8239604E+00 1.1414918E+00 1.7579391E+00
 8.7853866E+00 1.1115085E+00 1.7293860E+00
 8.7503674E+00 1.0819505E+00 1.6992840E+00
 8.7189180E+00 1.0531128E+00 1.6681901E+00
 8.6910993E+00 1.0253533E+00 1.6367784E+00
 9.8000502E+00 5.5851342E-01 1.8096056E+00
 9.7461678E+00 5.6934442E-01 1.8186829E+00
 9.6901246E+00 5.8001853E-01 1.8280637E+00
 9.6323287E+00 5.9089583E-01 1.8378813E+00
 9.5732851E+00 6.0229684E-01 1.8480824E+00
 9.5136687E+00 6.1451542E-01 1.8583837E+00
 9.4541253E+00 6.2785829E-01 1.8683072E+00
 9.3951037E+00 6.4261933E-01 1.8772269E+00
 9.3368127E+00 6.5905613E-01 1.8844390E+00
 9.2792808E+00 6.7736598E-01 1.8892301E+00
 9.2224788E+00 6.9766496E-01 1.8909393E+00
 9.1664459E+00 7.1997162E-01 1.8890169E+00
 9.1113681E+00 7.4419774E-01 1.8830771E+00
 9.0575874E+00 7.7015159E-01 1.8729351E+00
 9.0055541E+00 7.9755488E-01 1.8586190E+00
 8.9557518E+00 8.2606905E-01 1.8403521E+00
 8.9086259E+00 8.5532389E-01 1.8185118E+00
 8.8645280E+00 8.8494364E-01 1.7935732E+00
 8.8236848E+00 9.1456468E-01 1.7660495E+00
 8.7861767E+00 9.4384528E-01 1.7364255E+00
 8.7519243E+00 9.7246290E-01 1.7050879E+00
 8.7206592E+00 9.9999997E-01 1.6722353E+00
 9.7977978E+00 5.9379641E-01 1.8280047E+00
 9.7417188E+00 6.0668388E-01 1.8375587E+00
 9.6841879E+00 6.1904542E-01 1.8471668E+00
 9.6253010E+00 6.3153804E-01 1.8570954E+00
 9.5655601E+00 6.4457815E-01 1.8672853E+00
 9.5055843E+00 6.5852516E-01 1.8774384E+00
 9.4459551E+00 6.7368462E-01 1.8870414E+00
 9.3870516E+00 6.9031494E-01 1.8954397E+00
 9.3290238E+00 7.0861587E-01 1.9019145E+00
 9.2718660E+00 7.2871746E-01 1.9057555E+00
 9.2155415E+00 7.5066718E-01 1.9063232E+00
 9.1600990E+00 7.7442069E-01 1.9031056E+00
 9.1057378E+00 7.9983901E-01 1.8957665E+00
 9.0528025E+00 8.2669731E-01 1.8841759E+00
 9.0017279E+00 8.5470501E-01 1.8684125E+00
 8.9529620E+00 8.8353105E-01 1.8487361E+00
 8.9068908E+00 9.1282573E-01 1.8255334E+00
 8.8637744E+00 9.4223659E-01 1.7992443E+00
 8.8237023E+00 9.7141418E-01 1.7702758E+00
 8.7865603E+00 9.9999997E-01 1.7389059E+00
 8.7519243E+00 1.0275370E+00 1.7050879E+00
 9.7962178E+00 6.3070439E-01 1.8452217E+00
 9.7386705E+00 6.4528369E-01 1.8548319E+00
 9.6798292E+00 6.5933097E-01 1.8644827E+00
 9.6199588E+00 6.7348141E-01 1.8743653E+00
 9.5595405E+00 6.8822992E-01 1.8844063E+00
 9.4991887E+00 7.0395246E-01 1.8942672E+00
 9.4394331E+00 7.2094282E-01 1.9034002E+00
 9.3805954E+00 7.3941774E-01 1.9111255E+00
 9.3227766E+00 7.5952147E-01 1.9167165E+00
 9.2659442E+00 7.8132259E-01 1.9194727E+00
 9.2100558E+00 8.0480880E-01 1.9187811E+00
 9.1551673E+00 8.2988323E-01 1.9141704E+00
 9.1014839E+00 8.5636797E-01 1.9053536E+00
 9.0493418E+00 8.8401681E-01 1.8922498E+00
 8.9991445E+00 9.1253557E-01 1.8749749E+00
 8.9512805E+00 9.4160181E-01 1.8538006E+00
 8.9060401E+00 9.7087567E-01 1.8290819E+00
 8.8635461E+00 9.9999996E-01 1.8011644E+00
 8.8237023E+00 1.0285857E+00 1.7702758E+00
 8.7861767E+00 1.0561546E+00 1.7364255E+00
 9.7949928E+00 6.6923718E-01 1.8611231E+00
 9.7363101E+00 6.8534039E-01 1.8705432E+00
 9.6764415E+00 7.0098323E-01 1.8800181E+00
 9.6157390E+00 7.1679021E-01 1.8896799E+00
 9.5547445E+00 7.3325518E-01 1.8994012E+00
 9.4940692E+00 7.5075094E-01 1.9087999E+00
 9.4342127E+00 7.6954077E-01 1.9172920E+00
 9.3754517E+00 7.8979692E-01 1.9241791E+00
 9.3178497E+00 8.1160969E-01 1.9287335E+00
 9.2613537E+00 8.3499215E-01 1.9302714E+00
 9.2059168E+00 8.5988057E-01 1.9282115E+00
 9.1515972E+00 8.8613618E-01 1.9221247E+00
 9.0985954E+00 9.1355302E-01 1.9117700E+00
 9.0472234E+00 9.4187194E-01 1.8971047E+00
 8.9978304E+00 9.7079621E-01 1.8782619E+00
 8.9507152E+00 9.9999996E-01 1.8554934E+00
 8.9060401E+00 1.0291243E+00 1.8290819E+00
 8.8637745E+00 1.0577633E+00 1.7992443E+00
 8.8236848E+00 1.0854352E+00 1.7660495E+00
 9.7939763E+00 7.0940466E-01 1.8755740E+00
 9.7343737E+00 7.2688779E-01 1.8846009E+00
 9.6736761E+00 7.4404454E-01 1.8937084E+00
 9.6123095E+00 7.6146089E-01 1.9029633E+00
 9.5508656E+00 7.7960849E-01 1.9121820E+00
 9.4899653E+00 7.9882955E-01 1.9209348E+00
 9.4300842E+00 8.1934738E-01 1.9286071E+00
 9.3714647E+00 8.4128548E-01 1.9344886E+00
 9.3141408E+00 8.6468323E-01 1.9378588E+00
 9.2580429E+00 8.8950467E-01 1.9380575E+00
 9.2031182E+00 9.1564396E-01 1.9345389E+00
 9.1494190E+00 9.4293068E-01 1.9269151E+00
 9.0971266E+00 9.7113938E-01 1.9149834E+00
 9.0465074E+00 9.9999996E-01 1.8987238E+00
 8.9978305E+00 1.0292037E+00 1.8782619E+00
 8.9512805E+00 1.0583981E+00 1.8538006E+00
 8.9068908E+00 1.0871742E+00 1.8255334E+00
 8.8645281E+00 1.1150563E+00 1.7935732E+00
 9.7931010E+00 7.5112879E-01 1.8884049E+00
 9.7327364E+00 7.6987468E-01 1.8968680E+00
 9.6713757E+00 7.8845685E-01 1.9054310E+00
 9.6095063E+00 8.0741273E-01 1.9140973E+00
 9.5477590E+00 8.2717331E-01 1.9226278E+00
 9.4867607E+00 8.4803599E-01 1.9305504E+00
 9.4269664E+00 8.7017544E-01 1.9372274E+00
 9.3685894E+00 8.9366604E-01 1.9419456E+00
 9.3116392E+00 9.1850058E-01 1.9440000E+00
 9.2560308E+00 9.4460247E-01 1.9427592E+00
 9.2017010E+00 9.7183336E-01 1.9377144E+00
 9.1486851E+00 9.9999997E-01 1.9285145E+00
 9.0971266E+00 1.0288605E+00 1.9149834E+00
 9.0472234E+00 1.0581280E+00 1.8971047E+00
 8.9991445E+00 1.0874644E+00 1.8749749E+00
 8.9529620E+00 1.1164689E+00 1.8487362E+00
 8.9086259E+00 1.1446760E+00 1.8185118E+00
 9.7923475E+00 7.9426619E-01 1.8994359E+00
 9.7313577E+00 8.1417125E-01 1.9071868E+00
 9.6694920E+00 8.3408265E-01 1.9150412E+00
 9.6072833E+00 8.5448781E-01 1.9229447E+00
 9.5453896E+00 8.7576384E-01 1.9306078E+00
 9.4844370E+00 8.9815384E-01 1.9375247E+00
 9.4248593E+00 9.2178065E-01 1.9430442E+00
 9.3668428E+00 9.4667194E-01 1.9464599E+00
 9.3103750E+00 9.7278111E-01 1.9470887E+00
 9.2553545E+00 9.9999998E-01 1.9443316E+00
 9.2017010E+00 1.0281666E+00 1.9377144E+00
 9.1494190E+00 1.0570693E+00 1.9269151E+00
 9.0985954E+00 1.0864469E+00 1.9117700E+00
 9.0493418E+00 1.1159831E+00 1.8922498E+00
 9.0017279E+00 1.1452949E+00 1.8684126E+00
 8.9557518E+00 1.1739309E+00 1.8403522E+00
 9.7917186E+00 8.3862918E-01 1.9084964E+00
 9.7302445E+00 8.5958585E-01 1.9154016E+00
 9.6680352E+00 8.8072026E-01 1.9223962E+00
 9.6056559E+00 9.0246427E-01 1.9293737E+00
 9.5437789E+00 9.2513340E-01 1.9360031E+00
 9.4830213E+00 9.4891190E-01 1.9417548E+00
 9.4237936E+00 9.7387177E-01 1.9459749E+00
 9.3662561E+00 1.0000000E+00 1.9479715E+00
 9.3103750E+00 1.0272189E+00 1.9470887E+00
 9.2560308E+00 1.0553975E+00 1.9427592E+00
 9.2031182E+00 1.0843560E+00 1.9345389E+00
 9.1515973E+00 1.1138638E+00 1.9221248E+00
 9.1014839E+00 1.1436320E+00 1.9053537E+00
 9.0528025E+00 1.1733026E+00 1.8841760E+00
 9.0055541E+00 1.2024451E+00 1.8586191E+00
 9.7912277E+00 8.8399062E-01 1.9154363E+00
 9.7294218E+00 9.0588140E-01 1.9213763E+00
 9.6670374E+00 9.2811763E-01 1.9273740E+00
 9.6046594E+00 9.5107037E-01 1.9332776E+00
 9.5429618E+00 9.7498938E-01 1.9387245E+00
 9.4825451E+00 1.0000000E+00 1.9431728E+00
 9.4237936E+00 1.0261282E+00 1.9459749E+00
 9.3668428E+00 1.0533281E+00 1.9464599E+00
 9.3116393E+00 1.0814994E+00 1.9440001E+00
 9.2580430E+00 1.1104953E+00 1.9380576E+00
 9.2059169E+00 1.1401194E+00 1.9282116E+00
 9.1551673E+00 1.1701167E+00 1.9141705E+00
 9.1057378E+00 1.2001609E+00 1.8957666E+00
 9.0575875E+00 1.2298484E+00 1.8729352E+00
 9.7908903E+00 9.3009102E-01 1.9201341E+00
 9.7289158E+00 9.5278533E-01 1.9250056E+00
 9.6665296E+00 9.7598602E-01 1.9298860E+00
 9.6043235E+00 1.0000000E+00 1.9345869E+00
 9.5429618E+00 1.0250107E+00 1.9387245E+00
 9.4830213E+00 1.0510881E+00 1.9417549E+00
 9.4248593E+00 1.0782194E+00 1.9430443E+00
 9.3685894E+00 1.1063340E+00 1.9419457E+00
 9.3141409E+00 1.1353168E+00 1.9378589E+00
 9.2613537E+00 1.1650078E+00 1.9302715E+00
 9.2100559E+00 1.1951912E+00 1.9187812E+00
 9.1600991E+00 1.2255793E+00 1.9031057E+00
 9.1113681E+00 1.2558022E+00 1.8830772E+00
 9.7907183E+00 9.7664586E-01 1.9225050E+00
 9.7287450E+00 9.9999999E-01 1.9262230E+00
 9.6665296E+00 1.0240140E+00 1.9298860E+00
 9.6046594E+00 1.0489297E+00 1.9332776E+00
 9.5437789E+00 1.0748666E+00 1.9360031E+00
 9.4844370E+00 1.1018462E+00 1.9375248E+00
 9.4269664E+00 1.1298246E+00 1.9372275E+00
 9.3714647E+00 1.1587145E+00 1.9344887E+00
 9.3178498E+00 1.1883903E+00 1.9287336E+00
 9.2659442E+00 1.2186774E+00 1.9194728E+00
 9.2155416E+00 1.2493328E+00 1.9063233E+00
 9.1664460E+00 1.2800284E+00 1.8890170E+00
 9.7907183E+00 1.0233541E+00 1.9225051E+00
 9.7289158E+00 1.0472147E+00 1.9250057E+00
 9.6670374E+00 1.0718824E+00 1.9273740E+00
 9.6056558E+00 1.0975358E+00 1.9293738E+00
 9.5453896E+00 1.1242362E+00 1.9306079E+00
 9.4867606E+00 1.1519641E+00 1.9305505E+00
 9.4300842E+00 1.1806527E+00 1.9286072E+00
 9.3754517E+00 1.2102031E+00 1.9241793E+00
 9.3227767E+00 1.2404786E+00 1.9167166E+00
 9.2718661E+00 1.2712826E+00 1.9057557E+00
 9.2224789E+00 1.3023351E+00 1.8909394E+00
 9.7908903E+00 1.0699089E+00 1.9201342E+00
 9.7294218E+00 1.0941186E+00 1.9213764E+00
 9.6680351E+00 1.1192798E+00 1.9223963E+00
 9.6072832E+00 1.1455122E+00 1.9229448E+00
 9.5477590E+00 1.1728267E+00 1.9226279E+00
 9.4899653E+00 1.2011705E+00 1.9209349E+00
 9.4342127E+00 1.2304593E+00 1.9172922E+00
 9.3805954E+00 1.2605823E+00 1.9111257E+00
 9.3290238E+00 1.2913842E+00 1.9019147E+00
 9.2792809E+00 1.3226341E+00 1.8892302E+00
 9.7912277E+00 1.1160094E+00 1.9154364E+00
 9.7302445E+00 1.1404142E+00 1.9154017E+00
 9.6694919E+00 1.1659174E+00 1.9150413E+00
 9.6095062E+00 1.1925873E+00 1.9140975E+00
 9.5508656E+00 1.2203916E+00 1.9121821E+00
 9.4940691E+00 1.2492491E+00 1.9088000E+00
 9.4394331E+00 1.2790573E+00 1.9034004E+00
 9.3870517E+00 1.3096851E+00 1.8954399E+00
 9.3368128E+00 1.3409439E+00 1.8844392E+00
 9.7917186E+00 1.1613708E+00 1.9084966E+00
 9.7313577E+00 1.1858288E+00 1.9071869E+00
 9.6713756E+00 1.2115432E+00 1.9054312E+00
 9.6123094E+00 1.2385392E+00 1.9029635E+00
 9.5547445E+00 1.2667449E+00 1.8994014E+00
 9.4991887E+00 1.2960476E+00 1.8942674E+00
 9.4459551E+00 1.3263155E+00 1.8870416E+00
 9.3951038E+00 1.3573808E+00 1.8772271E+00
 9.7923475E+00 1.2057338E+00 1.8994360E+00
 9.7327364E+00 1.2301254E+00 1.8968681E+00
 9.6736761E+00 1.2559555E+00 1.8937085E+00
 9.6157389E+00 1.2832099E+00 1.8896801E+00
 9.5595404E+00 1.3117702E+00 1.8844065E+00
 9.5055843E+00 1.3414750E+00 1.8774386E+00
 9.4541253E+00 1.3721418E+00 1.8683074E+00
 9.7931010E+00 1.2488713E+00 1.8884051E+00
 9.7343736E+00 1.2731123E+00 1.8846011E+00
 9.6764414E+00 1.2990169E+00 1.8800183E+00
 9.6199587E+00 1.3265187E+00 1.8743655E+00
 9.5655601E+00 1.3554220E+00 1.8672855E+00
 9.5136687E+00 1.3854847E+00 1.8583839E+00
 9.7939763E+00 1.2905954E+00 1.8755742E+00
 9.7363100E+00 1.3146597E+00 1.8705434E+00
 9.6798291E+00 1.3406691E+00 1.8644830E+00
 9.6253009E+00 1.3684621E+00 1.8570957E+00
 9.5732850E+00 1.3977033E+00 1.8480826E+00
 9.7949927E+00 1.3307629E+00 1.8611234E+00
 9.7386704E+00 1.3547164E+00 1.8548321E+00
 9.6841877E+00 1.3809547E+00 1.8471670E+00
 9.6323286E+00 1.4091043E+00 1.8378816E+00
 9.7962177E+00 1.3692957E+00 1.8452220E+00
 9.7417187E+00 1.3933163E+00 1.8375590E+00
 9.6901245E+00 1.4199816E+00 1.8280640E+00
 9.7977977E+00 1.4062037E+00 1.8280050E+00
 9.7461677E+00 1.4306557E+00 1.8186832E+00
 9.8000501E+00 1.4414868E+00 1.8096060E+00
 9.8523742E+00 1.4541169E+00 1.7997752E+00
 9.8523573E+00 1.4207058E+00 1.8178831E+00
 9.8523184E+00 1.3853469E+00 1.8351607E+00
 9.8522684E+00 1.3480834E+00 1.8513949E+00
 9.8522137E+00 1.3090378E+00 1.8663611E+00
 9.8521608E+00 1.2683481E+00 1.8798432E+00
 9.8521139E+00 1.2261516E+00 1.8916479E+00
 9.8520756E+00 1.1826273E+00 1.9015926E+00
 9.8520465E+00 1.1379916E+00 1.9095138E+00
 9.8520264E+00 1.0924906E+00 1.9152755E+00
 9.8520147E+00 1.0463962E+00 1.9187751E+00
 9.8520108E+00 9.9999997E-01 1.9199489E+00
 9.8520147E+00 9.5360370E-01 1.9187751E+00
 9.8520264E+00 9.0750937E-01 1.9152754E+00
 9.8520465E+00 8.6200840E-01 1.9095137E+00
 9.8520756E+00 8.1737270E-01 1.9015925E+00
 9.8521139E+00 7.7384845E-01 1.8916477E+00
 9.8521608E+00 7.3165190E-01 1.8798430E+00
 9.8522137E+00 6.9096224E-01 1.8663609E+00
 9.8522685E+00 6.5191669E-01 1.8513947E+00
 9.8523185E+00 6.1465321E-01 1.8351604E+00
 9.8523573E+00 5.7929435E-01 1.8178828E+00
 9.8523742E+00 5.4588327E-01 1.7997749E+00
 9.8988340E+00 5.2638915E-01 1.7862709E+00
 9.9494438E+00 5.3735920E-01 1.7907174E+00
 1.0001868E+01 5.4877020E-01 1.7953241E+00
 1.0055699E+01 5.6068944E-01 1.7999888E+00
 1.0110766E+01 5.7321703E-01 1.8045672E+00
 1.0166901E+01 5.8647790E-01 1.8088821E+00
 1.0223944E+01 6.0060351E-01 1.8127201E+00
 1.0281703E+01 6.1572195E-01 1.8158356E+00
 1.0339948E+01 6.3195324E-01 1.8179603E+00
 1.0398418E+01 6.4940146E-01 1.8188128E+00
 1.0456821E+01 6.6814677E-01 1.8181124E+00
 1.0514838E+01 6.8823767E-01 1.8155932E+00
 1.0572131E+01 7.0968482E-01 1.8110193E+00
 1.0628355E+01 7.3245758E-01 1.8041993E+00
 1.0683158E+01 7.5648324E-01 1.7949979E+00
 1.0736201E+01 7.8164942E-01 1.7833442E+00
 1.0787163E+01 8.0780856E-01 1.7692351E+00
 1.0835750E+01 8.3478574E-01 1.7527346E+00
 1.0881709E+01 8.6238709E-01 1.7339696E+00
 1.0924831E+01 8.9040824E-01 1.7131195E+00
 1.0964935E+01 9.1861846E-01 1.6904213E+00
 1.1001862E+01 9.4675102E-01 1.6661645E+00
 1.1035364E+01 9.7438845E-01 1.6407897E+00
 9.9041683E+00 1.4393533E+00 1.8056969E+00
 9.9564773E+00 1.4263915E+00 1.8105811E+00
 1.0009981E+01 1.4134822E+00 1.8153072E+00
 1.0064522E+01 1.4002561E+00 1.8199133E+00
 1.0120060E+01 1.3864435E+00 1.8243286E+00
 1.0176494E+01 1.3718656E+00 1.8283895E+00
 1.0233672E+01 1.3563764E+00 1.8318800E+00
 1.0291407E+01 1.3398576E+00 1.8345454E+00
 1.0349470E+01 1.3222128E+00 1.8361078E+00
 1.0407599E+01 1.3033683E+00 1.8362810E+00
 1.0465500E+01 1.2832774E+00 1.8347856E+00
 1.0522856E+01 1.2619254E+00 1.8313643E+00
 1.0579332E+01 1.2393326E+00 1.8257971E+00
 1.0634590E+01 1.2155559E+00 1.8179140E+00
 1.0688294E+01 1.1906867E+00 1.8076057E+00
 1.0740120E+01 1.1648486E+00 1.7948284E+00
 1.0789773E+01 1.1381938E+00 1.7796028E+00
 1.0837002E+01 1.1109006E+00 1.7620047E+00
 1.0881620E+01 1.0831718E+00 1.7421511E+00
 1.0923525E+01 1.0552371E+00 1.7201704E+00
 1.0962743E+01 1.0273639E+00 1.6961534E+00
 1.0999511E+01 9.9999997E-01 1.6700678E+00
 9.9063039E+00 1.4041720E+00 1.8238308E+00
 9.9606392E+00 1.3892567E+00 1.8289172E+00
 1.0015438E+01 1.3748099E+00 1.8336163E+00
 1.0070927E+01 1.3601685E+00 1.8380775E+00
 1.0127119E+01 1.3449852E+00 1.8422409E+00
 1.0183979E+01 1.3290226E+00 1.8459529E+00
 1.0241391E+01 1.3121265E+00 1.8489903E+00
 1.0299185E+01 1.2941891E+00 1.8510899E+00
 1.0357142E+01 1.2751371E+00 1.8519670E+00
 1.0415003E+01 1.2549247E+00 1.8513338E+00
 1.0472474E+01 1.2335351E+00 1.8489161E+00
 1.0529242E+01 1.2109817E+00 1.8444679E+00
 1.0584980E+01 1.1873094E+00 1.8377867E+00
 1.0639362E+01 1.1625931E+00 1.8287239E+00
 1.0692072E+01 1.1369349E+00 1.8171923E+00
 1.0742820E+01 1.1104619E+00 1.8031648E+00
 1.0791367E+01 1.0833270E+00 1.7866640E+00
 1.0837557E+01 1.0557135E+00 1.7677369E+00
 1.0881362E+01 1.0278432E+00 1.7464143E+00
 1.0922928E+01 9.9999998E-01 1.7226490E+00
 1.0962743E+01 9.7263606E-01 1.6961534E+00
 9.9077527E+00 1.3673989E+00 1.8408411E+00
 9.9634271E+00 1.3509496E+00 1.8457670E+00
 1.0019378E+01 1.3350045E+00 1.8502773E+00
 1.0075733E+01 1.3189450E+00 1.8544592E+00
 1.0132570E+01 1.3023567E+00 1.8582548E+00
 1.0189866E+01 1.2849870E+00 1.8614981E+00
 1.0247531E+01 1.2666789E+00 1.8639570E+00
 1.0305408E+01 1.2473402E+00 1.8653597E+00
 1.0363282E+01 1.2269192E+00 1.8654178E+00
 1.0420898E+01 1.2053958E+00 1.8638455E+00
 1.0477967E+01 1.1827785E+00 1.8603764E+00
 1.0534181E+01 1.1591031E+00 1.8547787E+00
 1.0589224E+01 1.1344318E+00 1.8468674E+00
 1.0642791E+01 1.1088500E+00 1.8365124E+00
 1.0694601E+01 1.0824657E+00 1.8236392E+00
 1.0744426E+01 1.0554102E+00 1.8082189E+00
 1.0792128E+01 1.0278494E+00 1.7902429E+00
 1.0837707E+01 9.9999998E-01 1.7696805E+00
 1.0881362E+01 9.7215671E-01 1.7464143E+00
 1.0923525E+01 9.4476290E-01 1.7201704E+00
 9.9088361E+00 1.3290265E+00 1.8565680E+00
 9.9655448E+00 1.3112408E+00 1.8611194E+00
 1.0022402E+01 1.2939255E+00 1.8652541E+00
 1.0079498E+01 1.2764856E+00 1.8690102E+00
 1.0136890E+01 1.2585158E+00 1.8722982E+00
 1.0194566E+01 1.2397616E+00 1.8749354E+00
 1.0252440E+01 1.2200796E+00 1.8766765E+00
 1.0310360E+01 1.1993952E+00 1.8772428E+00
 1.0368116E+01 1.1776789E+00 1.8763452E+00
 1.0425456E+01 1.1549330E+00 1.8737033E+00
 1.0482098E+01 1.1311863E+00 1.8690613E+00
 1.0537743E+01 1.1064907E+00 1.8622025E+00
 1.0592095E+01 1.0809192E+00 1.8529575E+00
 1.0644881E+01 1.0545639E+00 1.8412077E+00
 1.0695881E+01 1.0275406E+00 1.8268772E+00
 1.0744962E+01 9.9999998E-01 1.8099120E+00
 1.0792128E+01 9.7215055E-01 1.7902429E+00
 1.0837557E+01 9.4428650E-01 1.7677369E+00
 1.0881620E+01 9.1682811E-01 1.7421511E+00
 9.9097123E+00 1.2890402E+00 1.8708657E+00
 9.9672623E+00 1.2700866E+00 1.8748637E+00
 1.0024855E+01 1.2515115E+00 1.8784592E+00
 1.0082549E+01 1.2327687E+00 1.8816360E+00
 1.0140381E+01 1.2134764E+00 1.8842701E+00
 1.0198335E+01 1.1934020E+00 1.8861559E+00
 1.0256324E+01 1.1724218E+00 1.8870363E+00
 1.0314198E+01 1.1504830E+00 1.8866280E+00
 1.0371751E+01 1.1275770E+00 1.8846447E+00
 1.0428738E+01 1.1037246E+00 1.8808140E+00
 1.0484884E+01 1.0789695E+00 1.8748929E+00
 1.0539910E+01 1.0533737E+00 1.8666782E+00
 1.0593551E+01 1.0270168E+00 1.8560119E+00
 1.0645586E+01 9.9999998E-01 1.8427759E+00
 1.0695881E+01 9.7245935E-01 1.8268772E+00
 1.0744426E+01 9.4458972E-01 1.8082189E+00
 1.0791367E+01 9.1667297E-01 1.7866640E+00
 1.0837002E+01 8.8909940E-01 1.7620047E+00
 9.9104596E+00 1.2475162E+00 1.8835604E+00
 9.9687102E+00 1.2275323E+00 1.8868561E+00
 1.0026894E+01 1.2078097E+00 1.8897636E+00
 1.0085044E+01 1.1878573E+00 1.8922143E+00
 1.0143182E+01 1.1673318E+00 1.8940494E+00
 1.0201283E+01 1.1460316E+00 1.8950420E+00
 1.0259261E+01 1.1238600E+00 1.8949250E+00
 1.0316967E+01 1.1007863E+00 1.8934144E+00
 1.0374202E+01 1.0768200E+00 1.8902296E+00
 1.0430729E+01 1.0519960E+00 1.8851086E+00
 1.0486293E+01 1.0263667E+00 1.8778208E+00
 1.0540640E+01 9.9999998E-01 1.8681735E+00
 1.0593551E+01 9.7298321E-01 1.8560119E+00
 1.0644881E+01 9.4543604E-01 1.8412077E+00
 1.0694601E+01 9.1753428E-01 1.8236392E+00
 1.0742820E+01 8.8953806E-01 1.8031648E+00
 1.0789773E+01 8.6180619E-01 1.7796027E+00
 9.9111042E+00 1.2045962E+00 1.8944718E+00
 9.9699326E+00 1.1837039E+00 1.8969393E+00
 1.0028569E+01 1.1629492E+00 1.8990248E+00
 1.0087029E+01 1.1418955E+00 1.9006133E+00
 1.0145324E+01 1.1202470E+00 1.9015139E+00
 1.0203425E+01 1.0978399E+00 1.9014822E+00
 1.0261248E+01 1.0746062E+00 1.9002450E+00
 1.0318649E+01 1.0505362E+00 1.8975212E+00
 1.0375440E+01 1.0256532E+00 1.8930382E+00
 1.0431399E+01 9.9999998E-01 1.8865449E+00
 1.0486293E+01 9.7363330E-01 1.8778207E+00
 1.0539910E+01 9.4662629E-01 1.8666782E+00
 1.0592095E+01 9.1908082E-01 1.8529575E+00
 1.0642791E+01 8.9114993E-01 1.8365124E+00
 1.0692072E+01 8.6306505E-01 1.8171923E+00
 1.0740120E+01 8.3515141E-01 1.7948284E+00
 9.9116465E+00 1.1604666E+00 1.9034317E+00
 9.9709240E+00 1.1387891E+00 1.9049622E+00
 1.0029868E+01 1.1171233E+00 1.9061075E+00
 1.0088485E+01 1.0950905E+00 1.9067115E+00
 1.0146783E+01 1.0724468E+00 1.9065566E+00
 1.0204732E+01 1.0490694E+00 1.9053858E+00
 1.0262254E+01 1.0249181E+00 1.9029242E+00
 1.0319215E+01 9.9999998E-01 1.8988961E+00
 1.0375440E+01 9.7434680E-01 1.8930382E+00
 1.0430729E+01 9.4800400E-01 1.8851086E+00
 1.0484884E+01 9.2103048E-01 1.8748928E+00
 1.0537743E+01 8.9350923E-01 1.8622024E+00
 1.0589224E+01 8.6556821E-01 1.8468674E+00
 1.0639362E+01 8.3740683E-01 1.8287239E+00
 1.0688294E+01 8.0931328E-01 1.8076056E+00
 9.9120735E+00 1.1153524E+00 1.9102925E+00
 9.9716597E+00 1.0930195E+00 1.9107945E+00
 1.0030760E+01 1.0705735E+00 1.9108979E+00
 1.0089379E+01 1.0476965E+00 1.9104121E+00
 1.0147523E+01 1.0241996E+00 1.9090988E+00
 1.0205172E+01 9.9999997E-01 1.9066938E+00
 1.0262254E+01 9.7508185E-01 1.9029242E+00
 1.0318649E+01 9.4946379E-01 1.8975212E+00
 1.0374202E+01 9.2317996E-01 1.8902296E+00
 1.0428738E+01 8.9627536E-01 1.8808139E+00
 1.0482098E+01 8.6881368E-01 1.8690613E+00
 1.0534181E+01 8.4089684E-01 1.8547786E+00
 1.0584980E+01 8.1269053E-01 1.8377866E+00
 1.0634590E+01 7.8444410E-01 1.8179139E+00
 9.9123690E+00 1.0695101E+00 1.9149359E+00
 9.9721136E+00 1.0466602E+00 1.9143359E+00
 1.0031215E+01 1.0235751E+00 1.9133144E+00
 1.0089680E+01 9.9999996E-01 1.9116527E+00
 1.0147523E+01 9.7580032E-01 1.9090988E+00
 1.0204732E+01 9.5093049E-01 1.9053858E+00
 1.0261248E+01 9.2539371E-01 1.9002450E+00
 1.0316967E+01 8.9921371E-01 1.8934144E+00
 1.0371751E+01 8.7242301E-01 1.8846446E+00
 1.0425456E+01 8.4506698E-01 1.8737032E+00
 1.0477967E+01 8.1722147E-01 1.8603763E+00
 1.0529242E+01 7.8901832E-01 1.8444678E+00
 1.0579332E+01 7.6066737E-01 1.8257970E+00
 9.9125202E+00 1.0232204E+00 1.9172789E+00
 9.9722670E+00 9.9999996E-01 1.9155236E+00
 1.0031215E+01 9.7642482E-01 1.9133144E+00
 1.0089379E+01 9.5230340E-01 1.9104120E+00
 1.0146783E+01 9.2755309E-01 1.9065566E+00
 1.0203425E+01 9.0216001E-01 1.9014821E+00
 1.0259261E+01 8.7613998E-01 1.8949249E+00
 1.0314198E+01 8.4951693E-01 1.8866280E+00
 1.0368116E+01 8.2232110E-01 1.8763451E+00
 1.0420898E+01 7.9460416E-01 1.8638454E+00
 1.0472474E+01 7.6646492E-01 1.8489160E+00
 1.0522856E+01 7.3807457E-01 1.8313642E+00
 9.9125202E+00 9.7677957E-01 1.9172789E+00
 9.9721136E+00 9.5333970E-01 1.9143359E+00
 1.0030760E+01 9.2942646E-01 1.9108978E+00
 1.0088485E+01 9.0490943E-01 1.9067115E+00
 1.0145324E+01 8.7975296E-01 1.9015138E+00
 1.0201283E+01 8.5396833E-01 1.8950419E+00
 1.0256324E+01 8.2757818E-01 1.8870362E+00
 1.0310360E+01 8.0060478E-01 1.8772427E+00
 1.0363282E+01 7.7308083E-01 1.8654177E+00
 1.0415003E+01 7.4507531E-01 1.8513337E+00
 1.0465500E+01 7.1672258E-01 1.8347855E+00
 9.9123690E+00 9.3048980E-01 1.9149358E+00
 9.9716597E+00 9.0698043E-01 1.9107944E+00
 1.0029868E+01 8.8287660E-01 1.9061074E+00
 1.0087029E+01 8.5810440E-01 1.9006132E+00
 1.0143182E+01 8.3266818E-01 1.8940493E+00
 1.0198335E+01 8.0659796E-01 1.8861558E+00
 1.0252440E+01 7.7992036E-01 1.8766763E+00
 1.0305408E+01 7.5265981E-01 1.8653596E+00
 1.0357142E+01 7.2486295E-01 1.8519668E+00
 1.0407599E+01 6.9663175E-01 1.8362808E+00
 9.9120735E+00 8.8464756E-01 1.9102924E+00
 9.9709239E+00 8.6121084E-01 1.9049621E+00
 1.0028569E+01 8.3705075E-01 1.8990247E+00
 1.0085044E+01 8.1214262E-01 1.8922142E+00
 1.0140381E+01 7.8652353E-01 1.8842699E+00
 1.0194566E+01 7.6023834E-01 1.8749353E+00
 1.0247531E+01 7.3332107E-01 1.8639569E+00
 1.0299185E+01 7.0581087E-01 1.8510897E+00
 1.0349470E+01 6.7778727E-01 1.8361076E+00
 9.9116465E+00 8.3953339E-01 1.9034316E+00
 9.9699325E+00 8.1629605E-01 1.8969392E+00
 1.0026894E+01 7.9219027E-01 1.8897634E+00
 1.0082549E+01 7.6723131E-01 1.8816359E+00
 1.0136890E+01 7.4148424E-01 1.8722981E+00
 1.0189866E+01 7.1501302E-01 1.8614979E+00
 1.0241391E+01 6.8787357E-01 1.8489902E+00
 1.0291407E+01 6.6014244E-01 1.8345452E+00
 9.9111042E+00 7.9540376E-01 1.8944717E+00
 9.9687102E+00 7.7246771E-01 1.8868559E+00
 1.0024855E+01 7.4848847E-01 1.8784591E+00
 1.0079498E+01 7.2351442E-01 1.8690100E+00
 1.0132570E+01 6.9764330E-01 1.8582546E+00
 1.0183978E+01 6.7097740E-01 1.8459527E+00
 1.0233672E+01 6.4362365E-01 1.8318798E+00
 9.9104596E+00 7.5248381E-01 1.8835602E+00
 9.9672622E+00 7.2991345E-01 1.8748635E+00
 1.0022402E+01 7.0607457E-01 1.8652539E+00
 1.0075733E+01 6.8105499E-01 1.8544590E+00
 1.0127119E+01 6.5501489E-01 1.8422407E+00
 1.0176494E+01 6.2813446E-01 1.8283893E+00
 9.9097123E+00 7.1095983E-01 1.8708655E+00
 9.9655448E+00 6.8875924E-01 1.8611191E+00
 1.0019378E+01 6.6499557E-01 1.8502771E+00
 1.0070927E+01 6.3983161E-01 1.8380773E+00
 1.0120060E+01 6.1355656E-01 1.8243284E+00
 9.9088361E+00 6.7097359E-01 1.8565678E+00
 9.9634271E+00 6.4905046E-01 1.8457667E+00
 1.0015438E+01 6.2519023E-01 1.8336160E+00
 1.0064522E+01 5.9974402E-01 1.8199131E+00
 9.9077527E+00 6.3260117E-01 1.8408408E+00
 9.9606392E+00 6.1074342E-01 1.8289169E+00
 1.0009981E+01 5.8651791E-01 1.8153069E+00
 9.9063039E+00 5.9582811E-01 1.8238305E+00
 9.9564773E+00 5.7360869E-01 1.8105808E+00
 9.9041683E+00 5.6064682E-01 1.8056966E+00
 9.8235022E+00 1.5075188E+00 1.7685278E+00
 9.7913992E+00 1.5337262E+00 1.7524733E+00
 9.7577700E+00 1.5605863E+00 1.7349235E+00
 9.7228390E+00 1.5879104E+00 1.7158674E+00
 9.6868157E+00 1.6155883E+00 1.6952312E+00
 9.6499944E+00 1.6434987E+00 1.6729097E+00
 9.6126876E+00 1.6714961E+00 1.6487787E+00
 9.5752450E+00 1.6993811E+00 1.6227200E+00
 9.5380301E+00 1.7269039E+00 1.5946294E+00
 9.5013890E+00 1.7537719E+00 1.5644321E+00
 9.4656265E+00 1.7796635E+00 1.5320965E+00
 9.4309930E+00 1.8042472E+00 1.4976459E+00
 9.3976825E+00 1.8272009E+00 1.4611666E+00
 9.3658384E+00 1.8482304E+00 1.4228076E+00
 9.3355641E+00 1.8670860E+00 1.3827762E+00
 9.3069343E+00 1.8835726E+00 1.3413291E+00
 9.2800055E+00 1.8975573E+00 1.2987614E+00
 9.2548231E+00 1.9089706E+00 1.2553922E+00
 9.2314237E+00 1.9178063E+00 1.2115506E+00
 9.2098344E+00 1.9241153E+00 1.1675661E+00
 9.1900726E+00 1.9279957E+00 1.1237911E+00
 9.1721231E+00 1.9295786E+00 1.0805990E+00
 9.1560037E+00 1.9290382E+00 1.0386521E+00
 8.6861283E+00 1.0737775E+00 1.6268417E+00
 8.6817281E+00 1.1216815E+00 1.6136885E+00
 8.6790507E+00 1.1703034E+00 1.5984797E+00
 8.6785056E+00 1.2197220E+00 1.5814430E+00
 8.6803673E+00 1.2698617E+00 1.5626426E+00
 8.6848655E+00 1.3205401E+00 1.5421136E+00
 8.6921868E+00 1.3714935E+00 1.5198823E+00
 8.7024749E+00 1.4223980E+00 1.4959820E+00
 8.7158286E+00 1.4728817E+00 1.4704660E+00
 8.7322989E+00 1.5225379E+00 1.4434183E+00
 8.7518843E+00 1.5709377E+00 1.4149584E+00
 8.7745260E+00 1.6176427E+00 1.3852434E+00
 8.8001053E+00 1.6622213E+00 1.3544662E+00
 8.8284424E+00 1.7042636E+00 1.3228510E+00
 8.8593008E+00 1.7433980E+00 1.2906473E+00
 8.8923928E+00 1.7793046E+00 1.2581229E+00
 8.9273895E+00 1.8117300E+00 1.2255529E+00
 8.9639304E+00 1.8404954E+00 1.1932083E+00
 9.0016398E+00 1.8655071E+00 1.1613361E+00
 9.0401387E+00 1.8867598E+00 1.1301307E+00
 9.0790594E+00 1.9043350E+00 1.0996718E+00
 9.1179410E+00 1.9183721E+00 1.0697766E+00
 8.7155505E+00 1.1044455E+00 1.6582943E+00
 8.7129094E+00 1.1549336E+00 1.6452087E+00
 8.7119123E+00 1.2053843E+00 1.6297938E+00
 8.7130573E+00 1.2561455E+00 1.6123741E+00
 8.7166751E+00 1.3072625E+00 1.5930786E+00
 8.7230121E+00 1.3586094E+00 1.5719676E+00
 8.7322450E+00 1.4099381E+00 1.5490741E+00
 8.7444901E+00 1.4609150E+00 1.5244327E+00
 8.7598082E+00 1.5111494E+00 1.4981003E+00
 8.7782067E+00 1.5602150E+00 1.4701699E+00
 8.7996368E+00 1.6076682E+00 1.4407764E+00
 8.8239924E+00 1.6530664E+00 1.4100972E+00
 8.8511084E+00 1.6959860E+00 1.3783481E+00
 8.8807659E+00 1.7360402E+00 1.3457774E+00
 8.9126969E+00 1.7728956E+00 1.3126557E+00
 8.9465967E+00 1.8062869E+00 1.2792616E+00
 8.9821318E+00 1.8360273E+00 1.2458624E+00
 9.0189574E+00 1.8620183E+00 1.2126803E+00
 9.0567330E+00 1.8842557E+00 1.1798432E+00
 9.0951284E+00 1.9028219E+00 1.1473107E+00
 9.1337958E+00 1.9178734E+00 1.1146511E+00
 8.7484905E+00 1.1350641E+00 1.6890717E+00
 8.7475443E+00 1.1873357E+00 1.6757567E+00
 8.7482785E+00 1.2392895E+00 1.6599815E+00
 8.7511902E+00 1.2912110E+00 1.6420584E+00
 8.7566379E+00 1.3431688E+00 1.6221437E+00
 8.7648701E+00 1.3950444E+00 1.6003111E+00
 8.7760447E+00 1.4465834E+00 1.5765991E+00
 8.7902441E+00 1.4974373E+00 1.5510476E+00
 8.8074878E+00 1.5471976E+00 1.5237246E+00
 8.8277368E+00 1.5954241E+00 1.4947396E+00
 8.8508953E+00 1.6416679E+00 1.4642498E+00
 8.8768117E+00 1.6854938E+00 1.4324579E+00
 8.9052818E+00 1.7265002E+00 1.3996061E+00
 8.9360564E+00 1.7643388E+00 1.3659647E+00
 8.9688511E+00 1.7987300E+00 1.3318160E+00
 9.0033573E+00 1.8294772E+00 1.2974281E+00
 9.0392529E+00 1.8564744E+00 1.2630169E+00
 9.0762161E+00 1.8797124E+00 1.2286902E+00
 9.1139281E+00 1.8992728E+00 1.1943698E+00
 9.1520516E+00 1.9153080E+00 1.1596828E+00
 8.7849756E+00 1.1658287E+00 1.7186212E+00
 8.7857095E+00 1.2193555E+00 1.7048507E+00
 8.7882007E+00 1.2724122E+00 1.6885407E+00
 8.7929303E+00 1.3251989E+00 1.6699714E+00
 8.8002527E+00 1.3777375E+00 1.6492973E+00
 8.8104016E+00 1.4298834E+00 1.6265957E+00
 8.8235042E+00 1.4813586E+00 1.6019112E+00
 8.8396033E+00 1.5317941E+00 1.5752954E+00
 8.8586729E+00 1.5807670E+00 1.5468339E+00
 8.8806278E+00 1.6278316E+00 1.5166607E+00
 8.9053283E+00 1.6725467E+00 1.4849603E+00
 8.9325841E+00 1.7144988E+00 1.4519640E+00
 8.9621633E+00 1.7533252E+00 1.4179384E+00
 8.9938003E+00 1.7887312E+00 1.3831687E+00
 9.0272080E+00 1.8205071E+00 1.3479291E+00
 9.0620838E+00 1.8485358E+00 1.3124456E+00
 9.0981184E+00 1.8728004E+00 1.2768362E+00
 9.1349949E+00 1.8933777E+00 1.2410518E+00
 9.1723762E+00 1.9104196E+00 1.2048138E+00
 8.8250241E+00 1.1966369E+00 1.7464375E+00
 8.8274220E+00 1.2510081E+00 1.7319992E+00
 8.8316769E+00 1.3047940E+00 1.7149728E+00