# TIME = 9.200000
variables = x, y, z
zone N=5762 E=11520 F=FEPOINT ET=TRIANGLE
 8.9079050E+00 1.4837086E+00 1.7824857E+00
 8.9079051E+00 1.4837084E+00 2.1751453E-01
 8.9079051E+00 5.1629160E-01 1.7824855E+00
 8.9079051E+00 5.1629147E-01 2.1751431E-01
 7.7228088E+00 1.0000000E+00 1.6054336E+00
 1.0118573E+01 1.0000000E+00 1.6159900E+00
 7.7228087E+00 1.0000000E+00 3.9456627E-01
 1.0118573E+01 1.0000000E+00 3.8400991E-01
 8.1994107E+00 1.9273923E+00 9.9999971E-01
 8.1994107E+00 7.2607857E-02 1.0000001E+00
 9.6017638E+00 1.8665624E+00 9.9999993E-01
 9.6017638E+00 1.3343769E-01 9.9999995E-01
 8.8619547E+00 1.4758431E+00 1.7898172E+00
 8.8110103E+00 1.4671514E+00 1.7980965E+00
 8.7572719E+00 1.4581325E+00 1.8070147E+00
 8.7012343E+00 1.4487447E+00 1.8165626E+00
 8.6433836E+00 1.4388656E+00 1.8266430E+00
 8.5843791E+00 1.4282829E+00 1.8370061E+00
 8.5248907E+00 1.4167142E+00 1.8472229E+00
 8.4654611E+00 1.4038359E+00 1.8567007E+00
 8.4064072E+00 1.3893218E+00 1.8647361E+00
 8.3478407E+00 1.3728843E+00 1.8705805E+00
 8.2897779E+00 1.3543105E+00 1.8735077E+00
 8.2322774E+00 1.3334928E+00 1.8728827E+00
 8.1755474E+00 1.3104513E+00 1.8682298E+00
 8.1199771E+00 1.2853397E+00 1.8592892E+00
 8.0660883E+00 1.2584319E+00 1.8460412E+00
 8.0144486E+00 1.2300923E+00 1.8286952E+00
 7.9655846E+00 1.2007357E+00 1.8076461E+00
 7.9199215E+00 1.1707881E+00 1.7834159E+00
 7.8777519E+00 1.1406561E+00 1.7565908E+00
 7.8392273E+00 1.1107053E+00 1.7277651E+00
 7.8043905E+00 1.0812629E+00 1.6975211E+00
 7.7732077E+00 1.0526149E+00 1.6664137E+00
 7.7456847E+00 1.0250979E+00 1.6350905E+00
 8.8566188E+00 5.5808327E-01 1.8095913E+00
 8.8037853E+00 5.6886186E-01 1.8185795E+00
 8.7487439E+00 5.7950086E-01 1.8278724E+00
 8.6917946E+00 5.9036812E-01 1.8376250E+00
 8.6333572E+00 6.0177920E-01 1.8478072E+00
 8.5740555E+00 6.1401472E-01 1.8581562E+00
 8.5145336E+00 6.2736993E-01 1.8682035E+00
 8.4552773E+00 6.4213729E-01 1.8773155E+00
 8.3965464E+00 6.5858383E-01 1.8847609E+00
 8.3384144E+00 6.7692156E-01 1.8897829E+00
 8.2808876E+00 6.9728149E-01 1.8916690E+00
 8.2240391E+00 7.1969092E-01 1.8898198E+00
 8.1680987E+00 7.4405971E-01 1.8838134E+00
 8.1134672E+00 7.7018264E-01 1.8734539E+00
 8.0606599E+00 7.9775870E-01 1.8587872E+00
 8.0102192E+00 8.2642332E-01 1.8400794E+00
 7.9626318E+00 8.5578362E-01 1.8177667E+00
 7.9182690E+00 8.8544896E-01 1.7923880E+00
 7.8773545E+00 9.1504841E-01 1.7645130E+00
 7.8399437E+00 9.4423666E-01 1.7346648E+00
 7.8059107E+00 9.7268992E-01 1.7032399E+00
 7.7749303E+00 1.0000000E+00 1.6704190E+00
 8.8544612E+00 5.9312416E-01 1.8278861E+00
 8.7994763E+00 6.0594672E-01 1.8373510E+00
 8.7429567E+00 6.1826295E-01 1.8468737E+00
 8.6848973E+00 6.3074360E-01 1.8567459E+00
 8.6257154E+00 6.4380387E-01 1.8669344E+00
 8.5659887E+00 6.5778825E-01 1.8771593E+00
 8.5063084E+00 6.7298886E-01 1.8869123E+00
 8.4471000E+00 6.8966131E-01 1.8955245E+00
 8.3885690E+00 7.0801259E-01 1.9022439E+00
 8.3307559E+00 7.2818397E-01 1.9063120E+00
 8.2736597E+00 7.5023235E-01 1.9070358E+00
 8.2173664E+00 7.7411536E-01 1.9038554E+00
 8.1621224E+00 7.9968556E-01 1.8964044E+00
 8.1083331E+00 8.2669989E-01 1.8845491E+00
 8.0564993E+00 8.5484398E-01 1.8683945E+00
 8.0071276E+00 8.8376444E-01 1.8482523E+00
 7.9606457E+00 9.1309685E-01 1.8245764E+00
 7.9173319E+00 9.4248309E-01 1.7978759E+00
 7.8772645E+00 9.7157182E-01 1.7686122E+00
 7.8402868E+00 1.0000000E+00 1.7370864E+00
 7.8059107E+00 1.0273101E+00 1.7032399E+00
 8.8529670E+00 6.2982597E-01 1.8450412E+00
 8.7965501E+00 6.4433492E-01 1.8545668E+00
 8.7387334E+00 6.5833081E-01 1.8641369E+00
 8.6796735E+00 6.7247205E-01 1.8739727E+00
 8.6197688E+00 6.8725410E-01 1.8840282E+00
 8.5596007E+00 7.0303662E-01 1.8939813E+00
 8.4997210E+00 7.2009846E-01 1.9032847E+00
 8.4405069E+00 7.3865216E-01 1.9112388E+00
 8.3821204E+00 7.5884656E-01 1.9170778E+00
 8.3245766E+00 7.8075712E-01 1.9200493E+00
 8.2678713E+00 8.0437444E-01 1.9194864E+00
 8.2121007E+00 8.2959673E-01 1.9148732E+00
 8.1575211E+00 8.5623151E-01 1.9058991E+00
 8.1045329E+00 8.8401133E-01 1.8924889E+00
 8.0536077E+00 9.1262009E-01 1.8747955E+00
 8.0051944E+00 9.4172004E-01 1.8531531E+00
 7.9596231E+00 9.7096589E-01 1.8279911E+00
 7.9170236E+00 1.0000000E+00 1.7997226E+00
 7.8772645E+00 1.0284282E+00 1.7686122E+00
 7.8399437E+00 1.0557634E+00 1.7346648E+00
 8.8518089E+00 6.6821353E-01 1.8609269E+00
 8.7942740E+00 6.8424936E-01 1.8702707E+00
 8.7354285E+00 6.9984327E-01 1.8796731E+00
 8.6755120E+00 7.1565075E-01 1.8892990E+00
 8.6149849E+00 7.3216697E-01 1.8990484E+00
 8.5544330E+00 7.4974733E-01 1.9085542E+00
 8.4943889E+00 7.6863915E-01 1.9172292E+00
 8.4351926E+00 7.8900874E-01 1.9243502E+00
 8.3769729E+00 8.1094761E-01 1.9291462E+00
 8.3197262E+00 8.3447035E-01 1.9308796E+00
 8.2634463E+00 8.5950931E-01 1.9289168E+00
 8.2082352E+00 8.8591422E-01 1.9227896E+00
 8.1543487E+00 9.1346047E-01 1.9122419E+00
 8.1021665E+00 9.4186824E-01 1.8972475E+00
 8.0521083E+00 9.7082525E-01 1.8779875E+00
 8.0045308E+00 1.0000000E+00 1.8547835E+00
 7.9596231E+00 1.0290341E+00 1.8279911E+00
 7.9173319E+00 1.0575169E+00 1.7978759E+00
 7.8773545E+00 1.0849516E+00 1.7645130E+00
 8.8508327E+00 7.0831014E-01 1.8754032E+00
 8.7923732E+00 7.2573844E-01 1.8843646E+00
 8.7326821E+00 7.4285984E-01 1.8934103E+00
 8.6720713E+00 7.6029489E-01 1.9026400E+00
 8.6110521E+00 7.7851618E-01 1.9118966E+00
 8.5502269E+00 7.9784770E-01 1.9207644E+00
 8.4901124E+00 8.1849602E-01 1.9286227E+00
 8.4310201E+00 8.4057663E-01 1.9347331E+00
 8.3730521E+00 8.6412604E-01 1.9383298E+00
 8.3161902E+00 8.8910383E-01 1.9386993E+00
 8.2604244E+00 9.1539391E-01 1.9352476E+00
 8.2058546E+00 9.4280973E-01 1.9275553E+00
 8.1527207E+00 9.7110684E-01 1.9154143E+00
 8.1013598E+00 1.0000000E+00 1.8988315E+00
 8.0521083E+00 1.0291748E+00 1.8779875E+00
 8.0051944E+00 1.0582800E+00 1.8531531E+00
 7.9606457E+00 1.0869032E+00 1.8245764E+00
 7.9182690E+00 1.1145511E+00 1.7923880E+00
 8.8499737E+00 7.5004041E-01 1.8882898E+00
 8.7907326E+00 7.6875419E-01 1.8966984E+00
 8.7303539E+00 7.8732578E-01 1.9052102E+00
 8.6692102E+00 8.0632673E-01 1.9138594E+00
 8.6078533E+00 8.2618708E-01 1.9224324E+00
 8.5468972E+00 8.4718543E-01 1.9304701E+00
 8.4868444E+00 8.6947905E-01 1.9373270E+00
 8.4279805E+00 8.9313188E-01 1.9422606E+00
 8.3703851E+00 9.1812934E-01 1.9445209E+00
 8.3140262E+00 9.4438479E-01 1.9434263E+00
 8.2588856E+00 9.7174518E-01 1.9384261E+00
 8.2050488E+00 1.0000000E+00 1.9291462E+00
 8.1527207E+00 1.0288932E+00 1.9154144E+00
 8.1021665E+00 1.0581318E+00 1.8972475E+00
 8.0536078E+00 1.0873799E+00 1.8747956E+00
 8.0071277E+00 1.1162356E+00 1.8482523E+00
 7.9626318E+00 1.1442164E+00 1.8177667E+00
 8.8492218E+00 7.9325739E-01 1.8993932E+00
 8.7893305E+00 8.1316178E-01 1.9070987E+00
 8.7284220E+00 8.3309652E-01 1.9149095E+00
 8.6669141E+00 8.5357882E-01 1.9227993E+00
 8.6053878E+00 8.7498178E-01 1.9305030E+00
 8.5444609E+00 8.9752900E-01 1.9375274E+00
 8.4846189E+00 9.2132524E-01 1.9432131E+00
 8.4261229E+00 9.4638528E-01 1.9468252E+00
 8.3690310E+00 9.7265091E-01 1.9476382E+00
 8.3132965E+00 1.0000000E+00 1.9450081E+00
 8.2588856E+00 1.0282549E+00 1.9384261E+00
 8.2058546E+00 1.0571903E+00 1.9275553E+00
 8.1543487E+00 1.0865395E+00 1.9122419E+00
 8.1045329E+00 1.1159887E+00 1.8924889E+00
 8.0564994E+00 1.1451560E+00 1.8683945E+00
 8.0102193E+00 1.1735767E+00 1.8400794E+00
 8.8485881E+00 8.3776638E-01 1.9085304E+00
 8.7881896E+00 8.5875944E-01 1.9153948E+00
 8.7269176E+00 8.7995641E-01 1.9223482E+00
 8.6652224E+00 9.0181145E-01 1.9293091E+00
 8.6037020E+00 9.2463187E-01 1.9359703E+00
 8.5429693E+00 9.4858147E-01 1.9418151E+00
 8.4834890E+00 9.7371351E-01 1.9461826E+00
 8.4254971E+00 1.0000001E+00 1.9483550E+00
 8.3690310E+00 1.0273492E+00 1.9476382E+00
 8.3140262E+00 1.0556153E+00 1.9434263E+00
 8.2604245E+00 1.0846061E+00 1.9352476E+00
 8.2082353E+00 1.1140858E+00 1.9227896E+00
 8.1575211E+00 1.1437685E+00 1.9058991E+00
 8.1083332E+00 1.1733001E+00 1.8845491E+00
 8.0606600E+00 1.2022413E+00 1.8587872E+00
 8.8480917E+00 8.8333025E-01 1.9155392E+00
 8.7873440E+00 9.0529614E-01 1.9214376E+00
 8.7258843E+00 9.2763480E-01 1.9273900E+00
 8.6641836E+00 9.5072955E-01 1.9332675E+00
 8.6028447E+00 9.7481673E-01 1.9387313E+00
 8.5424665E+00 1.0000001E+00 1.9432537E+00
 8.4834890E+00 1.0262866E+00 1.9461826E+00
 8.4261229E+00 1.0536148E+00 1.9468252E+00
 8.3703851E+00 1.0818707E+00 1.9445209E+00
 8.3161902E+00 1.1108962E+00 1.9386993E+00
 8.2634463E+00 1.1404907E+00 1.9289168E+00
 8.2121008E+00 1.1704033E+00 1.9148732E+00
 8.1621225E+00 1.2003145E+00 1.8964045E+00
 8.1134673E+00 1.2298174E+00 1.8734540E+00
 8.8477502E+00 9.2967648E-01 1.9202890E+00
 8.7868236E+00 9.5248214E-01 1.9251119E+00
 8.7253579E+00 9.7582094E-01 1.9299366E+00
 8.6638332E+00 1.0000001E+00 1.9345960E+00
 8.6028447E+00 1.0251834E+00 1.9387313E+00
 8.5429692E+00 1.0514187E+00 1.9418152E+00
 8.4846189E+00 1.0786749E+00 1.9432131E+00
 8.4279805E+00 1.1068682E+00 1.9422606E+00
 8.3730521E+00 1.1358740E+00 1.9383298E+00
 8.3197262E+00 1.1655297E+00 1.9308796E+00
 8.2678713E+00 1.1956256E+00 1.9194865E+00
 8.2173665E+00 1.2258847E+00 1.9038555E+00
 8.1680988E+00 1.2559403E+00 1.8838134E+00
 8.8475762E+00 9.7650458E-01 1.9226876E+00
 8.7866480E+00 1.0000000E+00 1.9263450E+00
 8.7253579E+00 1.0241792E+00 1.9299366E+00
 8.6641836E+00 1.0492706E+00 1.9332676E+00
 8.6037020E+00 1.0753683E+00 1.9359703E+00
 8.5444609E+00 1.1024711E+00 1.9375274E+00
 8.4868444E+00 1.1305211E+00 1.9373270E+00
 8.4310201E+00 1.1594235E+00 1.9347331E+00
 8.3769730E+00 1.1890525E+00 1.9291463E+00
 8.3245767E+00 1.2192430E+00 1.9200494E+00
 8.2736598E+00 1.2497677E+00 1.9070359E+00
 8.2240392E+00 1.2803091E+00 1.8898199E+00
 8.8475762E+00 1.0234955E+00 1.9226876E+00
 8.7868236E+00 1.0475179E+00 1.9251120E+00
 8.7258842E+00 1.0723653E+00 1.9273900E+00
 8.6652223E+00 1.0981887E+00 1.9293092E+00
 8.6053877E+00 1.1250184E+00 1.9305031E+00
 8.5468972E+00 1.1528147E+00 1.9304702E+00
 8.4901124E+00 1.1815041E+00 1.9286227E+00
 8.4351927E+00 1.2109914E+00 1.9243503E+00
 8.3821205E+00 1.2411536E+00 1.9170779E+00
 8.3307560E+00 1.2718161E+00 1.9063120E+00
 8.2808877E+00 1.3027186E+00 1.8916691E+00
 8.8477502E+00 1.0703236E+00 1.9202890E+00
 8.7873439E+00 1.0947040E+00 1.9214377E+00
 8.7269175E+00 1.1200437E+00 1.9223483E+00
 8.6669140E+00 1.1464213E+00 1.9227993E+00
 8.6078532E+00 1.1738131E+00 1.9224325E+00
 8.5502268E+00 1.2021525E+00 1.9207645E+00
 8.4943889E+00 1.2313610E+00 1.9172293E+00
 8.4405069E+00 1.2613480E+00 1.9112389E+00
 8.3885691E+00 1.2919875E+00 1.9022440E+00
 8.3384145E+00 1.3230786E+00 1.8897830E+00
 8.8480917E+00 1.1166698E+00 1.9155393E+00
 8.7881895E+00 1.1412407E+00 1.9153948E+00
 8.7284220E+00 1.1669036E+00 1.9149096E+00
 8.6692101E+00 1.1936734E+00 1.9138595E+00
 8.6110520E+00 1.2214840E+00 1.9118967E+00
 8.5544329E+00 1.2502528E+00 1.9085542E+00
 8.4997210E+00 1.2799017E+00 1.9032848E+00
 8.4471001E+00 1.3103388E+00 1.8955246E+00
 8.3965465E+00 1.3414163E+00 1.8847610E+00
 8.8485881E+00 1.1622337E+00 1.9085304E+00
 8.7893304E+00 1.1868383E+00 1.9070987E+00
 8.7303538E+00 1.2126744E+00 1.9052103E+00
 8.6720712E+00 1.2397053E+00 1.9026401E+00
 8.6149848E+00 1.2678332E+00 1.8990485E+00
 8.5596006E+00 1.2969636E+00 1.8939814E+00
 8.5063084E+00 1.3270113E+00 1.8869124E+00
 8.4552774E+00 1.3578629E+00 1.8773156E+00
 8.8492217E+00 1.2067427E+00 1.8993933E+00
 8.7907325E+00 1.2312459E+00 1.8966985E+00
 8.7326820E+00 1.2571403E+00 1.8934104E+00
 8.6755119E+00 1.2843494E+00 1.8892991E+00
 8.6197687E+00 1.3127461E+00 1.8840283E+00
 8.5659886E+00 1.3422119E+00 1.8771594E+00
 8.5145336E+00 1.3726303E+00 1.8682036E+00
 8.8499737E+00 1.2499597E+00 1.8882899E+00
 8.7923731E+00 1.2742617E+00 1.8843647E+00
 8.7354284E+00 1.3001569E+00 1.8796732E+00
 8.6796734E+00 1.3275281E+00 1.8739729E+00
 8.6257153E+00 1.3561963E+00 1.8669345E+00
 8.5740555E+00 1.3859855E+00 1.8581563E+00
 8.8508326E+00 1.2916900E+00 1.8754033E+00
 8.7942738E+00 1.3157508E+00 1.8702708E+00
 8.7387333E+00 1.3416694E+00 1.8641371E+00
 8.6848972E+00 1.3692566E+00 1.8567461E+00
 8.6333571E+00 1.3982210E+00 1.8478073E+00
 8.8518088E+00 1.3317866E+00 1.8609270E+00
 8.7965499E+00 1.3556653E+00 1.8545670E+00
 8.7429566E+00 1.3817372E+00 1.8468738E+00
 8.6917945E+00 1.4096321E+00 1.8376251E+00
 8.8529669E+00 1.3701742E+00 1.8450413E+00
 8.7994761E+00 1.3940535E+00 1.8373512E+00
 8.7487438E+00 1.4204993E+00 1.8278725E+00
 8.8544611E+00 1.4068760E+00 1.8278863E+00
 8.8037852E+00 1.4311383E+00 1.8185797E+00
 8.8566187E+00 1.4419169E+00 1.8095915E+00
 8.9079233E+00 1.4544702E+00 1.7998495E+00
 8.9079495E+00 1.4213011E+00 1.8178444E+00
 8.9079486E+00 1.3861563E+00 1.8350481E+00
 8.9079315E+00 1.3490549E+00 1.8512531E+00
 8.9079067E+00 1.3101033E+00 1.8662316E+00
 8.9078815E+00 1.2694346E+00 1.8797582E+00
 8.9078594E+00 1.2271880E+00 1.8916279E+00
 8.9078421E+00 1.1835482E+00 1.9016460E+00
 8.9078297E+00 1.1387391E+00 1.9096382E+00
 8.9078216E+00 1.0930174E+00 1.9154585E+00
 8.9078170E+00 1.0466685E+00 1.9189968E+00
 8.9078155E+00 1.0000000E+00 1.9201840E+00
 8.9078170E+00 9.5333153E-01 1.9189968E+00
 8.9078216E+00 9.0698265E-01 1.9154585E+00
 8.9078297E+00 8.6126095E-01 1.9096381E+00
 8.9078421E+00 8.1645191E-01 1.9016460E+00
 8.9078594E+00 7.7281210E-01 1.8916278E+00
 8.9078815E+00 7.3056551E-01 1.8797581E+00
 8.9079068E+00 6.8989680E-01 1.8662315E+00
 8.9079316E+00 6.5094528E-01 1.8512530E+00
 8.9079486E+00 6.1384386E-01 1.8350480E+00
 8.9079496E+00 5.7869908E-01 1.8178443E+00
 8.9079233E+00 5.4553001E-01 1.7998493E+00
 8.9535376E+00 5.2617618E-01 1.7864540E+00
 9.0033437E+00 5.3706190E-01 1.7908765E+00
 9.0550789E+00 5.4840797E-01 1.7954673E+00
 9.1083663E+00 5.6028437E-01 1.8001296E+00
 9.1630520E+00 5.7279057E-01 1.8047227E+00
 9.2189627E+00 5.8604769E-01 1.8090690E+00
 9.2759287E+00 6.0018530E-01 1.8129529E+00
 9.3337417E+00 6.1533202E-01 1.8161252E+00
 9.3921577E+00 6.3161003E-01 1.8183117E+00
 9.4508954E+00 6.4912568E-01 1.8192233E+00
 9.5096389E+00 6.6796027E-01 1.8185702E+00
 9.5680439E+00 6.8816142E-01 1.8160777E+00
 9.6257460E+00 7.0973624E-01 1.8115028E+00
 9.6823699E+00 7.3264760E-01 1.8046500E+00
 9.7375414E+00 7.5681372E-01 1.7953846E+00
 9.7908985E+00 7.8211087E-01 1.7836404E+00
 9.8421034E+00 8.0837882E-01 1.7694240E+00
 9.8908528E+00 8.3542893E-01 1.7528131E+00
 9.9368858E+00 8.6305411E-01 1.7339515E+00
 9.9799932E+00 8.9103886E-01 1.7130381E+00
 1.0020002E+01 9.1914872E-01 1.6903277E+00
 1.0056775E+01 9.4712597E-01 1.6661188E+00
 1.0090097E+01 9.7457523E-01 1.6408477E+00
 8.9588095E+00 1.4398312E+00 1.8057424E+00
 9.0103095E+00 1.4269615E+00 1.8106082E+00
 9.0631371E+00 1.4141216E+00 1.8153244E+00
 9.1171662E+00 1.4009330E+00 1.8199386E+00
 9.1723600E+00 1.3871257E+00 1.8243830E+00
 9.2286090E+00 1.3725252E+00 1.8284922E+00
 9.2857506E+00 1.3569921E+00 1.8320449E+00
 9.3435821E+00 1.3404116E+00 1.8347794E+00
 9.4018569E+00 1.3226880E+00 1.8364102E+00
 9.4602894E+00 1.3037473E+00 1.8366423E+00
 9.5185600E+00 1.2835436E+00 1.8351871E+00
 9.5763231E+00 1.2620650E+00 1.8317790E+00
 9.6332175E+00 1.2393383E+00 1.8261919E+00
 9.6888770E+00 1.2154295E+00 1.8182536E+00
 9.7429414E+00 1.1904414E+00 1.8078573E+00
 9.7950674E+00 1.1645090E+00 1.7949672E+00
 9.8449427E+00 1.1377943E+00 1.7796179E+00
 9.8923038E+00 1.1104828E+00 1.7619045E+00
 9.9369534E+00 1.0827824E+00 1.7419667E+00
 9.9787926E+00 1.0549274E+00 1.7199538E+00
 1.0017869E+01 1.0271875E+00 1.6959676E+00
 1.0054450E+01 1.0000000E+00 1.6699743E+00
 8.9609361E+00 1.4048924E+00 1.8237778E+00
 9.0144197E+00 1.3900809E+00 1.8288517E+00
 9.0685287E+00 1.3757094E+00 1.8335482E+00
 9.1235091E+00 1.3611013E+00 1.8380278E+00
 9.1793773E+00 1.3459057E+00 1.8422340E+00
 9.2360881E+00 1.3298936E+00 1.8460087E+00
 9.2935118E+00 1.3129215E+00 1.8491207E+00
 9.3514582E+00 1.2948888E+00 1.8512973E+00
 9.4096842E+00 1.2757250E+00 1.8522446E+00
 9.4679019E+00 1.2553863E+00 1.8516650E+00
 9.5257894E+00 1.2338588E+00 1.8492748E+00
 9.5830019E+00 1.2111624E+00 1.8448204E+00
 9.6391832E+00 1.1873514E+00 1.8380946E+00
 9.6939786E+00 1.1625130E+00 1.8289493E+00
 9.7470477E+00 1.1367618E+00 1.8173035E+00
 9.7980778E+00 1.1102346E+00 1.8031441E+00
 9.8468085E+00 1.0830890E+00 1.7865146E+00
 9.8930681E+00 1.0555085E+00 1.7674884E+00
 9.9368253E+00 1.0277160E+00 1.7461208E+00
 9.9782491E+00 1.0000000E+00 1.7223774E+00
 1.0017869E+01 9.7281252E-01 1.6959676E+00
 8.9623738E+00 1.3683226E+00 1.8407330E+00
 9.0171613E+00 1.3519793E+00 1.8456569E+00
 9.0724063E+00 1.3361118E+00 1.8501735E+00
 9.1282571E+00 1.3200778E+00 1.8543841E+00
 9.1847922E+00 1.3034582E+00 1.8582337E+00
 9.2419796E+00 1.2860122E+00 1.8615497E+00
 9.2997094E+00 1.2675973E+00 1.8640899E+00
 9.3577975E+00 1.2481311E+00 1.8655713E+00
 9.4160009E+00 1.2275674E+00 1.8656951E+00
 9.4740298E+00 1.2058906E+00 1.8641648E+00
 9.5315612E+00 1.1831155E+00 1.8607050E+00
 9.5882530E+00 1.1592880E+00 1.8550773E+00
 9.6437577E+00 1.1344831E+00 1.8470951E+00
 9.6977387E+00 1.1088005E+00 1.8366325E+00
 9.7498874E+00 1.0823587E+00 1.8236278E+00
 9.7999473E+00 1.0552941E+00 1.8080738E+00
 9.8477568E+00 1.0277699E+00 1.7899899E+00
 9.8933091E+00 1.0000000E+00 1.7693730E+00
 9.9368253E+00 9.7228410E-01 1.7461208E+00
 9.9787926E+00 9.4507271E-01 1.7199538E+00
 8.9634554E+00 1.3300905E+00 1.8564501E+00
 9.0192609E+00 1.3124033E+00 1.8610120E+00
 9.0754097E+00 1.2951585E+00 1.8651633E+00
 9.1320144E+00 1.2777297E+00 1.8689578E+00
 9.1891320E+00 1.2597069E+00 1.8723077E+00
 9.2467386E+00 1.2408502E+00 1.8750221E+00
 9.3047245E+00 1.2210331E+00 1.8768445E+00
 9.3629064E+00 1.2001935E+00 1.8774845E+00
 9.4210391E+00 1.1783100E+00 1.8766417E+00
 9.4788314E+00 1.1553929E+00 1.8740250E+00
 9.5359623E+00 1.1314813E+00 1.8693710E+00
 9.5920969E+00 1.1066404E+00 1.8624588E+00
 9.6469031E+00 1.0809581E+00 1.8531219E+00
 9.7000745E+00 1.0545390E+00 1.8412519E+00
 9.7513567E+00 1.0275039E+00 1.8267930E+00
 9.8005872E+00 1.0000000E+00 1.8097194E+00
 9.8477568E+00 9.7223021E-01 1.7899899E+00
 9.8930681E+00 9.4449157E-01 1.7674884E+00
 9.9369534E+00 9.1721770E-01 1.7419667E+00
 8.9643503E+00 1.2901694E+00 1.8707770E+00
 9.0210007E+00 1.2712962E+00 1.8747980E+00
 9.0778963E+00 1.2527731E+00 1.8784209E+00
 9.1351167E+00 1.2340188E+00 1.8816440E+00
 9.1927011E+00 1.2146484E+00 1.8843435E+00
 9.2506171E+00 1.1944458E+00 1.8863054E+00
 9.3087524E+00 1.1733066E+00 1.8872609E+00
 9.3669206E+00 1.1511924E+00 1.8869151E+00
 9.4248755E+00 1.1281059E+00 1.8849705E+00
 9.4823276E+00 1.1040795E+00 1.8811458E+00
 9.5389626E+00 1.0791708E+00 1.8751925E+00
 9.5944601E+00 1.0534571E+00 1.8669076E+00
 9.6485150E+00 1.0270311E+00 1.8561411E+00
 9.7008701E+00 1.0000000E+00 1.8427923E+00
 9.7513567E+00 9.7249622E-01 1.8267930E+00
 9.7999473E+00 9.4470598E-01 1.8080738E+00
 9.8468085E+00 9.1691106E-01 1.7865146E+00
 9.8923038E+00 8.8951731E-01 1.7619045E+00
 8.9651343E+00 1.2486333E+00 1.8835287E+00
 9.0225016E+00 1.2287016E+00 1.8868585E+00
 9.0800061E+00 1.2090013E+00 1.8898026E+00
 9.1377011E+00 1.1890073E+00 1.8923043E+00
 9.1956106E+00 1.1683758E+00 1.8942037E+00
 9.2536943E+00 1.1469241E+00 1.8952656E+00
 9.3118358E+00 1.1245757E+00 1.8952119E+00
 9.3698476E+00 1.1013169E+00 1.8937481E+00
 9.4274851E+00 1.0771716E+00 1.8905838E+00
 9.4844658E+00 1.0521892E+00 1.8854507E+00
 9.5404891E+00 1.0264381E+00 1.8781164E+00
 9.5952593E+00 1.0000000E+00 1.8683936E+00
 9.6485150E+00 9.7296900E-01 1.8561411E+00
 9.7000745E+00 9.4546105E-01 1.8412519E+00
 9.7498874E+00 9.1764132E-01 1.8236278E+00
 9.7980778E+00 8.8976545E-01 1.8031441E+00
 9.8449427E+00 8.6220573E-01 1.7796179E+00
 8.9658235E+00 1.2056280E+00 1.8945127E+00
 9.0237882E+00 1.1847513E+00 1.8970223E+00
 9.0817615E+00 1.1639805E+00 1.8991501E+00
 9.1397804E+00 1.1428500E+00 1.9007898E+00
 9.1978584E+00 1.1210676E+00 1.9017484E+00
 9.2559504E+00 1.0984901E+00 1.9017740E+00
 9.3139385E+00 1.0750712E+00 1.9005843E+00
 9.3716376E+00 1.0508199E+00 1.8978893E+00
 9.4288101E+00 1.0257764E+00 1.8934096E+00
 9.4851866E+00 1.0000000E+00 1.8868912E+00
 9.5404891E+00 9.7356195E-01 1.8781164E+00
 9.5944601E+00 9.4654301E-01 1.8669076E+00
 9.6469031E+00 9.1904194E-01 1.8531219E+00
 9.6977387E+00 8.9119954E-01 1.8366325E+00
 9.7470477E+00 8.6323825E-01 1.8173035E+00
 9.7950674E+00 8.3549111E-01 1.7949672E+00
 8.9664080E+00 1.1613469E+00 1.9035485E+00
 9.0248389E+00 1.1396432E+00 1.9051247E+00
 9.0831320E+00 1.1179183E+00 1.9063129E+00
 9.1413154E+00 1.0957723E+00 1.9069627E+00
 9.1993980E+00 1.0729703E+00 1.9068545E+00
 9.2573334E+00 1.0494117E+00 1.9057252E+00
 9.3150071E+00 1.0250792E+00 1.9032932E+00
 9.3722409E+00 1.0000000E+00 1.8992769E+00
 9.4288101E+00 9.7422369E-01 1.8934096E+00
 9.4844658E+00 9.4781088E-01 1.8854507E+00
 9.5389626E+00 9.2082928E-01 1.8751925E+00
 9.5920969E+00 8.9335963E-01 1.8624588E+00
 9.6437577E+00 8.6551698E-01 1.8470950E+00
 9.6939786E+00 8.3748705E-01 1.8289493E+00
 9.7429414E+00 8.0955869E-01 1.8078573E+00
 8.9668688E+00 1.1160252E+00 1.9104776E+00
 9.0256198E+00 1.0936229E+00 1.9110234E+00
 9.0840749E+00 1.0710746E+00 1.9111644E+00
 9.1422591E+00 1.0480514E+00 1.9107137E+00
 9.2001816E+00 1.0243794E+00 1.9094316E+00
 9.2577998E+00 1.0000000E+00 1.9070503E+00
 9.3150071E+00 9.7492081E-01 1.9032932E+00
 9.3716376E+00 9.4918019E-01 1.8978893E+00
 9.4274851E+00 9.2282851E-01 1.8905838E+00
 9.4823276E+00 8.9592053E-01 1.8811458E+00
 9.5359623E+00 8.6851882E-01 1.8693710E+00
 9.5882530E+00 8.4071212E-01 1.8550773E+00
 9.6391832E+00 8.1264870E-01 1.8380946E+00
 9.6888770E+00 7.8457055E-01 1.8182536E+00
 8.9671872E+00 1.0699321E+00 1.9151724E+00
 9.0261013E+00 1.0469725E+00 1.9146089E+00
 9.0845557E+00 1.0237462E+00 1.9136140E+00
 9.1425777E+00 1.0000000E+00 1.9119721E+00
 9.2001815E+00 9.7562063E-01 1.9094315E+00
 9.2573334E+00 9.5058835E-01 1.9057252E+00
 9.3139385E+00 9.2492884E-01 1.9005843E+00
 9.3698475E+00 8.9868313E-01 1.8937480E+00
 9.4248755E+00 8.7189419E-01 1.8849705E+00
 9.4788314E+00 8.4460714E-01 1.8740250E+00
 9.5315612E+00 8.1688461E-01 1.8607050E+00
 9.5830019E+00 7.8883769E-01 1.8448203E+00
 9.6332175E+00 7.6066175E-01 1.8261919E+00
 8.9673499E+00 1.0233642E+00 1.9175429E+00
 9.0262640E+00 1.0000000E+00 1.9158119E+00
 9.0845557E+00 9.7625376E-01 1.9136139E+00
 9.1422591E+00 9.5194858E-01 1.9107137E+00
 9.1993979E+00 9.2702977E-01 1.9068545E+00
 9.2559503E+00 9.0150997E-01 1.9017740E+00
 9.3118358E+00 8.7542433E-01 1.8952119E+00
 9.3669206E+00 8.4880764E-01 1.8869150E+00
 9.4210390E+00 8.2169003E-01 1.8766416E+00
 9.4740298E+00 7.9410951E-01 1.8641648E+00
 9.5257894E+00 7.6614124E-01 1.8492747E+00
 9.5763231E+00 7.3793508E-01 1.8317790E+00
 8.9673499E+00 9.7663584E-01 1.9175429E+00
 9.0261013E+00 9.5302755E-01 1.9146088E+00
 9.0840749E+00 9.2892546E-01 1.9111644E+00
 9.1413154E+00 9.0422773E-01 1.9069627E+00
 9.1978584E+00 8.7893246E-01 1.9017483E+00
 9.2536942E+00 8.5307600E-01 1.8952655E+00
 9.3087523E+00 8.2669352E-01 1.8872608E+00
 9.3629064E+00 7.9980658E-01 1.8774845E+00
 9.4160009E+00 7.7243270E-01 1.8656950E+00
 9.4679019E+00 7.4461383E-01 1.8516650E+00
 9.5185599E+00 7.1645653E-01 1.8351871E+00
 8.9671872E+00 9.3006790E-01 1.9151723E+00
 9.0256198E+00 9.0637708E-01 1.9110234E+00
 9.0831319E+00 8.8208169E-01 1.9063128E+00
 9.1397803E+00 8.5715002E-01 1.9007897E+00
 9.1956106E+00 8.3162423E-01 1.8942037E+00
 9.2506170E+00 8.0555426E-01 1.8863054E+00
 9.3047245E+00 7.7896697E-01 1.8768445E+00
 9.3577975E+00 7.5186897E-01 1.8655713E+00
 9.4096842E+00 7.2427512E-01 1.8522445E+00
 9.4602894E+00 6.9625278E-01 1.8366423E+00
 8.9668688E+00 8.8397486E-01 1.9104776E+00
 9.0248388E+00 8.6035681E-01 1.9051247E+00
 9.0817615E+00 8.3601953E-01 1.8991500E+00
 9.1377011E+00 8.1099275E-01 1.8923043E+00
 9.1927011E+00 7.8535167E-01 1.8843434E+00
 9.2467386E+00 7.5914992E-01 1.8750220E+00
 9.2997093E+00 7.3240274E-01 1.8640898E+00
 9.3514582E+00 7.0511132E-01 1.8512973E+00
 9.4018569E+00 6.7731209E-01 1.8364102E+00
 8.9664080E+00 8.3865313E-01 1.9035485E+00
 9.0237882E+00 8.1524880E-01 1.8970223E+00
 9.0800061E+00 7.9099876E-01 1.8898025E+00
 9.1351167E+00 7.6598129E-01 1.8816439E+00
 9.1891320E+00 7.4029322E-01 1.8723076E+00
 9.2419796E+00 7.1398789E-01 1.8615496E+00
 9.2935117E+00 6.8707863E-01 1.8491206E+00
 9.3435820E+00 6.5958847E-01 1.8347794E+00
 8.9658235E+00 7.9437211E-01 1.8945126E+00
 9.0225016E+00 7.7129848E-01 1.8868585E+00
 9.0778963E+00 7.4722694E-01 1.8784208E+00
 9.1320143E+00 7.2227042E-01 1.8689577E+00
 9.1847921E+00 6.9654190E-01 1.8582336E+00
 9.2360880E+00 6.7010647E-01 1.8460086E+00
 9.2857506E+00 6.4300798E-01 1.8320448E+00
 8.9651343E+00 7.5136682E-01 1.8835286E+00
 9.0210007E+00 7.2870384E-01 1.8747979E+00
 9.0754096E+00 7.0484158E-01 1.8651632E+00
 9.1282571E+00 6.7992234E-01 1.8543840E+00
 9.1793773E+00 6.5409441E-01 1.8422339E+00
 9.2286090E+00 6.2747489E-01 1.8284921E+00
 8.9643503E+00 7.0983072E-01 1.8707769E+00
 9.0192609E+00 6.8759676E-01 1.8610119E+00
 9.0724063E+00 6.6388832E-01 1.8501734E+00
 9.1235091E+00 6.3889879E-01 1.8380277E+00
 9.1723600E+00 6.1287448E-01 1.8243829E+00
 8.9634554E+00 6.6990960E-01 1.8564500E+00
 9.0171613E+00 6.4802084E-01 1.8456568E+00
 9.0685286E+00 6.2429075E-01 1.8335481E+00
 9.1171661E+00 5.9906712E-01 1.8199385E+00
 8.9623738E+00 6.3167757E-01 1.8407329E+00
 9.0144197E+00 6.0991929E-01 1.8288516E+00
 9.0631371E+00 5.8587856E-01 1.8153243E+00
 8.9609361E+00 5.9510777E-01 1.8237777E+00
 9.0103095E+00 5.7303868E-01 1.8106080E+00
 8.9588095E+00 5.6016898E-01 1.8057423E+00
 8.8795821E+00 1.5074653E+00 1.7688215E+00
 8.8481262E+00 1.5334882E+00 1.7528668E+00
 8.8151498E+00 1.5601946E+00 1.7354048E+00
 8.7808431E+00 1.5874132E+00 1.7164097E+00
 8.7453841E+00 1.6150402E+00 1.6957993E+00
 8.7090381E+00 1.6429517E+00 1.6734681E+00
 8.6720958E+00 1.6709978E+00 1.6492954E+00
 8.6348937E+00 1.6989747E+00 1.6231662E+00
 8.5977938E+00 1.7266284E+00 1.5949787E+00
 8.5611524E+00 1.7536596E+00 1.5646591E+00
 8.5252938E+00 1.7797372E+00 1.5321776E+00
 8.4904927E+00 1.8045166E+00 1.4975608E+00
 8.4569671E+00 1.8276616E+00 1.4609009E+00
 8.4248820E+00 1.8488639E+00 1.4223562E+00
 8.3943578E+00 1.8678618E+00 1.3821464E+00
 8.3654804E+00 1.8844532E+00 1.3405427E+00
 8.3383133E+00 1.8985012E+00 1.2978554E+00
 8.3129053E+00 1.9099381E+00 1.2544186E+00
 8.2892957E+00 1.9187630E+00 1.2105753E+00
 8.2675160E+00 1.9250369E+00 1.1666669E+00
 8.2475907E+00 1.9288713E+00 1.1230489E+00
 8.2295119E+00 1.9304136E+00 1.0800810E+00
 8.2133049E+00 1.9298523E+00 1.0384005E+00
 7.7407535E+00 1.0730394E+00 1.6252262E+00
 7.7363509E+00 1.1204906E+00 1.6121576E+00
 7.7336216E+00 1.1687148E+00 1.5970335E+00
 7.7329943E+00 1.2178278E+00 1.5800866E+00
 7.7347656E+00 1.2677724E+00 1.5613851E+00
 7.7391798E+00 1.3183681E+00 1.5409592E+00
 7.7464332E+00 1.3693443E+00 1.5188251E+00
 7.7566784E+00 1.4203674E+00 1.4950060E+00
 7.7700245E+00 1.4710542E+00 1.4695492E+00
 7.7865333E+00 1.5209838E+00 1.4425369E+00
 7.8062124E+00 1.5697097E+00 1.4140905E+00
 7.8290080E+00 1.6167739E+00 1.3843714E+00
 7.8548012E+00 1.6617230E+00 1.3535781E+00
 7.8834072E+00 1.7041256E+00 1.3219418E+00
 7.9145788E+00 1.7435903E+00 1.2897188E+00
 7.9480138E+00 1.7797810E+00 1.2571844E+00
 7.9833654E+00 1.8124318E+00 1.2246215E+00
 8.0202529E+00 1.8413564E+00 1.1923093E+00
 8.0582780E+00 1.8664586E+00 1.1605027E+00
 8.0970378E+00 1.8877368E+00 1.1293994E+00
 8.1361491E+00 1.9052843E+00 1.0990739E+00
 8.1751563E+00 1.9192604E+00 1.0693349E+00
 7.7698559E+00 1.1034642E+00 1.6566057E+00
 7.7671809E+00 1.1534995E+00 1.6436156E+00
 7.7661061E+00 1.2035700E+00 1.6282994E+00
 7.7671599E+00 1.2540648E+00 1.6109917E+00
 7.7706989E+00 1.3050484E+00 1.5918229E+00
 7.7769821E+00 1.3563923E+00 1.5708411E+00
 7.7861923E+00 1.4078355E+00 1.5480624E+00
 7.7984527E+00 1.4590276E+00 1.5235079E+00
 7.8138332E+00 1.5095596E+00 1.4972282E+00
 7.8323508E+00 1.5589841E+00 1.4693158E+00
 7.8539631E+00 1.6068343E+00 1.4399095E+00
 7.8785648E+00 1.6526424E+00 1.4091926E+00
 7.9059854E+00 1.6959595E+00 1.3773891E+00
 7.9359937E+00 1.7363750E+00 1.3447559E+00
 7.9683050E+00 1.7735355E+00 1.3115746E+00
 8.0025942E+00 1.8071611E+00 1.2781366E+00
 8.0385072E+00 1.8370569E+00 1.2447246E+00
 8.0756775E+00 1.8631232E+00 1.2115767E+00
 8.1137409E+00 1.8853615E+00 1.1788295E+00
 8.1523442E+00 1.9038682E+00 1.1464358E+00
 8.1911309E+00 1.9188212E+00 1.1139447E+00
 7.8025257E+00 1.1339111E+00 1.6874288E+00
 7.8015304E+00 1.1857457E+00 1.6742339E+00
 7.8021759E+00 1.2373485E+00 1.6585821E+00
 7.8050019E+00 1.2890534E+00 1.6407984E+00
 7.8103961E+00 1.3409480E+00 1.6210357E+00
 7.8186179E+00 1.3929064E+00 1.5993489E+00
 7.8298283E+00 1.4446544E+00 1.5757552E+00
 7.8441149E+00 1.4958190E+00 1.5502805E+00
 7.8615047E+00 1.5459653E+00 1.5229870E+00
 7.8819651E+00 1.5946248E+00 1.4939859E+00
 7.9054022E+00 1.6413189E+00 1.4634405E+00
 7.9316587E+00 1.6855823E+00 1.4315624E+00
 7.9605174E+00 1.7269848E+00 1.3986052E+00
 7.9917097E+00 1.7651541E+00 1.3648531E+00
 8.0249283E+00 1.7997927E+00 1.3306059E+00
 8.0598417E+00 1.8306945E+00 1.2961533E+00
 8.0961064E+00 1.8577522E+00 1.2617344E+00
 8.1333776E+00 1.8809652E+00 1.2274725E+00
 8.1713108E+00 1.9004324E+00 1.1932835E+00
 8.2095493E+00 1.9163323E+00 1.1587640E+00
 7.8388413E+00 1.1645985E+00 1.7171572E+00
 7.8395269E+00 1.2177291E+00 1.7035335E+00
 7.8419367E+00 1.2704866E+00 1.6873722E+00
 7.8466051E+00 1.3231227E+00 1.6689659E+00
 7.8539170E+00 1.3756755E+00 1.6484601E+00
 7.8641144E+00 1.4279885E+00 1.6259082E+00
 7.8773254E+00 1.4797572E+00 1.6013317E+00
 7.8935949E+00 1.5305812E+00 1.5747684E+00
 7.9129012E+00 1.5800037E+00 1.5463002E+00
 7.9351604E+00 1.6275439E+00 1.5160651E+00
 7.9602275E+00 1.6727252E+00 1.4842569E+00
 7.9878989E+00 1.7151013E+00 1.4511203E+00
 8.0179220E+00 1.7542806E+00 1.4169387E+00
 8.0500064E+00 1.7899475E+00 1.3820186E+00
 8.0838407E+00 1.8218803E+00 1.3466608E+00
 8.1191007E+00 1.8499604E+00 1.3111198E+00
 8.1554562E+00 1.8741806E+00 1.2755351E+00
 8.1925648E+00 1.8946386E+00 1.2398550E+00
 8.2300623E+00 1.9115165E+00 1.2037657E+00
 7.8788645E+00 1.1954346E+00 1.7452749E+00
 7.8812323E+00 1.2494748E+00 1.7310056E+00
 7.8854353E+00 1.3030334E+00 1.7141487E+00