# TIME = 6.800000
variables = x, y, z
zone N=5762 E=11520 F=FEPOINT ET=TRIANGLE
 7.8817581E+00 1.4840609E+00 1.7830522E+00
 7.8817581E+00 1.4840606E+00 2.1694802E-01
 7.8817581E+00 5.1593937E-01 1.7830519E+00
 7.8817582E+00 5.1593919E-01 2.1694776E-01
 6.6968887E+00 1.0000000E+00 1.6031182E+00
 9.0911279E+00 1.0000000E+00 1.6156546E+00
 6.6968886E+00 1.0000000E+00 3.9688160E-01
 9.0911278E+00 1.0000000E+00 3.8434533E-01
 7.1752042E+00 1.9290165E+00 9.9999973E-01
 7.1752042E+00 7.0983528E-02 1.0000001E+00
 8.5737239E+00 1.8671495E+00 9.9999992E-01
 8.5737239E+00 1.3285049E-01 9.9999993E-01
 7.8368531E+00 1.4762591E+00 1.7903026E+00
 7.7871300E+00 1.4676267E+00 1.7984882E+00
 7.7346209E+00 1.4586447E+00 1.8073218E+00
 7.6797019E+00 1.4492709E+00 1.8168130E+00
 7.6227390E+00 1.4393967E+00 1.8268887E+00
 7.5642961E+00 1.4288297E+00 1.8373253E+00
 7.5049974E+00 1.4172990E+00 1.8477138E+00
 7.4453998E+00 1.4044774E+00 1.8574591E+00
 7.3858729E+00 1.3900196E+00 1.8658236E+00
 7.3265884E+00 1.3736088E+00 1.8719954E+00
 7.2676113E+00 1.3550013E+00 1.8751685E+00
 7.2090501E+00 1.3340673E+00 1.8746291E+00
 7.1511821E+00 1.3108208E+00 1.8698455E+00
 7.0944932E+00 1.2854318E+00 1.8605422E+00
 7.0396128E+00 1.2582096E+00 1.8467329E+00
 6.9871980E+00 1.2295632E+00 1.8286983E+00
 6.9378266E+00 1.1999499E+00 1.8069228E+00
 6.8919327E+00 1.1698270E+00 1.7820137E+00
 6.8497842E+00 1.1396189E+00 1.7546255E+00
 6.8114899E+00 1.1096983E+00 1.7253992E+00
 6.7770407E+00 1.0803931E+00 1.6949414E+00
 6.7463407E+00 1.0519801E+00 1.6638026E+00
 6.7193216E+00 1.0247700E+00 1.6325890E+00
 7.8316990E+00 5.5736644E-01 1.8099091E+00
 7.7801184E+00 5.6805995E-01 1.8187987E+00
 7.7263033E+00 5.7863534E-01 1.8280035E+00
 7.6704312E+00 5.8947717E-01 1.8377093E+00
 7.6128119E+00 6.0088989E-01 1.8479116E+00
 7.5539804E+00 6.1312991E-01 1.8583706E+00
 7.4945485E+00 6.2647664E-01 1.8686297E+00
 7.4350311E+00 6.4122537E-01 1.8780431E+00
 7.3757477E+00 6.5766181E-01 1.8858361E+00
 7.3168321E+00 6.7602415E-01 1.8911825E+00
 7.2583394E+00 6.9646739E-01 1.8932880E+00
 7.2003939E+00 7.1903206E-01 1.8914770E+00
 7.1432994E+00 7.4362458E-01 1.8852792E+00
 7.0875565E+00 7.7001601E-01 1.8744944E+00
 7.0337846E+00 7.9786692E-01 1.8592119E+00
 6.9826086E+00 8.2676997E-01 1.8397768E+00
 6.9345598E+00 8.5629721E-01 1.8167189E+00
 6.8900159E+00 8.8603907E-01 1.7906666E+00
 6.8491801E+00 9.1562228E-01 1.7622640E+00
 6.8120667E+00 9.4470660E-01 1.7320840E+00
 6.7784864E+00 9.7296807E-01 1.7005338E+00
 6.7480294E+00 1.0000000E+00 1.6677569E+00
 7.8296751E+00 5.9212202E-01 1.8280806E+00
 7.7760312E+00 6.0482676E-01 1.8374385E+00
 7.7207830E+00 6.1705196E-01 1.8468695E+00
 7.6638003E+00 6.2949862E-01 1.8567033E+00
 7.6053834E+00 6.4257072E-01 1.8669346E+00
 7.5460325E+00 6.5658249E-01 1.8773031E+00
 7.4863279E+00 6.7180778E-01 1.8873053E+00
 7.4267429E+00 6.8850538E-01 1.8962505E+00
 7.3675530E+00 7.0690000E-01 1.9033336E+00
 7.3088613E+00 7.2715446E-01 1.9077201E+00
 7.2507178E+00 7.4934211E-01 1.9086321E+00
 7.1932633E+00 7.7342452E-01 1.9054361E+00
 7.1368241E+00 7.9924065E-01 1.8977251E+00
 7.0819095E+00 8.2651624E-01 1.8853732E+00
 7.0291231E+00 8.5489535E-01 1.8685408E+00
 6.9790517E+00 8.8398515E-01 1.8476296E+00
 6.9321676E+00 9.1339633E-01 1.8231982E+00
 6.8887599E+00 9.4276688E-01 1.7958572E+00
 6.8488857E+00 9.7175503E-01 1.7661480E+00
 6.8123255E+00 1.0000000E+00 1.7344048E+00
 6.7784864E+00 1.0270319E+00 1.7005338E+00
 7.8283026E+00 6.2859073E-01 1.8451675E+00
 7.7733022E+00 6.4295891E-01 1.8545853E+00
 7.7167995E+00 6.5684451E-01 1.8640658E+00
 7.6588107E+00 6.7094994E-01 1.8738741E+00
 7.5996138E+00 6.8575780E-01 1.8839935E+00
 7.5397251E+00 7.0159391E-01 1.8941191E+00
 7.4797073E+00 7.1871798E-01 1.9037023E+00
 7.4200031E+00 7.3734536E-01 1.9120122E+00
 7.3608540E+00 7.5763990E-01 1.9182214E+00
 7.3023408E+00 7.7969257E-01 1.9214954E+00
 7.2445127E+00 8.0350176E-01 1.9210811E+00
 7.1875265E+00 8.2895904E-01 1.9163928E+00
 7.1317242E+00 8.5584803E-01 1.9070902E+00
 7.0776138E+00 8.8386352E-01 1.8931189E+00
 7.0257712E+00 9.1264809E-01 1.8747019E+00
 6.9767272E+00 9.4183366E-01 1.8522786E+00
 6.9308609E+00 9.7106663E-01 1.8263977E+00
 6.8883086E+00 9.9999999E-01 1.7975796E+00
 6.8488857E+00 1.0282450E+00 1.7661480E+00
 6.8120668E+00 1.0552934E+00 1.7320840E+00
 7.8272306E+00 6.6682757E-01 1.8610440E+00
 7.7711492E+00 6.8271599E-01 1.8702887E+00
 7.7136322E+00 6.9819666E-01 1.8796115E+00
 7.6547664E+00 7.1397811E-01 1.8892239E+00
 7.5948885E+00 7.3054109E-01 1.8990559E+00
 7.5345308E+00 7.4820604E-01 1.9087559E+00
 7.4742546E+00 7.6720108E-01 1.9177302E+00
 7.4144798E+00 7.8769395E-01 1.9252166E+00
 7.3554214E+00 8.0978689E-01 1.9303760E+00
 7.2971446E+00 8.3350238E-01 1.9323852E+00
 7.2397000E+00 8.5877020E-01 1.9305257E+00
 7.1832550E+00 8.8542240E-01 1.9242673E+00
 7.1281567E+00 9.1320155E-01 1.9133364E+00
 7.0748960E+00 9.4178774E-01 1.8977430E+00
 7.0240007E+00 9.7083523E-01 1.8777547E+00
 6.9759124E+00 9.9999998E-01 1.8538132E+00
 6.9308609E+00 1.0289333E+00 1.8263977E+00
 6.8887599E+00 1.0572331E+00 1.7958572E+00
 6.8491801E+00 1.0843777E+00 1.7622640E+00
 7.8262986E+00 7.0686693E-01 1.8755612E+00
 7.7692961E+00 7.2416072E-01 1.8844388E+00
 7.7109250E+00 7.4118645E-01 1.8934206E+00
 7.6513356E+00 7.5861945E-01 1.9026517E+00
 7.5909131E+00 7.7691693E-01 1.9120051E+00
 7.5302159E+00 7.9636855E-01 1.9210797E+00
 7.4698035E+00 8.1716239E-01 1.9292443E+00
 7.4100772E+00 8.3941311E-01 1.9357160E+00
 7.3512305E+00 8.6316178E-01 1.9396573E+00
 7.2933164E+00 8.8836664E-01 1.9402687E+00
 7.2363847E+00 9.1489800E-01 1.9368766E+00
 7.1806051E+00 9.4254153E-01 1.9290103E+00
 7.1263140E+00 9.7101539E-01 1.9164581E+00
 7.0739637E+00 9.9999997E-01 1.8992792E+00
 7.0240007E+00 1.0291647E+00 1.8777547E+00
 6.9767273E+00 1.0581663E+00 1.8522786E+00
 6.9321676E+00 1.0866036E+00 1.8231982E+00
 6.8900160E+00 1.1139609E+00 1.7906665E+00
 7.8254562E+00 7.4863168E-01 1.8885227E+00
 7.7676583E+00 7.6724344E-01 1.8968654E+00
 7.7085813E+00 7.8575628E-01 1.9053301E+00
 7.6484291E+00 8.0479253E-01 1.9139927E+00
 7.5876266E+00 8.2476578E-01 1.9226698E+00
 7.5267524E+00 8.4592240E-01 1.9309169E+00
 7.4663627E+00 8.6840210E-01 1.9380750E+00
 7.4068402E+00 8.9226455E-01 1.9433542E+00
 7.3483592E+00 9.1749197E-01 1.9459321E+00
 7.2909611E+00 9.4398626E-01 1.9450444E+00
 7.2346900E+00 9.7157045E-01 1.9400692E+00
 7.1797059E+00 9.9999997E-01 1.9305943E+00
 7.1263141E+00 1.0289846E+00 1.9164581E+00
 7.0748960E+00 1.0582122E+00 1.8977430E+00
 7.0257712E+00 1.0873519E+00 1.8747019E+00
 6.9790518E+00 1.1160148E+00 1.8476295E+00
 6.9345598E+00 1.1437028E+00 1.8167188E+00
 7.8247092E+00 7.9196856E-01 1.8997189E+00
 7.7662438E+00 8.1181908E-01 1.9073740E+00
 7.7066180E+00 8.3174673E-01 1.9151506E+00
 7.6460759E+00 8.5231114E-01 1.9230595E+00
 7.5850736E+00 8.7386769E-01 1.9308664E+00
 7.5242011E+00 8.9661040E-01 1.9380925E+00
 7.4640066E+00 9.2062681E-01 1.9440638E+00
 7.4048535E+00 9.4592268E-01 1.9479972E+00
 7.3468970E+00 9.7242815E-01 1.9490974E+00
 7.2901653E+00 9.9999999E-01 1.9466443E+00
 7.2346901E+00 1.0284295E+00 1.9400693E+00
 7.1806051E+00 1.0574584E+00 1.9290103E+00
 7.1281567E+00 1.0867984E+00 1.9133364E+00
 7.0776138E+00 1.1161364E+00 1.8931189E+00
 7.0291232E+00 1.1451046E+00 1.8685408E+00
 6.9826087E+00 1.1732300E+00 1.8397767E+00
 7.8240783E+00 8.3667430E-01 1.9089514E+00
 7.7650909E+00 8.5767121E-01 1.9157753E+00
 7.7050860E+00 8.7892126E-01 1.9227001E+00
 7.6443380E+00 9.0090920E-01 1.9296778E+00
 7.5833236E+00 9.2392280E-01 1.9364320E+00
 7.5226354E+00 9.4809853E-01 1.9424614E+00
 7.4628079E+00 9.7347173E-01 1.9470904E+00
 7.4041832E+00 1.0000000E+00 1.9495554E+00
 7.3468970E+00 1.0275719E+00 1.9490974E+00
 7.2909611E+00 1.0560137E+00 1.9450445E+00
 7.2363847E+00 1.0851020E+00 1.9368767E+00
 7.1832550E+00 1.1145776E+00 1.9242674E+00
 7.1317243E+00 1.1441519E+00 1.9070902E+00
 7.0819095E+00 1.1734837E+00 1.8853732E+00
 7.0337846E+00 1.2021330E+00 1.8592118E+00
 7.8235851E+00 8.8249997E-01 1.9160451E+00
 7.7642382E+00 9.0453085E-01 1.9219049E+00
 7.7040349E+00 9.2698472E-01 1.9278255E+00
 7.6432711E+00 9.5026100E-01 1.9337085E+00
 7.5824334E+00 9.7457348E-01 1.9392465E+00
 7.5221075E+00 1.0000000E+00 1.9439287E+00
 7.4628079E+00 1.0265284E+00 1.9470905E+00
 7.4048535E+00 1.0540774E+00 1.9479973E+00
 7.3483592E+00 1.0825081E+00 1.9459321E+00
 7.2933165E+00 1.1116334E+00 1.9402688E+00
 7.2397001E+00 1.1412298E+00 1.9305257E+00
 7.1875265E+00 1.1710409E+00 1.9163929E+00
 7.1368242E+00 1.2007593E+00 1.8977252E+00
 7.0875566E+00 1.2299839E+00 1.8744944E+00
 7.8232470E+00 9.2915757E-01 1.9208580E+00
 7.7637148E+00 9.5208731E-01 1.9256361E+00
 7.7035002E+00 9.7559934E-01 1.9304168E+00
 7.6429114E+00 1.0000000E+00 1.9350622E+00
 7.5824334E+00 1.0254266E+00 1.9392465E+00
 7.5226354E+00 1.0519016E+00 1.9424614E+00
 7.4640066E+00 1.0793733E+00 1.9440639E+00
 7.4068403E+00 1.1077355E+00 1.9433543E+00
 7.3512305E+00 1.1368383E+00 1.9396574E+00
 7.2971447E+00 1.1664976E+00 1.9323853E+00
 7.2445128E+00 1.1964982E+00 1.9210811E+00
 7.1932634E+00 1.2265755E+00 1.9054361E+00
 7.1432995E+00 1.2563754E+00 1.8852792E+00
 7.8230751E+00 9.7632807E-01 1.9232904E+00
 7.7635383E+00 1.0000000E+00 1.9268889E+00
 7.7035002E+00 1.0244007E+00 1.9304168E+00
 7.6432711E+00 1.0497391E+00 1.9337085E+00
 7.5833236E+00 1.0760773E+00 1.9364321E+00
 7.5242011E+00 1.1033897E+00 1.9380926E+00
 7.4663627E+00 1.1315980E+00 1.9380751E+00
 7.4100773E+00 1.1605870E+00 1.9357161E+00
 7.3554215E+00 1.1902132E+00 1.9303762E+00
 7.3023409E+00 1.2203075E+00 1.9214955E+00
 7.2507179E+00 1.2506579E+00 1.9086322E+00
 7.2003940E+00 1.2809680E+00 1.8914771E+00
 7.8230751E+00 1.0236719E+00 1.9232904E+00
 7.7637148E+00 1.0479127E+00 1.9256361E+00
 7.7040349E+00 1.0730153E+00 1.9278255E+00
 7.6443380E+00 1.0990909E+00 1.9296779E+00
 7.5850735E+00 1.1261324E+00 1.9308665E+00
 7.5267524E+00 1.1540777E+00 1.9309170E+00
 7.4698036E+00 1.1828377E+00 1.9292444E+00
 7.4144799E+00 1.2123062E+00 1.9252168E+00
 7.3608541E+00 1.2423602E+00 1.9182215E+00
 7.3088615E+00 1.2728456E+00 1.9077202E+00
 7.2583395E+00 1.3035327E+00 1.8932881E+00
 7.8232470E+00 1.0708424E+00 1.9208581E+00
 7.7642382E+00 1.0954692E+00 1.9219050E+00
 7.7050859E+00 1.1210788E+00 1.9227002E+00
 7.6460759E+00 1.1476890E+00 1.9230597E+00
 7.5876266E+00 1.1752344E+00 1.9226699E+00
 7.5302158E+00 1.2036316E+00 1.9210799E+00
 7.4742546E+00 1.2327991E+00 1.9177304E+00
 7.4200032E+00 1.2626548E+00 1.9120124E+00
 7.3675531E+00 1.2931001E+00 1.9033338E+00
 7.3168323E+00 1.3239759E+00 1.8911827E+00
 7.8235851E+00 1.1175000E+00 1.9160452E+00
 7.7650909E+00 1.1423289E+00 1.9157755E+00
 7.7066179E+00 1.1682534E+00 1.9151508E+00
 7.6484290E+00 1.1952076E+00 1.9139928E+00
 7.5909130E+00 1.2230832E+00 1.9120053E+00
 7.5345307E+00 1.2517941E+00 1.9087561E+00
 7.4797073E+00 1.2812822E+00 1.9037025E+00
 7.4267429E+00 1.3114948E+00 1.8962507E+00
 7.3757478E+00 1.3423383E+00 1.8858363E+00
 7.8240782E+00 1.1633257E+00 1.9089515E+00
 7.7662437E+00 1.1881810E+00 1.9073742E+00
 7.7085812E+00 1.2142438E+00 1.9053303E+00
 7.6513355E+00 1.2413807E+00 1.9026519E+00
 7.5948884E+00 1.2694591E+00 1.8990561E+00
 7.5397251E+00 1.2984063E+00 1.8941193E+00
 7.4863279E+00 1.3281924E+00 1.8873055E+00
 7.4350312E+00 1.3587748E+00 1.8780433E+00
 7.8247091E+00 1.2080315E+00 1.8997190E+00
 7.7676582E+00 1.2327567E+00 1.8968656E+00
 7.7109249E+00 1.2588137E+00 1.8934209E+00
 7.6547662E+00 1.2860221E+00 1.8892241E+00
 7.5996137E+00 1.3142424E+00 1.8839938E+00
 7.5460324E+00 1.3434177E+00 1.8773033E+00
 7.4945485E+00 1.3735236E+00 1.8686299E+00
 7.8254562E+00 1.2513684E+00 1.8885229E+00
 7.7692960E+00 1.2758394E+00 1.8844390E+00
 7.7136321E+00 1.3018035E+00 1.8796117E+00
 7.6588105E+00 1.3290503E+00 1.8738743E+00
 7.6053832E+00 1.3574295E+00 1.8669349E+00
 7.5539803E+00 1.3868703E+00 1.8583708E+00
 7.8262986E+00 1.2931332E+00 1.8755614E+00
 7.7711491E+00 1.3172842E+00 1.8702889E+00
 7.7167993E+00 1.3431557E+00 1.8640661E+00
 7.6638001E+00 1.3705016E+00 1.8567036E+00
 7.6128117E+00 1.3991103E+00 1.8479119E+00
 7.8272305E+00 1.3331726E+00 1.8610442E+00
 7.7733020E+00 1.3570413E+00 1.8545856E+00
 7.7207828E+00 1.3829482E+00 1.8468698E+00
 7.6704310E+00 1.4105231E+00 1.8377096E+00
 7.8283025E+00 1.3714094E+00 1.8451677E+00
 7.7760311E+00 1.3951734E+00 1.8374388E+00
 7.7263031E+00 1.4213649E+00 1.8280039E+00
 7.8296750E+00 1.4078782E+00 1.8280809E+00
 7.7801183E+00 1.4319403E+00 1.8187990E+00
 7.8316989E+00 1.4426338E+00 1.8099094E+00
 7.8818177E+00 1.4550867E+00 1.8002647E+00
 7.8818858E+00 1.4221950E+00 1.8181305E+00
 7.8819151E+00 1.3872875E+00 1.8352547E+00
 7.8819249E+00 1.3503522E+00 1.8514360E+00
 7.8819273E+00 1.3114825E+00 1.8664395E+00
 7.8819287E+00 1.2708117E+00 1.8800264E+00
 7.8819312E+00 1.2284836E+00 1.8919777E+00
 7.8819349E+00 1.1846887E+00 1.9020857E+00
 7.8819391E+00 1.1396588E+00 1.9101635E+00
 7.8819429E+00 1.0936625E+00 1.9160541E+00
 7.8819455E+00 1.0470009E+00 1.9196384E+00
 7.8819464E+00 9.9999998E-01 1.9208416E+00
 7.8819455E+00 9.5299905E-01 1.9196384E+00
 7.8819429E+00 9.0633746E-01 1.9160541E+00
 7.8819391E+00 8.6034118E-01 1.9101634E+00
 7.8819349E+00 8.1531138E-01 1.9020856E+00
 7.8819312E+00 7.7151642E-01 1.8919776E+00
 7.8819288E+00 7.2918835E-01 1.8800263E+00
 7.8819273E+00 6.8851757E-01 1.8664393E+00
 7.8819249E+00 6.4964796E-01 1.8514358E+00
 7.8819151E+00 6.1271265E-01 1.8352544E+00
 7.8818858E+00 5.7780518E-01 1.8181302E+00
 7.8818177E+00 5.4491357E-01 1.8002644E+00
 7.9264708E+00 5.2572707E-01 1.7869909E+00
 7.9753703E+00 5.3651841E-01 1.7913824E+00
 8.0263438E+00 5.4779674E-01 1.7959548E+00
 8.0790486E+00 5.5963380E-01 1.8006150E+00
 8.1333367E+00 5.7212488E-01 1.8052227E+00
 8.1890221E+00 5.8538590E-01 1.8095975E+00
 8.2459211E+00 5.9954563E-01 1.8135209E+00
 8.3038125E+00 6.1473530E-01 1.8167391E+00
 8.3624359E+00 6.3108040E-01 1.8189704E+00
 8.4214886E+00 6.4869005E-01 1.8199163E+00
 8.4806291E+00 6.6764658E-01 1.8192765E+00
 8.5394838E+00 6.8799629E-01 1.8167656E+00
 8.5976570E+00 7.0974192E-01 1.8121327E+00
 8.6547417E+00 7.3283850E-01 1.8051780E+00
 8.7103321E+00 7.5719237E-01 1.7957682E+00
 8.7640390E+00 7.8266561E-01 1.7838450E+00
 8.8155038E+00 8.0908188E-01 1.7694285E+00
 8.8644102E+00 8.3623598E-01 1.7526142E+00
 8.9104915E+00 8.6390487E-01 1.7335677E+00
 8.9535366E+00 8.9185770E-01 1.7125123E+00
 8.9933779E+00 9.1984985E-01 1.6897289E+00
 9.0298982E+00 9.4762879E-01 1.6655339E+00
 9.0629271E+00 9.7482780E-01 1.6403595E+00
 7.9316588E+00 1.4405915E+00 1.8061172E+00
 7.9822353E+00 1.4278376E+00 1.8109523E+00
 8.0343138E+00 1.4150855E+00 1.8156499E+00
 8.0877934E+00 1.4019392E+00 1.8202699E+00
 8.1426293E+00 1.3881305E+00 1.8247448E+00
 8.1987000E+00 1.3734963E+00 1.8289024E+00
 8.2558302E+00 1.3579062E+00 1.8325126E+00
 8.3138008E+00 1.3412478E+00 1.8353054E+00
 8.3723439E+00 1.3234242E+00 1.8369861E+00
 8.4311471E+00 1.3043594E+00 1.8372498E+00
 8.4898611E+00 1.2840075E+00 1.8357971E+00
 8.5481087E+00 1.2623600E+00 1.8323528E+00
 8.6054964E+00 1.2394512E+00 1.8266837E+00
 8.6616259E+00 1.2153591E+00 1.8186154E+00
 8.7161072E+00 1.1902019E+00 1.8080447E+00
 8.7685723E+00 1.1641320E+00 1.7949466E+00
 8.8186884E+00 1.1373271E+00 1.7793734E+00
 8.8661762E+00 1.1099821E+00 1.7614455E+00
 8.9108246E+00 1.0823087E+00 1.7413341E+00
 8.9525287E+00 1.0545433E+00 1.7192220E+00
 8.9913545E+00 1.0269621E+00 1.6952317E+00
 9.0276202E+00 1.0000000E+00 1.6693243E+00
 7.9337329E+00 1.4059372E+00 1.8240384E+00
 7.9862194E+00 1.3912745E+00 1.8290812E+00
 8.0395447E+00 1.3770159E+00 1.8337611E+00
 8.0939709E+00 1.3624538E+00 1.8382562E+00
 8.1495079E+00 1.3472392E+00 1.8425088E+00
 8.2060953E+00 1.3311635E+00 1.8463490E+00
 8.2635840E+00 1.3140988E+00 1.8495328E+00
 8.3217582E+00 1.2959504E+00 1.8517764E+00
 8.3803441E+00 1.2766481E+00 1.8527749E+00
 8.4390202E+00 1.2561474E+00 1.8522195E+00
 8.4974295E+00 1.2344369E+00 1.8498151E+00
 8.5551914E+00 1.2115432E+00 1.8452988E+00
 8.6119148E+00 1.1875329E+00 1.8384580E+00
 8.6672113E+00 1.1625106E+00 1.8291448E+00
 8.7207099E+00 1.1366106E+00 1.8172863E+00
 8.7720696E+00 1.1099886E+00 1.8028869E+00
 8.8210029E+00 1.0828129E+00 1.7860182E+00
 8.8673110E+00 1.0552661E+00 1.7667924E+00
 8.9109454E+00 1.0275644E+00 1.7453070E+00
 8.9520933E+00 1.0000000E+00 1.7215538E+00
 8.9913545E+00 9.7303796E-01 1.6952317E+00
 7.9351148E+00 1.3695974E+00 1.8409351E+00
 7.9888450E+00 1.3534240E+00 1.8458349E+00
 8.0432757E+00 1.3376864E+00 1.8503419E+00
 8.0985739E+00 1.3216957E+00 1.8545792E+00
 8.1548119E+00 1.3050380E+00 1.8584882E+00
 8.2119386E+00 1.2874987E+00 1.8618814E+00
 8.2698154E+00 1.2689559E+00 1.8645012E+00
 8.3282229E+00 1.2493355E+00 1.8660517E+00
 8.3868785E+00 1.2285936E+00 1.8662211E+00
 8.4454513E+00 1.2067168E+00 1.8647004E+00
 8.5035777E+00 1.1837261E+00 1.8612028E+00
 8.5608754E+00 1.1596795E+00 1.8554815E+00
 8.6169586E+00 1.1346699E+00 1.8473473E+00
 8.6714540E+00 1.1088194E+00 1.8366799E+00
 8.7240176E+00 1.0822682E+00 1.8234332E+00
 8.7743554E+00 1.0551665E+00 1.8076289E+00
 8.8222670E+00 1.0276763E+00 1.7893290E+00
 8.8677176E+00 1.0000000E+00 1.7685786E+00
 8.9109454E+00 9.7243558E-01 1.7453070E+00
 8.9525287E+00 9.4545675E-01 1.7192220E+00
 7.9361704E+00 1.3315114E+00 1.8566502E+00
 7.9908941E+00 1.3139970E+00 1.8612009E+00
 8.0462222E+00 1.2968810E+00 1.8653551E+00
 8.1022894E+00 1.2794817E+00 1.8691880E+00
 8.1591478E+00 1.2613965E+00 1.8726064E+00
 8.2167507E+00 1.2424161E+00 1.8754033E+00
 8.2749524E+00 1.2224369E+00 1.8773056E+00
 8.3335258E+00 1.2014076E+00 1.8780086E+00
 8.3921784E+00 1.1793118E+00 1.8771979E+00
 8.4505719E+00 1.1561661E+00 1.8745697E+00
 8.5083391E+00 1.1320212E+00 1.8698500E+00
 8.5651010E+00 1.1069606E+00 1.8628125E+00
 8.6204834E+00 1.0810950E+00 1.8532931E+00
 8.6741379E+00 1.0545534E+00 1.8411967E+00
 8.7257659E+00 1.0274725E+00 1.8264946E+00
 8.7751575E+00 1.0000000E+00 1.8092025E+00
 8.8222670E+00 9.7232371E-01 1.7893290E+00
 8.8673110E+00 9.4473391E-01 1.7667924E+00
 8.9108246E+00 9.1769137E-01 1.7413341E+00
 7.9370792E+00 1.2916422E+00 1.8710212E+00
 7.9926515E+00 1.2729241E+00 1.8750477E+00
 8.0487379E+00 1.2545077E+00 1.8786889E+00
 8.1054421E+00 1.2357553E+00 1.8819611E+00
 8.1628008E+00 1.2162920E+00 1.8847338E+00
 8.2207562E+00 1.1959339E+00 1.8867766E+00
 8.2791545E+00 1.1746007E+00 1.8878047E+00
 8.3377587E+00 1.1522674E+00 1.8875083E+00
 8.3962690E+00 1.1289451E+00 1.8855762E+00
 8.4543432E+00 1.1046782E+00 1.8817150E+00
 8.5116165E+00 1.0795418E+00 1.8756685E+00
 8.5677206E+00 1.0536368E+00 1.8672337E+00
 8.6223035E+00 1.0270810E+00 1.8562702E+00
 8.6750588E+00 1.0000000E+00 1.8427007E+00
 8.7257659E+00 9.7252749E-01 1.8264946E+00
 8.7743554E+00 9.4483358E-01 1.8076289E+00
 8.8210029E+00 9.1718711E-01 1.7860182E+00
 8.8661762E+00 8.9001795E-01 1.7614455E+00
 7.9379012E+00 1.2500665E+00 1.8838484E+00
 7.9942068E+00 1.2302525E+00 1.8872012E+00
 8.0509189E+00 1.2106179E+00 1.8901784E+00
 8.1081179E+00 1.1905857E+00 1.8927366E+00
 8.1658270E+00 1.1698251E+00 1.8947082E+00
 8.2239782E+00 1.1481858E+00 1.8958428E+00
 8.2824087E+00 1.1256163E+00 1.8958475E+00
 8.3408748E+00 1.1021181E+00 1.8944135E+00
 8.3990729E+00 1.0777288E+00 1.8912380E+00
 8.4566633E+00 1.0525156E+00 1.8860435E+00
 8.5132913E+00 1.0265702E+00 1.8785948E+00
 8.5686093E+00 1.0000000E+00 1.8687112E+00
 8.6223035E+00 9.7291899E-01 1.8562702E+00
 8.6741379E+00 9.4544668E-01 1.8411967E+00
 8.7240176E+00 9.1773179E-01 1.8234332E+00
 8.7720696E+00 8.9001140E-01 1.8028869E+00
 8.8186885E+00 8.6267295E-01 1.7793734E+00
 7.9386333E+00 1.2069366E+00 1.8949246E+00
 7.9955532E+00 1.1861252E+00 1.8974718E+00
 8.0527492E+00 1.1653650E+00 1.8996434E+00
 8.1102877E+00 1.1441477E+00 1.9013412E+00
 8.1681816E+00 1.1221975E+00 1.9023645E+00
 8.2263551E+00 1.0994034E+00 1.9024483E+00
 8.2846397E+00 1.0757441E+00 1.9012970E+00
 8.3427888E+00 1.0512470E+00 1.8986084E+00
 8.4005013E+00 1.0259715E+00 1.8940935E+00
 8.4574472E+00 1.0000000E+00 1.8874937E+00
 8.5132913E+00 9.7342979E-01 1.8785948E+00
 8.5677206E+00 9.4636320E-01 1.8672337E+00
 8.6204834E+00 9.1890501E-01 1.8532931E+00
 8.6714540E+00 8.9118060E-01 1.8366799E+00
 8.7207099E+00 8.6338943E-01 1.8172863E+00
 8.7685723E+00 8.3586805E-01 1.7949466E+00
 7.9392543E+00 1.1624544E+00 1.9040552E+00
 7.9966528E+00 1.1407546E+00 1.9056779E+00
 8.0541793E+00 1.1189773E+00 1.9069136E+00
 8.1118918E+00 1.0966929E+00 1.9076160E+00
 8.1697970E+00 1.0736870E+00 1.9075582E+00
 8.2278150E+00 1.0498905E+00 1.9064668E+00
 8.2857755E+00 1.0253118E+00 1.9040495E+00
 8.3434348E+00 1.0000000E+00 1.9000157E+00
 8.4005013E+00 9.7402856E-01 1.8940935E+00
 8.4566633E+00 9.4748441E-01 1.8860435E+00
 8.5116165E+00 9.2045819E-01 1.8756685E+00
 8.5651010E+00 8.9303946E-01 1.8628125E+00
 8.6169586E+00 8.6533010E-01 1.8473473E+00
 8.6672113E+00 8.3748945E-01 1.8291448E+00
 8.7161072E+00 8.0979811E-01 1.8080447E+00
 7.9397414E+00 1.1168666E+00 1.9110688E+00
 7.9974673E+00 1.0944035E+00 1.9116624E+00
 8.0551611E+00 1.0717385E+00 1.9118464E+00
 8.1128769E+00 1.0485286E+00 1.9114350E+00
 8.1706191E+00 1.0246248E+00 1.9101831E+00
 8.2283074E+00 1.0000000E+00 1.9078158E+00
 8.2857755E+00 9.7468819E-01 1.9040495E+00
 8.3427888E+00 9.4875300E-01 1.8986084E+00
 8.3990729E+00 9.2227127E-01 1.8912380E+00
 8.4543432E+00 8.9532181E-01 1.8817149E+00
 8.5083391E+00 8.6797880E-01 1.8698500E+00
 8.5608754E+00 8.4032055E-01 1.8554815E+00
 8.6119148E+00 8.1246710E-01 1.8384580E+00
 8.6616259E+00 7.8464095E-01 1.8186154E+00
 7.9400763E+00 1.0704577E+00 1.9158266E+00
 7.9979677E+00 1.0473749E+00 1.9153041E+00
 8.0556607E+00 1.0239724E+00 1.9143395E+00
 8.1132092E+00 9.9999998E-01 1.9127172E+00
 8.1706190E+00 9.7537514E-01 1.9101831E+00
 8.2278150E+00 9.5010948E-01 1.9064668E+00
 8.2846397E+00 9.2425593E-01 1.9012970E+00
 8.3408747E+00 8.9788195E-01 1.8944135E+00
 8.3962690E+00 8.7105495E-01 1.8855761E+00
 8.4505719E+00 8.4383390E-01 1.8745697E+00
 8.5035777E+00 8.1627390E-01 1.8612027E+00
 8.5551914E+00 7.8845687E-01 1.8452988E+00
 8.6054964E+00 7.6054881E-01 1.8266837E+00
 7.9402468E+00 1.0235429E+00 1.9182308E+00
 7.9981365E+00 9.9999997E-01 1.9165267E+00
 8.0556607E+00 9.7602759E-01 1.9143394E+00
 8.1128769E+00 9.5147133E-01 1.9114350E+00
 8.1697970E+00 9.2631300E-01 1.9075582E+00
 8.2263551E+00 9.0059662E-01 1.9024483E+00
 8.2824087E+00 8.7438375E-01 1.8958475E+00
 8.3377587E+00 8.4773268E-01 1.8875083E+00
 8.3921784E+00 8.2068825E-01 1.8771979E+00
 8.4454513E+00 7.9328325E-01 1.8647004E+00
 8.4974295E+00 7.6556315E-01 1.8498151E+00
 8.5481087E+00 7.3764001E-01 1.8323528E+00
 7.9402468E+00 9.7645706E-01 1.9182308E+00
 7.9979677E+00 9.5262505E-01 1.9153040E+00
 8.0551611E+00 9.2826147E-01 1.9118463E+00
 8.1118917E+00 9.0330709E-01 1.9076160E+00
 8.1681815E+00 8.7780250E-01 1.9023644E+00
 8.2239781E+00 8.5181423E-01 1.8958428E+00
 8.2791545E+00 8.2539928E-01 1.8878047E+00
 8.3335258E+00 7.9859246E-01 1.8780086E+00
 8.3868785E+00 7.7140645E-01 1.8662210E+00
 8.4390202E+00 7.4385266E-01 1.8522195E+00
 8.4898611E+00 7.1599257E-01 1.8357971E+00
 7.9400763E+00 9.2954223E-01 1.9158266E+00
 7.9974673E+00 9.0559642E-01 1.9116623E+00
 8.0541792E+00 8.8102271E-01 1.9069135E+00
 8.1102877E+00 8.5585233E-01 1.9013411E+00
 8.1658269E+00 8.3017493E-01 1.8947081E+00
 8.2207561E+00 8.0406617E-01 1.8867766E+00
 8.2749524E+00 7.7756309E-01 1.8773056E+00
 8.3282229E+00 7.5066453E-01 1.8660517E+00
 8.3803441E+00 7.2335197E-01 1.8527749E+00
 8.4311471E+00 6.9564065E-01 1.8372498E+00
 7.9397414E+00 8.8313342E-01 1.9110688E+00
 7.9966528E+00 8.5924541E-01 1.9056778E+00
 8.0527491E+00 8.3463498E-01 1.8996433E+00
 8.1081179E+00 8.0941434E-01 1.8927365E+00
 8.1628007E+00 7.8370805E-01 1.8847337E+00
 8.2167506E+00 7.5758393E-01 1.8754032E+00
 8.2698154E+00 7.3104413E-01 1.8645012E+00
 8.3217581E+00 7.0404960E-01 1.8517763E+00
 8.3723439E+00 6.7657586E-01 1.8369861E+00
 7.9392542E+00 8.3754559E-01 1.9040551E+00
 7.9955532E+00 8.1387476E-01 1.8974717E+00
 8.0509188E+00 7.8938207E-01 1.8901782E+00
 8.1054420E+00 7.6424475E-01 1.8819610E+00
 8.1591477E+00 7.3860349E-01 1.8726063E+00
 8.2119385E+00 7.1250132E-01 1.8618813E+00
 8.2635839E+00 6.8590128E-01 1.8495327E+00
 8.3138008E+00 6.5875223E-01 1.8353053E+00
 7.9386332E+00 7.9306344E-01 1.8949245E+00
 7.9942068E+00 7.6974748E-01 1.8872011E+00
 8.0487378E+00 7.4549230E-01 1.8786887E+00
 8.1022893E+00 7.2051839E-01 1.8691879E+00
 8.1548118E+00 6.9496206E-01 1.8584881E+00
 8.2060953E+00 6.6883652E-01 1.8463489E+00
 8.2558302E+00 6.4209392E-01 1.8325125E+00
 7.9379012E+00 7.4993355E-01 1.8838483E+00
 7.9926515E+00 7.2707599E-01 1.8750476E+00
 8.0462221E+00 7.0311909E-01 1.8653549E+00
 8.0985738E+00 6.7830433E-01 1.8545791E+00
 8.1495078E+00 6.5276084E-01 1.8425087E+00
 8.1987000E+00 6.2650376E-01 1.8289023E+00
 7.9370792E+00 7.0835784E-01 1.8710210E+00
 7.9908940E+00 6.8600312E-01 1.8612007E+00
 8.0432757E+00 6.6231373E-01 1.8503418E+00
 8.0939709E+00 6.3754632E-01 1.8382560E+00
 8.1426293E+00 6.1186961E-01 1.8247447E+00
 7.9361704E+00 6.6848870E-01 1.8566500E+00
 7.9888450E+00 6.4657610E-01 1.8458347E+00
 8.0395447E+00 6.2298419E-01 1.8337610E+00
 8.0877934E+00 5.9806093E-01 1.8202697E+00
 7.9351148E+00 6.3040273E-01 1.8409349E+00
 7.9862193E+00 6.0872566E-01 1.8290810E+00
 8.0343137E+00 5.8491461E-01 1.8156497E+00
 7.9337329E+00 5.9406292E-01 1.8240382E+00
 7.9822353E+00 5.7216260E-01 1.8109521E+00
 7.9316588E+00 5.5940874E-01 1.8061170E+00
 7.8540846E+00 1.5076066E+00 1.7695017E+00
 7.8233773E+00 1.5334196E+00 1.7536712E+00
 7.7911675E+00 1.5599620E+00 1.7363155E+00
 7.7576122E+00 1.5870836E+00 1.7173896E+00
 7.7228564E+00 1.6146814E+00 1.6968059E+00
 7.6871313E+00 1.6426235E+00 1.6744629E+00
 7.6506946E+00 1.6707544E+00 1.6502453E+00
 7.6138561E+00 1.6988684E+00 1.6240411E+00
 7.5769652E+00 1.7267088E+00 1.5957496E+00
 7.5403822E+00 1.7539704E+00 1.5652974E+00
 7.5044493E+00 1.7803109E+00 1.5326545E+00
 7.4694677E+00 1.8053700E+00 1.4978487E+00
 7.4356850E+00 1.8287922E+00 1.4609758E+00
 7.4032938E+00 1.8502497E+00 1.4222022E+00
 7.3724380E+00 1.8694637E+00 1.3817606E+00
 7.3432223E+00 1.8862186E+00 1.3399394E+00
 7.3157222E+00 1.9003711E+00 1.2970688E+00
 7.2899927E+00 1.9118537E+00 1.2535021E+00
 7.2660771E+00 1.9206717E+00 1.2096004E+00
 7.2440120E+00 1.9268972E+00 1.1657229E+00
 7.2238326E+00 1.9306584E+00 1.1222387E+00
 7.2055442E+00 1.9321242E+00 1.0795012E+00
 7.1891860E+00 1.9315052E+00 1.0381192E+00
 6.7144514E+00 1.0720809E+00 1.6227989E+00
 6.7100429E+00 1.1189277E+00 1.6098056E+00
 6.7072396E+00 1.1666229E+00 1.5947573E+00
 6.7065033E+00 1.2153319E+00 1.5779070E+00
 6.7081539E+00 1.2650103E+00 1.5593283E+00
 6.7124434E+00 1.3154711E+00 1.5390387E+00
 6.7195730E+00 1.3664340E+00 1.5170375E+00
 6.7297050E+00 1.4175575E+00 1.4933363E+00
 6.7429630E+00 1.4684497E+00 1.4679777E+00
 6.7594243E+00 1.5186779E+00 1.4410439E+00
 6.7791101E+00 1.5677803E+00 1.4126587E+00
 6.8019769E+00 1.6152803E+00 1.3829868E+00
 6.8279115E+00 1.6607035E+00 1.3522310E+00
 6.8567289E+00 1.7035953E+00 1.3206268E+00
 6.8881753E+00 1.7435404E+00 1.2884358E+00
 6.9219361E+00 1.7801799E+00 1.2559386E+00
 6.9576475E+00 1.8132281E+00 1.2234248E+00
 6.9949090E+00 1.8424831E+00 1.1911823E+00
 7.0332984E+00 1.8678381E+00 1.1594779E+00
 7.0723827E+00 1.8892858E+00 1.1285194E+00
 7.1117464E+00 1.9069231E+00 1.0983766E+00
 7.1509227E+00 1.9209261E+00 1.0688360E+00
 6.7430114E+00 1.1021762E+00 1.6540905E+00
 6.7402709E+00 1.1515739E+00 1.6411861E+00
 6.7390699E+00 1.2011094E+00 1.6259637E+00
 6.7399881E+00 1.2512346E+00 1.6087860E+00
 6.7434060E+00 1.3020267E+00 1.5897792E+00
 6.7495844E+00 1.3533424E+00 1.5689658E+00
 6.7587078E+00 1.4049007E+00 1.5463374E+00
 6.7709094E+00 1.4563333E+00 1.5219026E+00
 6.7862755E+00 1.5072132E+00 1.4957089E+00
 6.8048392E+00 1.5570731E+00 1.4678512E+00
 6.8265713E+00 1.6054234E+00 1.4384725E+00
 6.8513732E+00 1.6517705E+00 1.4077614E+00
 6.8790738E+00 1.6956371E+00 1.3759476E+00
 6.9094328E+00 1.7365835E+00 1.3432947E+00
 6.9421480E+00 1.7742282E+00 1.3100921E+00
 6.9768713E+00 1.8082671E+00 1.2766427E+00
 7.0132232E+00 1.8384876E+00 1.2432466E+00
 7.0508121E+00 1.8647800E+00 1.2101662E+00
 7.0892462E+00 1.8871445E+00 1.1775611E+00
 7.1281359E+00 1.9056862E+00 1.1453819E+00
 7.1670926E+00 1.9206047E+00 1.1131356E+00
 6.7751878E+00 1.1323887E+00 1.6849932E+00
 6.7740868E+00 1.1835798E+00 1.6719152E+00
 6.7745717E+00 1.2346661E+00 1.6563913E+00
 6.7772522E+00 1.2860571E+00 1.6387764E+00
 6.7825405E+00 1.3378515E+00 1.6192093E+00
 6.7906944E+00 1.3899005E+00 1.5977107E+00
 6.8018754E+00 1.4419001E+00 1.5742707E+00
 6.8161820E+00 1.4934483E+00 1.5489026E+00
 6.8336578E+00 1.5440825E+00 1.5216675E+00
 6.8542854E+00 1.5933044E+00 1.4926809E+00
 6.8779793E+00 1.6406031E+00 1.4621123E+00
 6.9045821E+00 1.6854789E+00 1.4301812E+00
 6.9338654E+00 1.7274664E+00 1.3971499E+00
 6.9655389E+00 1.7661594E+00 1.3633142E+00
 6.9992662E+00 1.8012315E+00 1.3289896E+00
 7.0346841E+00 1.8324556E+00 1.2944904E+00
 7.0714203E+00 1.8597139E+00 1.2600896E+00
 7.1091028E+00 1.8830073E+00 1.2259452E+00
 7.1473514E+00 1.9024499E+00 1.1919772E+00
 7.1857652E+00 1.9182514E+00 1.1577246E+00
 6.8111222E+00 1.1629769E+00 1.7149852E+00
 6.8116837E+00 1.2155063E+00 1.7015146E+00
 6.8139259E+00 1.2678082E+00 1.6855194E+00
 6.8184663E+00 1.3202139E+00 1.6673178E+00
 6.8257138E+00 1.3727708E+00 1.6470325E+00
 6.8359065E+00 1.4252934E+00 1.6246776E+00
 6.8491719E+00 1.4774391E+00 1.6002465E+00
 6.8655657E+00 1.5287693E+00 1.5737654E+00
 6.8850803E+00 1.5787889E+00 1.5453169E+00
 6.9076422E+00 1.6269772E+00 1.5150450E+00
 6.9331066E+00 1.6728163E+00 1.4831530E+00
 6.9612583E+00 1.7158180E+00 1.4498970E+00
 6.9918202E+00 1.7555516E+00 1.4155751E+00
 7.0244688E+00 1.7916677E+00 1.3805142E+00
 7.0588558E+00 1.8239209E+00 1.3450444E+00
 7.0946252E+00 1.8521808E+00 1.3094608E+00
 7.1314215E+00 1.8764438E+00 1.2739450E+00
 7.1688701E+00 1.8968280E+00 1.2384563E+00
 7.2065570E+00 1.9135553E+00 1.2026195E+00
 6.8509336E+00 1.1938596E+00 1.7435419E+00
 6.8531887E+00 1.2473845E+00 1.7294620E+00
 6.8572540E+00 1.3005830E+00 1.7128099E+00