# TIME = 0.800000
variables = x, y, z
zone N=5762 E=11520 F=FEPOINT ET=TRIANGLE
 5.3908188E+00 1.4963261E+00 1.8030270E+00
 5.3908188E+00 1.4963261E+00 1.9697313E-01
 5.3908187E+00 5.0367369E-01 1.8030274E+00
 5.3908189E+00 5.0367400E-01 1.9697325E-01
 4.2006428E+00 1.0000000E+00 1.6014741E+00
 6.5950959E+00 1.0000000E+00 1.6131180E+00
 4.2006423E+00 1.0000000E+00 3.9852561E-01
 6.5950960E+00 1.0000000E+00 3.8688195E-01
 4.6918817E+00 1.9153656E+00 1.0000000E+00
 4.6918816E+00 8.4634146E-02 1.0000000E+00
 6.0747940E+00 1.8541065E+00 1.0000000E+00
 6.0747940E+00 1.4589361E-01 1.0000000E+00
 5.3472204E+00 1.4883890E+00 1.8104879E+00
 5.2996476E+00 1.4792733E+00 1.8180895E+00
 5.2498719E+00 1.4692995E+00 1.8255109E+00
 5.1980634E+00 1.4584555E+00 1.8326804E+00
 5.1442812E+00 1.4466793E+00 1.8395634E+00
 5.0886516E+00 1.4339169E+00 1.8460917E+00
 5.0313391E+00 1.4200834E+00 1.8521467E+00
 4.9725671E+00 1.4050607E+00 1.8575081E+00
 4.9126067E+00 1.3886862E+00 1.8618181E+00
 4.8517769E+00 1.3707641E+00 1.8645676E+00
 4.7904644E+00 1.3510982E+00 1.8651319E+00
 4.7291602E+00 1.3295415E+00 1.8628529E+00
 4.6684816E+00 1.3060490E+00 1.8571543E+00
 4.6091513E+00 1.2807110E+00 1.8476490E+00
 4.5519302E+00 1.2537561E+00 1.8342055E+00
 4.4975294E+00 1.2255241E+00 1.8169552E+00
 4.4465339E+00 1.1964205E+00 1.7962515E+00
 4.3993578E+00 1.1668698E+00 1.7725992E+00
 4.3562315E+00 1.1372744E+00 1.7465807E+00
 4.3172179E+00 1.1079900E+00 1.7187913E+00
 4.2822395E+00 1.0793045E+00 1.6897923E+00
 4.2511338E+00 1.0514646E+00 1.6600972E+00
 4.2236848E+00 1.0246512E+00 1.6301518E+00
 5.3437448E+00 5.4480121E-01 1.8297562E+00
 5.2950102E+00 5.5541206E-01 1.8376146E+00
 5.2442772E+00 5.6678168E-01 1.8451396E+00
 5.1915407E+00 5.7909045E-01 1.8523574E+00
 5.1368767E+00 5.9238956E-01 1.8592188E+00
 5.0804137E+00 6.0673873E-01 1.8656476E+00
 5.0223518E+00 6.2221810E-01 1.8715013E+00
 4.9629449E+00 6.3894332E-01 1.8765276E+00
 4.9024943E+00 6.5706334E-01 1.8803266E+00
 4.8413481E+00 6.7674349E-01 1.8823479E+00
 4.7799236E+00 6.9812846E-01 1.8819404E+00
 4.7187440E+00 7.2129462E-01 1.8784483E+00
 4.6584525E+00 7.4620787E-01 1.8713326E+00
 4.5997802E+00 7.7270360E-01 1.8602729E+00
 4.5434712E+00 8.0049744E-01 1.8452194E+00
 4.4901960E+00 8.2921979E-01 1.8263835E+00
 4.4404836E+00 8.5846164E-01 1.8041846E+00
 4.3946856E+00 8.8781940E-01 1.7791739E+00
 4.3529741E+00 9.1692586E-01 1.7519601E+00
 4.3153574E+00 9.4548051E-01 1.7231444E+00
 4.2817079E+00 9.7324394E-01 1.6932711E+00
 4.2516745E+00 1.0000000E+00 1.6626645E+00
 5.3425603E+00 5.7940488E-01 1.8478838E+00
 5.2927071E+00 5.9149296E-01 1.8558823E+00
 5.2409378E+00 6.0434365E-01 1.8634493E+00
 5.1871830E+00 6.1819308E-01 1.8706350E+00
 5.1315231E+00 6.3309696E-01 1.8773842E+00
 5.0741182E+00 6.4911024E-01 1.8836059E+00
 5.0151962E+00 6.6631029E-01 1.8891371E+00
 4.9550443E+00 6.8480252E-01 1.8936915E+00
 4.8939958E+00 7.0471465E-01 1.8968288E+00
 4.8324301E+00 7.2617338E-01 1.8979605E+00
 4.7707987E+00 7.4926570E-01 1.8964147E+00
 4.7096587E+00 7.7399566E-01 1.8915454E+00
 4.6496789E+00 8.0025242E-01 1.8828588E+00
 4.5915964E+00 8.2780399E-01 1.8701075E+00
 4.5361360E+00 8.5631915E-01 1.8533273E+00
 4.4839266E+00 8.8540781E-01 1.8328109E+00
 4.4354394E+00 9.1466720E-01 1.8090427E+00
 4.3909644E+00 9.4371927E-01 1.7826186E+00
 4.3506094E+00 9.7224761E-01 1.7541661E+00
 4.3143147E+00 1.0000000E+00 1.7242758E+00
 4.2817079E+00 1.0267561E+00 1.6932711E+00
 5.3415435E+00 6.1608914E-01 1.8651692E+00
 5.2907043E+00 6.2963978E-01 1.8731425E+00
 5.2379527E+00 6.4403191E-01 1.8806280E+00
 5.1832454E+00 6.5947918E-01 1.8876457E+00
 5.1266781E+00 6.7603654E-01 1.8941337E+00
 5.0684383E+00 6.9375356E-01 1.8999873E+00
 5.0087862E+00 7.1269780E-01 1.9050210E+00
 4.9480407E+00 7.3295700E-01 1.9089173E+00
 4.8865654E+00 7.5462767E-01 1.9112006E+00
 4.8247692E+00 7.7778869E-01 1.9112555E+00
 4.7631331E+00 8.0246334E-01 1.9084042E+00
 4.7022405E+00 8.2858229E-01 1.9020277E+00
 4.6427742E+00 8.5596346E-01 1.8916906E+00
 4.5854638E+00 8.8431880E-01 1.8772254E+00
 4.5310029E+00 9.1328502E-01 1.8587521E+00
 4.4799700E+00 9.4246784E-01 1.8366372E+00
 4.4327763E+00 9.7148305E-01 1.8114193E+00
 4.3896445E+00 1.0000000E+00 1.7837213E+00
 4.3506094E+00 1.0277524E+00 1.7541661E+00
 4.3153574E+00 1.0545195E+00 1.7231444E+00
 5.3406021E+00 6.5493683E-01 1.8814328E+00
 5.2888390E+00 6.7000882E-01 1.8892529E+00
 5.2352005E+00 6.8598172E-01 1.8965073E+00
 5.1796482E+00 7.0306024E-01 1.9031988E+00
 5.1223042E+00 7.2128891E-01 1.9092539E+00
 5.0633839E+00 7.4070892E-01 1.9145555E+00
 5.0031796E+00 7.6137340E-01 1.9188975E+00
 4.9420413E+00 7.8334591E-01 1.9219363E+00
 4.8803606E+00 8.0668455E-01 1.9231710E+00
 4.8185710E+00 8.3141380E-01 1.9219731E+00
 4.7571759E+00 8.5748942E-01 1.9176770E+00
 4.6967737E+00 8.8477065E-01 1.9097062E+00
 4.6380464E+00 9.1301267E-01 1.8976944E+00
 4.5817016E+00 9.4188485E-01 1.8815551E+00
 4.5283899E+00 9.7100871E-01 1.8614866E+00
 4.4786334E+00 1.0000000E+00 1.8379169E+00
 4.4327762E+00 1.0285170E+00 1.8114194E+00
 4.3909644E+00 1.0562808E+00 1.7826186E+00
 4.3529740E+00 1.0830742E+00 1.7519601E+00
 5.3397247E+00 6.9589151E-01 1.8964299E+00
 5.2871306E+00 7.1250817E-01 1.9039455E+00
 5.2327135E+00 7.3008331E-01 1.9108092E+00
 5.1764490E+00 7.4879623E-01 1.9170020E+00
 5.1184835E+00 7.6868189E-01 1.9224419E+00
 5.0590622E+00 7.8976799E-01 1.9270003E+00
 4.9985079E+00 8.1208836E-01 1.9304544E+00
 4.9371990E+00 8.3567610E-01 1.9324415E+00
 4.8755500E+00 8.6054490E-01 1.9324472E+00
 4.8140136E+00 8.8666059E-01 1.9298464E+00
 4.7531060E+00 9.1391178E-01 1.9240026E+00
 4.6934281E+00 9.4209261E-01 1.9143957E+00
 4.6356468E+00 9.7090760E-01 1.9007338E+00
 4.5804343E+00 1.0000000E+00 1.8830091E+00
 4.5283899E+00 1.0289913E+00 1.8614867E+00
 4.4799699E+00 1.0575322E+00 1.8366374E+00
 4.4354393E+00 1.0853328E+00 1.8090429E+00
 4.3946855E+00 1.1121807E+00 1.7791740E+00
 5.3389372E+00 7.3883716E-01 1.9099052E+00
 5.2856174E+00 7.5700019E-01 1.9169557E+00
 5.2305493E+00 7.7616328E-01 1.9232567E+00
 5.1737220E+00 7.9647772E-01 1.9287701E+00
 5.1153080E+00 8.1796422E-01 1.9334072E+00
 5.0555811E+00 8.4063418E-01 1.9370304E+00
 4.9948922E+00 8.6449750E-01 1.9394057E+00
 4.9336433E+00 8.8955237E-01 1.9401605E+00
 4.8722670E+00 9.1576425E-01 1.9387810E+00
 4.8112268E+00 9.4303997E-01 1.9346616E+00
 4.7510418E+00 9.7120550E-01 1.9272104E+00
 4.6923023E+00 1.0000000E+00 1.9159732E+00
 4.6356468E+00 1.0290924E+00 1.9007340E+00
 4.5817015E+00 1.0581152E+00 1.8815554E+00
 4.5310028E+00 1.0867150E+00 1.8587524E+00
 4.4839264E+00 1.1145923E+00 1.8328112E+00
 4.4404835E+00 1.1415384E+00 1.8041848E+00
 5.3382521E+00 7.8359337E-01 1.9216045E+00
 5.2843292E+00 8.0327041E-01 1.9280219E+00
 5.2287527E+00 8.2397134E-01 1.9335839E+00
 5.1715280E+00 8.4581396E-01 1.9382366E+00
 5.1128526E+00 8.6880224E-01 1.9418868E+00
 5.0530269E+00 8.9292807E-01 1.9443923E+00
 4.9924259E+00 9.1817428E-01 1.9455143E+00
 4.9314699E+00 9.4450134E-01 1.9448813E+00
 4.8706021E+00 9.7182621E-01 1.9419941E+00
 4.8102889E+00 1.0000000E+00 1.9362822E+00
 4.7510417E+00 1.0287945E+00 1.9272105E+00
 4.6934280E+00 1.0579074E+00 1.9143959E+00
 4.6380463E+00 1.0869874E+00 1.8976947E+00
 4.5854636E+00 1.1156813E+00 1.8772258E+00
 4.5361358E+00 1.1436809E+00 1.8533277E+00
 4.4901958E+00 1.1707803E+00 1.8263839E+00
 5.3376849E+00 8.2992746E-01 1.9312914E+00
 5.2832945E+00 8.5105039E-01 1.9369071E+00
 5.2273657E+00 8.7319940E-01 1.9415566E+00
 5.1699202E+00 8.9645494E-01 1.9451747E+00
 5.1111794E+00 9.2080205E-01 1.9476670E+00
 5.0514666E+00 9.4621104E-01 1.9488914E+00
 4.9911757E+00 9.7263614E-01 1.9486120E+00
 4.9307386E+00 1.0000000E+00 1.9464699E+00
 4.8706021E+00 1.0281738E+00 1.9419939E+00
 4.8112268E+00 1.0569600E+00 1.9346616E+00
 4.7531060E+00 1.0860882E+00 1.9240028E+00
 4.6967736E+00 1.1152294E+00 1.9097066E+00
 4.6427741E+00 1.1440366E+00 1.8916912E+00
 4.5915961E+00 1.1721961E+00 1.8701081E+00
 4.5434709E+00 1.1995027E+00 1.8452199E+00
 5.3372473E+00 8.7755289E-01 1.9387575E+00
 5.2825371E+00 9.0001606E-01 1.9434095E+00
 5.2264214E+00 9.2348427E-01 1.9469844E+00
 5.1689386E+00 9.4799718E-01 1.9494105E+00
 5.1103315E+00 9.7351966E-01 1.9505962E+00
 5.0509418E+00 9.9999996E-01 1.9504049E+00
 4.9911756E+00 1.0273638E+00 1.9486117E+00
 4.9314698E+00 1.0554986E+00 1.9448808E+00
 4.8722670E+00 1.0842357E+00 1.9387806E+00
 4.8140136E+00 1.1133394E+00 1.9298465E+00
 4.7571758E+00 1.1425107E+00 1.9176775E+00
 4.7022403E+00 1.1714179E+00 1.9020284E+00
 4.6496786E+00 1.1997478E+00 1.8828596E+00
 4.5997799E+00 1.2272966E+00 1.8602737E+00
 5.3369498E+00 9.2613740E-01 1.9438342E+00
 5.2820751E+00 9.4979940E-01 1.9473754E+00
 5.2259431E+00 9.7442125E-01 1.9497330E+00
 5.1686085E+00 9.9999995E-01 1.9508348E+00
 5.1103315E+00 1.0264802E+00 1.9505961E+00
 5.0514666E+00 1.0537889E+00 1.9488910E+00
 4.9924258E+00 1.0818257E+00 1.9455135E+00
 4.9336433E+00 1.1104476E+00 1.9401598E+00
 4.8755500E+00 1.1394551E+00 1.9324469E+00
 4.8185710E+00 1.1685863E+00 1.9219734E+00
 4.7631329E+00 1.1975368E+00 1.9084050E+00
 4.7096584E+00 1.2260046E+00 1.8915464E+00
 4.6584522E+00 1.2537925E+00 1.8713337E+00
 5.3367991E+00 9.7531259E-01 1.9464031E+00
 5.2819198E+00 9.9999994E-01 1.9487083E+00
 5.2259431E+00 1.0255786E+00 1.9497329E+00
 5.1689386E+00 1.0520027E+00 1.9494103E+00
 5.1111794E+00 1.0791979E+00 1.9476667E+00
 5.0530269E+00 1.1070719E+00 1.9443917E+00
 4.9948921E+00 1.1355025E+00 1.9394048E+00
 4.9371989E+00 1.1643239E+00 1.9324410E+00
 4.8803606E+00 1.1933155E+00 1.9231712E+00
 4.8247692E+00 1.2222115E+00 1.9112563E+00
 4.7707985E+00 1.2507346E+00 1.8964159E+00
 4.7187437E+00 1.2787058E+00 1.8784496E+00
 5.3367992E+00 1.0246873E+00 1.9464030E+00
 5.2820751E+00 1.0502005E+00 1.9473752E+00
 5.2264214E+00 1.0765156E+00 1.9469841E+00
 5.1699202E+00 1.1035450E+00 1.9451743E+00
 5.1128526E+00 1.1311977E+00 1.9418864E+00
 5.0555810E+00 1.1593658E+00 1.9370298E+00
 4.9985078E+00 1.1879117E+00 1.9304538E+00
 4.9420413E+00 1.2166542E+00 1.9219362E+00
 4.8865654E+00 1.2453725E+00 1.9112012E+00
 4.8324301E+00 1.2738270E+00 1.8979617E+00
 4.7799234E+00 1.3018721E+00 1.8819418E+00
 5.3369498E+00 1.0738625E+00 1.9438338E+00
 5.2825372E+00 1.0999838E+00 1.9434091E+00
 5.2273658E+00 1.1268005E+00 1.9415562E+00
 5.1715280E+00 1.1541860E+00 1.9382362E+00
 5.1153079E+00 1.1820358E+00 1.9334067E+00
 5.0590620E+00 1.2102320E+00 1.9269998E+00
 5.0031795E+00 1.2386266E+00 1.9188971E+00
 4.9480407E+00 1.2670431E+00 1.9089176E+00
 4.8939958E+00 1.2952857E+00 1.8968297E+00
 4.8413480E+00 1.3232571E+00 1.8823493E+00
 5.3372474E+00 1.1224470E+00 1.9387570E+00
 5.2832946E+00 1.1489495E+00 1.9369065E+00
 5.2287527E+00 1.1760286E+00 1.9335834E+00
 5.1737220E+00 1.2035222E+00 1.9287697E+00
 5.1184833E+00 1.2313181E+00 1.9224415E+00
 5.0633837E+00 1.2592911E+00 1.9145550E+00
 5.0087861E+00 1.2873022E+00 1.9050208E+00
 4.9550443E+00 1.3151977E+00 1.8936920E+00
 4.9024944E+00 1.3429371E+00 1.8803277E+00
 5.3376850E+00 1.1700724E+00 1.9312908E+00
 5.2843292E+00 1.1967295E+00 1.9280213E+00
 5.2305493E+00 1.2238366E+00 1.9232562E+00
 5.1764489E+00 1.2512037E+00 1.9170016E+00
 5.1223040E+00 1.2787111E+00 1.9092536E+00
 5.0684381E+00 1.3062464E+00 1.8999870E+00
 5.0151961E+00 1.3336897E+00 1.8891370E+00
 4.9629449E+00 1.3610569E+00 1.8765283E+00
 5.3382522E+00 1.2164065E+00 1.9216039E+00
 5.2856175E+00 1.2429997E+00 1.9169551E+00
 5.2327135E+00 1.2699166E+00 1.9108088E+00
 5.1796481E+00 1.2969398E+00 1.9031985E+00
 5.1266779E+00 1.3239635E+00 1.8941336E+00
 5.0741181E+00 1.3508898E+00 1.8836059E+00
 5.0223517E+00 1.3777820E+00 1.8715016E+00
 5.3389373E+00 1.2611627E+00 1.9099046E+00
 5.2871306E+00 1.2874917E+00 1.9039450E+00
 5.2352004E+00 1.3140182E+00 1.8965069E+00
 5.1832453E+00 1.3405208E+00 1.8876455E+00
 5.1315230E+00 1.3669031E+00 1.8773841E+00
 5.0804135E+00 1.3932613E+00 1.8656478E+00
 5.3397248E+00 1.3041083E+00 1.8964293E+00
 5.2888390E+00 1.3299911E+00 1.8892524E+00
 5.2379526E+00 1.3559680E+00 1.8806276E+00
 5.1871828E+00 1.3818069E+00 1.8706348E+00
 5.1368765E+00 1.4076105E+00 1.8592189E+00
 5.3406022E+00 1.3450630E+00 1.8814323E+00
 5.2907043E+00 1.3703601E+00 1.8731421E+00
 5.2409378E+00 1.3956563E+00 1.8634490E+00
 5.1915406E+00 1.4209095E+00 1.8523573E+00
 5.3415436E+00 1.3839107E+00 1.8651687E+00
 5.2927071E+00 1.4085069E+00 1.8558819E+00
 5.2442772E+00 1.4332183E+00 1.8451393E+00
 5.3425603E+00 1.4205950E+00 1.8478834E+00
 5.2950102E+00 1.4445878E+00 1.8376142E+00
 5.3437448E+00 1.4551986E+00 1.8297557E+00
 5.3908205E+00 1.4666344E+00 1.8206965E+00
 5.3908208E+00 1.4334503E+00 1.8387213E+00
 5.3908208E+00 1.3981484E+00 1.8560544E+00
 5.3908215E+00 1.3606597E+00 1.8725185E+00
 5.3908224E+00 1.3210844E+00 1.8878498E+00
 5.3908237E+00 1.2795086E+00 1.9018052E+00
 5.3908251E+00 1.2360854E+00 1.9141352E+00
 5.3908266E+00 1.1910147E+00 1.9246039E+00
 5.3908281E+00 1.1445515E+00 1.9329963E+00
 5.3908292E+00 1.0969963E+00 1.9391309E+00
 5.3908299E+00 1.0486897E+00 1.9428695E+00
 5.3908301E+00 9.9999995E-01 1.9441256E+00
 5.3908299E+00 9.5131022E-01 1.9428697E+00
 5.3908291E+00 9.0300359E-01 1.9391313E+00
 5.3908279E+00 8.5544841E-01 1.9329969E+00
 5.3908265E+00 8.0898512E-01 1.9246045E+00
 5.3908249E+00 7.6391445E-01 1.9141358E+00
 5.3908235E+00 7.2049124E-01 1.9018058E+00
 5.3908222E+00 6.7891541E-01 1.8878504E+00
 5.3908213E+00 6.3934014E-01 1.8725191E+00
 5.3908206E+00 6.0185146E-01 1.8560549E+00
 5.3908207E+00 5.6654957E-01 1.8387218E+00
 5.3908204E+00 5.3336548E-01 1.8206969E+00
 5.4343700E+00 5.1404944E-01 1.8064453E+00
 5.4817641E+00 5.2571503E-01 1.8095795E+00
 5.5312153E+00 5.3823106E-01 1.8122669E+00
 5.5825312E+00 5.5158397E-01 1.8144450E+00
 5.6356263E+00 5.6581188E-01 1.8160785E+00
 5.6903473E+00 5.8093353E-01 1.8171184E+00
 5.7465055E+00 5.9697775E-01 1.8175079E+00
 5.8038582E+00 6.1397447E-01 1.8171663E+00
 5.8621155E+00 6.3196043E-01 1.8159835E+00
 5.9209441E+00 6.5097556E-01 1.8138155E+00
 5.9799751E+00 6.7105734E-01 1.8104878E+00
 6.0388125E+00 6.9223226E-01 1.8058057E+00
 6.0970431E+00 7.1450557E-01 1.7995702E+00
 6.1542471E+00 7.3785221E-01 1.7915968E+00
 6.2100095E+00 7.6220969E-01 1.7817367E+00
 6.2639330E+00 7.8747561E-01 1.7698919E+00
 6.3156518E+00 8.1350920E-01 1.7560278E+00
 6.3648440E+00 8.4013749E-01 1.7401770E+00
 6.4112435E+00 8.6716417E-01 1.7224373E+00
 6.4546487E+00 8.9438179E-01 1.7029630E+00
 6.4949280E+00 9.2158214E-01 1.6819524E+00
 6.5319997E+00 9.4856035E-01 1.6596437E+00
 6.5658069E+00 9.7510599E-01 1.6363104E+00
 5.4378370E+00 1.4527435E+00 1.8252886E+00
 5.4863766E+00 1.4397262E+00 1.8284608E+00
 5.5367614E+00 1.4259929E+00 1.8310472E+00
 5.5889720E+00 1.4113824E+00 1.8330667E+00
 5.6429058E+00 1.3958701E+00 1.8344725E+00
 5.6984081E+00 1.3794348E+00 1.8352130E+00
 5.7552588E+00 1.3620578E+00 1.8352224E+00
 5.8131892E+00 1.3437149E+00 1.8344114E+00
 5.8718818E+00 1.3243796E+00 1.8326593E+00
 5.9309787E+00 1.3040256E+00 1.8298119E+00
 5.9900899E+00 1.2826344E+00 1.8256873E+00
 6.0488036E+00 1.2602042E+00 1.8200878E+00
 6.1066968E+00 1.2367585E+00 1.8128192E+00
 6.1633471E+00 1.2123545E+00 1.8037106E+00
 6.2183447E+00 1.1870868E+00 1.7926346E+00
 6.2713061E+00 1.1610870E+00 1.7795216E+00
 6.3218865E+00 1.1345199E+00 1.7643695E+00
 6.3697926E+00 1.1075748E+00 1.7472447E+00
 6.4147927E+00 1.0804531E+00 1.7282768E+00
 6.4567235E+00 1.0533553E+00 1.7076468E+00
 6.4955134E+00 1.0264568E+00 1.6855588E+00
 6.5312976E+00 1.0000000E+00 1.6621343E+00
 5.4390172E+00 1.4182705E+00 1.8432041E+00
 5.4886663E+00 1.4039342E+00 1.8463060E+00
 5.5400703E+00 1.3889095E+00 1.8487275E+00
 5.5932738E+00 1.3729782E+00 1.8505059E+00
 5.6481683E+00 1.3561138E+00 1.8515905E+00
 5.7045689E+00 1.3383043E+00 1.8519234E+00
 5.7622303E+00 1.3195365E+00 1.8514323E+00
 5.8208528E+00 1.2997965E+00 1.8500191E+00
 5.8800901E+00 1.2790701E+00 1.8475535E+00
 5.9395570E+00 1.2573481E+00 1.8438724E+00
 5.9988408E+00 1.2346342E+00 1.8387881E+00
 6.0575123E+00 1.2109535E+00 1.8321035E+00
 6.1151385E+00 1.1863607E+00 1.8236329E+00
 6.1712947E+00 1.1609452E+00 1.8132229E+00
 6.2255775E+00 1.1348326E+00 1.8007723E+00
 6.2776181E+00 1.1081814E+00 1.7862440E+00
 6.3270953E+00 1.0811767E+00 1.7696717E+00
 6.3737473E+00 1.0540171E+00 1.7511574E+00
 6.4173814E+00 1.0269012E+00 1.7308616E+00
 6.4579049E+00 1.0000000E+00 1.7089726E+00
 6.4955134E+00 9.7354323E-01 1.6855588E+00
 5.4400310E+00 1.3817436E+00 1.8602948E+00
 5.4906569E+00 1.3661296E+00 1.8631769E+00
 5.5430277E+00 1.3497774E+00 1.8653197E+00
 5.5971602E+00 1.3324954E+00 1.8667337E+00
 5.6529308E+00 1.3142609E+00 1.8673651E+00
 5.7101280E+00 1.2950696E+00 1.8671508E+00
 5.7684767E+00 1.2749189E+00 1.8660126E+00
 5.8276479E+00 1.2538067E+00 1.8638453E+00
 5.8872674E+00 1.2317353E+00 1.8605111E+00
 5.9469259E+00 1.2087162E+00 1.8558418E+00
 6.0061917E+00 1.1847782E+00 1.8496493E+00
 6.0646236E+00 1.1599758E+00 1.8417433E+00
 6.1217847E+00 1.1343948E+00 1.8319531E+00
 6.1772547E+00 1.1081552E+00 1.8201497E+00
 6.2306437E+00 1.0814097E+00 1.8062628E+00
 6.2816045E+00 1.0543381E+00 1.7902914E+00
 6.3298461E+00 1.0271360E+00 1.7723053E+00
 6.3751458E+00 1.0000000E+00 1.7524387E+00
 6.4173814E+00 9.7309878E-01 1.7308615E+00
 6.4567235E+00 9.4664469E-01 1.7076468E+00
 5.4409713E+00 1.3430786E+00 1.8763726E+00
 5.4925129E+00 1.3261527E+00 1.8789171E+00
 5.5457558E+00 1.3084607E+00 1.8806476E+00
 5.6007115E+00 1.2898224E+00 1.8815588E+00
 5.6572299E+00 1.2702282E+00 1.8815909E+00
 5.7150731E+00 1.2496836E+00 1.8806776E+00
 5.7739368E+00 1.2281980E+00 1.8787362E+00
 5.8334645E+00 1.2057850E+00 1.8756570E+00
 5.8932568E+00 1.1824654E+00 1.8712989E+00
 5.9528847E+00 1.1582740E+00 1.8654937E+00
 6.0119033E+00 1.1332669E+00 1.8580593E+00
 6.0698663E+00 1.1075277E+00 1.8488191E+00
 6.1263402E+00 1.0811719E+00 1.8376247E+00
 6.1809172E+00 1.0543465E+00 1.8243764E+00
 6.2332282E+00 1.0272254E+00 1.8090390E+00
 6.2829553E+00 1.0000000E+00 1.7916478E+00
 6.3298461E+00 9.7286402E-01 1.7723053E+00
 6.3737472E+00 9.4598293E-01 1.7511574E+00
 6.4147927E+00 9.1954696E-01 1.7282767E+00
 5.4418481E+00 1.3023291E+00 1.8911950E+00
 5.4942130E+00 1.2840926E+00 1.8932666E+00
 5.5482210E+00 1.2650647E+00 1.8944452E+00
 5.6038693E+00 1.2450932E+00 1.8947066E+00
 5.6609840E+00 1.2241797E+00 1.8939884E+00
 5.7192996E+00 1.2023428E+00 1.8922222E+00
 5.7784846E+00 1.1796063E+00 1.8893236E+00
 5.8381574E+00 1.1560012E+00 1.8851816E+00
 5.8978984E+00 1.1315697E+00 1.8796567E+00
 5.9572647E+00 1.1063711E+00 1.8725868E+00
 6.0158050E+00 1.0804886E+00 1.8638025E+00
 6.0730752E+00 1.0540340E+00 1.8531476E+00
 6.1286532E+00 1.0271485E+00 1.8405016E+00
 6.1821510E+00 1.0000000E+00 1.8257986E+00
 6.2332282E+00 9.7277464E-01 1.8090390E+00
 6.2816045E+00 9.4566193E-01 1.7902914E+00
 6.3270953E+00 9.1882338E-01 1.7696717E+00
 6.3697926E+00 8.9242526E-01 1.7472447E+00
 5.4426359E+00 1.2596116E+00 1.9045112E+00
 5.4957194E+00 1.2400855E+00 1.9059691E+00
 5.5503666E+00 1.2197591E+00 1.9064486E+00
 5.6065609E+00 1.1985100E+00 1.9059101E+00
 5.6641034E+00 1.1763543E+00 1.9042901E+00
 5.7227027E+00 1.1533247E+00 1.9015208E+00
 5.7820030E+00 1.1294616E+00 1.8975192E+00
 5.8416019E+00 1.1048149E+00 1.8921777E+00
 5.9010651E+00 1.0794488E+00 1.8853634E+00
 5.9599424E+00 1.0534473E+00 1.8769265E+00
 6.0177839E+00 1.0269191E+00 1.8667169E+00
 6.0741553E+00 1.0000000E+00 1.8546047E+00
 6.1286532E+00 9.7285155E-01 1.8405016E+00
 6.1809172E+00 9.4565356E-01 1.8243764E+00
 6.2306437E+00 9.1859031E-01 1.8062627E+00
 6.2776181E+00 8.9181860E-01 1.7862439E+00
 6.3218865E+00 8.6548011E-01 1.7643694E+00
 5.4433219E+00 1.2151045E+00 1.9160708E+00
 5.4970024E+00 1.1943419E+00 1.9167710E+00
 5.5521479E+00 1.1727869E+00 1.9164042E+00
 5.6087262E+00 1.1503514E+00 1.9149188E+00
 5.6665149E+00 1.1270675E+00 1.9122530E+00
 5.7251991E+00 1.1029834E+00 1.9083427E+00
 5.7844023E+00 1.0781566E+00 1.9031101E+00
 5.8437070E+00 1.0526565E+00 1.8964555E+00
 5.9026707E+00 1.0265688E+00 1.8882585E+00
 5.9608435E+00 1.0000000E+00 1.8783874E+00
 6.0177839E+00 9.7308098E-01 1.8667169E+00
 6.0730752E+00 9.4596606E-01 1.8531475E+00
 6.1263402E+00 9.1882814E-01 1.8376247E+00
 6.1772547E+00 8.9184485E-01 1.8201496E+00
 6.2255775E+00 8.6516743E-01 1.8007722E+00
 6.2713060E+00 8.3891305E-01 1.7795215E+00
 5.4438904E+00 1.1690384E+00 1.9256411E+00
 5.4980333E+00 1.1471248E+00 1.9254423E+00
 5.5535233E+00 1.1244461E+00 1.9240881E+00
 5.6103130E+00 1.1009516E+00 1.9215195E+00
 5.6681582E+00 1.0766902E+00 1.9176794E+00
 5.7267240E+00 1.0517259E+00 1.9125107E+00
 5.7856185E+00 1.0261332E+00 1.9059449E+00
 5.8444152E+00 1.0000000E+00 1.8978952E+00
 5.9026707E+00 9.7343129E-01 1.8882585E+00
 5.9599424E+00 9.4655274E-01 1.8769265E+00
 6.0158050E+00 9.1951143E-01 1.8638024E+00
 6.0698663E+00 8.9247238E-01 1.8488191E+00
 6.1217846E+00 8.6560530E-01 1.8319530E+00
 6.1712947E+00 8.3905483E-01 1.8132229E+00
 6.2183447E+00 8.1291329E-01 1.7926345E+00
 5.4443292E+00 1.1216966E+00 1.9330167E+00
 5.4987882E+00 1.0987507E+00 1.9317875E+00
 5.5544599E+00 1.0750870E+00 1.9293186E+00
 5.6112818E+00 1.0506947E+00 1.9255488E+00
 5.6689908E+00 1.0256394E+00 1.9204290E+00
 5.7272369E+00 1.0000000E+00 1.9139128E+00
 5.7856185E+00 9.7386681E-01 1.9059450E+00
 5.8437070E+00 9.4734355E-01 1.8964555E+00
 5.9010651E+00 9.2055121E-01 1.8853634E+00
 5.9572647E+00 8.9362897E-01 1.8725868E+00
 6.0119033E+00 8.6673318E-01 1.8580593E+00
 6.0646236E+00 8.4002428E-01 1.8417432E+00
 6.1151385E+00 8.1363933E-01 1.8236328E+00
 6.1633471E+00 7.8764555E-01 1.8037106E+00
 5.4446278E+00 1.0734074E+00 1.9380317E+00
 5.4992487E+00 1.0495788E+00 1.9356572E+00
 5.5549343E+00 1.0250998E+00 1.9319670E+00
 5.6116076E+00 1.0000000E+00 1.9269035E+00
 5.6689908E+00 9.7436065E-01 1.9204290E+00
 5.7267240E+00 9.4827413E-01 1.9125107E+00
 5.7844023E+00 9.2184345E-01 1.9031101E+00
 5.8416019E+00 8.9518513E-01 1.8921777E+00
 5.8978984E+00 8.6843036E-01 1.8796567E+00
 5.9528847E+00 8.4172604E-01 1.8654936E+00
 6.0061917E+00 8.1522186E-01 1.8496493E+00
 6.0575123E+00 7.8904656E-01 1.8321034E+00
 6.1066968E+00 7.6324160E-01 1.8128191E+00
 5.4447789E+00 1.0245348E+00 1.9405694E+00
 5.4994035E+00 9.9999998E-01 1.9369578E+00
 5.5549343E+00 9.7490022E-01 1.9319671E+00
 5.6112818E+00 9.4930529E-01 1.9255488E+00
 5.6681581E+00 9.2330985E-01 1.9176795E+00
 5.7251991E+00 8.9701666E-01 1.9083427E+00
 5.7820030E+00 8.7053843E-01 1.8975193E+00
 5.8381574E+00 8.4399881E-01 1.8851816E+00
 5.8932568E+00 8.1753467E-01 1.8712988E+00
 5.9469259E+00 7.9128392E-01 1.8558417E+00
 5.9988407E+00 7.6536591E-01 1.8387880E+00
 6.0488036E+00 7.3979593E-01 1.8200877E+00
 5.4447789E+00 9.7546511E-01 1.9405695E+00
 5.4992487E+00 9.5042112E-01 1.9356574E+00
 5.5544599E+00 9.2491297E-01 1.9293187E+00
 5.6103130E+00 8.9904843E-01 1.9215197E+00
 5.6665149E+00 8.7293253E-01 1.9122531E+00
 5.7227027E+00 8.4667534E-01 1.9015209E+00
 5.7784846E+00 8.2039375E-01 1.8893236E+00
 5.8334645E+00 7.9421509E-01 1.8756569E+00
 5.8872674E+00 7.6826476E-01 1.8605110E+00
 5.9395570E+00 7.4265201E-01 1.8438723E+00
 5.9900899E+00 7.1736564E-01 1.8256871E+00
 5.4446277E+00 9.2659248E-01 1.9380320E+00
 5.4987881E+00 9.0124926E-01 1.9317878E+00
 5.5535232E+00 8.7555392E-01 1.9240884E+00
 5.6087262E+00 8.4964860E-01 1.9149190E+00
 5.6641033E+00 8.2364575E-01 1.9042903E+00
 5.7192996E+00 7.9765725E-01 1.8922222E+00
 5.7739368E+00 7.7180202E-01 1.8787362E+00
 5.8276479E+00 7.4619333E-01 1.8638452E+00
 5.8800900E+00 7.2093000E-01 1.8475535E+00
 5.9309787E+00 6.9597449E-01 1.8298118E+00
 5.4443291E+00 8.7830330E-01 1.9330171E+00
 5.4980332E+00 8.5287515E-01 1.9254427E+00
 5.5521478E+00 8.2721306E-01 1.9164045E+00
 5.6065608E+00 8.0149000E-01 1.9059104E+00
 5.6609840E+00 7.7582027E-01 1.8939885E+00
 5.7150731E+00 7.5031646E-01 1.8806776E+00
 5.7684766E+00 7.2508120E-01 1.8660126E+00
 5.8208528E+00 7.0020354E-01 1.8500190E+00
 5.8718818E+00 6.7562053E-01 1.8326592E+00
 5.4438902E+00 8.3096150E-01 1.9256417E+00
 5.4970023E+00 8.0565799E-01 1.9167714E+00
 5.5503665E+00 7.8024083E-01 1.9064490E+00
 5.6038693E+00 7.5490673E-01 1.8947068E+00
 5.6572299E+00 7.2977178E-01 1.8815911E+00
 5.7101280E+00 7.0493040E-01 1.8671509E+00
 5.7622303E+00 6.8046353E-01 1.8514323E+00
 5.8131892E+00 6.5628517E-01 1.8344113E+00
 5.4433217E+00 7.8489540E-01 1.9160714E+00
 5.4957193E+00 7.5991441E-01 1.9059696E+00
 5.5482209E+00 7.3493526E-01 1.8944455E+00
 5.6007114E+00 7.1017752E-01 1.8815591E+00
 5.6529308E+00 6.8573913E-01 1.8673652E+00
 5.7045689E+00 6.6169576E-01 1.8519234E+00
 5.7552588E+00 6.3794227E-01 1.8352224E+00
 5.4426357E+00 7.4038829E-01 1.9045118E+00
 5.4942128E+00 7.1590734E-01 1.8932670E+00
 5.5457557E+00 6.9153922E-01 1.8806480E+00
 5.5971601E+00 6.6750451E-01 1.8667340E+00
 5.6481682E+00 6.4388618E-01 1.8515907E+00
 5.6984080E+00 6.2056522E-01 1.8352131E+00
 5.4418479E+00 6.9767077E-01 1.8911955E+00
 5.4925127E+00 6.7384717E-01 1.8789176E+00
 5.5430276E+00 6.5022252E-01 1.8653201E+00
 5.5932737E+00 6.2702177E-01 1.8505062E+00
 5.6429057E+00 6.0412991E-01 1.8344727E+00
 5.4409711E+00 6.5692126E-01 1.8763731E+00
 5.4906567E+00 6.3387025E-01 1.8631773E+00
 5.5400702E+00 6.1109045E-01 1.8487279E+00
 5.5889720E+00 5.8861752E-01 1.8330670E+00
 5.4400309E+00 6.1825628E-01 1.8602953E+00
 5.4886661E+00 5.9606568E-01 1.8463064E+00
 5.5367613E+00 5.7400705E-01 1.8310475E+00
 5.4390171E+00 5.8172933E-01 1.8432045E+00
 5.4863764E+00 5.6027370E-01 1.8284611E+00
 5.4378369E+00 5.4725637E-01 1.8252891E+00
 5.3638436E+00 1.5206261E+00 1.7892302E+00
 5.3344465E+00 1.5466612E+00 1.7730735E+00
 5.3038450E+00 1.5732307E+00 1.7550738E+00
 5.2720645E+00 1.6001845E+00 1.7351424E+00
 5.2392473E+00 1.6273743E+00 1.7131770E+00
 5.2055135E+00 1.6546301E+00 1.6890950E+00
 5.1710313E+00 1.6817633E+00 1.6628346E+00
 5.1359968E+00 1.7085596E+00 1.6343652E+00
 5.1006388E+00 1.7347842E+00 1.6036873E+00
 5.0652112E+00 1.7601828E+00 1.5708374E+00
 5.0299869E+00 1.7844856E+00 1.5358920E+00
 4.9952474E+00 1.8074138E+00 1.4989716E+00
 4.9612718E+00 1.8286908E+00 1.4602442E+00
 4.9283257E+00 1.8480564E+00 1.4199276E+00
 4.8966518E+00 1.8652838E+00 1.3782879E+00
 4.8664626E+00 1.8801941E+00 1.3356332E+00
 4.8379344E+00 1.8926703E+00 1.2923032E+00
 4.8112033E+00 1.9026631E+00 1.2486547E+00
 4.7863633E+00 1.9101919E+00 1.2050447E+00
 4.7634645E+00 1.9153390E+00 1.1618120E+00
 4.7425184E+00 1.9182408E+00 1.1192650E+00
 4.7235019E+00 1.9190695E+00 1.0776753E+00
 4.7064314E+00 1.9180347E+00 1.0373397E+00
 4.2178919E+00 1.0696453E+00 1.6198076E+00
 4.2126664E+00 1.1147511E+00 1.6065416E+00
 4.2093125E+00 1.1613606E+00 1.5915284E+00
 4.2081944E+00 1.2094357E+00 1.5748123E+00
 4.2095641E+00 1.2587906E+00 1.5563149E+00
 4.2136745E+00 1.3091494E+00 1.5359947E+00
 4.2207611E+00 1.3601777E+00 1.5138385E+00
 4.2310305E+00 1.4114812E+00 1.4898678E+00
 4.2446469E+00 1.4626132E+00 1.4641420E+00
 4.2617177E+00 1.5130820E+00 1.4367623E+00
 4.2822809E+00 1.5623639E+00 1.4078750E+00
 4.3062927E+00 1.6099202E+00 1.3776721E+00
 4.3336187E+00 1.6552188E+00 1.3463901E+00
 4.3640306E+00 1.6977596E+00 1.3143045E+00
 4.3972077E+00 1.7371006E+00 1.2817223E+00
 4.4327468E+00 1.7728845E+00 1.2489701E+00
 4.4701793E+00 1.8048604E+00 1.2163806E+00
 4.5089952E+00 1.8329000E+00 1.1842763E+00
 4.5486713E+00 1.8570027E+00 1.1529543E+00
 4.5887086E+00 1.8772951E+00 1.1226716E+00
 4.6286670E+00 1.8940150E+00 1.0936188E+00
 4.6681503E+00 1.9074865E+00 1.0657814E+00
 4.2465541E+00 1.0981968E+00 1.6497637E+00
 4.2426045E+00 1.1449257E+00 1.6365053E+00
 4.2406576E+00 1.1930272E+00 1.6213654E+00
 4.2411084E+00 1.2425093E+00 1.6043772E+00
 4.2442147E+00 1.2931533E+00 1.5854533E+00
 4.2502269E+00 1.3446338E+00 1.5645478E+00
 4.2593697E+00 1.3965603E+00 1.5416500E+00
 4.2718293E+00 1.4484812E+00 1.5167902E+00
 4.2877365E+00 1.4998930E+00 1.4900435E+00
 4.3071534E+00 1.5502531E+00 1.4615345E+00
 4.3300588E+00 1.5989974E+00 1.4314396E+00
 4.3563393E+00 1.6455631E+00 1.3999869E+00
 4.3857826E+00 1.6894150E+00 1.3674526E+00
 4.4180801E+00 1.7300749E+00 1.3341535E+00
 4.4528344E+00 1.7671509E+00 1.3004355E+00
 4.4895777E+00 1.8003605E+00 1.2666585E+00
 4.5277963E+00 1.8295515E+00 1.2331793E+00
 4.5669595E+00 1.8547062E+00 1.2003337E+00
 4.6065613E+00 1.8759435E+00 1.1684169E+00
 4.6461561E+00 1.8935044E+00 1.1376550E+00
 4.6853698E+00 1.9077372E+00 1.1079925E+00
 4.2789892E+00 1.1274605E+00 1.6793418E+00
 4.2764782E+00 1.1756357E+00 1.6659746E+00
 4.2761268E+00 1.2251130E+00 1.6506005E+00
 4.2783338E+00 1.2758588E+00 1.6332174E+00
 4.2833549E+00 1.3276050E+00 1.6137309E+00
 4.2914301E+00 1.3799711E+00 1.5920943E+00
 4.3027636E+00 1.4325076E+00 1.5683036E+00
 4.3175089E+00 1.4847039E+00 1.5424036E+00
 4.3357513E+00 1.5360035E+00 1.5144921E+00
 4.3574935E+00 1.5858205E+00 1.4847246E+00
 4.3826438E+00 1.6335645E+00 1.4533158E+00
 4.4110095E+00 1.6786675E+00 1.4205372E+00
 4.4422969E+00 1.7206164E+00 1.3867109E+00
 4.4761193E+00 1.7589837E+00 1.3521981E+00
 4.5120140E+00 1.7934552E+00 1.3173837E+00
 4.5494686E+00 1.8238517E+00 1.2826570E+00
 4.5879495E+00 1.8501361E+00 1.2483922E+00
 4.6269469E+00 1.8724155E+00 1.2149252E+00
 4.6660105E+00 1.8909268E+00 1.1825210E+00
 4.7047718E+00 1.9060325E+00 1.1511712E+00
 4.3154440E+00 1.1574134E+00 1.7080757E+00
 4.3145762E+00 1.2068904E+00 1.6944844E+00
 4.3160261E+00 1.2575627E+00 1.6787511E+00
 4.3201820E+00 1.3093472E+00 1.6608367E+00
 4.3272874E+00 1.3619190E+00 1.6406428E+00
 4.3375605E+00 1.4148395E+00 1.6181263E+00
 4.3511729E+00 1.4675996E+00 1.5932962E+00
 4.3682313E+00 1.5196347E+00 1.5662188E+00
 4.3887614E+00 1.5703441E+00 1.5370238E+00
 4.4126949E+00 1.6191147E+00 1.5059060E+00
 4.4398607E+00 1.6653510E+00 1.4731268E+00
 4.4699846E+00 1.7085081E+00 1.4390077E+00
 4.5026957E+00 1.7481254E+00 1.4039202E+00
 4.5375436E+00 1.7838571E+00 1.3682700E+00
 4.5740240E+00 1.8154954E+00 1.3324760E+00
 4.6116086E+00 1.8429808E+00 1.2969486E+00
 4.6497903E+00 1.8664039E+00 1.2620638E+00
 4.6881195E+00 1.8859915E+00 1.2281287E+00
 4.7262418E+00 1.9021119E+00 1.1951882E+00
 4.3561048E+00 1.1877972E+00 1.7354596E+00
 4.3570754E+00 1.2383746E+00 1.7215001E+00
 4.3605114E+00 1.2899977E+00 1.7052549E+00