# TIME = 13.000000
variables = x, y, z
zone N=5762 E=11520 F=FEPOINT ET=TRIANGLE
 5.4012131E-01 1.4835475E+00 1.7822332E+00
 5.4012140E-01 1.4835473E+00 2.1776689E-01
 5.4012139E-01 5.1645269E-01 1.7822330E+00
 5.4012142E-01 5.1645254E-01 2.1776676E-01
 -6.4359251E-01 9.9999997E-01 1.6079182E+00
 1.7524169E+00 9.9999997E-01 1.6155162E+00
 -6.4359253E-01 9.9999999E-01 3.9208167E-01
 1.7524169E+00 9.9999997E-01 3.8448372E-01
 -1.7129400E-01 1.9261292E+00 9.9999970E-01
 -1.7129399E-01 7.3870719E-02 1.0000002E+00
 1.2374480E+00 1.8658555E+00 9.9999994E-01
 1.2374480E+00 1.3414447E-01 9.9999996E-01
 4.9264857E-01 1.4756024E+00 1.7896921E+00
 4.3997563E-01 1.4668423E+00 1.7981243E+00
 3.8454711E-01 1.4577844E+00 1.8071965E+00
 3.2703062E-01 1.4483870E+00 1.8168738E+00
 2.6807898E-01 1.4385149E+00 1.8270223E+00
 2.0845152E-01 1.4279328E+00 1.8373555E+00
 1.4883149E-01 1.4163424E+00 1.8474201E+00
 8.9706134E-02 1.4034209E+00 1.8566250E+00
 3.1308292E-02 1.3888601E+00 1.8643014E+00
 -2.6326987E-02 1.3724016E+00 1.8697637E+00
 -8.3243388E-02 1.3538641E+00 1.8723660E+00
 -1.3943536E-01 1.3331641E+00 1.8715556E+00
 -1.9476047E-01 1.3103297E+00 1.8669229E+00
 -2.4891945E-01 1.2855018E+00 1.8582381E+00
 -3.0149432E-01 1.2589225E+00 1.8454680E+00
 -3.5201569E-01 1.2309116E+00 1.8287660E+00
 -4.0002947E-01 1.2018374E+00 1.8084438E+00
 -4.4514758E-01 1.1720855E+00 1.7849289E+00
 -4.8707913E-01 1.1420327E+00 1.7587195E+00
 -5.2564290E-01 1.1120272E+00 1.7303407E+00
 -5.6073908E-01 1.0823937E+00 1.7003361E+00
 -5.9232252E-01 1.0534333E+00 1.6692623E+00
 -6.2029938E-01 1.0255176E+00 1.6378070E+00
 4.8706860E-01 5.5874505E-01 1.8097012E+00
 4.3248337E-01 5.6960568E-01 1.8188390E+00
 3.7577807E-01 5.8029759E-01 1.8282805E+00
 3.1743298E-01 5.9117827E-01 1.8381450E+00
 2.5800755E-01 6.0257157E-01 1.8483633E+00
 1.9820485E-01 6.1477828E-01 1.8586378E+00
 1.3866506E-01 6.2811145E-01 1.8684839E+00
 7.9809084E-02 6.4286594E-01 1.8772806E+00
 2.1810912E-02 6.5929444E-01 1.8843413E+00
 -3.5330144E-02 6.7758593E-01 1.8889791E+00
 -9.1665634E-02 6.9784808E-01 1.8905650E+00
 -1.4717761E-01 7.2009435E-01 1.8885792E+00
 -2.0170541E-01 7.4423748E-01 1.8826580E+00
 -2.5493997E-01 7.7009318E-01 1.8726249E+00
 -3.0646844E-01 7.9739582E-01 1.8585000E+00
 -3.5584220E-01 8.2582155E-01 1.8404839E+00
 -4.0264294E-01 8.5501367E-01 1.8189200E+00
 -4.4653396E-01 8.8460669E-01 1.7942457E+00
 -4.8728964E-01 9.1424380E-01 1.7669393E+00
 -5.2481528E-01 9.4358725E-01 1.7374618E+00
 -5.5916339E-01 9.7231461E-01 1.7061915E+00
 -5.9057060E-01 9.9999997E-01 1.6733335E+00
 4.8475878E-01 5.9418860E-01 1.8281693E+00
 4.2795510E-01 6.0710989E-01 1.8377819E+00
 3.6976391E-01 6.1949152E-01 1.8474467E+00
 3.1034669E-01 6.3198619E-01 1.8574151E+00
 2.5025743E-01 6.4501074E-01 1.8676102E+00
 1.9013591E-01 6.5893157E-01 1.8777206E+00
 1.3055186E-01 6.7406137E-01 1.8872296E+00
 7.1852382E-02 6.9066091E-01 1.8954914E+00
 1.4150932E-02 7.0892698E-01 1.9018080E+00
 -4.2587385E-02 7.2898392E-01 1.9054986E+00
 -9.8422227E-02 7.5087457E-01 1.9059560E+00
 -1.5332696E-01 7.7455349E-01 1.9026967E+00
 -2.0712978E-01 7.9988627E-01 1.8954033E+00
 -2.5952048E-01 8.2665791E-01 1.8839495E+00
 -3.1010238E-01 8.5459046E-01 1.8684008E+00
 -3.5846276E-01 8.8336489E-01 1.8489883E+00
 -4.0424215E-01 9.1264036E-01 1.8260606E+00
 -4.4719264E-01 9.4206991E-01 1.8000177E+00
 -4.8721926E-01 9.7130823E-01 1.7712348E+00
 -5.2441239E-01 9.9999997E-01 1.7399745E+00
 -5.5916338E-01 1.0276853E+00 1.7061915E+00
 4.8312790E-01 6.3123598E-01 1.8454287E+00
 4.2484118E-01 6.4584843E-01 1.8550925E+00
 3.6533898E-01 6.5991579E-01 1.8647953E+00
 3.0495430E-01 6.7406403E-01 1.8747103E+00
 2.4421758E-01 6.8878683E-01 1.8847458E+00
 1.8375882E-01 7.0446735E-01 1.8945509E+00
 1.2408950E-01 7.2140754E-01 1.9035772E+00
 6.5494571E-02 7.3982793E-01 1.9111575E+00
 8.0367261E-03 7.5987188E-01 1.9165890E+00
 -4.8347143E-02 7.8160532E-01 1.9192028E+00
 -1.0372293E-01 8.0501502E-01 1.9184179E+00
 -1.5805865E-01 8.3000693E-01 1.9137893E+00
 -2.1117920E-01 8.5641079E-01 1.9050448E+00
 -2.6278476E-01 8.8399124E-01 1.8921012E+00
 -3.1251144E-01 9.1246501E-01 1.8750552E+00
 -3.6000624E-01 9.4151767E-01 1.8541442E+00
 -4.0500232E-01 9.7081389E-01 1.8296819E+00
 -4.4738085E-01 9.9999997E-01 1.8019770E+00
 -4.8721925E-01 1.0286917E+00 1.7712348E+00
 -5.2481524E-01 1.0564127E+00 1.7374617E+00
 4.8186218E-01 6.6987095E-01 1.8613430E+00
 4.2243463E-01 6.8600199E-01 1.8708104E+00
 3.6191115E-01 7.0166053E-01 1.8803313E+00
 3.0071333E-01 7.1745740E-01 1.8900180E+00
 2.3943034E-01 7.3388417E-01 1.8997247E+00
 1.7868380E-01 7.5132133E-01 1.9090583E+00
 1.1894985E-01 7.7004137E-01 1.9174366E+00
 6.0464307E-02 7.9022181E-01 1.9241764E+00
 3.2506949E-03 8.1195441E-01 1.9285762E+00
 -5.2776082E-02 8.3525282E-01 1.9299843E+00
 -1.0768733E-01 8.6005594E-01 1.9278503E+00
 -1.6145107E-01 8.8623124E-01 1.9217680E+00
 -2.1389942E-01 9.1358197E-01 1.9115056E+00
 -2.6475902E-01 9.4185876E-01 1.8970126E+00
 -3.1372074E-01 9.7077213E-01 1.8783964E+00
 -3.6051804E-01 9.9999997E-01 1.8558715E+00
 -4.0500231E-01 1.0291860E+00 1.8296819E+00
 -4.4719261E-01 1.0579300E+00 1.8000177E+00
 -4.8728960E-01 1.0857561E+00 1.7669392E+00
 4.8081962E-01 7.1009324E-01 1.8757800E+00
 4.2047823E-01 7.2759420E-01 1.8848473E+00
 3.5914015E-01 7.4475691E-01 1.8939940E+00
 2.9730010E-01 7.6215102E-01 1.9032672E+00
 2.3559528E-01 7.8024579E-01 1.9124650E+00
 1.7465295E-01 7.9939192E-01 1.9211480E+00
 1.1492083E-01 8.1982291E-01 1.9287054E+00
 5.6597671E-02 8.4166911E-01 1.9344436E+00
 -3.2381833E-04 8.6497376E-01 1.9376694E+00
 -5.5946213E-02 8.8970466E-01 1.9377536E+00
 -1.1034827E-01 9.1576155E-01 1.9341786E+00
 -1.6350604E-01 9.4298215E-01 1.9265752E+00
 -2.1527301E-01 9.7114950E-01 1.9147444E+00
 -2.6542198E-01 9.9999997E-01 1.8986525E+00
 -3.1372073E-01 1.0292278E+00 1.8783964E+00
 -3.6000621E-01 1.0584823E+00 1.8541442E+00
 -4.0424211E-01 1.0873596E+00 1.8260606E+00
 -4.4653390E-01 1.1153932E+00 1.7942456E+00
 4.7993292E-01 7.5182126E-01 1.8885767E+00
 4.1884506E-01 7.7057029E-01 1.8970736E+00
 3.5686292E-01 7.8914334E-01 1.9056699E+00
 2.9454162E-01 8.0806100E-01 1.9143497E+00
 2.3255546E-01 8.2775291E-01 1.9228566E+00
 1.7153459E-01 8.4852600E-01 1.9307100E+00
 1.1190329E-01 8.7056608E-01 1.9372766E+00
 5.3829439E-02 8.9395588E-01 1.9418606E+00
 -2.7195999E-03 9.1869430E-01 1.9437835E+00
 -5.7862357E-02 9.4471094E-01 1.9424429E+00
 -1.1168952E-01 9.7187473E-01 1.9373544E+00
 -1.6419591E-01 9.9999997E-01 1.9281807E+00
 -2.1527299E-01 1.0288504E+00 1.9147444E+00
 -2.6475899E-01 1.0581412E+00 1.8970126E+00
 -3.1251140E-01 1.0875349E+00 1.8750552E+00
 -3.5846270E-01 1.1166350E+00 1.8489882E+00
 -4.0264286E-01 1.1449863E+00 1.8189200E+00
 4.7917898E-01 7.9491296E-01 1.8995614E+00
 4.1748554E-01 8.1480252E-01 1.9073414E+00
 3.5501755E-01 8.3468542E-01 1.9152251E+00
 2.9237454E-01 8.5503391E-01 1.9231405E+00
 2.3025631E-01 8.7622590E-01 1.9307818E+00
 1.6928979E-01 8.9851527E-01 1.9376349E+00
 1.0987635E-01 9.2203681E-01 1.9430531E+00
 5.2156246E-02 9.4682774E-01 1.9463465E+00
 -3.9256988E-03 9.7284910E-01 1.9468569E+00
 -5.8504656E-02 9.9999999E-01 1.9440108E+00
 -1.1168951E-01 1.0281252E+00 1.9373544E+00
 -1.6350602E-01 1.0570178E+00 1.9265752E+00
 -2.1389938E-01 1.0864180E+00 1.9115056E+00
 -2.6278471E-01 1.1160087E+00 1.8921012E+00
 -3.1010230E-01 1.1454095E+00 1.8684007E+00
 -3.5584211E-01 1.1741784E+00 1.8404838E+00
 4.7855533E-01 8.3918518E-01 1.9085724E+00
 4.1639642E-01 8.6010533E-01 1.9155047E+00
 3.5360033E-01 8.8118953E-01 1.9225280E+00
 2.9079791E-01 9.0285821E-01 1.9295197E+00
 2.2870172E-01 9.2543074E-01 1.9361332E+00
 1.6792829E-01 9.4910350E-01 1.9418305E+00
 1.0885474E-01 9.7396093E-01 1.9459611E+00
 5.1595468E-02 1.0000000E+00 1.9478480E+00
 -3.9256935E-03 1.0271509E+00 1.9468569E+00
 -5.7862340E-02 1.0552890E+00 1.9424429E+00
 -1.1034824E-01 1.0842384E+00 1.9341786E+00
 -1.6145102E-01 1.1137687E+00 1.9217680E+00
 -2.1117913E-01 1.1435891E+00 1.9050447E+00
 -2.5952039E-01 1.1733420E+00 1.8839495E+00
 -3.0646833E-01 1.2026041E+00 1.8585000E+00
 4.7807121E-01 8.8441757E-01 1.9154671E+00
 4.1559504E-01 9.0625057E-01 1.9214358E+00
 3.5263340E-01 9.2841523E-01 1.9274654E+00
 2.8983581E-01 9.5127657E-01 1.9333897E+00
 2.2791539E-01 9.7509194E-01 1.9388304E+00
 1.6747126E-01 1.0000000E+00 1.9432361E+00
 1.0885474E-01 1.0260391E+00 1.9459611E+00
 5.2156250E-02 1.0531723E+00 1.9463465E+00
 -2.7195841E-03 1.0813057E+00 1.9437836E+00
 -5.5946180E-02 1.1102953E+00 1.9377536E+00
 -1.0768727E-01 1.1399440E+00 1.9278503E+00
 -1.5805857E-01 1.1699930E+00 1.9137893E+00
 -2.0712969E-01 1.2001137E+00 1.8954033E+00
 -2.5493985E-01 1.2299067E+00 1.8726248E+00
 4.7773930E-01 9.3035959E-01 1.9201310E+00
 4.1510319E-01 9.5297698E-01 1.9250361E+00
 3.5214214E-01 9.7608795E-01 1.9299556E+00
 2.8951199E-01 1.0000000E+00 1.9346870E+00
 2.2791538E-01 1.0249081E+00 1.9388304E+00
 1.6792828E-01 1.0508965E+00 1.9418305E+00
 1.0987635E-01 1.0779632E+00 1.9430531E+00
 5.3829447E-02 1.1060441E+00 1.9418606E+00
 -3.2379190E-04 1.1350262E+00 1.9376694E+00
 -5.2776033E-02 1.1647472E+00 1.9299843E+00
 -1.0372285E-01 1.1949849E+00 1.9184179E+00
 -1.5332685E-01 1.2254465E+00 1.9026967E+00
 -2.0170529E-01 1.2557625E+00 1.8826579E+00
 4.7757036E-01 9.7673751E-01 1.9224836E+00
 4.1493725E-01 1.0000000E+00 1.9262434E+00
 3.5214214E-01 1.0239121E+00 1.9299556E+00
 2.8983579E-01 1.0487235E+00 1.9333897E+00
 2.2870170E-01 1.0745693E+00 1.9361332E+00
 1.6928978E-01 1.1014848E+00 1.9376349E+00
 1.1190329E-01 1.1294340E+00 1.9372766E+00
 5.6597684E-02 1.1583309E+00 1.9344436E+00
 3.2507323E-03 1.1880456E+00 1.9285762E+00
 -4.8347076E-02 1.2183947E+00 1.9192028E+00
 -9.8422130E-02 1.2491254E+00 1.9059560E+00
 -1.4717749E-01 1.2799056E+00 1.8885792E+00
 4.7757036E-01 1.0232625E+00 1.9224836E+00
 4.1510318E-01 1.0470230E+00 1.9250362E+00
 3.5263338E-01 1.0715848E+00 1.9274655E+00
 2.9079788E-01 1.0971418E+00 1.9295197E+00
 2.3025628E-01 1.1237741E+00 1.9307818E+00
 1.7153457E-01 1.1514740E+00 1.9307101E+00
 1.1492082E-01 1.1801771E+00 1.9287054E+00
 6.0464325E-02 1.2097782E+00 1.9241764E+00
 8.0367753E-03 1.2401281E+00 1.9165891E+00
 -4.2587301E-02 1.2710161E+00 1.9054986E+00
 -9.1665514E-02 1.3021519E+00 1.8905650E+00
 4.7773929E-01 1.0696404E+00 1.9201310E+00
 4.1559501E-01 1.0937494E+00 1.9214358E+00
 3.5360029E-01 1.1188105E+00 1.9225280E+00
 2.9237450E-01 1.1449661E+00 1.9231405E+00
 2.3255542E-01 1.1722471E+00 1.9228567E+00
 1.7465292E-01 1.2006081E+00 1.9211481E+00
 1.1894985E-01 1.2299587E+00 1.9174367E+00
 6.5494595E-02 1.2601721E+00 1.9111575E+00
 1.4150994E-02 1.2910730E+00 1.9018080E+00
 -3.5330040E-02 1.3224141E+00 1.8889791E+00
 4.7807119E-01 1.1155824E+00 1.9154672E+00
 4.1639638E-01 1.1398947E+00 1.9155047E+00
 3.5501750E-01 1.1653146E+00 1.9152252E+00
 2.9454157E-01 1.1919391E+00 1.9143497E+00
 2.3559523E-01 1.2197543E+00 1.9124650E+00
 1.7868376E-01 1.2486787E+00 1.9090584E+00
 1.2408949E-01 1.2785925E+00 1.9035773E+00
 7.1852415E-02 1.3093391E+00 1.8954914E+00
 2.1810991E-02 1.3407056E+00 1.8843413E+00
 4.7855530E-01 1.1608148E+00 1.9085724E+00
 4.1748550E-01 1.1851975E+00 1.9073414E+00
 3.5686286E-01 1.2108567E+00 1.9056700E+00
 2.9730003E-01 1.2378490E+00 1.9032673E+00
 2.3943028E-01 1.2661159E+00 1.8997248E+00
 1.8375878E-01 1.2955327E+00 1.8945510E+00
 1.3055186E-01 1.3259387E+00 1.8872297E+00
 7.9809130E-02 1.3571341E+00 1.8772807E+00
 4.7917894E-01 1.2050870E+00 1.8995615E+00
 4.1884500E-01 1.2294297E+00 1.8970737E+00
 3.5914007E-01 1.2552431E+00 1.8939941E+00
 3.0071325E-01 1.2825427E+00 1.8900181E+00
 2.4421751E-01 1.3112132E+00 1.8847459E+00
 1.9013587E-01 1.3410685E+00 1.8777207E+00
 1.3866507E-01 1.3718886E+00 1.8684840E+00
 4.7993287E-01 1.2481788E+00 1.8885768E+00
 4.2047816E-01 1.2724058E+00 1.8848474E+00
 3.6191106E-01 1.2983395E+00 1.8803314E+00
 3.0495421E-01 1.3259361E+00 1.8747104E+00
 2.5025735E-01 1.3549893E+00 1.8676103E+00
 1.9820482E-01 1.3852218E+00 1.8586379E+00
 4.8081956E-01 1.2899068E+00 1.8757801E+00
 4.2243455E-01 1.3139981E+00 1.8708105E+00
 3.6533889E-01 1.3400843E+00 1.8647955E+00
 3.1034660E-01 1.3680139E+00 1.8574152E+00
 2.5800748E-01 1.3974285E+00 1.8483634E+00
 4.8186211E-01 1.3301291E+00 1.8613432E+00
 4.2484108E-01 1.3541517E+00 1.8550926E+00
 3.6976381E-01 1.3805086E+00 1.8474468E+00
 3.1743289E-01 1.4088218E+00 1.8381451E+00
 4.8312782E-01 1.3687641E+00 1.8454288E+00
 4.2795500E-01 1.3928902E+00 1.8377820E+00
 3.7577797E-01 1.4197025E+00 1.8282806E+00
 4.8475870E-01 1.4058115E+00 1.8281695E+00
 4.3248327E-01 1.4303944E+00 1.8188392E+00
 4.8706852E-01 1.4412551E+00 1.8097014E+00
 5.4008655E-01 1.4539341E+00 1.7998095E+00
 5.4003998E-01 1.4203610E+00 1.8179931E+00
 5.3997243E-01 1.3848565E+00 1.8353217E+00
 5.3989700E-01 1.3474787E+00 1.8515784E+00
 5.3981960E-01 1.3083620E+00 1.8665398E+00
 5.3974654E-01 1.2676499E+00 1.8799949E+00
 5.3968198E-01 1.2254797E+00 1.8917581E+00
 5.3962876E-01 1.1820270E+00 1.9016549E+00
 5.3958794E-01 1.1375026E+00 1.9095294E+00
 5.3955941E-01 1.0921453E+00 1.9152523E+00
 5.3954262E-01 1.0462176E+00 1.9187264E+00
 5.3953709E-01 9.9999998E-01 1.9198913E+00
 5.3954262E-01 9.5378236E-01 1.9187264E+00
 5.3955942E-01 9.0785469E-01 1.9152523E+00
 5.3958795E-01 8.6249737E-01 1.9095294E+00
 5.3962878E-01 8.1797300E-01 1.9016548E+00
 5.3968201E-01 7.7452035E-01 1.8917580E+00
 5.3974658E-01 7.3235013E-01 1.8799948E+00
 5.3981965E-01 6.9163806E-01 1.8665397E+00
 5.3989706E-01 6.5252138E-01 1.8515783E+00
 5.3997249E-01 6.1514359E-01 1.8353216E+00
 5.4004005E-01 5.7963906E-01 1.8179930E+00
 5.4008662E-01 5.4606599E-01 1.7998093E+00
 5.8712964E-01 5.2647987E-01 1.7862316E+00
 6.3829912E-01 5.3750738E-01 1.7906927E+00
 6.9120815E-01 5.4896419E-01 1.7953095E+00
 7.4542827E-01 5.6091560E-01 1.7999749E+00
 8.0077567E-01 5.7346106E-01 1.8045417E+00
 8.5707987E-01 5.8672735E-01 1.8088322E+00
 9.1418932E-01 6.0084724E-01 1.8126340E+00
 9.7191992E-01 6.1594894E-01 1.8157043E+00
 1.0300558E+00 6.3215147E-01 1.8177789E+00
 1.0883494E+00 6.4955762E-01 1.8185817E+00
 1.1465244E+00 6.6824687E-01 1.8178380E+00
 1.2042806E+00 6.8826837E-01 1.8152878E+00
 1.2612997E+00 7.0963505E-01 1.8107001E+00
 1.3172524E+00 7.3232048E-01 1.8038862E+00
 1.3718060E+00 7.5625805E-01 1.7947108E+00
 1.4246341E+00 7.8134269E-01 1.7831000E+00
 1.4754260E+00 8.0743529E-01 1.7690445E+00
 1.5238972E+00 8.3436986E-01 1.7525998E+00
 1.5697973E+00 8.6196100E-01 1.7338814E+00
 1.6129176E+00 8.9001025E-01 1.7130570E+00
 1.6530697E+00 9.1828736E-01 1.6903535E+00
 1.6900787E+00 9.4651864E-01 1.6660558E+00
 1.7236794E+00 9.7427318E-01 1.6406075E+00
 5.9250550E-01 1.4390868E+00 1.8057484E+00
 6.4537455E-01 1.4260642E+00 1.8106426E+00
 6.9935364E-01 1.4131097E+00 1.8153728E+00
 7.5426185E-01 1.3998579E+00 1.8199713E+00
 8.1005456E-01 1.3860398E+00 1.8243647E+00
 8.6663125E-01 1.3714748E+00 1.8283895E+00
 9.2384905E-01 1.3560136E+00 1.8318328E+00
 9.8153052E-01 1.3395353E+00 1.8344442E+00
 1.0394610E+00 1.3219421E+00 1.8359515E+00
 1.0973930E+00 1.3031601E+00 1.8360745E+00
 1.1550508E+00 1.2831414E+00 1.8345402E+00
 1.2121357E+00 1.2618690E+00 1.8310968E+00
 1.2683336E+00 1.2393593E+00 1.8255281E+00
 1.3233229E+00 1.2156632E+00 1.8176660E+00
 1.3767830E+00 1.1908657E+00 1.8073993E+00
 1.4284048E+00 1.1650836E+00 1.7946790E+00
 1.4779042E+00 1.1384634E+00 1.7795165E+00
 1.5250397E+00 1.1111784E+00 1.7619759E+00
 1.5696262E+00 1.0834275E+00 1.7421604E+00
 1.6115577E+00 1.0554371E+00 1.7201871E+00
 1.6508482E+00 1.0274757E+00 1.6961407E+00
 1.6877136E+00 9.9999998E-01 1.6699890E+00
 5.9463792E-01 1.4037440E+00 1.8239483E+00
 6.4955538E-01 1.3887644E+00 1.8290391E+00
 7.0483425E-01 1.3742732E+00 1.8337355E+00
 7.6068458E-01 1.3596122E+00 1.8381813E+00
 8.1711597E-01 1.3444367E+00 1.8423133E+00
 8.7409717E-01 1.3285061E+00 1.8459794E+00
 9.3152219E-01 1.3116602E+00 1.8489614E+00
 9.8923293E-01 1.2937866E+00 1.8510017E+00
 1.0470262E+00 1.2748083E+00 1.8518225E+00
 1.1046605E+00 1.2546776E+00 1.8511427E+00
 1.1618642E+00 1.2333746E+00 1.8486942E+00
 1.2183435E+00 1.2109087E+00 1.8442363E+00
 1.2737923E+00 1.1873187E+00 1.8375692E+00
 1.3279019E+00 1.1626728E+00 1.8285441E+00
 1.3803733E+00 1.1370663E+00 1.8170691E+00
 1.4309325E+00 1.1106219E+00 1.8031085E+00
 1.4793530E+00 1.0834897E+00 1.7866718E+00
 1.5254870E+00 1.0558518E+00 1.7677912E+00
 1.5693037E+00 1.0279280E+00 1.7464841E+00
 1.6109357E+00 9.9999998E-01 1.7226965E+00
 1.6508482E+00 9.7252427E-01 1.6961407E+00
 5.9608191E-01 1.3668332E+00 1.8409971E+00
 6.5235555E-01 1.3503227E+00 1.8459189E+00
 7.0879343E-01 1.3343364E+00 1.8504194E+00
 7.6550589E-01 1.3182656E+00 1.8545783E+00
 8.2256751E-01 1.3016993E+00 1.8583348E+00
 8.7996270E-01 1.2843802E+00 1.8615257E+00
 9.3761166E-01 1.2661435E+00 1.8639248E+00
 9.9537164E-01 1.2468895E+00 1.8652673E+00
 1.0530492E+00 1.2265617E+00 1.8652723E+00
 1.1104097E+00 1.2051357E+00 1.8636609E+00
 1.1671873E+00 1.1826148E+00 1.8601728E+00
 1.2230959E+00 1.1590288E+00 1.8545802E+00
 1.2778421E+00 1.1344324E+00 1.8466990E+00
 1.3311397E+00 1.1089044E+00 1.8363958E+00
 1.3827279E+00 1.0825475E+00 1.8235879E+00
 1.4323955E+00 1.0554919E+00 1.8082335E+00
 1.4800166E+00 1.0279039E+00 1.7903082E+00
 1.5255919E+00 9.9999998E-01 1.7697668E+00
 1.5693037E+00 9.7207192E-01 1.7464841E+00
 1.6115577E+00 9.4456290E-01 1.7201871E+00
 5.9715732E-01 1.3283619E+00 1.8567333E+00
 6.5447337E-01 1.3105239E+00 1.8612715E+00
 7.1181645E-01 1.2931753E+00 1.8653891E+00
 7.6926181E-01 1.2757355E+00 1.8691157E+00
 8.2686303E-01 1.2578031E+00 1.8723595E+00
 8.8461525E-01 1.2391176E+00 1.8749413E+00
 9.4244558E-01 1.2195255E+00 1.8766226E+00
 1.0002206E+00 1.1989431E+00 1.8771324E+00
 1.0577538E+00 1.1773339E+00 1.8761891E+00
 1.1148172E+00 1.1546939E+00 1.8735189E+00
 1.1711531E+00 1.1310449E+00 1.8688714E+00
 1.2264879E+00 1.1064311E+00 1.8620317E+00
 1.2805492E+00 1.0809177E+00 1.8528289E+00
 1.3330871E+00 1.0545921E+00 1.8411370E+00
 1.3839016E+00 1.0275686E+00 1.8268684E+00
 1.4328760E+00 9.9999999E-01 1.8099535E+00
 1.4800166E+00 9.7209607E-01 1.7903082E+00
 1.5254870E+00 9.4414813E-01 1.7677912E+00
 1.5696262E+00 9.1657249E-01 1.7421604E+00
 5.9801675E-01 1.2883250E+00 1.8710145E+00
 6.5617095E-01 1.2693331E+00 1.8749911E+00
 7.1424108E-01 1.2507384E+00 1.8785628E+00
 7.7227155E-01 1.2320109E+00 1.8817053E+00
 8.3029768E-01 1.2127729E+00 1.8842929E+00
 8.8830854E-01 1.1927837E+00 1.8861243E+00
 9.4623407E-01 1.1719080E+00 1.8869492E+00
 1.0039452E+00 1.1500825E+00 1.8864920E+00
 1.0612619E+00 1.1272894E+00 1.8844733E+00
 1.1179643E+00 1.1035415E+00 1.8806266E+00
 1.1738070E+00 1.0788739E+00 1.8747121E+00
 1.2285362E+00 1.0533407E+00 1.8665263E+00
 1.2819120E+00 1.0270161E+00 1.8559057E+00
 1.3337391E+00 9.9999999E-01 1.8427221E+00
 1.3839016E+00 9.7243135E-01 1.8268684E+00
 1.4323955E+00 9.4450810E-01 1.8082335E+00
 1.4793530E+00 9.1651025E-01 1.7866718E+00
 1.5250397E+00 8.8882155E-01 1.7619759E+00
 5.9873767E-01 1.2468016E+00 1.8836737E+00
 6.5758111E-01 1.2267984E+00 1.8869413E+00
 7.1623015E-01 1.2070749E+00 1.8898200E+00
 7.7470418E-01 1.1871568E+00 1.8922340E+00
 8.3302290E-01 1.1667028E+00 1.8940236E+00
 8.9116921E-01 1.1455019E+00 1.8949665E+00
 9.4907353E-01 1.1234443E+00 1.8948019E+00
 1.0066115E+00 1.1004871E+00 1.8932526E+00
 1.0636108E+00 1.0766295E+00 1.8900439E+00
 1.1198634E+00 1.0518967E+00 1.8849178E+00
 1.1751423E+00 1.0263329E+00 1.8776445E+00
 1.2292227E+00 9.9999999E-01 1.8680282E+00
 1.2819120E+00 9.7298392E-01 1.8559057E+00
 1.3330871E+00 9.4540787E-01 1.8411370E+00
 1.3827279E+00 9.1745251E-01 1.8235879E+00
 1.4309325E+00 8.8937812E-01 1.8031085E+00
 1.4779042E+00 8.6153657E-01 1.7795165E+00
 5.9935060E-01 1.2039318E+00 1.8945388E+00
 6.5875686E-01 1.1830429E+00 1.8969740E+00
 7.1784553E-01 1.1623101E+00 1.8990282E+00
 7.7661982E-01 1.1413118E+00 1.9005805E+00
 8.3508871E-01 1.1197512E+00 1.9014400E+00
 8.9323197E-01 1.0974534E+00 1.9013664E+00
 9.5098262E-01 1.0743361E+00 1.9000919E+00
 1.0082233E+00 1.0503763E+00 1.8973405E+00
 1.0647927E+00 1.0255865E+00 1.8928439E+00
 1.1204995E+00 9.9999999E-01 1.8863527E+00
 1.1751423E+00 9.7366707E-01 1.8776445E+00
 1.2285362E+00 9.4665927E-01 1.8665263E+00
 1.2805492E+00 9.1908228E-01 1.8528289E+00
 1.3311397E+00 8.9109562E-01 1.8363958E+00
 1.3803733E+00 8.6293365E-01 1.8170691E+00
 1.4284048E+00 8.3491636E-01 1.7946790E+00
 5.9986150E-01 1.1598972E+00 1.9034495E+00
 6.5970315E-01 1.1382480E+00 1.9049467E+00
 7.1909044E-01 1.1166290E+00 1.9060613E+00
 7.7801738E-01 1.0946723E+00 1.9066330E+00
 8.3648846E-01 1.0721300E+00 1.9064446E+00
 8.9448478E-01 1.0488658E+00 1.9052419E+00
 9.5194548E-01 1.0248245E+00 1.9027541E+00
 1.0087635E+00 9.9999998E-01 1.8987085E+00
 1.0647927E+00 9.7441348E-01 1.8928439E+00
 1.1198634E+00 9.4810324E-01 1.8849178E+00
 1.1738070E+00 9.2112608E-01 1.8747121E+00
 1.2264879E+00 8.9356889E-01 1.8620317E+00
 1.2778421E+00 8.6556757E-01 1.8466990E+00
 1.3279019E+00 8.3732722E-01 1.8285441E+00
 1.3767830E+00 8.0913431E-01 1.8073993E+00
 6.0026202E-01 1.1149161E+00 1.9102659E+00
 6.6040283E-01 1.0926362E+00 1.9107368E+00
 7.1994243E-01 1.0702612E+00 1.9108137E+00
 7.7887198E-01 1.0474785E+00 1.9103028E+00
 8.3719742E-01 1.0240907E+00 1.9089658E+00
 8.9490562E-01 9.9999997E-01 1.9065399E+00
 9.5194547E-01 9.7517550E-01 1.9027540E+00
 1.0082232E+00 9.4962363E-01 1.8973405E+00
 1.0636108E+00 9.2337050E-01 1.8900439E+00
 1.1179643E+00 8.9645845E-01 1.8806266E+00
 1.1711531E+00 8.6895503E-01 1.8688714E+00
 1.2230959E+00 8.4097113E-01 1.8545802E+00
 1.2737923E+00 8.1268125E-01 1.8375692E+00
 1.3233229E+00 7.8433680E-01 1.8176661E+00
 6.0053895E-01 1.0692360E+00 1.9148757E+00
 6.6083382E-01 1.0464616E+00 1.9142502E+00
 7.2037613E-01 1.0234683E+00 1.9132096E+00
 7.7915992E-01 9.9999997E-01 1.9115325E+00
 8.3719741E-01 9.7590927E-01 1.9089658E+00
 8.9448477E-01 9.5113418E-01 1.9052419E+00
 9.5098261E-01 9.2566390E-01 1.9000918E+00
 1.0066115E+00 8.9951291E-01 1.8932526E+00
 1.0612619E+00 8.7271055E-01 1.8844733E+00
 1.1148172E+00 8.4530603E-01 1.8735189E+00
 1.1671873E+00 8.1738514E-01 1.8601728E+00
 1.2183435E+00 7.8909129E-01 1.8442363E+00
 1.2683336E+00 7.6064071E-01 1.8255282E+00
 6.0068069E-01 1.0231269E+00 1.9172007E+00
 6.6097950E-01 9.9999997E-01 1.9154281E+00
 7.2037613E-01 9.7653160E-01 1.9132096E+00
 7.7887197E-01 9.5252146E-01 1.9103027E+00
 8.3648845E-01 9.2786997E-01 1.9064446E+00
 8.9323195E-01 9.0254653E-01 1.9013664E+00
 9.4907352E-01 8.7655571E-01 1.8948019E+00
 1.0039452E+00 8.4991748E-01 1.8864920E+00
 1.0577538E+00 8.2266607E-01 1.8761891E+00
 1.1104097E+00 7.9486432E-01 1.8636609E+00
 1.1618642E+00 7.6662534E-01 1.8486942E+00
 1.2121357E+00 7.3813092E-01 1.8310968E+00
 6.0068069E-01 9.7687305E-01 1.9172007E+00
 6.6083382E-01 9.5353832E-01 1.9142502E+00
 7.1994242E-01 9.2973878E-01 1.9108136E+00
 7.7801737E-01 9.0532764E-01 1.9066330E+00
 8.3508870E-01 8.8024877E-01 1.9014400E+00
 8.9116919E-01 8.5449801E-01 1.8949665E+00
 9.4623405E-01 8.2809196E-01 1.8869492E+00
 1.0002206E+00 8.0105691E-01 1.8771324E+00
 1.0530492E+00 7.7343828E-01 1.8652723E+00
 1.1046605E+00 7.4532240E-01 1.8511427E+00
 1.1550508E+00 7.1685856E-01 1.8345402E+00
 6.0053895E-01 9.3076392E-01 1.9148757E+00
 6.6040283E-01 9.0736374E-01 1.9107367E+00
 7.1909043E-01 8.8337099E-01 1.9060612E+00
 7.7661980E-01 8.5868818E-01 1.9005804E+00
 8.3302288E-01 8.3329714E-01 1.8940235E+00
 8.8830852E-01 8.0721630E-01 1.8861243E+00
 9.4244556E-01 7.8047452E-01 1.8766226E+00
 9.9537162E-01 7.5311046E-01 1.8652673E+00
 1.0470261E+00 7.2519167E-01 1.8518224E+00
 1.0973930E+00 6.9683992E-01 1.8360745E+00
 6.0026202E-01 8.8508389E-01 1.9102658E+00
 6.5970314E-01 8.6175199E-01 1.9049467E+00
 7.1784551E-01 8.3768983E-01 1.8990281E+00
 7.7470416E-01 8.1284312E-01 1.8922339E+00
 8.3029766E-01 7.8722707E-01 1.8842928E+00
 8.8461522E-01 7.6088234E-01 1.8749413E+00
 9.3761164E-01 7.3385652E-01 1.8639248E+00
 9.8923291E-01 7.0621340E-01 1.8510017E+00
 1.0394609E+00 6.7805784E-01 1.8359515E+00
 5.9986151E-01 8.4010276E-01 1.9034495E+00
 6.5875686E-01 8.1695703E-01 1.8969740E+00
 7.1623013E-01 7.9292508E-01 1.8898200E+00
 7.7227153E-01 7.6798902E-01 1.8817052E+00
 8.2686301E-01 7.4219686E-01 1.8723595E+00
 8.7996268E-01 7.1561977E-01 1.8615256E+00
 9.3152216E-01 6.8833975E-01 1.8489613E+00
 9.8153050E-01 6.6046472E-01 1.8344442E+00
 5.9935061E-01 7.9606816E-01 1.8945387E+00
 6.5758111E-01 7.7320157E-01 1.8869413E+00
 7.1424107E-01 7.4926162E-01 1.8785628E+00
 7.6926179E-01 7.2426447E-01 1.8691156E+00
 8.2256748E-01 6.9830072E-01 1.8583348E+00
 8.7409715E-01 6.7149388E-01 1.8459794E+00
 9.2384903E-01 6.4398640E-01 1.8318328E+00
 5.9873769E-01 7.5319838E-01 1.8836736E+00
 6.5617095E-01 7.3066686E-01 1.8749910E+00
 7.1181644E-01 7.0682469E-01 1.8653890E+00
 7.6550588E-01 6.8173438E-01 1.8545782E+00
 8.1711596E-01 6.5556329E-01 1.8423132E+00
 8.6663123E-01 6.2852518E-01 1.8283895E+00
 5.9801677E-01 7.1167502E-01 1.8710145E+00
 6.5447338E-01 6.8947614E-01 1.8612714E+00
 7.0879343E-01 6.6566361E-01 1.8504193E+00
 7.6068457E-01 6.4038782E-01 1.8381812E+00
 8.1005455E-01 6.1396020E-01 1.8243646E+00
 5.9715735E-01 6.7163815E-01 1.8567332E+00
 6.5235556E-01 6.4967730E-01 1.8459188E+00
 7.0483425E-01 6.2572688E-01 1.8337354E+00
 7.5426184E-01 6.0014217E-01 1.8199712E+00
 5.9608195E-01 6.3316688E-01 1.8409970E+00
 6.4955541E-01 6.1123571E-01 1.8290389E+00
 6.9935366E-01 5.8689040E-01 1.8153727E+00
 5.9463797E-01 5.9625609E-01 1.8239482E+00
 6.4537458E-01 5.7393583E-01 1.8106425E+00
 5.9250555E-01 5.6091334E-01 1.8057482E+00
 5.1084998E-01 1.5076060E+00 1.7684186E+00
 4.7830771E-01 1.5339373E+00 1.7522996E+00
 4.4423872E-01 1.5609026E+00 1.7346924E+00
 4.0889164E-01 1.5883027E+00 1.7155949E+00
 3.7249795E-01 1.6160217E+00 1.6949394E+00
 3.3537135E-01 1.6439375E+00 1.6726225E+00
 2.9783782E-01 1.6719074E+00 1.6485187E+00
 2.6025311E-01 1.6997350E+00 1.6225074E+00
 2.2297891E-01 1.7271742E+00 1.5944827E+00
 1.8635222E-01 1.7539377E+00 1.5643682E+00
 1.5066379E-01 1.7797106E+00 1.5321309E+00
 1.1614752E-01 1.8041702E+00 1.4977912E+00
 8.2981345E-02 1.8270035E+00 1.4614305E+00
 5.1295251E-02 1.8479254E+00 1.4231915E+00
 2.1182061E-02 1.8666928E+00 1.3832728E+00
 -7.2903915E-03 1.8831154E+00 1.3419215E+00
 -3.4069273E-02 1.8970618E+00 1.2994226E+00
 -5.9111546E-02 1.9084611E+00 1.2560854E+00
 -8.2382526E-02 1.9173032E+00 1.2122302E+00
 -1.0385811E-01 1.9236323E+00 1.1681812E+00
 -1.2352475E-01 1.9275373E+00 1.1242915E+00
 -1.4140118E-01 1.9291391E+00 1.0809453E+00
 -1.5747303E-01 1.9286037E+00 1.0388203E+00
 -6.2529519E-01 1.0742500E+00 1.6278200E+00
 -6.2969669E-01 1.1224400E+00 1.6146044E+00
 -6.3234583E-01 1.1713131E+00 1.5993313E+00
 -6.3284284E-01 1.2209260E+00 1.5822287E+00
 -6.3092699E-01 1.2711889E+00 1.5633601E+00
 -6.2638065E-01 1.3219154E+00 1.5427624E+00
 -6.1902550E-01 1.3728449E+00 1.5204675E+00
 -6.0872484E-01 1.4236602E+00 1.4965148E+00
 -5.9538644E-01 1.4739984E+00 1.4709621E+00
 -5.7896552E-01 1.5234639E+00 1.4438952E+00
 -5.5946821E-01 1.5716408E+00 1.4154330E+00
 -5.3695543E-01 1.6181055E+00 1.3857298E+00
 -5.1154470E-01 1.6624416E+00 1.3549741E+00
 -4.8341086E-01 1.7042541E+00 1.3233850E+00
 -4.5278233E-01 1.7431842E+00 1.2912063E+00
 -4.1993616E-01 1.7789227E+00 1.2587002E+00
 -3.8518850E-01 1.8112233E+00 1.2261359E+00
 -3.4888556E-01 1.8399109E+00 1.1937787E+00
 -3.1138796E-01 1.8648917E+00 1.1618712E+00
 -2.7306125E-01 1.8861554E+00 1.1306067E+00
 -2.3426714E-01 1.9037733E+00 1.1000669E+00
 -1.9547308E-01 1.9178713E+00 1.0700717E+00
 -5.9570096E-01 1.1050695E+00 1.6593064E+00
 -5.9832756E-01 1.1558352E+00 1.6461505E+00
 -5.9928498E-01 1.2065171E+00 1.6306621E+00
 -5.9809035E-01 1.2574409E+00 1.6131637E+00
 -5.9442988E-01 1.3086379E+00 1.5937840E+00
 -5.8806863E-01 1.3599807E+00 1.5725887E+00
 -5.7883625E-01 1.4112278E+00 1.5496202E+00
 -5.6662127E-01 1.4620569E+00 1.5249218E+00
 -5.5136758E-01 1.5120907E+00 1.4985561E+00
 -5.3307234E-01 1.5609178E+00 1.4706176E+00
 -5.1178646E-01 1.6081115E+00 1.4412394E+00
 -4.8761545E-01 1.6532468E+00 1.4105945E+00
 -4.6071928E-01 1.6959171E+00 1.3788929E+00
 -4.3130847E-01 1.7357511E+00 1.3463757E+00
 -3.9963937E-01 1.7724276E+00 1.3133051E+00
 -3.6600402E-01 1.8056895E+00 1.2799505E+00
 -3.3072175E-01 1.8353540E+00 1.2465688E+00
 -2.9412304E-01 1.8613220E+00 1.2133737E+00
 -2.5653344E-01 1.8835835E+00 1.1804896E+00
 -2.1827188E-01 1.9022104E+00 1.1478802E+00
 -1.7968523E-01 1.9173446E+00 1.1151201E+00
 -5.6262523E-01 1.1357925E+00 1.6900450E+00
 -5.6355185E-01 1.1883232E+00 1.6766445E+00
 -5.6277643E-01 1.2404824E+00 1.6607810E+00
 -5.5982353E-01 1.2925298E+00 1.6427636E+00
 -5.5435409E-01 1.3445210E+00 1.6227502E+00
 -5.4613000E-01 1.3963385E+00 1.6008234E+00
 -5.3499796E-01 1.4477390E+00 1.5770342E+00
 -5.2087808E-01 1.4983896E+00 1.5514326E+00
 -5.0375367E-01 1.5479001E+00 1.5240918E+00
 -4.8366539E-01 1.5958497E+00 1.4951217E+00
 -4.6070823E-01 1.6418100E+00 1.4646759E+00
 -4.3502887E-01 1.6853658E+00 1.4329507E+00
 -4.0682241E-01 1.7261334E+00 1.4001795E+00
 -3.7632586E-01 1.7637793E+00 1.3666222E+00
 -3.4380992E-01 1.7980340E+00 1.3325485E+00
 -3.0956907E-01 1.8287058E+00 1.2982121E+00
 -2.7391133E-01 1.8556872E+00 1.2638161E+00
 -2.3714382E-01 1.8789629E+00 1.2294617E+00
 -1.9957086E-01 1.8986018E+00 1.1950747E+00
 -1.6152299E-01 1.9147399E+00 1.1602946E+00
 -5.2607281E-01 1.1666031E+00 1.7194754E+00
 -5.2532454E-01 1.2203580E+00 1.7056033E+00
 -5.2280153E-01 1.2735831E+00 1.6891908E+00
 -5.1805034E-01 1.3264517E+00 1.6705145E+00
 -5.1073719E-01 1.3789743E+00 1.6497334E+00
 -5.0063750E-01 1.4310107E+00 1.6269368E+00
 -4.8762585E-01 1.4822978E+00 1.6021833E+00
 -4.7165978E-01 1.5324867E+00 1.5755348E+00
 -4.5276493E-01 1.5811770E+00 1.5470809E+00
 -4.3102473E-01 1.6279463E+00 1.5169540E+00
 -4.0657402E-01 1.6723763E+00 1.4853325E+00
 -3.7959365E-01 1.7140746E+00 1.4524384E+00
 -3.5030310E-01 1.7526956E+00 1.4185256E+00
 -3.1895355E-01 1.7879572E+00 1.3838642E+00
 -2.8581798E-01 1.8196552E+00 1.3487111E+00
 -2.5118568E-01 1.8476721E+00 1.3132756E+00
 -2.1535206E-01 1.8719835E+00 1.2776654E+00
 -1.7861873E-01 1.8926526E+00 1.2418344E+00