# TIME = 8.200000
variables = x, y, z
zone N=5762 E=11520 F=FEPOINT ET=TRIANGLE
 8.4795194E+00 1.4838182E+00 1.7826612E+00
 8.4795194E+00 1.4838179E+00 2.1733909E-01
 8.4795194E+00 5.1618208E-01 1.7826609E+00
 8.4795195E+00 5.1618194E-01 2.1733878E-01
 7.2943402E+00 1.0000000E+00 1.6045862E+00
 9.6897043E+00 1.0000000E+00 1.6159526E+00
 7.2943401E+00 1.0000000E+00 3.9541350E-01
 9.6897043E+00 1.0000000E+00 3.8404734E-01
 7.7718419E+00 1.9279187E+00 9.9999970E-01
 7.7718419E+00 7.2081487E-02 1.0000001E+00
 9.1725528E+00 1.8667861E+00 9.9999991E-01
 9.1725528E+00 1.3321387E-01 9.9999993E-01
 8.4339991E+00 1.4759778E+00 1.7899581E+00
 8.3835529E+00 1.4673088E+00 1.7981967E+00
 8.3303118E+00 1.4583036E+00 1.8070762E+00
 8.2747204E+00 1.4489200E+00 1.8165947E+00
 8.2172157E+00 1.4390406E+00 1.8266651E+00
 8.1584221E+00 1.4284606E+00 1.8370481E+00
 8.0989967E+00 1.4169024E+00 1.8473221E+00
 8.0394923E+00 1.4040416E+00 1.8568939E+00
 7.9802484E+00 1.3895453E+00 1.8650479E+00
 7.9214005E+00 1.3731155E+00 1.8710132E+00
 7.8629834E+00 1.3545283E+00 1.8740355E+00
 7.8050732E+00 1.3336682E+00 1.8734509E+00
 7.7479023E+00 1.3105524E+00 1.8687625E+00
 7.6918939E+00 1.2853400E+00 1.8597026E+00
 7.6376086E+00 1.2583174E+00 1.8462612E+00
 7.5856479E+00 1.2298647E+00 1.8286714E+00
 7.5365603E+00 1.2004127E+00 1.8073601E+00
 7.4907778E+00 1.1703997E+00 1.7828813E+00
 7.4485871E+00 1.1402402E+00 1.7558486E+00
 7.4101257E+00 1.1103033E+00 1.7268759E+00
 7.3754170E+00 1.0809172E+00 1.6965561E+00
 7.3444021E+00 1.0523636E+00 1.6654424E+00
 7.3170578E+00 1.0249686E+00 1.6341665E+00
 8.4287363E+00 5.5782567E-01 1.8096636E+00
 8.3764116E+00 5.6857363E-01 1.8186103E+00
 8.3218636E+00 5.7919039E-01 1.8278638E+00
 8.2653406E+00 5.9004963E-01 1.8375911E+00
 8.2072191E+00 6.0146366E-01 1.8477727E+00
 8.1480919E+00 6.1370469E-01 1.8581553E+00
 8.0885954E+00 6.2706165E-01 1.8682749E+00
 8.0292303E+00 6.4182716E-01 1.8774937E+00
 7.9702808E+00 6.5827439E-01 1.8850649E+00
 7.9118441E+00 6.7662437E-01 1.8902073E+00
 7.8539447E+00 6.9701666E-01 1.8921792E+00
 7.7966741E+00 7.1948343E-01 1.8903533E+00
 7.7402877E+00 7.4393343E-01 1.8842892E+00
 7.6852213E+00 7.7015327E-01 1.8737872E+00
 7.6320279E+00 7.9782842E-01 1.8589063E+00
 7.5812817E+00 8.2657900E-01 1.8399398E+00
 7.5334892E+00 8.5599932E-01 1.8173578E+00
 7.4890276E+00 8.8569144E-01 1.7917331E+00
 7.4481159E+00 9.1528251E-01 1.7636651E+00
 7.4107946E+00 9.4442753E-01 1.7336965E+00
 7.3769128E+00 9.7280201E-01 1.7022281E+00
 7.3461133E+00 1.0000000E+00 1.6694276E+00
 8.4266297E+00 5.9274962E-01 1.8279078E+00
 8.3721835E+00 6.0553139E-01 1.8373292E+00
 8.3161698E+00 6.1781664E-01 1.8468121E+00
 8.2585329E+00 6.3028659E-01 1.8566624E+00
 8.1996449E+00 6.4335414E-01 1.8668589E+00
 8.1400571E+00 6.5735354E-01 1.8771299E+00
 8.0803606E+00 6.7256949E-01 1.8869690E+00
 8.0210017E+00 6.8925753E-01 1.8956996E+00
 7.9622141E+00 7.0763016E-01 1.9025507E+00
 7.9040624E+00 7.2783590E-01 1.9067369E+00
 7.8465647E+00 7.4993741E-01 1.9075351E+00
 7.7898268E+00 7.7389375E-01 1.9043585E+00
 7.7341226E+00 7.9955248E-01 1.8968247E+00
 7.6798942E+00 8.2665961E-01 1.8848006E+00
 7.6276798E+00 8.5488616E-01 1.8684091E+00
 7.5780175E+00 8.8386493E-01 1.8479933E+00
 7.5313548E+00 9.1322284E-01 1.8240454E+00
 7.4879771E+00 9.4260002E-01 1.7971130E+00
 7.4479559E+00 9.7164705E-01 1.7676877E+00
 7.4111099E+00 1.0000000E+00 1.7360828E+00
 7.3769128E+00 1.0271980E+00 1.7022281E+00
 8.4251821E+00 6.2935426E-01 1.8450340E+00
 8.3693296E+00 6.4381586E-01 1.8545167E+00
 8.3120319E+00 6.5777467E-01 1.8640482E+00
 8.2533899E+00 6.7190507E-01 1.8738665E+00
 8.1937566E+00 6.8670026E-01 1.8839379E+00
 8.1336911E+00 7.0250844E-01 1.8939477E+00
 8.0737530E+00 7.1960048E-01 1.9033483E+00
 8.0143467E+00 7.3818852E-01 1.9114289E+00
 7.9556657E+00 7.5842576E-01 1.9174018E+00
 7.8977501E+00 7.8039265E-01 1.9204854E+00
 7.8406158E+00 8.0408226E-01 1.9199822E+00
 7.7843809E+00 8.2939022E-01 1.9153508E+00
 7.7293316E+00 8.5611540E-01 1.9062687E+00
 7.6759061E+00 8.8397711E-01 1.8926662E+00
 7.6246148E+00 9.1264503E-01 1.8747196E+00
 7.5759387E+00 9.4177132E-01 1.8528003E+00
 7.5302288E+00 9.7100799E-01 1.8273814E+00
 7.4876184E+00 1.0000000E+00 1.7989152E+00
 7.4479559E+00 1.0283530E+00 1.7676877E+00
 7.4107946E+00 1.0555725E+00 1.7336965E+00
 8.4240587E+00 6.6767675E-01 1.8609142E+00
 8.3671009E+00 6.8366401E-01 1.8702187E+00
 8.3087779E+00 6.9922032E-01 1.8795864E+00
 8.2492695E+00 7.1502101E-01 1.8892000E+00
 8.1889903E+00 7.3155874E-01 1.8989722E+00
 8.1285082E+00 7.4917693E-01 1.9085426E+00
 8.0683702E+00 7.6811470E-01 1.9173218E+00
 8.0089485E+00 7.8853727E-01 1.9245724E+00
 7.9504058E+00 8.1053886E-01 1.9294994E+00
 7.8927646E+00 8.3413624E-01 1.9313347E+00
 7.8360401E+00 8.5926036E-01 1.9294146E+00
 7.7803582E+00 8.8575432E-01 1.9232485E+00
 7.7260065E+00 9.1338187E-01 1.9125728E+00
 7.6734045E+00 9.4184948E-01 1.8973725E+00
 7.6230119E+00 9.7083394E-01 1.8778584E+00
 7.5752185E+00 1.0000000E+00 1.8543949E+00
 7.5302288E+00 1.0289920E+00 1.8273814E+00
 7.4879771E+00 1.0574000E+00 1.7971130E+00
 7.4481159E+00 1.0847175E+00 1.7636651E+00
 8.4231015E+00 7.0774570E-01 1.8754054E+00
 8.3652192E+00 7.2513071E-01 1.8843331E+00
 8.3060451E+00 7.4222116E-01 1.8933498E+00
 8.2458294E+00 7.5965865E-01 1.9025727E+00
 8.1850367E+00 7.7791288E-01 1.9118574E+00
 8.1242557E+00 7.9729577E-01 1.9207941E+00
 8.0640222E+00 8.1800572E-01 1.9287585E+00
 8.0046836E+00 8.4015620E-01 1.9349965E+00
 7.9463775E+00 8.6378420E-01 1.9387167E+00
 7.8891130E+00 8.8884806E-01 1.9391753E+00
 7.8329027E+00 9.1522634E-01 1.9357500E+00
 7.7778718E+00 9.4272243E-01 1.9280032E+00
 7.7242945E+00 9.7107910E-01 1.9157244E+00
 7.6725489E+00 1.0000000E+00 1.8989377E+00
 7.6230119E+00 1.0291661E+00 1.8778584E+00
 7.5759387E+00 1.0582287E+00 1.8528003E+00
 7.5313548E+00 1.0867772E+00 1.8240454E+00
 7.4890276E+00 1.1143086E+00 1.7917331E+00
 8.4222498E+00 7.4948566E-01 1.8883210E+00
 8.3635786E+00 7.6816821E-01 1.8967022E+00
 8.3037076E+00 7.8672254E-01 1.9051912E+00
 8.2429457E+00 8.0574014E-01 1.9138380E+00
 8.1817983E+00 8.2564741E-01 1.9224416E+00
 8.1208687E+00 8.4671123E-01 1.9305485E+00
 8.0606824E+00 8.6908080E-01 1.9375090E+00
 8.0015635E+00 8.9281683E-01 1.9425638E+00
 7.9436281E+00 9.1790243E-01 1.9449370E+00
 7.8868724E+00 9.4424613E-01 1.9439184E+00
 7.8313018E+00 9.7168606E-01 1.9389320E+00
 7.7770291E+00 1.0000000E+00 1.9295905E+00
 7.7242945E+00 1.0289209E+00 1.9157244E+00
 7.6734045E+00 1.0581505E+00 1.8973725E+00
 7.6246148E+00 1.0873550E+00 1.8747196E+00
 7.5780175E+00 1.1161351E+00 1.8479933E+00
 7.5334892E+00 1.1440007E+00 1.8173578E+00
 8.4214993E+00 7.9274736E-01 1.8994611E+00
 8.3621688E+00 8.1263822E-01 1.9071447E+00
 8.3017586E+00 8.3257492E-01 1.9149372E+00
 8.2406212E+00 8.5309162E-01 1.9228266E+00
 8.1792924E+00 8.7455674E-01 1.9305602E+00
 8.1183820E+00 8.9718262E-01 1.9376502E+00
 8.0584017E+00 9.2106598E-01 1.9434330E+00
 7.9996524E+00 9.4621673E-01 1.9471567E+00
 7.9422299E+00 9.7257145E-01 1.9480712E+00
 7.8861161E+00 1.0000000E+00 1.9455062E+00
 7.8313018E+00 1.0283140E+00 1.9389321E+00
 7.7778718E+00 1.0572776E+00 1.9280032E+00
 7.7260066E+00 1.0866182E+00 1.9125728E+00
 7.6759061E+00 1.1160229E+00 1.8926662E+00
 7.6276798E+00 1.1451139E+00 1.8684092E+00
 7.5812818E+00 1.1734210E+00 1.8399399E+00
 8.4208655E+00 8.3733264E-01 1.9086363E+00
 8.3610197E+00 8.5833340E-01 1.9154822E+00
 8.3002382E+00 8.7955481E-01 1.9224191E+00
 8.2389058E+00 9.0146344E-01 1.9293785E+00
 8.1775763E+00 9.2436050E-01 1.9360652E+00
 8.1168574E+00 9.4839890E-01 1.9419687E+00
 8.0572423E+00 9.7362360E-01 1.9464237E+00
 7.9990081E+00 1.0000001E+00 1.9486968E+00
 7.9422299E+00 1.0274286E+00 1.9480713E+00
 7.8868724E+00 1.0557539E+00 1.9439184E+00
 7.8329027E+00 1.0847737E+00 1.9357501E+00
 7.7803583E+00 1.1142457E+00 1.9232486E+00
 7.7293316E+00 1.1438846E+00 1.9062688E+00
 7.6798942E+00 1.1733404E+00 1.8848007E+00
 7.6320279E+00 1.2021716E+00 1.8589064E+00
 8.4203690E+00 8.8299960E-01 1.9156792E+00
 8.3601682E+00 9.0499569E-01 1.9215593E+00
 8.2991940E+00 9.2738193E-01 1.9274937E+00
 8.2378521E+00 9.5054844E-01 1.9333651E+00
 8.1767032E+00 9.7472350E-01 1.9388468E+00
 8.1163433E+00 1.0000001E+00 1.9434181E+00
 8.0572423E+00 1.0263765E+00 1.9464237E+00
 7.9996524E+00 1.0537834E+00 1.9471567E+00
 7.9436281E+00 1.0820977E+00 1.9449371E+00
 7.8891130E+00 1.1111520E+00 1.9391753E+00
 7.8360402E+00 1.1407397E+00 1.9294147E+00
 7.7843810E+00 1.1706098E+00 1.9153509E+00
 7.7341227E+00 1.2004476E+00 1.8968248E+00
 7.6852213E+00 1.2298468E+00 1.8737873E+00
 8.4200277E+00 9.2946945E-01 1.9204544E+00
 8.3596446E+00 9.5232687E-01 1.9252562E+00
 8.2986622E+00 9.7573464E-01 1.9300579E+00
 8.2374967E+00 1.0000001E+00 1.9347034E+00
 8.1767032E+00 1.0252767E+00 1.9388468E+00
 8.1168574E+00 1.0516013E+00 1.9419687E+00
 8.0584017E+00 1.0789342E+00 1.9434330E+00
 8.0015635E+00 1.1071833E+00 1.9425638E+00
 7.9463775E+00 1.1362159E+00 1.9387168E+00
 7.8927647E+00 1.1658639E+00 1.9313348E+00
 7.8406159E+00 1.1959178E+00 1.9199823E+00
 7.7898269E+00 1.2261063E+00 1.9043586E+00
 7.7402877E+00 1.2560667E+00 1.8842893E+00
 8.4198539E+00 9.7643410E-01 1.9228667E+00
 8.3594679E+00 1.0000000E+00 1.9264972E+00
 8.2986622E+00 1.0242655E+00 1.9300579E+00
 8.2378521E+00 1.0494517E+00 1.9333651E+00
 8.1775762E+00 1.0756397E+00 1.9360652E+00
 8.1183820E+00 1.1028176E+00 1.9376503E+00
 8.0606824E+00 1.1309194E+00 1.9375091E+00
 8.0046836E+00 1.1598439E+00 1.9349966E+00
 7.9504058E+00 1.1894613E+00 1.9294995E+00
 7.8977502E+00 1.2196075E+00 1.9204856E+00
 7.8465648E+00 1.2500627E+00 1.9075353E+00
 7.7966742E+00 1.2805167E+00 1.8903535E+00
 8.4198539E+00 1.0235660E+00 1.9228667E+00
 8.3596446E+00 1.0476732E+00 1.9252563E+00
 8.2991939E+00 1.0726182E+00 1.9274937E+00
 8.2389057E+00 1.0985367E+00 1.9293786E+00
 8.1792924E+00 1.1254434E+00 1.9305602E+00
 8.1208687E+00 1.1532890E+00 1.9305486E+00
 8.0640222E+00 1.1819945E+00 1.9287586E+00
 8.0089486E+00 1.2114629E+00 1.9245725E+00
 7.9556658E+00 1.2415744E+00 1.9174020E+00
 7.9040625E+00 1.2721642E+00 1.9067370E+00
 7.8539449E+00 1.3029835E+00 1.8921794E+00
 8.4200277E+00 1.0705306E+00 1.9204545E+00
 8.3601682E+00 1.0950044E+00 1.9215594E+00
 8.3002382E+00 1.1204453E+00 1.9224192E+00
 8.2406212E+00 1.1469086E+00 1.9228267E+00
 8.1817982E+00 1.1743528E+00 1.9224417E+00
 8.1242557E+00 1.2027044E+00 1.9207942E+00
 8.0683702E+00 1.2318855E+00 1.9173219E+00
 8.0143468E+00 1.2618117E+00 1.9114291E+00
 7.9622142E+00 1.2923700E+00 1.9025509E+00
 7.9118442E+00 1.3233758E+00 1.8902074E+00
 8.4203689E+00 1.1170005E+00 1.9156793E+00
 8.3610197E+00 1.1416667E+00 1.9154822E+00
 8.3017585E+00 1.1674252E+00 1.9149373E+00
 8.2429456E+00 1.1942600E+00 1.9138382E+00
 8.1850366E+00 1.2220873E+00 1.9118575E+00
 8.1285082E+00 1.2508233E+00 1.9085427E+00
 8.0737530E+00 1.2803997E+00 1.9033485E+00
 8.0210018E+00 1.3107427E+00 1.8956998E+00
 7.9702809E+00 1.3417258E+00 1.8850651E+00
 8.4208654E+00 1.1626675E+00 1.9086364E+00
 8.3621687E+00 1.1873619E+00 1.9071448E+00
 8.3037075E+00 1.2132776E+00 1.9051913E+00
 8.2458293E+00 1.2403416E+00 1.9025729E+00
 8.1889902E+00 1.2684415E+00 1.8989724E+00
 8.1336910E+00 1.2974918E+00 1.8939479E+00
 8.0803605E+00 1.3274307E+00 1.8869692E+00
 8.0292303E+00 1.3581731E+00 1.8774939E+00
 8.4214993E+00 1.2072528E+00 1.8994612E+00
 8.3635785E+00 1.2318319E+00 1.8967024E+00
 8.3060450E+00 1.2577790E+00 1.8933499E+00
 8.2492694E+00 1.2849792E+00 1.8892001E+00
 8.1937564E+00 1.3133000E+00 1.8839381E+00
 8.1400571E+00 1.3426467E+00 1.8771301E+00
 8.0885954E+00 1.3729386E+00 1.8682751E+00
 8.4222498E+00 1.2505145E+00 1.8883211E+00
 8.3652191E+00 1.2748695E+00 1.8843332E+00
 8.3087777E+00 1.3007799E+00 1.8795865E+00
 8.2533898E+00 1.3280952E+00 1.8738667E+00
 8.1996448E+00 1.3566461E+00 1.8668591E+00
 8.1480918E+00 1.3862956E+00 1.8581555E+00
 8.4231014E+00 1.2922545E+00 1.8754055E+00
 8.3671008E+00 1.3163362E+00 1.8702189E+00
 8.3120318E+00 1.3422256E+00 1.8640484E+00
 8.2585327E+00 1.3697136E+00 1.8566626E+00
 8.2072190E+00 1.3985366E+00 1.8477729E+00
 8.4240586E+00 1.3323234E+00 1.8609144E+00
 8.3693295E+00 1.3561844E+00 1.8545169E+00
 8.3161696E+00 1.3821836E+00 1.8468123E+00
 8.2653405E+00 1.4099506E+00 1.8375913E+00
 8.4251820E+00 1.3706459E+00 1.8450342E+00
 8.3721833E+00 1.3944688E+00 1.8373294E+00
 8.3218635E+00 1.4208099E+00 1.8278640E+00
 8.4266296E+00 1.4072506E+00 1.8279080E+00
 8.3764115E+00 1.4314266E+00 1.8186105E+00
 8.4287362E+00 1.4421746E+00 1.8096638E+00
 8.4795545E+00 1.4546885E+00 1.7999628E+00
 8.4795998E+00 1.4216346E+00 1.8179039E+00
 8.4796138E+00 1.3865897E+00 1.8350736E+00
 8.4796097E+00 1.3495605E+00 1.8512670E+00
 8.4795973E+00 1.3106471E+00 1.8662540E+00
 8.4795839E+00 1.2699816E+00 1.8798040E+00
 8.4795728E+00 1.2277052E+00 1.8917062E+00
 8.4795648E+00 1.1840051E+00 1.9017606E+00
 8.4795597E+00 1.1391085E+00 1.9097873E+00
 8.4795569E+00 1.0932770E+00 1.9156362E+00
 8.4795555E+00 1.0468025E+00 1.9191932E+00
 8.4795551E+00 1.0000000E+00 1.9203869E+00
 8.4795555E+00 9.5319759E-01 1.9191932E+00
 8.4795569E+00 9.0672302E-01 1.9156362E+00
 8.4795597E+00 8.6089154E-01 1.9097873E+00
 8.4795648E+00 8.1599502E-01 1.9017605E+00
 8.4795728E+00 7.7229488E-01 1.8917061E+00
 8.4795840E+00 7.3001850E-01 1.8798039E+00
 8.4795973E+00 6.8935310E-01 1.8662539E+00
 8.4796097E+00 6.5043971E-01 1.8512668E+00
 8.4796139E+00 6.1341048E-01 1.8350734E+00
 8.4795999E+00 5.7836560E-01 1.8179037E+00
 8.4795546E+00 5.4531178E-01 1.7999626E+00
 8.5247712E+00 5.2602643E-01 1.7866183E+00
 8.5742019E+00 5.3687272E-01 1.7910283E+00
 8.6256190E+00 5.4818968E-01 1.7956111E+00
 8.6786604E+00 5.6004833E-01 1.8002722E+00
 8.7331769E+00 5.7254693E-01 1.8048713E+00
 8.7889910E+00 5.8580445E-01 1.8092303E+00
 8.8459269E+00 5.9994980E-01 1.8131324E+00
 8.9037705E+00 6.1511237E-01 1.8163267E+00
 8.9622708E+00 6.3141559E-01 1.8185359E+00
 9.0211374E+00 6.4896700E-01 1.8194674E+00
 9.0800442E+00 6.6784838E-01 1.8188270E+00
 9.1386346E+00 6.8810689E-01 1.8163356E+00
 9.1965311E+00 7.0974791E-01 1.8117470E+00
 9.2533455E+00 7.3273116E-01 1.8048637E+00
 9.3086910E+00 7.5697017E-01 1.7955514E+00
 9.3621948E+00 7.8233568E-01 1.7837470E+00
 9.4135111E+00 8.0866095E-01 1.7694619E+00
 9.4623311E+00 8.3575083E-01 1.7527807E+00
 9.5083912E+00 8.6339164E-01 1.7338561E+00
 9.5514812E+00 8.9136177E-01 1.7128965E+00
 9.5914311E+00 9.1942337E-01 1.6901667E+00
 9.6281122E+00 9.4732183E-01 1.6659715E+00
 9.6613277E+00 9.7467326E-01 1.6407450E+00
 8.5300113E+00 1.4401088E+00 1.8058402E+00
 8.5811306E+00 1.4272848E+00 1.8106947E+00
 8.6336458E+00 1.4144796E+00 1.8154042E+00
 8.6874433E+00 1.4013087E+00 1.8200209E+00
 8.7424847E+00 1.3875019E+00 1.8244780E+00
 8.7986559E+00 1.3728888E+00 1.8286080E+00
 8.8557886E+00 1.3573333E+00 1.8321864E+00
 8.9136735E+00 1.3407220E+00 1.8349484E+00
 8.9720553E+00 1.3229590E+00 1.8366046E+00
 9.0306375E+00 1.3039696E+00 1.8368558E+00
 9.0890882E+00 1.2837081E+00 1.8354094E+00
 9.1470489E+00 1.2621639E+00 1.8319955E+00
 9.2041451E+00 1.2393669E+00 1.8263852E+00
 9.2599974E+00 1.2153878E+00 1.8184053E+00
 9.3142338E+00 1.1903354E+00 1.8079502E+00
 9.3665012E+00 1.1643513E+00 1.7949884E+00
 9.4164792E+00 1.1376031E+00 1.7795613E+00
 9.4638975E+00 1.1102797E+00 1.7617740E+00
 9.5085535E+00 1.0825911E+00 1.7417784E+00
 9.5503473E+00 1.0547731E+00 1.7197360E+00
 9.5893350E+00 1.0270979E+00 1.6957557E+00
 9.6258038E+00 1.0000000E+00 1.6698019E+00
 8.5321240E+00 1.4052867E+00 1.8238283E+00
 8.5852007E+00 1.3905309E+00 1.8288922E+00
 8.6389861E+00 1.3762015E+00 1.8335838E+00
 8.6937343E+00 1.3616114E+00 1.8380702E+00
 8.7494604E+00 1.3464089E+00 1.8422955E+00
 8.8061133E+00 1.3303716E+00 1.8460980E+00
 8.8635560E+00 1.3133622E+00 1.8492417E+00
 8.9215883E+00 1.2952830E+00 1.8514494E+00
 8.9799549E+00 1.2760640E+00 1.8524228E+00
 9.0383544E+00 1.2556616E+00 1.8518596E+00
 9.0964505E+00 1.2340629E+00 1.8494716E+00
 9.1538836E+00 1.2112905E+00 1.8450015E+00
 9.2102834E+00 1.1874039E+00 1.8382398E+00
 9.2652816E+00 1.1624969E+00 1.8290384E+00
 9.3185255E+00 1.1366914E+00 1.8173194E+00
 9.3696913E+00 1.1101308E+00 1.8030766E+00
 9.4185076E+00 1.0829760E+00 1.7863646E+00
 9.4647927E+00 1.0554100E+00 1.7672715E+00
 9.5085106E+00 1.0276544E+00 1.7458676E+00
 9.5498397E+00 1.0000000E+00 1.7221271E+00
 9.5893350E+00 9.7290217E-01 1.6957557E+00
 8.5335457E+00 1.3688127E+00 1.8407583E+00
 8.5879045E+00 1.3525306E+00 1.8456760E+00
 8.6428152E+00 1.3367100E+00 1.8501910E+00
 8.6984346E+00 1.3206920E+00 1.8544131E+00
 8.7548400E+00 1.3040574E+00 1.8582872E+00
 8.8119927E+00 1.2865739E+00 1.8616358E+00
 8.8697719E+00 1.2681072E+00 1.8642109E+00
 8.9279803E+00 1.2485789E+00 1.8657243E+00
 8.9863590E+00 1.2279442E+00 1.8658719E+00
 9.0446017E+00 1.2061888E+00 1.8643524E+00
 9.1023688E+00 1.1833304E+00 1.8608856E+00
 9.1593018E+00 1.1594196E+00 1.8552298E+00
 9.2150377E+00 1.1345385E+00 1.8471974E+00
 9.2692251E+00 1.1087953E+00 1.8366647E+00
 9.3215413E+00 1.0823158E+00 1.8235763E+00
 9.3717148E+00 1.0552406E+00 1.8079360E+00
 9.4195700E+00 1.0277319E+00 1.7897796E+00
 9.4650917E+00 1.0000000E+00 1.7691208E+00
 9.5085106E+00 9.7234571E-01 1.7458676E+00
 9.5503473E+00 9.4522702E-01 1.7197360E+00
 8.5346199E+00 1.3306436E+00 1.8564730E+00
 8.5899872E+00 1.3130171E+00 1.8610340E+00
 8.6457995E+00 1.2958178E+00 1.8651888E+00
 8.7021789E+00 1.2783991E+00 1.8689995E+00
 8.7591814E+00 1.2603512E+00 1.8723776E+00
 8.8167749E+00 1.2414446E+00 1.8751268E+00
 8.8748368E+00 1.2215619E+00 1.8769842E+00
 8.9331667E+00 1.2006460E+00 1.8776538E+00
 8.9915009E+00 1.1786783E+00 1.8768295E+00
 9.0495290E+00 1.1556720E+00 1.8742152E+00
 9.1069113E+00 1.1316709E+00 1.8695432E+00
 9.1632949E+00 1.1067478E+00 1.8625907E+00
 9.2183307E+00 1.0809989E+00 1.8531920E+00
 9.2716952E+00 1.0545374E+00 1.8412440E+00
 9.3231168E+00 1.0274890E+00 1.8267017E+00
 9.3724152E+00 1.0000000E+00 1.8095546E+00
 9.4195700E+00 9.7226821E-01 1.7897796E+00
 9.4647927E+00 9.4459006E-01 1.7672715E+00
 9.5085535E+00 9.1740903E-01 1.7417784E+00
 8.5355215E+00 1.2907477E+00 1.8708163E+00
 8.5917352E+00 1.2719278E+00 1.8748429E+00
 8.6482993E+00 1.2534415E+00 1.8784750E+00
 8.7053031E+00 1.2346863E+00 1.8817184E+00
 8.7627856E+00 1.2152785E+00 1.8844480E+00
 8.8207055E+00 1.1950133E+00 1.8864441E+00
 8.8789352E+00 1.1737959E+00 1.8874317E+00
 8.9372689E+00 1.1515942E+00 1.8871100E+00
 8.9954390E+00 1.1284149E+00 1.8851761E+00
 9.0531350E+00 1.1042957E+00 1.8813439E+00
 9.1100219E+00 1.0793010E+00 1.8753620E+00
 9.1657598E+00 1.0535172E+00 1.8670273E+00
 9.2200247E+00 1.0270459E+00 1.8561939E+00
 9.2725397E+00 1.0000000E+00 1.8427700E+00
 9.3231168E+00 9.7251109E-01 1.8267017E+00
 9.3717148E+00 9.4475948E-01 1.8079360E+00
 9.4185076E+00 9.1702408E-01 1.7863646E+00
 9.4638975E+00 8.8972036E-01 1.7617740E+00
 8.5363219E+00 1.2491995E+00 1.8835975E+00
 8.5932598E+00 1.2293067E+00 1.8869392E+00
 8.6504402E+00 1.2096277E+00 1.8898979E+00
 8.7079271E+00 1.1896171E+00 1.8924227E+00
 8.7657447E+00 1.1689340E+00 1.8943518E+00
 8.8238432E+00 1.1474072E+00 1.8954446E+00
 8.8820891E+00 1.1249705E+00 1.8954173E+00
 8.9402732E+00 1.1016172E+00 1.8939698E+00
 8.9981275E+00 1.0773771E+00 1.8908069E+00
 9.0553466E+00 1.0523071E+00 1.8856566E+00
 9.1116079E+00 1.0264845E+00 1.8782857E+00
 9.1665947E+00 1.0000000E+00 1.8685094E+00
 9.2200247E+00 9.7295417E-01 1.8561939E+00
 9.2716952E+00 9.4546268E-01 1.8412440E+00
 9.3215413E+00 9.1768427E-01 1.8235763E+00
 9.3696913E+00 8.8986930E-01 1.8030766E+00
 9.4164792E+00 8.6239698E-01 1.7795613E+00
 8.5370304E+00 1.2061472E+00 1.8946180E+00
 8.5945736E+00 1.1852897E+00 1.8971446E+00
 8.6522296E+00 1.1645193E+00 1.8992907E+00
 8.7100469E+00 1.1433534E+00 1.9009541E+00
 8.7680393E+00 1.1215043E+00 1.9019393E+00
 8.8261512E+00 1.0988409E+00 1.9019901E+00
 8.8842459E+00 1.0753271E+00 1.9008188E+00
 8.9421147E+00 1.0509802E+00 1.8981309E+00
 8.9994950E+00 1.0258484E+00 1.8936433E+00
 9.0560931E+00 1.0000000E+00 1.8871003E+00
 9.1116079E+00 9.7351563E-01 1.8782857E+00
 9.1657598E+00 9.4648291E-01 1.8670273E+00
 9.2183307E+00 9.1900121E-01 1.8531919E+00
 9.2692251E+00 8.9120482E-01 1.8366647E+00
 9.3185255E+00 8.6330873E-01 1.8173194E+00
 9.3665012E+00 8.3564881E-01 1.7949884E+00
 8.5376321E+00 1.1617878E+00 1.9036916E+00
 8.5956476E+00 1.1400802E+00 1.9052877E+00
 8.6536283E+00 1.1183317E+00 1.9064953E+00
 8.7116138E+00 1.0961305E+00 1.9071665E+00
 8.7696129E+00 1.0732480E+00 1.9070793E+00
 8.8275678E+00 1.0495959E+00 1.9059671E+00
 8.8853431E+00 1.0251678E+00 1.9035442E+00
 8.9427359E+00 1.0000000E+00 1.8995258E+00
 8.9994950E+00 9.7415169E-01 1.8936433E+00
 9.0553466E+00 9.4769301E-01 1.8856566E+00
 9.1100218E+00 9.2069912E-01 1.8753620E+00
 9.1632949E+00 8.9325231E-01 1.8625906E+00
 9.2150377E+00 8.6546155E-01 1.8471974E+00
 9.2652816E+00 8.3750323E-01 1.8290383E+00
 9.3142338E+00 8.0966465E-01 1.8079502E+00
 8.5381058E+00 1.1163610E+00 1.9106546E+00
 8.5964454E+00 1.0939306E+00 1.9112202E+00
 8.6545904E+00 1.0713343E+00 1.9113787E+00
 8.7125772E+00 1.0482374E+00 1.9109439E+00
 8.7704141E+00 1.0244746E+00 1.9096749E+00
 8.8280457E+00 1.0000000E+00 1.9073013E+00
 8.8853431E+00 9.7483225E-01 1.9035442E+00
 8.9421147E+00 9.4901986E-01 1.8981309E+00
 8.9981275E+00 9.2262303E-01 1.8908068E+00
 9.0531350E+00 8.9570442E-01 1.8813439E+00
 9.1069113E+00 8.6832915E-01 1.8695432E+00
 9.1593018E+00 8.4058051E-01 1.8552298E+00
 9.2102834E+00 8.1259621E-01 1.8382398E+00
 9.2599974E+00 7.8461226E-01 1.8184053E+00
 8.5384326E+00 1.0701422E+00 1.9153747E+00
 8.5969366E+00 1.0471313E+00 1.9148279E+00
 8.6550805E+00 1.0238348E+00 1.9138452E+00
 8.7129023E+00 1.0000000E+00 1.9122116E+00
 8.7704141E+00 9.7552541E-01 1.9096749E+00
 8.8275678E+00 9.5040411E-01 1.9059670E+00
 8.8842459E+00 9.2467295E-01 1.9008188E+00
 8.9402732E+00 8.9838292E-01 1.8939697E+00
 8.9954390E+00 8.7158516E-01 1.8851761E+00
 9.0495290E+00 8.4432811E-01 1.8742152E+00
 9.1023688E+00 8.1666970E-01 1.8608855E+00
 9.1538836E+00 7.8870959E-01 1.8450015E+00
 9.2041451E+00 7.6063315E-01 1.8263852E+00
 8.5385994E+00 1.0234357E+00 1.9177587E+00
 8.5971024E+00 1.0000000E+00 1.9160387E+00
 8.6550805E+00 9.7616520E-01 1.9138452E+00
 8.7125772E+00 9.5176260E-01 1.9109439E+00
 8.7696129E+00 9.2675206E-01 1.9070793E+00
 8.8261511E+00 9.0115921E-01 1.9019900E+00
 8.8820891E+00 8.7502955E-01 1.8954173E+00
 8.9372689E+00 8.4840584E-01 1.8871100E+00
 8.9915009E+00 8.2132179E-01 1.8768295E+00
 9.0446017E+00 7.9381126E-01 1.8643524E+00
 9.0964505E+00 7.6593723E-01 1.8494716E+00
 9.1470489E+00 7.3783616E-01 1.8319955E+00
 8.5385994E+00 9.7656433E-01 1.9177587E+00
 8.5969366E+00 9.5286868E-01 1.9148279E+00
 8.6545903E+00 9.2866570E-01 1.9113786E+00
 8.7116138E+00 9.0386959E-01 1.9071665E+00
 8.7680393E+00 8.7849571E-01 1.9019393E+00
 8.8238432E+00 8.5259289E-01 1.8954445E+00
 8.8789351E+00 8.2620414E-01 1.8874316E+00
 8.9331667E+00 7.9935410E-01 1.8776538E+00
 8.9863590E+00 7.7205593E-01 1.8658719E+00
 9.0383544E+00 7.4433855E-01 1.8518596E+00
 9.0890882E+00 7.1629203E-01 1.8354093E+00
 8.5384326E+00 9.2985779E-01 1.9153746E+00
 8.5964453E+00 9.0606939E-01 1.9112202E+00
 8.6536283E+00 8.8166830E-01 1.9064953E+00
 8.7100468E+00 8.5664665E-01 1.9009540E+00
 8.7657447E+00 8.3106604E-01 1.8943517E+00
 8.8207054E+00 8.0498679E-01 1.8864441E+00
 8.8748368E+00 7.7843820E-01 1.8769842E+00
 8.9279802E+00 7.5142124E-01 1.8657242E+00
 8.9799548E+00 7.2393608E-01 1.8524227E+00
 9.0306375E+00 6.9603048E-01 1.8368558E+00
 8.5381058E+00 8.8363909E-01 1.9106545E+00
 8.5956476E+00 8.5991981E-01 1.9052876E+00
 8.6522296E+00 8.3548079E-01 1.8992907E+00
 8.7079270E+00 8.1038294E-01 1.8924226E+00
 8.7627855E+00 7.8472155E-01 1.8844479E+00
 8.8167749E+00 7.5855552E-01 1.8751267E+00
 8.8697719E+00 7.3189288E-01 1.8642108E+00
 8.9215882E+00 7.0471709E-01 1.8514493E+00
 8.9720553E+00 6.7704116E-01 1.8366045E+00
 8.5376321E+00 8.3821224E-01 1.9036915E+00
 8.5945736E+00 8.1471033E-01 1.8971445E+00
 8.6504402E+00 7.9037241E-01 1.8898978E+00
 8.7053031E+00 7.6531381E-01 1.8817183E+00
 8.7591813E+00 7.3964888E-01 1.8723775E+00
 8.8119926E+00 7.1342621E-01 1.8616357E+00
 8.8635559E+00 6.8663791E-01 1.8492416E+00
 8.9136734E+00 6.5927813E-01 1.8349483E+00
 8.5370303E+00 7.9385284E-01 1.8946179E+00
 8.5932597E+00 7.7069334E-01 1.8869391E+00
 8.6482992E+00 7.4655859E-01 1.8784749E+00
 8.7021788E+00 7.2160103E-01 1.8689993E+00
 8.7548400E+00 6.9594275E-01 1.8582870E+00
 8.8061132E+00 6.6962848E-01 1.8460979E+00
 8.8557886E+00 6.4266685E-01 1.8321863E+00
 8.5363219E+00 7.5080059E-01 1.8835973E+00
 8.5917351E+00 7.2807234E-01 1.8748427E+00
 8.6457995E+00 7.0418229E-01 1.8651887E+00
 8.6984346E+00 6.7930812E-01 1.8544130E+00
 8.7494603E+00 6.5359129E-01 1.8422954E+00
 8.7986558E+00 6.2711133E-01 1.8286079E+00
 8.5355215E+00 7.0925239E-01 1.8708161E+00
 8.5899872E+00 6.8698303E-01 1.8610339E+00
 8.6428151E+00 6.6329015E-01 1.8501909E+00
 8.6937343E+00 6.3838880E-01 1.8380700E+00
 8.7424847E+00 6.1249823E-01 1.8244779E+00
 8.5346200E+00 6.6935655E-01 1.8564728E+00
 8.5879045E+00 6.4746953E-01 1.8456758E+00
 8.6389861E+00 6.2379869E-01 1.8335837E+00
 8.6874432E+00 5.9869152E-01 1.8200208E+00
 8.5335457E+00 6.3118751E-01 1.8407581E+00
 8.5852006E+00 6.0946928E-01 1.8288920E+00
 8.6336458E+00 5.8552056E-01 1.8154040E+00
 8.5321240E+00 5.9471349E-01 1.8238281E+00
 8.5811306E+00 5.7271541E-01 1.8106945E+00
 8.5300113E+00 5.5989148E-01 1.8058399E+00
 8.4514641E+00 1.5074879E+00 1.7690428E+00
 8.4203165E+00 1.5334233E+00 1.7531380E+00
 8.3876538E+00 1.5600593E+00 1.7357192E+00
 8.3536515E+00 1.5872334E+00 1.7167528E+00
 8.3184731E+00 1.6148430E+00 1.6961536E+00
 8.2823702E+00 1.6427618E+00 1.6738172E+00
 8.2456212E+00 1.6708374E+00 1.6496248E+00
 8.2085536E+00 1.6988645E+00 1.6234630E+00
 8.1715260E+00 1.7265876E+00 1.5952305E+00
 8.1348980E+00 1.7537049E+00 1.5648541E+00
 8.0990021E+00 1.7798806E+00 1.5323040E+00
 8.0641242E+00 1.8047640E+00 1.4976079E+00
 8.0304943E+00 1.8280111E+00 1.4608601E+00
 7.9982884E+00 1.8493064E+00 1.4222229E+00
 7.9676357E+00 1.8683822E+00 1.3819214E+00
 7.9386291E+00 1.8850315E+00 1.3402342E+00
 7.9113359E+00 1.8991154E+00 1.2974791E+00
 7.8858070E+00 1.9105665E+00 1.2539979E+00
 7.8620833E+00 1.9193866E+00 1.2101405E+00
 7.8401981E+00 1.9256410E+00 1.1662554E+00
 7.8201801E+00 1.9294482E+00 1.1227020E+00
 7.8020259E+00 1.9309638E+00 1.0798357E+00
 7.7857657E+00 1.9303845E+00 1.0382814E+00
 7.3121486E+00 1.0726633E+00 1.6243347E+00
 7.3077435E+00 1.1198800E+00 1.6113013E+00
 7.3049852E+00 1.1678987E+00 1.5962119E+00
 7.3043145E+00 1.2168546E+00 1.5793051E+00
 7.3060384E+00 1.2666975E+00 1.5606516E+00
 7.3104061E+00 1.3172454E+00 1.5402780E+00
 7.3176166E+00 1.3682236E+00 1.5181940E+00
 7.3278266E+00 1.4192946E+00 1.4944181E+00
 7.3411508E+00 1.4700710E+00 1.4689951E+00
 7.3576569E+00 1.5201261E+00 1.4420069E+00
 7.3773575E+00 1.5690065E+00 1.4135762E+00
 7.4002025E+00 1.6162454E+00 1.3838660E+00
 7.4260743E+00 1.6613803E+00 1.3530771E+00
 7.4547867E+00 1.7039699E+00 1.3214431E+00
 7.4860888E+00 1.7436130E+00 1.2892230E+00
 7.5196723E+00 1.7799649E+00 1.2566949E+00
 7.5551828E+00 1.8127527E+00 1.2241447E+00
 7.5922306E+00 1.8417848E+00 1.1918557E+00
 7.6304069E+00 1.8669622E+00 1.1600872E+00
 7.6692965E+00 1.8882828E+00 1.1290397E+00
 7.7085048E+00 1.9058435E+00 1.0987851E+00
 7.7475751E+00 1.9198117E+00 1.0691252E+00
 7.3410584E+00 1.1029608E+00 1.6556751E+00
 7.3383607E+00 1.1527538E+00 1.6427248E+00
 7.3372393E+00 1.2026205E+00 1.6274503E+00
 7.3382414E+00 1.2529736E+00 1.6101951E+00
 7.3417353E+00 1.3038850E+00 1.5910896E+00
 7.3479828E+00 1.3552219E+00 1.5701733E+00
 7.3571682E+00 1.4067158E+00 1.5474525E+00
 7.3694180E+00 1.4580085E+00 1.5229427E+00
 7.3848083E+00 1.5086828E+00 1.4966926E+00
 7.4033617E+00 1.5582826E+00 1.4687953E+00
 7.4250405E+00 1.6063308E+00 1.4393914E+00
 7.4497412E+00 1.6523485E+00 1.4086670E+00
 7.4772918E+00 1.6958747E+00 1.3768489E+00
 7.5074565E+00 1.7364872E+00 1.3441976E+00
 7.5399424E+00 1.7738217E+00 1.3109985E+00
 7.5744149E+00 1.8075898E+00 1.2775485E+00
 7.6105096E+00 1.8375910E+00 1.2441376E+00
 7.6478495E+00 1.8637230E+00 1.2110132E+00
 7.6860590E+00 1.8859885E+00 1.1783191E+00
 7.7247711E+00 1.9044891E+00 1.1460052E+00
 7.7636200E+00 1.9194123E+00 1.1136064E+00
 7.3735574E+00 1.1333169E+00 1.6865227E+00
 7.3725269E+00 1.1849105E+00 1.6733802E+00
 7.3731152E+00 1.2363190E+00 1.6577833E+00
 7.3758883E+00 1.2879050E+00 1.6400671E+00
 7.3812461E+00 1.3397626E+00 1.6203811E+00
 7.3894497E+00 1.3917594E+00 1.5987679E+00
 7.4006606E+00 1.4436094E+00 1.5752338E+00
 7.4149700E+00 1.4949279E+00 1.5497986E+00
 7.4324105E+00 1.5452679E+00 1.5225234E+00
 7.4529545E+00 1.5941481E+00 1.4935208E+00
 7.4765105E+00 1.6410760E+00 1.4629572E+00
 7.5029201E+00 1.6855719E+00 1.4310477E+00
 7.5319605E+00 1.7271916E+00 1.3980506E+00
 7.5633535E+00 1.7655497E+00 1.3642554E+00
 7.5967802E+00 1.8003385E+00 1.3299693E+00
 7.6318966E+00 1.8313448E+00 1.2954923E+00
 7.6683480E+00 1.8584592E+00 1.2610767E+00
 7.7057787E+00 1.8816833E+00 1.2268571E+00
 7.7438303E+00 1.9011235E+00 1.1927484E+00
 7.7821313E+00 1.9169711E+00 1.1583266E+00
 7.4097494E+00 1.1639643E+00 1.7163465E+00
 7.4103955E+00 1.2168715E+00 1.7027892E+00
 7.4127478E+00 1.2694593E+00 1.6866972E+00
 7.4173723E+00 1.3220090E+00 1.6683720E+00
 7.4246664E+00 1.3745651E+00 1.6479522E+00
 7.4348726E+00 1.4269616E+00 1.6254770E+00
 7.4481188E+00 1.4788793E+00 1.6009560E+00
 7.4644529E+00 1.5299022E+00 1.5744215E+00
 7.4838575E+00 1.5795573E+00 1.5459551E+00
 7.5062517E+00 1.6273472E+00 1.5156970E+00
 7.5314892E+00 1.6727782E+00 1.4838456E+00
 7.5593610E+00 1.7153871E+00 1.4506510E+00
 7.5896038E+00 1.7547673E+00 1.4164035E+00
 7.6219141E+00 1.7905910E+00 1.3814187E+00
 7.6559666E+00 1.8226285E+00 1.3460100E+00
 7.6914252E+00 1.8507586E+00 1.3104477E+00
 7.7279497E+00 1.8749770E+00 1.2748858E+00
 7.7651846E+00 1.8953911E+00 1.2392739E+00
 7.8027481E+00 1.9121988E+00 1.2032754E+00
 7.4497187E+00 1.1948163E+00 1.7446262E+00
 7.4520533E+00 1.2486664E+00 1.7304364E+00
 7.4562118E+00 1.3020921E+00 1.7136623E+00