# TIME = 11.500000
variables = x, y, z
zone N=5762 E=11520 F=FEPOINT ET=TRIANGLE
 9.8953588E+00 1.4835776E+00 1.7822784E+00
 9.8953588E+00 1.4835773E+00 2.1772181E-01
 9.8953588E+00 5.1642264E-01 1.7822781E+00
 9.8953589E+00 5.1642243E-01 2.1772158E-01
 8.7109654E+00 9.9999997E-01 1.6070363E+00
 1.1107022E+01 9.9999998E-01 1.6157776E+00
 8.7109654E+00 9.9999999E-01 3.9296359E-01
 1.1107022E+01 9.9999998E-01 3.8422236E-01
 9.1850507E+00 1.9265438E+00 9.9999970E-01
 9.1850507E+00 7.3456089E-02 1.0000002E+00
 1.0591266E+01 1.8661154E+00 9.9999993E-01
 1.0591266E+01 1.3388463E-01 9.9999995E-01
 9.8484641E+00 1.4756612E+00 1.7896885E+00
 9.7964417E+00 1.4669253E+00 1.7980620E+00
 9.7416437E+00 1.4578808E+00 1.8070743E+00
 9.6846733E+00 1.4484865E+00 1.8167002E+00
 9.6261218E+00 1.4386117E+00 1.8268200E+00
 9.5667136E+00 1.4280292E+00 1.8371615E+00
 9.5071305E+00 1.4164464E+00 1.8472804E+00
 9.4478834E+00 1.4035405E+00 1.8565852E+00
 9.3892373E+00 1.3889970E+00 1.8643944E+00
 9.3312559E+00 1.3725469E+00 1.8699995E+00
 9.2739174E+00 1.3539976E+00 1.8727258E+00
 9.2172468E+00 1.3332573E+00 1.8719917E+00
 9.1614092E+00 1.3103514E+00 1.8673646E+00
 9.1067339E+00 1.2854250E+00 1.8586034E+00
 9.0536740E+00 1.2587309E+00 1.8456780E+00
 9.0027328E+00 1.2306042E+00 1.8287594E+00
 8.9543907E+00 1.2014298E+00 1.8081870E+00
 8.9090512E+00 1.1716080E+00 1.7844212E+00
 8.8670082E+00 1.1415272E+00 1.7579922E+00
 8.8284341E+00 1.1115425E+00 1.7294505E+00
 8.7934089E+00 1.0819795E+00 1.6993547E+00
 8.7619499E+00 1.0531338E+00 1.6682617E+00
 8.7341201E+00 1.0253640E+00 1.6368468E+00
 9.8429742E+00 5.5852962E-01 1.8096100E+00
 9.7890465E+00 5.6936270E-01 1.8186911E+00
 9.7329603E+00 5.8003814E-01 1.8280757E+00
 9.6751285E+00 5.9091580E-01 1.8378961E+00
 9.6160597E+00 6.0231634E-01 1.8480982E+00
 9.5564308E+00 6.1453405E-01 1.8583978E+00
 9.4968872E+00 6.2787613E-01 1.8683167E+00
 9.4378762E+00 6.4263644E-01 1.8772293E+00
 9.3796041E+00 6.5907236E-01 1.8844326E+00
 9.3220974E+00 6.7738076E-01 1.8892145E+00
 9.2653259E+00 6.9767744E-01 1.8909155E+00
 9.2093271E+00 7.1998031E-01 1.8889886E+00
 9.1542854E+00 7.4420106E-01 1.8830498E+00
 9.1005406E+00 7.7014841E-01 1.8729151E+00
 9.0485403E+00 7.9754498E-01 1.8586119E+00
 8.9987658E+00 8.2605323E-01 1.8403620E+00
 8.9516606E+00 8.5530387E-01 1.8185403E+00
 8.9075756E+00 8.8492182E-01 1.7936194E+00
 8.8667371E+00 9.1454386E-01 1.7661100E+00
 8.8292269E+00 9.4382851E-01 1.7364955E+00
 8.7949672E+00 9.7245324E-01 1.7051620E+00
 8.7636919E+00 9.9999998E-01 1.6723086E+00
 9.8407180E+00 5.9382305E-01 1.8280135E+00
 9.7845921E+00 6.0671295E-01 1.8375712E+00
 9.7270181E+00 6.1907604E-01 1.8471829E+00
 9.6680964E+00 6.3156898E-01 1.8571140E+00
 9.6083326E+00 6.4460809E-01 1.8673042E+00
 9.5483469E+00 6.5855328E-01 1.8774548E+00
 9.4887203E+00 6.7371063E-01 1.8870524E+00
 9.4298301E+00 6.9033872E-01 1.8954426E+00
 9.3718234E+00 7.0863716E-01 1.9019079E+00
 9.3146930E+00 7.2873577E-01 1.9057396E+00
 9.2584005E+00 7.5068171E-01 1.9062998E+00
 9.2029934E+00 7.7443037E-01 1.9030790E+00
 9.1486690E+00 7.9984299E-01 1.8957429E+00
 9.0957696E+00 8.2669543E-01 1.8841615E+00
 9.0447273E+00 8.5469800E-01 1.8684127E+00
 8.9959876E+00 8.8352051E-01 1.8487542E+00
 8.9499350E+00 9.1281384E-01 1.8255701E+00
 8.9068287E+00 9.4222585E-01 1.7992975E+00
 8.8667584E+00 9.7140735E-01 1.7703412E+00
 8.8296119E+00 9.9999997E-01 1.7389781E+00
 8.7949672E+00 1.0275467E+00 1.7051620E+00
 9.8391345E+00 6.3074003E-01 1.8452332E+00
 9.7815392E+00 6.4532180E-01 1.8548469E+00
 9.7226547E+00 6.5937072E-01 1.8645010E+00
 9.6627504E+00 6.7352121E-01 1.8743856E+00
 9.6023110E+00 6.8826805E-01 1.8844265E+00
 9.5419520E+00 7.0398776E-01 1.8942842E+00
 9.4822019E+00 7.2097471E-01 1.9034108E+00
 9.4233800E+00 7.3944597E-01 1.9111273E+00
 9.3655849E+00 7.5954573E-01 1.9167083E+00
 9.3087819E+00 7.8134246E-01 1.9194551E+00
 9.2529273E+00 8.0482359E-01 1.9187572E+00
 9.1980753E+00 8.2989243E-01 1.9141452E+00
 9.1444290E+00 8.5637162E-01 1.9053334E+00
 9.0923223E+00 8.8401570E-01 1.8922405E+00
 9.0421559E+00 9.1253128E-01 1.8749813E+00
 8.9943158E+00 9.4159648E-01 1.8538249E+00
 8.9490907E+00 9.7087171E-01 1.8291236E+00
 8.9066032E+00 9.9999997E-01 1.8012203E+00
 8.8667584E+00 1.0285926E+00 1.7703412E+00
 8.8292269E+00 1.0561714E+00 1.7364955E+00
 9.8379068E+00 6.6927934E-01 1.8611354E+00
 9.7791756E+00 6.8538473E-01 1.8705585E+00
 9.7192640E+00 7.0102898E-01 1.8800365E+00
 9.6585288E+00 7.1683551E-01 1.8896999E+00
 9.5975152E+00 7.3329802E-01 1.8994205E+00
 9.5368350E+00 7.5078989E-01 1.9088154E+00
 9.4769865E+00 7.6957509E-01 1.9173007E+00
 9.4182436E+00 7.8982627E-01 1.9241784E+00
 9.3606672E+00 8.1163378E-01 1.9287225E+00
 9.3042022E+00 8.3501068E-01 1.9302516E+00
 9.2488001E+00 8.5989329E-01 1.9281869E+00
 9.1945173E+00 8.8614334E-01 1.9221007E+00
 9.1415520E+00 9.1355552E-01 1.9117524E+00
 9.0902138E+00 9.4187140E-01 1.8970991E+00
 9.0408491E+00 9.7079476E-01 1.8782720E+00
 8.9937542E+00 9.9999997E-01 1.8555201E+00
 8.9490907E+00 1.0291282E+00 1.8291236E+00
 8.9068287E+00 1.0577741E+00 1.7992975E+00
 8.8667372E+00 1.0854561E+00 1.7661100E+00
 9.8368887E+00 7.0945021E-01 1.8755853E+00
 9.7772378E+00 7.2693490E-01 1.8846149E+00
 9.7164981E+00 7.4409244E-01 1.8937249E+00
 9.6551002E+00 7.6150755E-01 1.9029811E+00
 9.5936390E+00 7.7965174E-01 1.9121987E+00
 9.5327358E+00 7.9886787E-01 1.9209474E+00
 9.4728645E+00 8.1937998E-01 1.9286124E+00
 9.4142644E+00 8.4131205E-01 1.9344845E+00
 9.3569672E+00 8.6470363E-01 1.9378448E+00
 9.3009008E+00 8.8951894E-01 1.9380357E+00
 9.2460107E+00 9.1565253E-01 1.9345136E+00
 9.1923474E+00 9.4293459E-01 1.9268917E+00
 9.1400897E+00 9.7114027E-01 1.9149673E+00
 9.0895015E+00 9.9999997E-01 1.8987196E+00
 9.0408491E+00 1.0292052E+00 1.8782720E+00
 8.9943158E+00 1.0584035E+00 1.8538249E+00
 8.9499350E+00 1.0871861E+00 1.8255701E+00
 8.9075756E+00 1.1150781E+00 1.7936194E+00
 9.8360126E+00 7.5117441E-01 1.8884140E+00
 9.7756007E+00 7.6992091E-01 1.8968792E+00
 9.7141991E+00 7.8850285E-01 1.9054445E+00
 9.6522997E+00 8.0745643E-01 1.9141117E+00
 9.5905366E+00 8.2721256E-01 1.9226409E+00
 9.5295367E+00 8.4806934E-01 1.9305593E+00
 9.4697532E+00 8.7020223E-01 1.9372291E+00
 9.4113961E+00 8.9368615E-01 1.9419381E+00
 9.3544726E+00 9.1851423E-01 1.9439834E+00
 9.2988951E+00 9.4461022E-01 1.9427360E+00
 9.2445986E+00 9.7183638E-01 1.9376887E+00
 9.1916164E+00 9.9999997E-01 1.9284913E+00
 9.1400897E+00 1.0288597E+00 1.9149673E+00
 9.0902139E+00 1.0581285E+00 1.8970991E+00
 9.0421559E+00 1.0874687E+00 1.8749813E+00
 8.9959877E+00 1.1164794E+00 1.8487542E+00
 8.9516607E+00 1.1446961E+00 1.8185403E+00
 9.8352591E+00 7.9430868E-01 1.8994419E+00
 9.7742232E+00 8.1421309E-01 1.9071947E+00
 9.7123177E+00 8.3412295E-01 1.9150510E+00
 9.6500802E+00 8.5452455E-01 1.9229553E+00
 9.5881717E+00 8.7579508E-01 1.9306172E+00
 9.5272181E+00 8.9817843E-01 1.9375302E+00
 9.4676513E+00 9.2179822E-01 1.9430429E+00
 9.4096544E+00 9.4668277E-01 1.9464499E+00
 9.3532122E+00 9.7278591E-01 1.9470706E+00
 9.2982210E+00 9.9999999E-01 1.9443078E+00
 9.2445986E+00 1.0281636E+00 1.9376887E+00
 9.1923474E+00 1.0570654E+00 1.9268917E+00
 9.1415521E+00 1.0864444E+00 1.9117525E+00
 9.0923224E+00 1.1159842E+00 1.8922406E+00
 9.0447273E+00 1.1453019E+00 1.8684127E+00
 8.9987658E+00 1.1739467E+00 1.8403620E+00
 9.8346305E+00 8.3866565E-01 1.9084992E+00
 9.7731114E+00 8.5962022E-01 1.9154061E+00
 9.7108633E+00 8.8075158E-01 1.9224026E+00
 9.6484560E+00 9.0249074E-01 1.9293810E+00
 9.5865644E+00 9.2515349E-01 1.9360095E+00
 9.5258058E+00 9.4892493E-01 1.9417578E+00
 9.4665884E+00 9.7387790E-01 1.9459718E+00
 9.4090693E+00 1.0000000E+00 1.9479607E+00
 9.3532122E+00 1.0272141E+00 1.9470707E+00
 9.2988951E+00 1.0553898E+00 1.9427360E+00
 9.2460107E+00 1.0843474E+00 1.9345136E+00
 9.1945173E+00 1.1138566E+00 1.9221007E+00
 9.1444291E+00 1.1436283E+00 1.9053335E+00
 9.0957696E+00 1.1733045E+00 1.8841616E+00
 9.0485404E+00 1.2024550E+00 1.8586119E+00
 9.8341400E+00 8.8401859E-01 1.9154361E+00
 9.7722900E+00 9.0590580E-01 1.9213780E+00
 9.7098674E+00 9.2813747E-01 1.9273776E+00
 9.6474616E+00 9.5108421E-01 1.9332826E+00
 9.5857493E+00 9.7499631E-01 1.9387293E+00
 9.5253309E+00 1.0000000E+00 1.9431749E+00
 9.4665884E+00 1.0261221E+00 1.9459718E+00
 9.4096544E+00 1.0533172E+00 1.9464500E+00
 9.3544726E+00 1.0814858E+00 1.9439835E+00
 9.3009008E+00 1.1104810E+00 1.9380358E+00
 9.2488002E+00 1.1401067E+00 1.9281870E+00
 9.1980753E+00 1.1701075E+00 1.9141453E+00
 9.1486691E+00 1.2001570E+00 1.8957430E+00
 9.1005407E+00 1.2298515E+00 1.8729152E+00
 9.8338028E+00 9.3010861E-01 1.9201318E+00
 9.7717848E+00 9.5279800E-01 1.9250054E+00
 9.7093605E+00 9.7599282E-01 1.9298882E+00
 9.6471264E+00 1.0000000E+00 1.9345911E+00
 9.5857493E+00 1.0250037E+00 1.9387293E+00
 9.5258058E+00 1.0510751E+00 1.9417579E+00
 9.4676513E+00 1.0782018E+00 1.9430429E+00
 9.4113962E+00 1.1063139E+00 1.9419382E+00
 9.3569672E+00 1.1352964E+00 1.9378449E+00
 9.3042022E+00 1.1649893E+00 1.9302517E+00
 9.2529274E+00 1.1951764E+00 1.9187573E+00
 9.2029935E+00 1.2255696E+00 1.9030791E+00
 9.1542855E+00 1.2557989E+00 1.8830499E+00
 9.8336310E+00 9.7665186E-01 1.9225015E+00
 9.7716143E+00 1.0000000E+00 1.9262221E+00
 9.7093605E+00 1.0240072E+00 1.9298882E+00
 9.6474616E+00 1.0489158E+00 1.9332827E+00
 9.5865644E+00 1.0748466E+00 1.9360096E+00
 9.5272180E+00 1.1018216E+00 1.9375302E+00
 9.4697532E+00 1.1297978E+00 1.9372292E+00
 9.4142645E+00 1.1586880E+00 1.9344846E+00
 9.3606673E+00 1.1883662E+00 1.9287227E+00
 9.3087819E+00 1.2186576E+00 1.9194552E+00
 9.2584006E+00 1.2493183E+00 1.9062999E+00
 9.2093272E+00 1.2800197E+00 1.8889887E+00
 9.8336310E+00 1.0233481E+00 1.9225015E+00
 9.7717848E+00 1.0472020E+00 1.9250054E+00
 9.7098674E+00 1.0718626E+00 1.9273777E+00
 9.6484559E+00 1.0975093E+00 1.9293811E+00
 9.5881716E+00 1.1242050E+00 1.9306173E+00
 9.5295366E+00 1.1519307E+00 1.9305594E+00
 9.4728645E+00 1.1806201E+00 1.9286126E+00
 9.4182436E+00 1.2101738E+00 1.9241785E+00
 9.3655849E+00 1.2404543E+00 1.9167084E+00
 9.3146930E+00 1.2712643E+00 1.9057397E+00
 9.2653260E+00 1.3023226E+00 1.8909157E+00
 9.8338028E+00 1.0698914E+00 1.9201318E+00
 9.7722899E+00 1.0940942E+00 1.9213780E+00
 9.7108633E+00 1.1192485E+00 1.9224026E+00
 9.6500802E+00 1.1454755E+00 1.9229554E+00
 9.5905366E+00 1.1727875E+00 1.9226410E+00
 9.5327358E+00 1.2011322E+00 1.9209475E+00
 9.4769865E+00 1.2304250E+00 1.9173008E+00
 9.4233800E+00 1.2605541E+00 1.9111275E+00
 9.3718234E+00 1.2913629E+00 1.9019081E+00
 9.3220975E+00 1.3226193E+00 1.8892147E+00
 9.8341399E+00 1.1159814E+00 1.9154362E+00
 9.7731114E+00 1.1403798E+00 1.9154062E+00
 9.7123177E+00 1.1658771E+00 1.9150511E+00
 9.6522997E+00 1.1925436E+00 1.9141119E+00
 9.5936390E+00 1.2203483E+00 1.9121988E+00
 9.5368350E+00 1.2492102E+00 1.9088156E+00
 9.4822019E+00 1.2790254E+00 1.9034110E+00
 9.4298301E+00 1.3096614E+00 1.8954427E+00
 9.3796042E+00 1.3409277E+00 1.8844328E+00
 9.8346304E+00 1.1613344E+00 1.9084993E+00
 9.7742231E+00 1.1857869E+00 1.9071948E+00
 9.7141990E+00 1.2114972E+00 1.9054446E+00
 9.6551001E+00 1.2384925E+00 1.9029813E+00
 9.5975152E+00 1.2667021E+00 1.8994207E+00
 9.5419520E+00 1.2960123E+00 1.8942843E+00
 9.4887203E+00 1.3262895E+00 1.8870525E+00
 9.4378763E+00 1.3573637E+00 1.8772294E+00
 9.8352591E+00 1.2056913E+00 1.8994420E+00
 9.7756006E+00 1.2300791E+00 1.8968794E+00
 9.7164980E+00 1.2559076E+00 1.8937250E+00
 9.6585287E+00 1.2831646E+00 1.8897000E+00
 9.6023110E+00 1.3117321E+00 1.8844267E+00
 9.5483469E+00 1.3414468E+00 1.8774550E+00
 9.4968872E+00 1.3721240E+00 1.8683169E+00
 9.8360126E+00 1.2488256E+00 1.8884141E+00
 9.7772377E+00 1.2730652E+00 1.8846151E+00
 9.7192639E+00 1.2989711E+00 1.8800367E+00
 9.6627503E+00 1.3264789E+00 1.8743858E+00
 9.6083325E+00 1.3553920E+00 1.8673044E+00
 9.5564308E+00 1.3854661E+00 1.8583981E+00
 9.8368886E+00 1.2905499E+00 1.8755855E+00
 9.7791755E+00 1.3146154E+00 1.8705587E+00
 9.7226546E+00 1.3406294E+00 1.8645012E+00
 9.6680963E+00 1.3684312E+00 1.8571142E+00
 9.6160597E+00 1.3976838E+00 1.8480984E+00
 9.8379067E+00 1.3307208E+00 1.8611356E+00
 9.7815391E+00 1.3546783E+00 1.8548471E+00
 9.7270180E+00 1.3809241E+00 1.8471831E+00
 9.6751284E+00 1.4090844E+00 1.8378964E+00
 9.8391345E+00 1.3692601E+00 1.8452335E+00
 9.7845920E+00 1.3932872E+00 1.8375715E+00
 9.7329602E+00 1.4199620E+00 1.8280759E+00
 9.8407179E+00 1.4061771E+00 1.8280138E+00
 9.7890464E+00 1.4306375E+00 1.8186913E+00
 9.8429741E+00 1.4414706E+00 1.8096103E+00
 9.8953428E+00 1.4541040E+00 1.7997756E+00
 9.8953240E+00 1.4206824E+00 1.8178884E+00
 9.8952833E+00 1.3853141E+00 1.8351693E+00
 9.8952318E+00 1.3480433E+00 1.8514049E+00
 9.8951756E+00 1.3089933E+00 1.8663708E+00
 9.8951214E+00 1.2683023E+00 1.8798510E+00
 9.8950735E+00 1.2261076E+00 1.8916530E+00
 9.8950342E+00 1.1825881E+00 1.9015946E+00
 9.8950044E+00 1.1379597E+00 1.9095128E+00
 9.8949837E+00 1.0924681E+00 1.9152719E+00
 9.8949717E+00 1.0463846E+00 1.9187699E+00
 9.8949677E+00 9.9999998E-01 1.9199431E+00
 9.8949717E+00 9.5361534E-01 1.9187699E+00
 9.8949838E+00 9.0753189E-01 1.9152719E+00
 9.8950044E+00 8.6204029E-01 1.9095127E+00
 9.8950342E+00 8.1741190E-01 1.9015945E+00
 9.8950735E+00 7.7389241E-01 1.8916529E+00
 9.8951215E+00 7.3169773E-01 1.8798509E+00
 9.8951756E+00 6.9100681E-01 1.8663706E+00
 9.8952318E+00 6.5195682E-01 1.8514047E+00
 9.8952834E+00 6.1468606E-01 1.8351691E+00
 9.8953241E+00 5.7931780E-01 1.8178882E+00
 9.8953429E+00 5.4589621E-01 1.7997754E+00
 9.9418399E+00 5.2639607E-01 1.7862667E+00
 9.9924854E+00 5.3736982E-01 1.7907142E+00
 1.0044940E+01 5.4878373E-01 1.7953216E+00
 1.0098796E+01 5.6070498E-01 1.7999863E+00
 1.0153881E+01 5.7323364E-01 1.8045640E+00
 1.0210026E+01 5.8649480E-01 1.8088774E+00
 1.0267073E+01 6.0061999E-01 1.8127132E+00
 1.0324829E+01 6.1573731E-01 1.8158260E+00
 1.0383067E+01 6.3196669E-01 1.8179476E+00
 1.0441526E+01 6.4941213E-01 1.8187971E+00
 1.0499914E+01 6.6815374E-01 1.8180942E+00
 1.0557914E+01 6.8824006E-01 1.8155732E+00
 1.0615190E+01 7.0968191E-01 1.8109988E+00
 1.0671396E+01 7.3244893E-01 1.8041794E+00
 1.0726183E+01 7.5646877E-01 1.7949800E+00
 1.0779213E+01 7.8162955E-01 1.7833294E+00
 1.0830163E+01 8.0778424E-01 1.7692242E+00
 1.0878743E+01 8.3475850E-01 1.7527277E+00
 1.0924698E+01 8.6235907E-01 1.7339661E+00
 1.0967820E+01 8.9038196E-01 1.7131180E+00
 1.1007928E+01 9.1859652E-01 1.6904198E+00
 1.1044860E+01 9.4673559E-01 1.6661604E+00
 1.1078370E+01 9.7438079E-01 1.6407809E+00
 9.9471769E+00 1.4393350E+00 1.8056985E+00
 9.9995216E+00 1.4263692E+00 1.8105835E+00
 1.0053056E+01 1.4134570E+00 1.8153099E+00
 1.0107619E+01 1.4002292E+00 1.8199156E+00
 1.0163174E+01 1.3864163E+00 1.8243295E+00
 1.0219616E+01 1.3718393E+00 1.8283882E+00
 1.0276797E+01 1.3563519E+00 1.8318758E+00
 1.0334528E+01 1.3398358E+00 1.8345378E+00
 1.0392582E+01 1.3221943E+00 1.8360968E+00
 1.0450698E+01 1.3033539E+00 1.8362670E+00
 1.0508584E+01 1.2832678E+00 1.8347694E+00
 1.0565921E+01 1.2619210E+00 1.8313470E+00
 1.0622380E+01 1.2393337E+00 1.8257799E+00
 1.0677621E+01 1.2155624E+00 1.8178985E+00
 1.0731308E+01 1.1906980E+00 1.8075932E+00
 1.0783121E+01 1.1648636E+00 1.7948200E+00
 1.0832764E+01 1.1382112E+00 1.7795989E+00
 1.0879988E+01 1.1109186E+00 1.7620050E+00
 1.0924604E+01 1.0831885E+00 1.7421542E+00
 1.0966511E+01 1.0552502E+00 1.7201743E+00
 1.1005734E+01 1.0273713E+00 1.6961555E+00
 1.1042508E+01 9.9999998E-01 1.6700657E+00
 9.9493124E+00 1.4041432E+00 1.8238367E+00
 1.0003685E+01 1.3892236E+00 1.8289235E+00
 1.0058515E+01 1.3747738E+00 1.8336225E+00
 1.0114026E+01 1.3601311E+00 1.8380829E+00
 1.0170233E+01 1.3449483E+00 1.8422443E+00
 1.0227100E+01 1.3289879E+00 1.8459534E+00
 1.0284513E+01 1.3120949E+00 1.8489874E+00
 1.0342301E+01 1.2941617E+00 1.8510832E+00
 1.0400247E+01 1.2751145E+00 1.8519569E+00
 1.0458093E+01 1.2549074E+00 1.8513210E+00
 1.0515546E+01 1.2335235E+00 1.8489015E+00
 1.0572295E+01 1.2109760E+00 1.8444530E+00
 1.0628015E+01 1.1873093E+00 1.8377730E+00
 1.0682379E+01 1.1625978E+00 1.8287130E+00
 1.0735073E+01 1.1369431E+00 1.8171854E+00
 1.0785809E+01 1.1104721E+00 1.8031626E+00
 1.0834348E+01 1.0833374E+00 1.7866665E+00
 1.0880535E+01 1.0557224E+00 1.7677429E+00
 1.0924341E+01 1.0278488E+00 1.7464216E+00
 1.0965912E+01 9.9999999E-01 1.7226549E+00
 1.1005734E+01 9.7262869E-01 1.6961555E+00
 9.9507612E+00 1.3673612E+00 1.8408494E+00
 1.0006474E+01 1.3509078E+00 1.8457752E+00
 1.0062457E+01 1.3349598E+00 1.8502851E+00
 1.0118834E+01 1.3188995E+00 1.8544656E+00
 1.0175684E+01 1.3023125E+00 1.8582587E+00
 1.0232986E+01 1.2849461E+00 1.8614987E+00
 1.0290650E+01 1.2666426E+00 1.8639539E+00
 1.0348518E+01 1.2473094E+00 1.8653528E+00
 1.0406379E+01 1.2268944E+00 1.8654077E+00
 1.0463978E+01 1.2053775E+00 1.8638331E+00
 1.0521028E+01 1.1827666E+00 1.8603631E+00
 1.0577222E+01 1.1590973E+00 1.8547660E+00
 1.0632246E+01 1.1344311E+00 1.8468570E+00
 1.0685795E+01 1.1088531E+00 1.8365058E+00
 1.0737590E+01 1.0824708E+00 1.8236372E+00
 1.0787405E+01 1.0554154E+00 1.8082216E+00
 1.0835102E+01 1.0278529E+00 1.7902494E+00
 1.0880682E+01 9.9999999E-01 1.7696887E+00
 1.0924341E+01 9.7215122E-01 1.7464216E+00
 1.0966511E+01 9.4474979E-01 1.7201743E+00
 9.9518443E+00 1.3289825E+00 1.8565769E+00
 1.0008592E+01 1.3111931E+00 1.8611276E+00
 1.0065480E+01 1.2938754E+00 1.8652614E+00
 1.0122599E+01 1.2764353E+00 1.8690156E+00
 1.0180004E+01 1.2584679E+00 1.8723009E+00
 1.0237684E+01 1.2397182E+00 1.8749346E+00
 1.0295554E+01 1.2200420E+00 1.8766719E+00
 1.0353464E+01 1.1993642E+00 1.8772347E+00
 1.0411205E+01 1.1776549E+00 1.8763344E+00
 1.0468527E+01 1.1549161E+00 1.8736908E+00
 1.0525148E+01 1.1311760E+00 1.8690488E+00
 1.0580772E+01 1.1064861E+00 1.8621916E+00
 1.0635105E+01 1.0809186E+00 1.8529498E+00
 1.0687875E+01 1.0545655E+00 1.8412042E+00
 1.0738863E+01 1.0275424E+00 1.8268781E+00
 1.0787937E+01 9.9999999E-01 1.8099166E+00
 1.0835102E+01 9.7214706E-01 1.7902494E+00
 1.0880535E+01 9.4427758E-01 1.7677429E+00
 1.0924604E+01 9.1681145E-01 1.7421542E+00
 9.9527195E+00 1.2889931E+00 1.8708735E+00
 1.0010308E+01 1.2700367E+00 1.8748703E+00
 1.0067931E+01 1.2514600E+00 1.8784644E+00
 1.0125647E+01 1.2327180E+00 1.8816391E+00
 1.0183491E+01 1.2134292E+00 1.8842702E+00
 1.0241448E+01 1.1933603E+00 1.8861526E+00
 1.0299432E+01 1.1723869E+00 1.8870294E+00
 1.0357295E+01 1.1504555E+00 1.8866182E+00
 1.0414832E+01 1.1275569E+00 1.8846328E+00
 1.0471799E+01 1.1037116E+00 1.8808013E+00
 1.0527926E+01 1.0789625E+00 1.8748809E+00
 1.0582932E+01 1.0533711E+00 1.8666686E+00
 1.0636555E+01 1.0270165E+00 1.8560056E+00
 1.0688576E+01 9.9999999E-01 1.8427735E+00
 1.0738863E+01 9.7245762E-01 1.8268781E+00
 1.0787405E+01 9.4458454E-01 1.8082216E+00
 1.0834348E+01 9.1666254E-01 1.7866664E+00
 1.0879988E+01 8.8908139E-01 1.7620050E+00
 9.9534651E+00 1.2474693E+00 1.8835658E+00
 1.0011754E+01 1.2274838E+00 1.8868599E+00
 1.0069968E+01 1.2077608E+00 1.8897656E+00
 1.0128138E+01 1.1878105E+00 1.8922141E+00
 1.0186287E+01 1.1672896E+00 1.8940462E+00
 1.0244390E+01 1.1459959E+00 1.8950357E+00
 1.0302362E+01 1.1238317E+00 1.8949157E+00
 1.0360057E+01 1.1007657E+00 1.8934028E+00
 1.0417276E+01 1.0768067E+00 1.8902167E+00
 1.0473785E+01 1.0519889E+00 1.8850956E+00
 1.0529329E+01 1.0263642E+00 1.8778091E+00
 1.0583659E+01 9.9999999E-01 1.8681642E+00
 1.0636555E+01 9.7298344E-01 1.8560056E+00
 1.0687875E+01 9.4543445E-01 1.8412042E+00
 1.0737590E+01 9.1752922E-01 1.8236372E+00
 1.0785809E+01 8.8952790E-01 1.8031626E+00
 1.0832764E+01 8.6178881E-01 1.7795988E+00
 9.9541078E+00 1.2045527E+00 1.8944742E+00
 1.0012973E+01 1.1836603E+00 1.8969398E+00
 1.0071639E+01 1.1629068E+00 1.8990233E+00
 1.0130118E+01 1.1418566E+00 1.9006096E+00
 1.0188424E+01 1.1202137E+00 1.9015075E+00
 1.0246527E+01 1.0978139E+00 1.9014731E+00
 1.0304344E+01 1.0745879E+00 1.9002337E+00
 1.0361735E+01 1.0505252E+00 1.8975083E+00
 1.0418510E+01 1.0256485E+00 1.8930246E+00
 1.0474452E+01 9.9999999E-01 1.8865318E+00
 1.0529329E+01 9.7363579E-01 1.8778091E+00
 1.0582932E+01 9.4662890E-01 1.8666686E+00
 1.0635105E+01 9.1908142E-01 1.8529498E+00
 1.0685795E+01 8.9114685E-01 1.8365058E+00
 1.0735073E+01 8.6305689E-01 1.8171854E+00
 1.0783121E+01 8.3513639E-01 1.7948200E+00
 9.9546481E+00 1.1604293E+00 1.9034309E+00
 1.0013962E+01 1.1387535E+00 1.9049594E+00
 1.0072934E+01 1.1170905E+00 1.9061027E+00
 1.0131571E+01 1.0950626E+00 1.9067047E+00
 1.0189879E+01 1.0724256E+00 1.9065477E+00
 1.0247831E+01 1.0490557E+00 1.9053749E+00
 1.0305347E+01 1.0249117E+00 1.9029117E+00
 1.0362298E+01 9.9999998E-01 1.8988827E+00
 1.0418510E+01 9.7435146E-01 1.8930246E+00
 1.0473785E+01 9.4801107E-01 1.8850956E+00
 1.0527926E+01 9.2103749E-01 1.8748809E+00
 1.0580772E+01 8.9351393E-01 1.8621915E+00
 1.0632246E+01 8.6556889E-01 1.8468570E+00
 1.0682379E+01 8.3740222E-01 1.8287130E+00
 1.0731308E+01 8.0930203E-01 1.8075931E+00
 9.9550734E+00 1.1153239E+00 1.9102888E+00
 1.0014696E+01 1.0929943E+00 1.9107889E+00
 1.0073824E+01 1.0705528E+00 1.9108906E+00
 1.0132462E+01 1.0476820E+00 1.9104032E+00
 1.0190618E+01 1.0241923E+00 1.9090884E+00
 1.0248269E+01 9.9999998E-01 1.9066822E+00
 1.0305347E+01 9.7508823E-01 1.9029117E+00
 1.0361735E+01 9.4947479E-01 1.8975083E+00
 1.0417276E+01 9.2319326E-01 1.8902166E+00
 1.0471799E+01 8.9628837E-01 1.8808013E+00
 1.0525148E+01 8.6882400E-01 1.8690488E+00
 1.0577222E+01 8.4090267E-01 1.8547659E+00
 1.0628015E+01 8.1269071E-01 1.8377729E+00
 1.0677621E+01 7.8443763E-01 1.8178984E+00
 9.9553678E+00 1.0694922E+00 1.9149300E+00
 1.0015148E+01 1.0466472E+00 1.9143285E+00
 1.0074278E+01 1.0235680E+00 1.9133057E+00
 1.0132763E+01 9.9999997E-01 1.9116431E+00
 1.0190618E+01 9.7580763E-01 1.9090884E+00
 1.0247831E+01 9.5094424E-01 1.9053748E+00
 1.0304344E+01 9.2541210E-01 1.9002337E+00
 1.0360057E+01 8.9923429E-01 1.8934028E+00
 1.0414832E+01 8.7244304E-01 1.8846327E+00
 1.0468527E+01 8.4508391E-01 1.8736908E+00
 1.0521028E+01 8.1723336E-01 1.8603630E+00
 1.0572295E+01 7.8902403E-01 1.8444529E+00
 1.0622380E+01 7.6066628E-01 1.8257799E+00
 9.9555184E+00 1.0232143E+00 1.9172719E+00
 1.0015301E+01 9.9999997E-01 1.9155155E+00
 1.0074278E+01 9.7643190E-01 1.9133057E+00
 1.0132462E+01 9.5231794E-01 1.9104031E+00
 1.0189879E+01 9.2757434E-01 1.9065476E+00
 1.0246527E+01 9.0218610E-01 1.9014731E+00
 1.0302362E+01 8.7616827E-01 1.8949156E+00
 1.0357294E+01 8.4954446E-01 1.8866181E+00
 1.0411205E+01 8.2234507E-01 1.8763343E+00
 1.0463978E+01 7.9462249E-01 1.8638330E+00
 1.0515546E+01 7.6647648E-01 1.8489014E+00
 1.0565921E+01 7.3807899E-01 1.8313469E+00
 9.9555184E+00 9.7678568E-01 1.9172718E+00
 1.0015148E+01 9.5335278E-01 1.9143284E+00
 1.0073824E+01 9.2944717E-01 1.9108906E+00
 1.0131571E+01 9.0493734E-01 1.9067046E+00
 1.0188424E+01 8.7978623E-01 1.9015074E+00
 1.0244390E+01 8.5400409E-01 1.8950356E+00
 1.0299432E+01 8.2761313E-01 1.8870294E+00
 1.0353464E+01 8.0063579E-01 1.8772346E+00
 1.0406379E+01 7.7310557E-01 1.8654076E+00
 1.0458093E+01 7.4509259E-01 1.8513209E+00
 1.0508583E+01 7.1673225E-01 1.8347693E+00
 9.9553678E+00 9.3050772E-01 1.9149300E+00
 1.0014696E+01 9.0700567E-01 1.9107888E+00
 1.0072934E+01 8.8290940E-01 1.9061027E+00
 1.0130118E+01 8.5814338E-01 1.9006095E+00
 1.0186287E+01 8.3271041E-01 1.8940461E+00
 1.0241448E+01 8.0663971E-01 1.8861525E+00
 1.0295554E+01 7.7995802E-01 1.8766718E+00
 1.0348518E+01 7.5269063E-01 1.8653527E+00
 1.0400247E+01 7.2488556E-01 1.8519568E+00
 1.0450698E+01 6.9664616E-01 1.8362669E+00
 9.9550734E+00 8.8467609E-01 1.9102888E+00
 1.0013962E+01 8.6124650E-01 1.9049593E+00
 1.0071638E+01 8.3709320E-01 1.8990232E+00
 1.0128138E+01 8.1218944E-01 1.8922140E+00
 1.0183491E+01 7.8657080E-01 1.8842701E+00
 1.0237684E+01 7.6028182E-01 1.8749345E+00
 1.0290650E+01 7.3335738E-01 1.8639538E+00
 1.0342301E+01 7.0583828E-01 1.8510831E+00
 1.0392582E+01 6.7780575E-01 1.8360967E+00
 9.9546481E+00 8.3957065E-01 1.9034308E+00
 1.0012973E+01 8.1633966E-01 1.8969396E+00
 1.0069968E+01 7.9223915E-01 1.8897655E+00
 1.0125647E+01 7.6728202E-01 1.8816390E+00
 1.0180004E+01 7.4153215E-01 1.8723008E+00
 1.0232986E+01 7.1505395E-01 1.8614985E+00
 1.0284513E+01 6.8790509E-01 1.8489872E+00
 1.0334528E+01 6.6016428E-01 1.8345377E+00
 9.9541078E+00 7.9544731E-01 1.8944741E+00
 1.0011754E+01 7.7251622E-01 1.8868597E+00
 1.0067931E+01 7.4854000E-01 1.8784643E+00
 1.0122599E+01 7.2356469E-01 1.8690155E+00
 1.0175684E+01 6.9768751E-01 1.8582585E+00
 1.0227100E+01 6.7101219E-01 1.8459532E+00
 1.0276797E+01 6.4364812E-01 1.8318756E+00
 9.9534651E+00 7.5253076E-01 1.8835656E+00
 1.0010308E+01 7.2996337E-01 1.8748701E+00
 1.0065480E+01 7.0612467E-01 1.8652612E+00
 1.0118834E+01 6.8110058E-01 1.8544654E+00
 1.0170233E+01 6.5505177E-01 1.8422441E+00
 1.0219616E+01 6.2816077E-01 1.8283880E+00
 9.9527195E+00 7.1100698E-01 1.8708733E+00
 1.0008592E+01 6.8880690E-01 1.8611274E+00
 1.0062457E+01 6.6504029E-01 1.8502849E+00
 1.0114026E+01 6.3986899E-01 1.8380827E+00
 1.0163174E+01 6.1358375E-01 1.8243293E+00
 9.9518443E+00 6.7101761E-01 1.8565767E+00
 1.0006474E+01 6.4909231E-01 1.8457750E+00
 1.0058515E+01 6.2522628E-01 1.8336223E+00
 1.0107619E+01 5.9977089E-01 1.8199154E+00
 9.9507612E+00 6.3263889E-01 1.8408492E+00
 1.0003685E+01 6.1077649E-01 1.8289232E+00
 1.0053056E+01 5.8654313E-01 1.8153097E+00
 9.9493125E+00 5.9585694E-01 1.8238364E+00
 9.9995216E+00 5.7363097E-01 1.8105832E+00
 9.9471769E+00 5.6066518E-01 1.8056983E+00
 9.8664475E+00 1.5075234E+00 1.7685189E+00
 9.8343163E+00 1.5337389E+00 1.7524602E+00
 9.8006587E+00 1.5606057E+00 1.7349067E+00
 9.7657008E+00 1.5879346E+00 1.7158480E+00
 9.7296534E+00 1.6156152E+00 1.6952105E+00
 9.6928121E+00 1.6435257E+00 1.6728894E+00
 9.6554903E+00 1.6715212E+00 1.6487602E+00
 9.6180381E+00 1.6994025E+00 1.6227045E+00
 9.5808191E+00 1.7269197E+00 1.5946181E+00
 9.5441785E+00 1.7537807E+00 1.5644261E+00
 9.5084206E+00 1.7796645E+00 1.5320968E+00
 9.4737947E+00 1.8042402E+00 1.4976535E+00
 9.4404934E+00 1.8271862E+00 1.4611820E+00
 9.4086596E+00 1.8482089E+00 1.4228310E+00
 9.3783958E+00 1.8670586E+00 1.3828070E+00
 9.3497763E+00 1.8835410E+00 1.3413663E+00
 9.3228574E+00 1.8975231E+00 1.2988032E+00
 9.2976843E+00 1.9089353E+00 1.2554363E+00
 9.2742935E+00 1.9177713E+00 1.2115941E+00
 9.2527118E+00 1.9240817E+00 1.1676057E+00
 9.2329564E+00 1.9279639E+00 1.1238235E+00
 9.2150119E+00 1.9295483E+00 1.0806215E+00
 9.1988958E+00 1.9290083E+00 1.0386630E+00
 8.7291475E+00 1.0738085E+00 1.6269069E+00
 8.7247473E+00 1.1217313E+00 1.6137497E+00
 8.7220719E+00 1.1703698E+00 1.5985369E+00
 8.7215301E+00 1.2198012E+00 1.5814961E+00
 8.7233955E+00 1.2699489E+00 1.5626914E+00
 8.7278970E+00 1.3206306E+00 1.5421579E+00
 8.7352207E+00 1.3715827E+00 1.5199226E+00
 8.7455100E+00 1.4224816E+00 1.4960188E+00
 8.7588631E+00 1.4729561E+00 1.4705005E+00
 8.7753306E+00 1.5226002E+00 1.4434515E+00
 8.7949108E+00 1.5709856E+00 1.4149913E+00
 8.8175447E+00 1.6176752E+00 1.3852770E+00
 8.8431135E+00 1.6622381E+00 1.3545010E+00
 8.8714379E+00 1.7042654E+00 1.3228873E+00
 8.9022818E+00 1.7433863E+00 1.2906850E+00
 8.9353582E+00 1.7792817E+00 1.2581615E+00
 8.9703390E+00 1.8116985E+00 1.2255917E+00
 9.0068647E+00 1.8404583E+00 1.1932460E+00
 9.0445604E+00 1.8654675E+00 1.1613713E+00
 9.0830482E+00 1.8867204E+00 1.1301619E+00
 9.1219608E+00 1.9042977E+00 1.0996975E+00
 9.1608369E+00 1.9183383E+00 1.0697957E+00
 8.7585818E+00 1.1044866E+00 1.6583621E+00
 8.7559418E+00 1.1549931E+00 1.6452721E+00
 8.7549476E+00 1.2054592E+00 1.6298526E+00
 8.7560961E+00 1.2562313E+00 1.6124278E+00
 8.7597169E+00 1.3073537E+00 1.5931269E+00
 8.7660556E+00 1.3587004E+00 1.5720104E+00
 8.7752889E+00 1.4100239E+00 1.5491121E+00
 8.7875324E+00 1.4609914E+00 1.5244670E+00
 8.8028468E+00 1.5112129E+00 1.4981325E+00
 8.8212389E+00 1.5602631E+00 1.4702015E+00
 8.8426602E+00 1.6076994E+00 1.4408090E+00
 8.8670041E+00 1.6530805E+00 1.4101318E+00
 8.8941062E+00 1.6959837E+00 1.3783857E+00
 8.9237479E+00 1.7360233E+00 1.3458182E+00
 8.9556622E+00 1.7728668E+00 1.3126996E+00
 8.9895449E+00 1.8062492E+00 1.2793078E+00
 9.0250637E+00 1.8359841E+00 1.2459095E+00
 9.0618746E+00 1.8619731E+00 1.2127264E+00
 9.0996381E+00 1.8842116E+00 1.1798858E+00
 9.1380248E+00 1.9027812E+00 1.1473480E+00
 9.1766872E+00 1.9178376E+00 1.1146816E+00
 8.7915316E+00 1.1351121E+00 1.6891372E+00
 8.7905869E+00 1.1874012E+00 1.6758168E+00
 8.7913242E+00 1.2393689E+00 1.6600359E+00
 8.7942389E+00 1.2912989E+00 1.6421068E+00
 8.7996883E+00 1.3432591E+00 1.6221857E+00
 8.8079204E+00 1.3951309E+00 1.6003469E+00
 8.8190926E+00 1.4466610E+00 1.5766299E+00
 8.8332872E+00 1.4975017E+00 1.5510752E+00
 8.8505236E+00 1.5472457E+00 1.5237510E+00
 8.8707625E+00 1.5954541E+00 1.4947670E+00
 8.8939081E+00 1.6416793E+00 1.4642800E+00
 8.9198093E+00 1.6854874E+00 1.4324924E+00
 8.9482624E+00 1.7264779E+00 1.3996456E+00
 8.9790190E+00 1.7643037E+00 1.3660095E+00
 9.0117955E+00 1.7986855E+00 1.3318655E+00
 9.0462844E+00 1.8294274E+00 1.2974807E+00
 9.0821645E+00 1.8564230E+00 1.2630702E+00
 9.1191149E+00 1.8796630E+00 1.2287413E+00
 9.1568178E+00 1.8992280E+00 1.1944161E+00
 9.1949366E+00 1.9152695E+00 1.1597226E+00
 8.8280220E+00 1.1658798E+00 1.7186791E+00
 8.8287572E+00 1.2194221E+00 1.7049020E+00
 8.8312510E+00 1.2724904E+00 1.6885854E+00
 8.8359824E+00 1.3252828E+00 1.6700091E+00
 8.8433046E+00 1.3778205E+00 1.6493280E+00
 8.8534506E+00 1.4299593E+00 1.6266202E+00
 8.8665478E+00 1.4814222E+00 1.6019312E+00
 8.8826385E+00 1.5318415E+00 1.5753132E+00
 8.9016971E+00 1.5807958E+00 1.5468524E+00
 8.9236382E+00 1.6278410E+00 1.5166822E+00
 8.9483225E+00 1.6725372E+00 1.4849868E+00
 8.9755603E+00 1.7144724E+00 1.4519971E+00
 9.0051206E+00 1.7532851E+00 1.4179787E+00
 9.0367387E+00 1.7886813E+00 1.3832158E+00
 9.0701286E+00 1.8204518E+00 1.3479817E+00
 9.1049885E+00 1.8484792E+00 1.3125010E+00
 9.1410099E+00 1.8727465E+00 1.2768911E+00
 9.1778770E+00 1.8933293E+00 1.2411031E+00
 9.2152537E+00 1.9103784E+00 1.2048595E+00
 8.8680696E+00 1.1966868E+00 1.7464828E+00
 8.8704680E+00 1.2510708E+00 1.7320371E+00
 8.8747241E+00 1.3048652E+00 1.7150033E+00