# TIME = 2.600000
variables = x, y, z
zone N=5762 E=11520 F=FEPOINT ET=TRIANGLE
 6.1330466E+00 1.4870986E+00 1.7880057E+00
 6.1330467E+00 1.4870987E+00 2.1199424E-01
 6.1330466E+00 5.1290133E-01 1.7880056E+00
 6.1330468E+00 5.1290114E-01 2.1199432E-01
 4.9560914E+00 9.9999992E-01 1.5940658E+00
 7.3377435E+00 9.9999992E-01 1.6117111E+00
 4.9560917E+00 9.9999993E-01 4.0593456E-01
 7.3377435E+00 9.9999992E-01 3.8828909E-01
 5.4286948E+00 1.9368388E+00 1.0000000E+00
 5.4286948E+00 6.3160968E-02 1.0000001E+00
 6.8221568E+00 1.8672218E+00 1.0000001E+00
 6.8221567E+00 1.3277816E-01 1.0000001E+00
 6.0898385E+00 1.4795564E+00 1.7954431E+00
 6.0421921E+00 1.4711654E+00 1.8038133E+00
 5.9919702E+00 1.4623335E+00 1.8128583E+00
 5.9394825E+00 1.4530500E+00 1.8225760E+00
 5.8848852E+00 1.4432366E+00 1.8329186E+00
 5.8283785E+00 1.4327367E+00 1.8437239E+00
 5.7702138E+00 1.4213034E+00 1.8546520E+00
 5.7107043E+00 1.4086046E+00 1.8651191E+00
 5.6501590E+00 1.3942353E+00 1.8742780E+00
 5.5888578E+00 1.3777690E+00 1.8810666E+00
 5.5271165E+00 1.3588415E+00 1.8843482E+00
 5.4654230E+00 1.3372564E+00 1.8831349E+00
 5.4045242E+00 1.3130632E+00 1.8768148E+00
 5.3453471E+00 1.2865590E+00 1.8652622E+00
 5.2888084E+00 1.2582180E+00 1.8487905E+00
 5.2356552E+00 1.2285964E+00 1.8280105E+00
 5.1863962E+00 1.1982504E+00 1.8036806E+00
 5.1413055E+00 1.1676842E+00 1.7765911E+00
 5.1004583E+00 1.1373231E+00 1.7474899E+00
 5.0637797E+00 1.1075095E+00 1.7170427E+00
 5.0311078E+00 1.0785241E+00 1.6858391E+00
 5.0022442E+00 1.0506159E+00 1.6544056E+00
 4.9769999E+00 1.0240521E+00 1.6232589E+00
 6.0851356E+00 5.5360236E-01 1.8148199E+00
 6.0358772E+00 5.6384549E-01 1.8237937E+00
 5.9845362E+00 5.7414962E-01 1.8331526E+00
 5.9311674E+00 5.8490120E-01 1.8430981E+00
 5.8758376E+00 5.9629736E-01 1.8536200E+00
 5.8187125E+00 6.0851677E-01 1.8645249E+00
 5.7600759E+00 6.2180731E-01 1.8754114E+00
 5.7002609E+00 6.3648765E-01 1.8856224E+00
 5.6395825E+00 6.5291904E-01 1.8942396E+00
 5.5783225E+00 6.7144808E-01 1.9001546E+00
 5.5168141E+00 6.9232626E-01 1.9022326E+00
 5.4555818E+00 7.1562507E-01 1.8995490E+00
 5.3954023E+00 7.4118682E-01 1.8916006E+00
 5.3371954E+00 7.6864613E-01 1.8783798E+00
 5.2818327E+00 7.9750718E-01 1.8602984E+00
 5.2299971E+00 8.2723151E-01 1.8380340E+00
 5.1821301E+00 8.5730647E-01 1.8123817E+00
 5.1384444E+00 8.8728852E-01 1.7841446E+00
 5.0989670E+00 9.1682138E-01 1.7540678E+00
 5.0635744E+00 9.4563544E-01 1.7227906E+00
 5.0319871E+00 9.7349118E-01 1.6907693E+00
 5.0036652E+00 9.9999992E-01 1.6580886E+00
 6.0835278E+00 5.8793903E-01 1.8328218E+00
 6.0326970E+00 5.9995988E-01 1.8421636E+00
 5.9802233E+00 6.1181235E-01 1.8517089E+00
 5.9258512E+00 6.2416434E-01 1.8617920E+00
 5.8696151E+00 6.3725778E-01 1.8723920E+00
 5.8116881E+00 6.5129524E-01 1.8832841E+00
 5.7523804E+00 6.6652321E-01 1.8940095E+00
 5.6920495E+00 6.8323833E-01 1.9038384E+00
 5.6310201E+00 7.0174936E-01 1.9117838E+00
 5.5695832E+00 7.2231855E-01 1.9166935E+00
 5.5080956E+00 7.4508892E-01 1.9174387E+00
 5.4471217E+00 7.7001850E-01 1.9131602E+00
 5.3874675E+00 7.9685605E-01 1.9034628E+00
 5.3300450E+00 8.2518108E-01 1.8884553E+00
 5.2756832E+00 8.5448546E-01 1.8686462E+00
 5.2250036E+00 8.8425438E-01 1.8447805E+00
 5.1783823E+00 9.1402487E-01 1.8176907E+00
 5.1359668E+00 9.4342021E-01 1.7881883E+00
 5.0977004E+00 9.7216040E-01 1.7569798E+00
 5.0632955E+00 9.9999992E-01 1.7245468E+00
 5.0319871E+00 1.0265087E+00 1.6907693E+00
 6.0824265E+00 6.2415112E-01 1.8498698E+00
 6.0305149E+00 6.3770366E-01 1.8592491E+00
 5.9769932E+00 6.5115968E-01 1.8688401E+00
 5.9216699E+00 6.6518303E-01 1.8789182E+00
 5.8645517E+00 6.8005466E-01 1.8894492E+00
 5.8058461E+00 6.9597733E-01 1.9001646E+00
 5.7458956E+00 7.1318672E-01 1.9105479E+00
 5.6850812E+00 7.3194411E-01 1.9198017E+00
 5.6237409E+00 7.5249543E-01 1.9268803E+00
 5.5621780E+00 7.7501352E-01 1.9306040E+00
 5.5007756E+00 7.9953523E-01 1.9298674E+00
 5.4401325E+00 8.2591448E-01 1.9238904E+00
 5.3810726E+00 8.5382154E-01 1.9123895E+00
 5.3244889E+00 8.8279824E-01 1.8955855E+00
 5.2711599E+00 9.1233995E-01 1.8740739E+00
 5.2216413E+00 9.4197064E-01 1.8486557E+00
 5.1762378E+00 9.7129083E-01 1.8201841E+00
 5.1350048E+00 9.9999992E-01 1.7894417E+00
 5.0977004E+00 1.0278394E+00 1.7569797E+00
 5.0635745E+00 1.0543644E+00 1.7227905E+00
 6.0814622E+00 6.6234772E-01 1.8658368E+00
 6.0285873E+00 6.7740374E-01 1.8750834E+00
 5.9741514E+00 6.9246971E-01 1.8845479E+00
 5.9179720E+00 7.0820998E-01 1.8944568E+00
 5.8600861E+00 7.2489482E-01 1.9047349E+00
 5.8007296E+00 7.4272293E-01 1.9150722E+00
 5.7402798E+00 7.6190548E-01 1.9248960E+00
 5.6791400E+00 7.8265742E-01 1.9333522E+00
 5.6176600E+00 8.0515229E-01 1.9393541E+00
 5.5561557E+00 8.2946862E-01 1.9417167E+00
 5.4950318E+00 8.5553906E-01 1.9393804E+00
 5.4349097E+00 8.8312429E-01 1.9316565E+00
 5.3766133E+00 9.1183392E-01 1.9183730E+00
 5.3210019E+00 9.4119256E-01 1.8998510E+00
 5.2687932E+00 9.7072065E-01 1.8767563E+00
 5.2204695E+00 9.9999990E-01 1.8499228E+00
 5.1762378E+00 1.0287090E+00 1.8201841E+00
 5.1359669E+00 1.0565796E+00 1.7881882E+00
 5.0989672E+00 1.0831784E+00 1.7540677E+00
 6.0805605E+00 7.0254299E-01 1.8805306E+00
 6.0268197E+00 7.1908330E-01 1.8894816E+00
 5.9715816E+00 7.3577554E-01 1.8986523E+00
 5.9146812E+00 7.5324298E-01 1.9082066E+00
 5.8561786E+00 7.7174222E-01 1.9180302E+00
 5.7963445E+00 7.9145349E-01 1.9277707E+00
 5.7355861E+00 8.1255516E-01 1.9368075E+00
 5.6743256E+00 8.3520521E-01 1.9442447E+00
 5.6129222E+00 8.5949740E-01 1.9489759E+00
 5.5517011E+00 8.8541373E-01 1.9498356E+00
 5.4910806E+00 9.1278879E-01 1.9458290E+00
 5.4316889E+00 9.4130479E-01 1.9363664E+00
 5.3743311E+00 9.7053146E-01 1.9213797E+00
 5.3198173E+00 9.9999988E-01 1.9012727E+00
 5.2687933E+00 1.0292791E+00 1.8767562E+00
 5.2216414E+00 1.0580292E+00 1.8486555E+00
 5.1783824E+00 1.0859749E+00 1.8176905E+00
 5.1384446E+00 1.1127113E+00 1.7841444E+00
 6.0797389E+00 7.4463817E-01 1.8937154E+00
 6.0252407E+00 7.6264479E-01 1.9022094E+00
 5.9693311E+00 7.8095241E-01 1.9109083E+00
 5.9118616E+00 8.0012742E-01 1.9199127E+00
 5.8529168E+00 8.2040168E-01 1.9290702E+00
 5.7927989E+00 8.4193028E-01 1.9379913E+00
 5.7319406E+00 8.6484917E-01 1.9460182E+00
 5.6707787E+00 8.8925211E-01 1.9522317E+00
 5.6096778E+00 9.1514908E-01 1.9555287E+00
 5.5489676E+00 9.4242851E-01 1.9547859E+00
 5.4890696E+00 9.7083793E-01 1.9490886E+00
 5.4306016E+00 9.9999987E-01 1.9379459E+00
 5.3743311E+00 1.0294683E+00 1.9213796E+00
 5.3210019E+00 1.0588072E+00 1.8998509E+00
 5.2711600E+00 1.0876598E+00 1.8740737E+00
 5.2250037E+00 1.1157454E+00 1.8447803E+00
 5.1821303E+00 1.1426933E+00 1.8123814E+00
 6.0790198E+00 7.8846281E-01 1.9051505E+00
 6.0238901E+00 8.0789751E-01 1.9130238E+00
 5.9674565E+00 8.2777849E-01 1.9210673E+00
 5.9095868E+00 8.4860346E-01 1.9293226E+00
 5.8503892E+00 8.7057145E-01 1.9376026E+00
 5.7901926E+00 8.9380483E-01 1.9454881E+00
 5.7294501E+00 9.1839066E-01 1.9522988E+00
 5.6686073E+00 9.4435417E-01 1.9571112E+00
 5.6080300E+00 9.7162292E-01 1.9588487E+00
 5.5480464E+00 9.9999988E-01 1.9564498E+00
 5.4890696E+00 1.0291618E+00 1.9490886E+00
 5.4316889E+00 1.0586949E+00 1.9363664E+00
 5.3766134E+00 1.0881658E+00 1.9183728E+00
 5.3244890E+00 1.1172015E+00 1.8955853E+00
 5.2756833E+00 1.1455143E+00 1.8686459E+00
 5.2299973E+00 1.1727682E+00 1.8380337E+00
 6.0784227E+00 8.3379435E-01 1.9146106E+00
 6.0228031E+00 8.5458731E-01 1.9216998E+00
 5.9660068E+00 8.7596326E-01 1.9289054E+00
 5.9079175E+00 8.9833914E-01 1.9362162E+00
 5.8486649E+00 9.2187426E-01 1.9434169E+00
 5.7885991E+00 9.4665283E-01 1.9500682E+00
 5.7281868E+00 9.7270897E-01 1.9554826E+00
 5.6678764E+00 9.9999992E-01 1.9587527E+00
 5.6080300E+00 1.0283769E+00 1.9588486E+00
 5.5489676E+00 1.0575712E+00 1.9547859E+00
 5.4910807E+00 1.0872109E+00 1.9458290E+00
 5.4349098E+00 1.1168754E+00 1.9316563E+00
 5.3810726E+00 1.1461782E+00 1.9123893E+00
 5.3300451E+00 1.1748186E+00 1.8884550E+00
 5.2818329E+00 1.2024925E+00 1.8602980E+00
 6.0779617E+00 8.8035885E-01 1.9218972E+00
 6.0220066E+00 9.0240641E-01 1.9280455E+00
 5.9650190E+00 9.2516060E-01 1.9342394E+00
 5.9068978E+00 9.4894663E-01 1.9404239E+00
 5.8477908E+00 9.7387885E-01 1.9463630E+00
 5.7880630E+00 9.9999995E-01 1.9516089E+00
 5.7281868E+00 1.0272909E+00 1.9554826E+00
 5.6686074E+00 1.0556457E+00 1.9571112E+00
 5.6096778E+00 1.0848507E+00 1.9555286E+00
 5.5517012E+00 1.1145860E+00 1.9498355E+00
 5.4950319E+00 1.1444607E+00 1.9393802E+00
 5.4401325E+00 1.1740852E+00 1.9238901E+00
 5.3874676E+00 1.2031437E+00 1.9034625E+00
 5.3371956E+00 1.2313536E+00 1.8783794E+00
 6.0776481E+00 9.2783884E-01 1.9268496E+00
 6.0215206E+00 9.5100442E-01 1.9319144E+00
 5.9645186E+00 9.7498302E-01 1.9369399E+00
 5.9065549E+00 9.9999993E-01 1.9418387E+00
 5.8477908E+00 1.0261210E+00 1.9463630E+00
 5.7885991E+00 1.0533471E+00 1.9500682E+00
 5.7294501E+00 1.0816092E+00 1.9522988E+00
 5.6707788E+00 1.1107478E+00 1.9522317E+00
 5.6129223E+00 1.1405024E+00 1.9489758E+00
 5.5561558E+00 1.1705311E+00 1.9417166E+00
 5.5007757E+00 1.2004645E+00 1.9298672E+00
 5.4471218E+00 1.2299812E+00 1.9131600E+00
 5.3954024E+00 1.2588129E+00 1.8916002E+00
 6.0774893E+00 9.7588271E-01 1.9293550E+00
 6.0213571E+00 9.9999988E-01 1.9332144E+00
 5.9645186E+00 1.0250168E+00 1.9369399E+00
 5.9068978E+00 1.0510532E+00 1.9404240E+00
 5.8486648E+00 1.0781257E+00 1.9434169E+00
 5.7901926E+00 1.1061951E+00 1.9454882E+00
 5.7319406E+00 1.1351508E+00 1.9460182E+00
 5.6743257E+00 1.1647947E+00 1.9442446E+00
 5.6176601E+00 1.1948475E+00 1.9393540E+00
 5.5621782E+00 1.2249863E+00 1.9306038E+00
 5.5080958E+00 1.2549108E+00 1.9174384E+00
 5.4555820E+00 1.2843746E+00 1.8995487E+00
 6.0774893E+00 1.0241170E+00 1.9293550E+00
 6.0215205E+00 1.0489954E+00 1.9319144E+00
 5.9650190E+00 1.0748392E+00 1.9342395E+00
 5.9079174E+00 1.1016608E+00 1.9362163E+00
 5.8503891E+00 1.1294285E+00 1.9376026E+00
 5.7927988E+00 1.1580697E+00 1.9379913E+00
 5.7355861E+00 1.1874448E+00 1.9368075E+00
 5.6791401E+00 1.2173425E+00 1.9333522E+00
 5.6237410E+00 1.2475044E+00 1.9268803E+00
 5.5695834E+00 1.2776812E+00 1.9166933E+00
 5.5168143E+00 1.3076735E+00 1.9022324E+00
 6.0776481E+00 1.0721609E+00 1.9268496E+00
 6.0220066E+00 1.0975934E+00 1.9280456E+00
 5.9660067E+00 1.1240366E+00 1.9289055E+00
 5.9095866E+00 1.1513965E+00 1.9293227E+00
 5.8529167E+00 1.1795983E+00 1.9290703E+00
 5.7963444E+00 1.2085465E+00 1.9277708E+00
 5.7402798E+00 1.2380945E+00 1.9248960E+00
 5.6850813E+00 1.2680558E+00 1.9198017E+00
 5.6310204E+00 1.2982505E+00 1.9117837E+00
 5.5783227E+00 1.3285517E+00 1.9001544E+00
 6.0779617E+00 1.1196409E+00 1.9218972E+00
 6.0228030E+00 1.1454125E+00 1.9216999E+00
 5.9674564E+00 1.1722214E+00 1.9210674E+00
 5.9118613E+00 1.1998725E+00 1.9199128E+00
 5.8561783E+00 1.2282578E+00 1.9180303E+00
 5.8007294E+00 1.2572771E+00 1.9150723E+00
 5.7458955E+00 1.2868132E+00 1.9105479E+00
 5.6920496E+00 1.3167616E+00 1.9038383E+00
 5.6395827E+00 1.3470808E+00 1.8942395E+00
 6.0784227E+00 1.1662054E+00 1.9146107E+00
 6.0238900E+00 1.1921023E+00 1.9130239E+00
 5.9693309E+00 1.2190475E+00 1.9109084E+00
 5.9146810E+00 1.2467570E+00 1.9082067E+00
 5.8600858E+00 1.2751052E+00 1.9047350E+00
 5.8058459E+00 1.3040226E+00 1.9001647E+00
 5.7523803E+00 1.3334767E+00 1.8940095E+00
 5.7002610E+00 1.3635122E+00 1.8856224E+00
 6.0790198E+00 1.2115370E+00 1.9051505E+00
 6.0252406E+00 1.2373551E+00 1.9022095E+00
 5.9715814E+00 1.2642244E+00 1.8986524E+00
 5.9179717E+00 1.2917900E+00 1.8944569E+00
 5.8645514E+00 1.3199453E+00 1.8894493E+00
 5.8116878E+00 1.3487047E+00 1.8832843E+00
 5.7600757E+00 1.3781926E+00 1.8754115E+00
 6.0797389E+00 1.2553617E+00 1.8937155E+00
 6.0268196E+00 1.2809166E+00 1.8894817E+00
 5.9741511E+00 1.3075302E+00 1.8845480E+00
 5.9216696E+00 1.3348169E+00 1.8789183E+00
 5.8696148E+00 1.3627422E+00 1.8723922E+00
 5.8187122E+00 1.3914831E+00 1.8645251E+00
 6.0805605E+00 1.2974569E+00 1.8805307E+00
 6.0285872E+00 1.3225962E+00 1.8750835E+00
 5.9769930E+00 1.3488403E+00 1.8688403E+00
 5.9258509E+00 1.3758356E+00 1.8617922E+00
 5.8758373E+00 1.4037026E+00 1.8536203E+00
 6.0814622E+00 1.3376522E+00 1.8658369E+00
 6.0305147E+00 1.3622963E+00 1.8592492E+00
 5.9802231E+00 1.3881876E+00 1.8517091E+00
 5.9311672E+00 1.4150987E+00 1.8430984E+00
 6.0824264E+00 1.3758488E+00 1.8498699E+00
 6.0326969E+00 1.4000401E+00 1.8421637E+00
 5.9845360E+00 1.4258503E+00 1.8331528E+00
 6.0835278E+00 1.4120609E+00 1.8328219E+00
 6.0358771E+00 1.4361545E+00 1.8237939E+00
 6.0851356E+00 1.4463976E+00 1.8148200E+00
 6.1330826E+00 1.4583847E+00 1.8050690E+00
 6.1331019E+00 1.4257866E+00 1.8228070E+00
 6.1331041E+00 1.3910701E+00 1.8398906E+00
 6.1331075E+00 1.3541820E+00 1.8561213E+00
 6.1331134E+00 1.3152327E+00 1.8712362E+00
 6.1331203E+00 1.2743488E+00 1.8849803E+00
 6.1331275E+00 1.2316774E+00 1.8971140E+00
 6.1331345E+00 1.1874141E+00 1.9074094E+00
 6.1331407E+00 1.1418062E+00 1.9156585E+00
 6.1331455E+00 1.0951443E+00 1.9216859E+00
 6.1331486E+00 1.0477570E+00 1.9253581E+00
 6.1331497E+00 9.9999986E-01 1.9265917E+00
 6.1331486E+00 9.5224270E-01 1.9253581E+00
 6.1331455E+00 9.0485542E-01 1.9216859E+00
 6.1331406E+00 8.5819358E-01 1.9156584E+00
 6.1331344E+00 8.1258574E-01 1.9074094E+00
 6.1331274E+00 7.6832242E-01 1.8971140E+00
 6.1331203E+00 7.2565108E-01 1.8849802E+00
 6.1331133E+00 6.8476716E-01 1.8712361E+00
 6.1331075E+00 6.4581788E-01 1.8561212E+00
 6.1331040E+00 6.0892982E-01 1.8398905E+00
 6.1331019E+00 5.7421334E-01 1.8228069E+00
 6.1330826E+00 5.4161523E-01 1.8050689E+00
 6.1762354E+00 5.2276185E-01 1.7916027E+00
 6.2236831E+00 5.3366117E-01 1.7956036E+00
 6.2734881E+00 5.4512076E-01 1.7997841E+00
 6.3252977E+00 5.5717227E-01 1.8040456E+00
 6.3789384E+00 5.6989694E-01 1.8082555E+00
 6.4342282E+00 5.8340495E-01 1.8122425E+00
 6.4909813E+00 5.9782742E-01 1.8157967E+00
 6.5489586E+00 6.1329637E-01 1.8186655E+00
 6.6078689E+00 6.2993893E-01 1.8205617E+00
 6.6673730E+00 6.4786604E-01 1.8211746E+00
 6.7270896E+00 6.6716174E-01 1.8201861E+00
 6.7866015E+00 6.8787222E-01 1.8172917E+00
 6.8454636E+00 7.0999596E-01 1.8122230E+00
 6.9032141E+00 7.3347746E-01 1.8047701E+00
 6.9593899E+00 7.5820530E-01 1.7948004E+00
 7.0135463E+00 7.8401611E-01 1.7822704E+00
 7.0652787E+00 8.1070326E-01 1.7672284E+00
 7.1142416E+00 8.3803056E-01 1.7498088E+00
 7.1601638E+00 8.6574804E-01 1.7302184E+00
 7.2028537E+00 8.9360574E-01 1.7087192E+00
 7.2421743E+00 9.2134875E-01 1.6856264E+00
 7.2780225E+00 9.4871363E-01 1.6613034E+00
 7.3102845E+00 9.7538039E-01 1.6361956E+00
 6.1809639E+00 1.4440025E+00 1.8104588E+00
 6.2299619E+00 1.4313689E+00 1.8147849E+00
 6.2808171E+00 1.4185955E+00 1.8190164E+00
 6.3334271E+00 1.4052752E+00 1.8232313E+00
 6.3877155E+00 1.3912203E+00 1.8273308E+00
 6.4435531E+00 1.3763134E+00 1.8311283E+00
 6.5007376E+00 1.3604388E+00 1.8343912E+00
 6.5590104E+00 1.3434821E+00 1.8368481E+00
 6.6180577E+00 1.3253404E+00 1.8381967E+00
 6.6775208E+00 1.3059322E+00 1.8381179E+00
 6.7370029E+00 1.2852089E+00 1.8362929E+00
 6.7960769E+00 1.2631642E+00 1.8324263E+00
 6.8542948E+00 1.2398407E+00 1.8262681E+00
 6.9112000E+00 1.2153337E+00 1.8176363E+00
 6.9663434E+00 1.1897885E+00 1.8064328E+00
 7.0193032E+00 1.1633936E+00 1.7926524E+00
 7.0697049E+00 1.1363687E+00 1.7763812E+00
 7.1172415E+00 1.1089473E+00 1.7577871E+00
 7.1616837E+00 1.0813581E+00 1.7371032E+00
 7.2028961E+00 1.0538153E+00 1.7145979E+00
 7.2409044E+00 1.0265509E+00 1.6904966E+00
 7.2760777E+00 9.9999992E-01 1.6647995E+00
 6.1825814E+00 1.4097803E+00 1.8282117E+00
 6.2331183E+00 1.3955055E+00 1.8326452E+00
 6.2850519E+00 1.3813677E+00 1.8368173E+00
 6.3385979E+00 1.3666733E+00 1.8409061E+00
 6.3937200E+00 1.3512012E+00 1.8448025E+00
 6.4502980E+00 1.3348246E+00 1.8483062E+00
 6.5081173E+00 1.3174385E+00 1.8511640E+00
 6.5668939E+00 1.2989465E+00 1.8530855E+00
 6.6262898E+00 1.2792701E+00 1.8537536E+00
 6.6859234E+00 1.2583586E+00 1.8528403E+00
 6.7453794E+00 1.2361999E+00 1.8500274E+00
 6.8042177E+00 1.2128269E+00 1.8450296E+00
 6.8619844E+00 1.1883230E+00 1.8376184E+00
 6.9182258E+00 1.1628207E+00 1.8276419E+00
 6.9725056E+00 1.1364959E+00 1.8150397E+00
 7.0244245E+00 1.1095567E+00 1.7998472E+00
 7.0736403E+00 1.0822270E+00 1.7821899E+00
 7.1198933E+00 1.0547238E+00 1.7622640E+00
 7.1630396E+00 1.0272428E+00 1.7402984E+00
 7.2031540E+00 9.9999992E-01 1.7164542E+00
 7.2409044E+00 9.7344899E-01 1.6904966E+00
 6.1836834E+00 1.3737189E+00 1.8450618E+00
 6.2352768E+00 1.3580931E+00 1.8493230E+00
 6.2882168E+00 1.3425667E+00 1.8533114E+00
 6.3426594E+00 1.3264637E+00 1.8571478E+00
 6.3986042E+00 1.3095345E+00 1.8607118E+00
 6.4559105E+00 1.2916625E+00 1.8637811E+00
 6.5143424E+00 1.2727554E+00 1.8660841E+00
 6.5735903E+00 1.2527382E+00 1.8673134E+00
 6.6332911E+00 1.2315602E+00 1.8671401E+00
 6.6930416E+00 1.2092041E+00 1.8652322E+00
 6.7524097E+00 1.1856950E+00 1.8612774E+00
 6.8109447E+00 1.1611054E+00 1.8550070E+00
 6.8681904E+00 1.1355562E+00 1.8462193E+00
 6.9237004E+00 1.1092128E+00 1.8347980E+00
 6.9770575E+00 1.0822738E+00 1.8207226E+00
 7.0278916E+00 1.0549553E+00 1.8040692E+00
 7.0759076E+00 1.0274679E+00 1.7849940E+00
 7.1209309E+00 9.9999992E-01 1.7636943E+00
 7.1630396E+00 9.7275706E-01 1.7402984E+00
 7.2028961E+00 9.4618456E-01 1.7145979E+00
 6.1846500E+00 1.3356991E+00 1.8608455E+00
 6.2371854E+00 1.3187766E+00 1.8647800E+00
 6.2910036E+00 1.3018866E+00 1.8684329E+00
 6.3462542E+00 1.2843639E+00 1.8718743E+00
 6.4029154E+00 1.2659805E+00 1.8749521E+00
 6.4608306E+00 1.2466301E+00 1.8774257E+00
 6.5197379E+00 1.2262406E+00 1.8790064E+00
 6.5793033E+00 1.2047620E+00 1.8793742E+00
 6.6391411E+00 1.1821744E+00 1.8781944E+00
 6.6988303E+00 1.1584962E+00 1.8751380E+00
 6.7579269E+00 1.1337903E+00 1.8699062E+00
 6.8159757E+00 1.1081664E+00 1.8622544E+00
 6.8725252E+00 1.0817786E+00 1.8520139E+00
 6.9271449E+00 1.0548165E+00 1.8391074E+00
 6.9794462E+00 1.0274887E+00 1.8235543E+00
 7.0291040E+00 9.9999993E-01 1.8054629E+00
 7.0759076E+00 9.7253196E-01 1.7849940E+00
 7.1198933E+00 9.4527602E-01 1.7622640E+00
 7.1616837E+00 9.1864171E-01 1.7371032E+00
 6.1855574E+00 1.2957041E+00 1.8753652E+00
 6.2389385E+00 1.2775295E+00 1.8788259E+00
 6.2935256E+00 1.2592883E+00 1.8819975E+00
 6.3494545E+00 1.2403675E+00 1.8848881E+00
 6.4066884E+00 1.2205622E+00 1.8873177E+00
 6.4650481E+00 1.1997872E+00 1.8890275E+00
 6.5242486E+00 1.1779931E+00 1.8897166E+00
 6.5839335E+00 1.1551589E+00 1.8890583E+00
 6.6436992E+00 1.1312979E+00 1.8867190E+00
 6.7031121E+00 1.1064649E+00 1.8823808E+00
 6.7617233E+00 1.0807591E+00 1.8757661E+00
 6.8190807E+00 1.0543233E+00 1.8666612E+00
 6.8747464E+00 1.0273367E+00 1.8549347E+00
 6.9283163E+00 9.9999993E-01 1.8405484E+00
 6.9794462E+00 9.7251118E-01 1.8235543E+00
 7.0278916E+00 9.4504458E-01 1.8040693E+00
 7.0736403E+00 9.1777287E-01 1.7821899E+00
 7.1172415E+00 8.9105254E-01 1.7577871E+00
 6.1863868E+00 1.2538321E+00 1.8883895E+00
 6.2405066E+00 1.2344473E+00 1.8912349E+00
 6.2957353E+00 1.2148919E+00 1.8937742E+00
 6.3521964E+00 1.1946207E+00 1.8959552E+00
 6.4098371E+00 1.1734610E+00 1.8975721E+00
 6.4684574E+00 1.1513513E+00 1.8983528E+00
 6.5277513E+00 1.1282692E+00 1.8979892E+00
 6.5873444E+00 1.1042246E+00 1.8961546E+00
 6.6468203E+00 1.0792653E+00 1.8925247E+00
 6.7057398E+00 1.0534808E+00 1.8868001E+00
 6.7636561E+00 1.0270029E+00 1.8787316E+00
 6.8201296E+00 9.9999993E-01 1.8681409E+00
 6.8747464E+00 9.7266317E-01 1.8549347E+00
 6.9271449E+00 9.4518336E-01 1.8391074E+00
 6.9770575E+00 9.1772610E-01 1.8207226E+00
 7.0244245E+00 8.9044317E-01 1.7998473E+00
 7.0697049E+00 8.6363114E-01 1.7763813E+00
 6.1871144E+00 1.2102518E+00 1.8996826E+00
 6.2418489E+00 1.1897169E+00 1.9017737E+00
 6.2975761E+00 1.1689123E+00 1.9035295E+00
 6.3544080E+00 1.1473715E+00 1.9048436E+00
 6.4122765E+00 1.1249596E+00 1.9054894E+00
 6.4709629E+00 1.1016425E+00 1.9051865E+00
 6.5301440E+00 1.0774266E+00 1.9036260E+00
 6.5894325E+00 1.0523537E+00 1.9004886E+00
 6.6484054E+00 1.0265045E+00 1.8954664E+00
 6.7066253E+00 9.9999994E-01 1.8882861E+00
 6.7636561E+00 9.7299695E-01 1.8787316E+00
 6.8190807E+00 9.4567657E-01 1.8666612E+00
 6.8725252E+00 9.1822124E-01 1.8520139E+00
 6.9237004E+00 8.9078710E-01 1.8347980E+00
 6.9725057E+00 8.6350398E-01 1.8150397E+00
 7.0193032E+00 8.3660624E-01 1.7926524E+00
 6.1877199E+00 1.1651837E+00 1.9090236E+00
 6.2429301E+00 1.1435873E+00 1.9102255E+00
 6.2989999E+00 1.1216299E+00 1.9110522E+00
 6.3560307E+00 1.0989350E+00 1.9113511E+00
 6.4139402E+00 1.0754092E+00 1.9108810E+00
 6.4724944E+00 1.0510482E+00 1.9093590E+00
 6.5313576E+00 1.0258876E+00 1.9064824E+00
 6.5901353E+00 9.9999993E-01 1.9019463E+00
 6.6484054E+00 9.7349541E-01 1.8954664E+00
 6.7057398E+00 9.4651910E-01 1.8868001E+00
 6.7617233E+00 9.1924077E-01 1.8757662E+00
 6.8159757E+00 8.9183345E-01 1.8622544E+00
 6.8681904E+00 8.6444362E-01 1.8462193E+00
 6.9182258E+00 8.3717920E-01 1.8276420E+00
 6.9663434E+00 8.1021131E-01 1.8064329E+00
 6.1881883E+00 1.1188988E+00 1.9162174E+00
 6.2437228E+00 1.0963588E+00 1.9164057E+00
 6.2999701E+00 1.0733776E+00 1.9161697E+00
 6.3570217E+00 1.0496773E+00 1.9153215E+00
 6.4147834E+00 1.0252096E+00 1.9136118E+00
 6.4730097E+00 9.9999992E-01 1.9107622E+00
 6.5313576E+00 9.7411227E-01 1.9064824E+00
 6.5894325E+00 9.4764620E-01 1.9004886E+00
 6.6468203E+00 9.2073459E-01 1.8925247E+00
 6.7031121E+00 8.9353494E-01 1.8823808E+00
 6.7579269E+00 8.6620954E-01 1.8699063E+00
 6.8109447E+00 8.3889445E-01 1.8550070E+00
 6.8619844E+00 8.1167682E-01 1.8376184E+00
 6.9112001E+00 7.8466618E-01 1.8176363E+00
 6.1885074E+00 1.0717106E+00 1.9211063E+00
 6.2442067E+00 1.0483726E+00 1.9201729E+00
 6.3004615E+00 1.0245266E+00 1.9187601E+00
 6.3573550E+00 9.9999989E-01 1.9166562E+00
 6.4147834E+00 9.7479019E-01 1.9136118E+00
 6.4724944E+00 9.4895169E-01 1.9093590E+00
 6.5301440E+00 9.2257325E-01 1.9036260E+00
 6.5873444E+00 8.9577521E-01 1.8961547E+00
 6.6436992E+00 8.6870193E-01 1.8867190E+00
 6.6988303E+00 8.4150363E-01 1.8751381E+00
 6.7524097E+00 8.1430486E-01 1.8612775E+00
 6.8042177E+00 7.8717291E-01 1.8450297E+00
 6.8542949E+00 7.6015914E-01 1.8262682E+00
 6.1886690E+00 1.0239661E+00 1.9235794E+00
 6.2443694E+00 9.9999987E-01 1.9214388E+00
 6.3004615E+00 9.7547319E-01 1.9187601E+00
 6.3570217E+00 9.5032246E-01 1.9153215E+00
 6.4139401E+00 9.2459057E-01 1.9108810E+00
 6.4709629E+00 8.9835732E-01 1.9051866E+00
 6.5277513E+00 8.7173063E-01 1.8979892E+00
 6.5839335E+00 8.4484097E-01 1.8890583E+00
 6.6391411E+00 8.1782544E-01 1.8781944E+00
 6.6930416E+00 7.9079578E-01 1.8652323E+00
 6.7453794E+00 7.6379999E-01 1.8500275E+00
 6.7960769E+00 7.3683567E-01 1.8324263E+00
 6.1886690E+00 9.7603364E-01 1.9235793E+00
 6.2442066E+00 9.5162714E-01 1.9201729E+00
 6.2999700E+00 9.2662219E-01 1.9161697E+00
 6.3560306E+00 9.0106480E-01 1.9113511E+00
 6.4122764E+00 8.7504019E-01 1.9054894E+00
 6.4684574E+00 8.4864854E-01 1.8983529E+00
 6.5242486E+00 8.2200674E-01 1.8897167E+00
 6.5793033E+00 7.9523786E-01 1.8793742E+00
 6.6332911E+00 7.6843969E-01 1.8671402E+00
 6.6859234E+00 7.4164120E-01 1.8528404E+00
 6.7370029E+00 7.1479090E-01 1.8362930E+00
 6.1885073E+00 9.2828911E-01 1.9211063E+00
 6.2437227E+00 9.0364099E-01 1.9164057E+00
 6.2989998E+00 8.7836985E-01 1.9110522E+00
 6.3544080E+00 8.5262826E-01 1.9048436E+00
 6.4098370E+00 8.2653883E-01 1.8975721E+00
 6.4650481E+00 8.0021262E-01 1.8890276E+00
 6.5197379E+00 7.7375926E-01 1.8790064E+00
 6.5735903E+00 7.4726160E-01 1.8673135E+00
 6.6262898E+00 7.2072978E-01 1.8537537E+00
 6.6775209E+00 6.9406763E-01 1.8381180E+00
 6.1881882E+00 8.8110094E-01 1.9162174E+00
 6.2429300E+00 8.5641252E-01 1.9102255E+00
 6.2975760E+00 8.3108754E-01 1.9035295E+00
 6.3521963E+00 8.0537909E-01 1.8959552E+00
 6.4066883E+00 7.7943758E-01 1.8873177E+00
 6.4608306E+00 7.5336974E-01 1.8774258E+00
 6.5143424E+00 7.2724447E-01 1.8660842E+00
 6.5668939E+00 7.0105329E-01 1.8530856E+00
 6.6180578E+00 6.7465945E-01 1.8381968E+00
 6.1877198E+00 8.3481606E-01 1.9090236E+00
 6.2418488E+00 8.1028289E-01 1.9017736E+00
 6.2957352E+00 7.8510796E-01 1.8937742E+00
 6.3494543E+00 7.5963228E-01 1.8848881E+00
 6.4029153E+00 7.3401930E-01 1.8749521E+00
 6.4559105E+00 7.0833734E-01 1.8637812E+00
 6.5081173E+00 6.8256132E-01 1.8511641E+00
 6.5590104E+00 6.5651770E-01 1.8368482E+00
 6.1871143E+00 7.8974802E-01 1.8996826E+00
 6.2405065E+00 7.6555253E-01 1.8912349E+00
 6.2935255E+00 7.4071153E-01 1.8819975E+00
 6.3462541E+00 7.1563590E-01 1.8718743E+00
 6.3986041E+00 6.9046531E-01 1.8607118E+00
 6.4502980E+00 6.6517519E-01 1.8483062E+00
 6.5007375E+00 6.3956101E-01 1.8343913E+00
 6.1863866E+00 7.4616774E-01 1.8883895E+00
 6.2389384E+00 7.2247032E-01 1.8788259E+00
 6.2910034E+00 6.9811323E-01 1.8684329E+00
 6.3426593E+00 6.7353612E-01 1.8571478E+00
 6.3937199E+00 6.4879865E-01 1.8448026E+00
 6.4435530E+00 6.2368641E-01 1.8311284E+00
 6.1855573E+00 7.0429578E-01 1.8753652E+00
 6.2371852E+00 6.8122328E-01 1.8647800E+00
 6.2882167E+00 6.5743310E-01 1.8533114E+00
 6.3385977E+00 6.3332658E-01 1.8409061E+00
 6.3877154E+00 6.0877956E-01 1.8273308E+00
 6.1846499E+00 6.6430080E-01 1.8608455E+00
 6.2352767E+00 6.4190676E-01 1.8493230E+00
 6.2850518E+00 6.1863218E-01 1.8368174E+00
 6.3334270E+00 5.9472469E-01 1.8232313E+00
 6.1836833E+00 6.2628098E-01 1.8450618E+00
 6.2331182E+00 6.0449433E-01 1.8326452E+00
 6.2808170E+00 5.8140437E-01 1.8190164E+00
 6.1825813E+00 5.9021956E-01 1.8282116E+00
 6.2299618E+00 5.6863102E-01 1.8147849E+00
 6.1809638E+00 5.5599736E-01 1.8104588E+00
 6.1063483E+00 1.5105605E+00 1.7747482E+00
 6.0768331E+00 1.5362994E+00 1.7592334E+00
 6.0459634E+00 1.5628906E+00 1.7421170E+00
 6.0138464E+00 1.5901811E+00 1.7233398E+00
 5.9806204E+00 1.6180369E+00 1.7028211E+00
 5.9464398E+00 1.6463158E+00 1.6804617E+00
 5.9114733E+00 1.6748630E+00 1.6561456E+00
 5.8759296E+00 1.7034741E+00 1.6297653E+00
 5.8400614E+00 1.7318937E+00 1.6012260E+00
 5.8041543E+00 1.7598128E+00 1.5704587E+00
 5.7685112E+00 1.7868770E+00 1.5374327E+00
 5.7334328E+00 1.8126985E+00 1.5021712E+00
 5.6992008E+00 1.8368800E+00 1.4647653E+00
 5.6660678E+00 1.8590411E+00 1.4253828E+00
 5.6342525E+00 1.8788462E+00 1.3842703E+00
 5.6039402E+00 1.8960301E+00 1.3417464E+00
 5.5752839E+00 1.9104169E+00 1.2981859E+00
 5.5484045E+00 1.9219291E+00 1.2539954E+00
 5.5233908E+00 1.9305873E+00 1.2095873E+00
 5.5002998E+00 1.9364976E+00 1.1653587E+00
 5.4791787E+00 1.9398347E+00 1.1217015E+00
 5.4600683E+00 1.9408220E+00 1.0789984E+00
 5.4430776E+00 1.9397362E+00 1.0378392E+00
 4.9722723E+00 1.0696985E+00 1.6134459E+00
 4.9678021E+00 1.1148756E+00 1.6003773E+00
 4.9648567E+00 1.1611769E+00 1.5854027E+00
 4.9639317E+00 1.2087889E+00 1.5688096E+00
 4.9653038E+00 1.2576206E+00 1.5505995E+00
 4.9691960E+00 1.3074592E+00 1.5307282E+00
 4.9758133E+00 1.3580254E+00 1.5091694E+00
 4.9853409E+00 1.4089835E+00 1.4859308E+00
 4.9979316E+00 1.4599483E+00 1.4610561E+00
 5.0136941E+00 1.5104926E+00 1.4346262E+00
 5.0326833E+00 1.5601576E+00 1.4067597E+00
 5.0548909E+00 1.6084644E+00 1.3776130E+00
 5.0802400E+00 1.6549284E+00 1.3473788E+00
 5.1085800E+00 1.6990747E+00 1.3162826E+00
 5.1396875E+00 1.7404549E+00 1.2845769E+00
 5.1732688E+00 1.7786643E+00 1.2525357E+00
 5.2089690E+00 1.8133603E+00 1.2204440E+00
 5.2463844E+00 1.8442778E+00 1.1885911E+00
 5.2850846E+00 1.8712467E+00 1.1572572E+00
 5.3246241E+00 1.8941978E+00 1.1266988E+00
 5.3645555E+00 1.9131692E+00 1.0970547E+00
 5.4043116E+00 1.9282836E+00 1.0681053E+00
 4.9988789E+00 1.0987867E+00 1.6447157E+00
 4.9957832E+00 1.1461434E+00 1.6317230E+00
 4.9942187E+00 1.1941329E+00 1.6166287E+00
 4.9948027E+00 1.2432274E+00 1.5997967E+00
 4.9978359E+00 1.2933929E+00 1.5812275E+00
 5.0035394E+00 1.3444063E+00 1.5608654E+00
 5.0121076E+00 1.3959508E+00 1.5386796E+00
 5.0237083E+00 1.4476429E+00 1.5146816E+00
 5.0384688E+00 1.4990480E+00 1.4889251E+00
 5.0564638E+00 1.5496918E+00 1.4615063E+00
 5.0777048E+00 1.5990734E+00 1.4325646E+00
 5.1021322E+00 1.6466804E+00 1.4022812E+00
 5.1296100E+00 1.6920061E+00 1.3708768E+00
 5.1599250E+00 1.7345676E+00 1.3386071E+00
 5.1927882E+00 1.7739261E+00 1.3057560E+00
 5.2278447E+00 1.8097068E+00 1.2726263E+00
 5.2646877E+00 1.8416193E+00 1.2395298E+00
 5.3028853E+00 1.8694769E+00 1.2067712E+00
 5.3420072E+00 1.8932130E+00 1.1746109E+00
 5.3816263E+00 1.9128831E+00 1.1431491E+00
 5.4212316E+00 1.9286644E+00 1.1118910E+00
 5.0290936E+00 1.1283554E+00 1.6760200E+00
 5.0274048E+00 1.1773751E+00 1.6629064E+00
 5.0273515E+00 1.2269141E+00 1.6475924E+00
 5.0295874E+00 1.2774127E+00 1.6304067E+00
 5.0344247E+00 1.3288291E+00 1.6113375E+00
 5.0420767E+00 1.3809026E+00 1.5903222E+00
 5.0527227E+00 1.4332678E+00 1.5673316E+00
 5.0665064E+00 1.4854891E+00 1.5423854E+00
 5.0835216E+00 1.5370798E+00 1.5155521E+00
 5.1037998E+00 1.5875181E+00 1.4869493E+00
 5.1272997E+00 1.6362637E+00 1.4567429E+00
 5.1539009E+00 1.6827766E+00 1.4251453E+00
 5.1834008E+00 1.7265378E+00 1.3924123E+00
 5.2155161E+00 1.7670714E+00 1.3588355E+00
 5.2498921E+00 1.8039679E+00 1.3247346E+00
 5.2861178E+00 1.8369081E+00 1.2904447E+00
 5.3237550E+00 1.8656856E+00 1.2562980E+00
 5.3623703E+00 1.8902266E+00 1.2225845E+00
 5.4015405E+00 1.9105998E+00 1.1894139E+00
 5.4407421E+00 1.9270201E+00 1.1563284E+00
 5.0631552E+00 1.1586996E+00 1.7068647E+00
 5.0629925E+00 1.2091577E+00 1.6934709E+00
 5.0646107E+00 1.2600613E+00 1.6778028E+00
 5.0686704E+00 1.3117870E+00 1.6601275E+00
 5.0754726E+00 1.3642407E+00 1.6404086E+00
 5.0852142E+00 1.4171132E+00 1.6185798E+00
 5.0980499E+00 1.4699852E+00 1.5946176E+00
 5.1140892E+00 1.5223670E+00 1.5685552E+00
 5.1333818E+00 1.5737214E+00 1.5404821E+00
 5.1559051E+00 1.6234843E+00 1.5105433E+00
 5.1815549E+00 1.6710853E+00 1.4789378E+00
 5.2101411E+00 1.7159704E+00 1.4459165E+00
 5.2413891E+00 1.7576279E+00 1.4117754E+00
 5.2749466E+00 1.7956135E+00 1.3768477E+00
 5.3104021E+00 1.8295792E+00 1.3414901E+00
 5.3473134E+00 1.8592969E+00 1.3060655E+00
 5.3852461E+00 1.8846842E+00 1.2708970E+00
 5.4237812E+00 1.9058166E+00 1.2361442E+00
 5.4624007E+00 1.9229456E+00 1.2014392E+00
 5.1013186E+00 1.1896906E+00 1.7367701E+00
 5.1028290E+00 1.2413863E+00 1.7229371E+00
 5.1062906E+00 1.2934395E+00 1.7067657E+00