# TIME = 4.000000
VARIABLES = X, Y, Z, FX, FY, FZ
ZONE N=29232 E=58212 F=FEPOINT ET=TRIANGLE
  0.000E+00  9.502E-01  1.243E-03 6.2219596E+00 2.4306461E-01 4.9045542E+00
  0.000E+00  1.000E+00  0.000E+00 6.2106833E+00 1.1460034E-06 4.9108928E+00
  4.318E-02  9.751E-01  3.108E-04 6.2120570E+00 1.1875381E-01 4.7981616E+00
  0.000E+00  1.050E+00  1.243E-03 6.2219587E+00 -2.4306299E-01 4.9045542E+00
  4.318E-02  1.025E+00  3.108E-04 6.2120565E+00 -1.1875167E-01 4.7981616E+00
  0.000E+00  1.100E+00  4.969E-03 6.2594172E+00 -4.8673808E-01 4.8861782E+00
  4.318E-02  1.075E+00  2.796E-03 6.2376257E+00 -3.5652367E-01 4.7859667E+00
  0.000E+00  1.149E+00  1.117E-02 6.3298457E+00 -7.3172103E-01 4.8569143E+00
  4.318E-02  1.124E+00  7.761E-03 6.2919533E+00 -5.9526045E-01 4.7625349E+00
  0.000E+00  1.198E+00  1.983E-02 6.4312605E+00 -9.7663354E-01 4.8166863E+00
  4.318E-02  1.174E+00  1.519E-02 6.3772898E+00 -8.3510676E-01 4.7287503E+00
  0.000E+00  1.247E+00  3.092E-02 6.5428057E+00 -1.2166041E+00 4.7629625E+00
  4.318E-02  1.223E+00  2.507E-02 6.4866641E+00 -1.0727749E+00 4.6832850E+00
  0.000E+00  1.295E+00  4.443E-02 6.6364439E+00 -1.4478915E+00 4.6934209E+00
  4.318E-02  1.271E+00  3.738E-02 6.5937204E+00 -1.3030533E+00 4.6229569E+00
  0.000E+00  1.342E+00  6.031E-02 6.7184680E+00 -1.6760905E+00 4.6129030E+00
  4.318E-02  1.318E+00  5.207E-02 6.6761624E+00 -1.5264129E+00 4.5486828E+00
  0.000E+00  1.388E+00  7.852E-02 6.8805145E+00 -1.9068370E+00 4.5258923E+00
  4.318E-02  1.365E+00  6.913E-02 6.7873197E+00 -1.7507819E+00 4.4668869E+00
  0.000E+00  1.434E+00  9.903E-02 7.0170462E+00 -2.1328361E+00 4.4269570E+00
  4.318E-02  1.411E+00  8.849E-02 6.9626246E+00 -1.9753067E+00 4.3769747E+00
  0.000E+00  1.478E+00  1.218E-01 7.0771496E+00 -2.3489820E+00 4.3134469E+00
  4.318E-02  1.456E+00  1.101E-01 7.0570464E+00 -2.1911100E+00 4.2727278E+00
  0.000E+00  1.521E+00  1.467E-01 7.2393960E+00 -2.5607215E+00 4.1909245E+00
  4.318E-02  1.500E+00  1.340E-01 7.1395809E+00 -2.3995837E+00 4.1568273E+00
  0.000E+00  1.563E+00  1.738E-01 7.2886408E+00 -2.7672512E+00 4.0587089E+00
  4.318E-02  1.543E+00  1.600E-01 7.2878819E+00 -2.6046363E+00 4.0328606E+00
  0.000E+00  1.604E+00  2.029E-01 7.3794837E+00 -2.9657468E+00 3.9153596E+00
  4.318E-02  1.584E+00  1.881E-01 7.3157072E+00 -2.8025182E+00 3.8979949E+00
  0.000E+00  1.643E+00  2.340E-01 7.4352312E+00 -3.1572924E+00 3.7627385E+00
  4.318E-02  1.623E+00  2.182E-01 7.4113395E+00 -2.9930743E+00 3.7532529E+00
  0.000E+00  1.680E+00  2.669E-01 7.4393112E+00 -3.3409429E+00 3.6006722E+00
  4.318E-02  1.662E+00  2.502E-01 7.4258790E+00 -3.1765974E+00 3.5995183E+00
  0.000E+00  1.716E+00  3.018E-01 7.4722164E+00 -3.5162112E+00 3.4296187E+00
  4.318E-02  1.698E+00  2.841E-01 7.4722495E+00 -3.3519763E+00 3.4366096E+00
  0.000E+00  1.750E+00  3.383E-01 7.4258464E+00 -3.6828917E+00 3.2501752E+00
  4.318E-02  1.733E+00  3.198E-01 7.4393451E+00 -3.5191609E+00 3.2653098E+00
  0.000E+00  1.782E+00  3.765E-01 7.4113074E+00 -3.8401855E+00 3.0624022E+00
  4.318E-02  1.766E+00  3.572E-01 7.4352660E+00 -3.6775532E+00 3.0858157E+00
  0.000E+00  1.812E+00  4.163E-01 7.3156755E+00 -3.9882864E+00 2.8674318E+00
  4.318E-02  1.797E+00  3.962E-01 7.3795198E+00 -3.8267256E+00 2.8986093E+00
  0.000E+00  1.840E+00  4.575E-01 7.2878505E+00 -4.1262652E+00 2.6649669E+00
  4.318E-02  1.826E+00  4.367E-01 7.2886775E+00 -3.9668268E+00 2.7046091E+00
  0.000E+00  1.866E+00  5.000E-01 7.1395497E+00 -4.2531160E+00 2.4551655E+00
  4.318E-02  1.853E+00  4.786E-01 7.2394305E+00 -4.0960463E+00 2.5027539E+00
  0.000E+00  1.890E+00  5.438E-01 7.0570170E+00 -4.3717013E+00 2.2418675E+00
  4.318E-02  1.878E+00  5.217E-01 7.0771824E+00 -4.2158081E+00 2.2958035E+00
  0.000E+00  1.912E+00  5.887E-01 6.9625962E+00 -4.4783514E+00 2.0210674E+00
  4.318E-02  1.901E+00  5.661E-01 7.0170792E+00 -4.3267321E+00 2.0845473E+00
  0.000E+00  1.931E+00  6.347E-01 6.7872910E+00 -4.5703594E+00 1.7913387E+00
  4.318E-02  1.921E+00  6.116E-01 6.8805488E+00 -4.4234292E+00 1.8636645E+00
  0.000E+00  1.948E+00  6.815E-01 6.6761341E+00 -4.6540496E+00 1.5617662E+00
  4.318E-02  1.940E+00  6.580E-01 6.7185027E+00 -4.5084843E+00 1.6381482E+00
  0.000E+00  1.963E+00  7.292E-01 6.5936941E+00 -4.7300339E+00 1.3332293E+00
  4.318E-02  1.956E+00  7.052E-01 6.6364779E+00 -4.5871733E+00 1.4151230E+00
  0.000E+00  1.975E+00  7.775E-01 6.4866385E+00 -4.7917594E+00 1.0976174E+00
  4.318E-02  1.969E+00  7.532E-01 6.5428395E+00 -4.6551395E+00 1.1890768E+00
  0.000E+00  1.985E+00  8.264E-01 6.3772629E+00 -4.8382799E+00 8.5444671E-01
  4.318E-02  1.980E+00  8.019E-01 6.4312938E+00 -4.7076529E+00 9.5453808E-01
  0.000E+00  1.992E+00  8.757E-01 6.2919250E+00 -4.8728454E+00 6.0904728E-01
  4.318E-02  1.989E+00  8.510E-01 6.3298782E+00 -4.7469725E+00 7.1516538E-01
  0.000E+00  1.997E+00  9.253E-01 6.2375983E+00 -4.8968206E+00 3.6478173E-01
  4.318E-02  1.995E+00  9.004E-01 6.2594498E+00 -4.7755742E+00 4.7572367E-01
  0.000E+00  2.000E+00  9.751E-01 6.2120306E+00 -4.9093001E+00 1.2150407E-01
  4.318E-02  1.999E+00  9.502E-01 6.2219932E+00 -4.7935370E+00 2.3756248E-01
  0.000E+00  2.000E+00  1.025E+00 6.2120309E+00 -4.9092988E+00 -1.2150130E-01
  4.318E-02  2.000E+00  1.000E+00 6.2107181E+00 -4.7997327E+00 1.5503843E-06
  0.000E+00  1.997E+00  1.075E+00 6.2375992E+00 -4.8968163E+00 -3.6477895E-01
  4.318E-02  1.999E+00  1.050E+00 6.2219938E+00 -4.7935345E+00 -2.3755937E-01
  0.000E+00  1.992E+00  1.124E+00 6.2919266E+00 -4.8728389E+00 -6.0904449E-01
  4.318E-02  1.995E+00  1.100E+00 6.2594511E+00 -4.7755685E+00 -4.7572056E-01
  0.000E+00  1.985E+00  1.174E+00 6.3772653E+00 -4.8382777E+00 -8.5444389E-01
  4.318E-02  1.989E+00  1.149E+00 6.3298801E+00 -4.7469672E+00 -7.1516228E-01
  0.000E+00  1.975E+00  1.223E+00 6.4866416E+00 -4.7917695E+00 -1.0976146E+00
  4.318E-02  1.980E+00  1.198E+00 6.4312962E+00 -4.7076563E+00 -9.5453500E-01
  0.000E+00  1.963E+00  1.271E+00 6.5936979E+00 -4.7300443E+00 -1.3332264E+00
  4.318E-02  1.969E+00  1.247E+00 6.5428424E+00 -4.6551522E+00 -1.1890736E+00
  0.000E+00  1.948E+00  1.318E+00 6.6761384E+00 -4.6540361E+00 -1.5617633E+00
  4.318E-02  1.956E+00  1.295E+00 6.6364812E+00 -4.5871730E+00 -1.4151198E+00
  0.000E+00  1.931E+00  1.365E+00 6.7872959E+00 -4.5703492E+00 -1.7913359E+00
  4.318E-02  1.940E+00  1.342E+00 6.7185066E+00 -4.5084651E+00 -1.6381450E+00
  0.000E+00  1.912E+00  1.411E+00 6.9626007E+00 -4.4783725E+00 -2.0210644E+00
  4.318E-02  1.921E+00  1.388E+00 6.8805535E+00 -4.4234384E+00 -1.8636616E+00
  0.000E+00  1.890E+00  1.456E+00 7.0570225E+00 -4.3716973E+00 -2.2418646E+00
  4.318E-02  1.901E+00  1.434E+00 7.0170842E+00 -4.3267471E+00 -2.0845442E+00
  0.000E+00  1.866E+00  1.500E+00 7.1395556E+00 -4.2531063E+00 -2.4551625E+00
  4.318E-02  1.878E+00  1.478E+00 7.0771878E+00 -4.2157911E+00 -2.2958001E+00
  0.000E+00  1.840E+00  1.543E+00 7.2878565E+00 -4.1262820E+00 -2.6649643E+00
  4.318E-02  1.853E+00  1.521E+00 7.2394363E+00 -4.0960562E+00 -2.5027511E+00
  0.000E+00  1.812E+00  1.584E+00 7.3156819E+00 -3.9882819E+00 -2.8674287E+00
  4.318E-02  1.826E+00  1.563E+00 7.2886834E+00 -3.9668330E+00 -2.7046060E+00
  0.000E+00  1.782E+00  1.623E+00 7.4113142E+00 -3.8401933E+00 -3.0623997E+00
  4.318E-02  1.797E+00  1.604E+00 7.3795258E+00 -3.8267242E+00 -2.8986062E+00
  0.000E+00  1.750E+00  1.662E+00 7.4258531E+00 -3.6828964E+00 -3.2501725E+00
  4.318E-02  1.766E+00  1.643E+00 7.4352719E+00 -3.6775628E+00 -3.0858128E+00
  0.000E+00  1.716E+00  1.698E+00 7.4722224E+00 -3.5162144E+00 -3.4296160E+00
  4.318E-02  1.733E+00  1.680E+00 7.4393511E+00 -3.5191613E+00 -3.2653066E+00
  0.000E+00  1.680E+00  1.733E+00 7.4393165E+00 -3.3409472E+00 -3.6006692E+00
  4.318E-02  1.698E+00  1.716E+00 7.4722559E+00 -3.3519843E+00 -3.4366071E+00
  0.000E+00  1.643E+00  1.766E+00 7.4352368E+00 -3.1572949E+00 -3.7627356E+00
  4.318E-02  1.662E+00  1.750E+00 7.4258853E+00 -3.1766011E+00 -3.5995155E+00
  0.000E+00  1.604E+00  1.797E+00 7.3794908E+00 -2.9657535E+00 -3.9153577E+00
  4.318E-02  1.623E+00  1.782E+00 7.4113450E+00 -2.9930791E+00 -3.7532500E+00
  0.000E+00  1.563E+00  1.826E+00 7.2886483E+00 -2.7672593E+00 -4.0587080E+00
  4.318E-02  1.584E+00  1.812E+00 7.3157111E+00 -2.8025191E+00 -3.8979913E+00
  0.000E+00  1.521E+00  1.853E+00 7.2394006E+00 -2.5607286E+00 -4.1909234E+00
  4.318E-02  1.543E+00  1.840E+00 7.2878853E+00 -2.6046374E+00 -4.0328570E+00
  0.000E+00  1.478E+00  1.878E+00 7.0771508E+00 -2.3489799E+00 -4.3134431E+00
  4.318E-02  1.500E+00  1.866E+00 7.1395849E+00 -2.3995872E+00 -4.1568246E+00
  0.000E+00  1.434E+00  1.901E+00 7.0170467E+00 -2.1328268E+00 -4.4269499E+00
  4.318E-02  1.456E+00  1.890E+00 7.0570510E+00 -2.1911214E+00 -4.2727272E+00
  0.000E+00  1.388E+00  1.921E+00 6.8805176E+00 -1.9068272E+00 -4.5258839E+00
  4.318E-02  1.411E+00  1.912E+00 6.9626287E+00 -1.9753207E+00 -4.3769758E+00
  0.000E+00  1.342E+00  1.940E+00 6.7184723E+00 -1.6760953E+00 -4.6128974E+00
  4.318E-02  1.365E+00  1.931E+00 6.7873227E+00 -1.7507905E+00 -4.4668876E+00
  0.000E+00  1.295E+00  1.956E+00 6.6364461E+00 -1.4479131E+00 -4.6934207E+00
  4.318E-02  1.318E+00  1.948E+00 6.6761649E+00 -1.5264105E+00 -4.5486810E+00
  0.000E+00  1.247E+00  1.969E+00 6.5428050E+00 -1.2166348E+00 -4.7629679E+00
  4.318E-02  1.271E+00  1.963E+00 6.5937220E+00 -1.3030417E+00 -4.6229513E+00
  0.000E+00  1.198E+00  1.980E+00 6.4312586E+00 -9.7666050E-01 -4.8166956E+00
  4.318E-02  1.223E+00  1.975E+00 6.4866638E+00 -1.0727618E+00 -4.6832763E+00
  0.000E+00  1.149E+00  1.989E+00 6.3298440E+00 -7.3173903E-01 -4.8569257E+00
  4.318E-02  1.174E+00  1.985E+00 6.3772870E+00 -8.3509806E-01 -4.7287397E+00
  0.000E+00  1.100E+00  1.995E+00 6.2594156E+00 -4.8674762E-01 -4.8861905E+00
  4.318E-02  1.124E+00  1.992E+00 6.2919487E+00 -5.9525846E-01 -4.7625235E+00
  0.000E+00  1.050E+00  1.999E+00 6.2219567E+00 -2.4306765E-01 -4.9045668E+00
  4.318E-02  1.075E+00  1.997E+00 6.2376201E+00 -3.5652507E-01 -4.7859550E+00
  0.000E+00  1.000E+00  2.000E+00 6.2106804E+00 -2.7425470E-06 -4.9109054E+00
  4.318E-02  1.025E+00  2.000E+00 6.2120503E+00 -1.1875505E-01 -4.7981499E+00
  0.000E+00  9.502E-01  1.999E+00 6.2219556E+00 2.4306285E-01 -4.9045668E+00
  4.318E-02  9.751E-01  2.000E+00 6.2120498E+00 1.1874987E-01 -4.7981499E+00
  0.000E+00  9.004E-01  1.995E+00 6.2594135E+00 4.8674242E-01 -4.8861905E+00
  4.318E-02  9.253E-01  1.997E+00 6.2376185E+00 3.5652029E-01 -4.7859550E+00
  0.000E+00  8.510E-01  1.989E+00 6.3298408E+00 7.3173384E-01 -4.8569257E+00
  4.318E-02  8.757E-01  1.992E+00 6.2919460E+00 5.9525305E-01 -4.7625236E+00
  0.000E+00  8.019E-01  1.980E+00 6.4312543E+00 9.7665564E-01 -4.8166957E+00
  4.318E-02  8.264E-01  1.985E+00 6.3772833E+00 8.3509325E-01 -4.7287398E+00
  0.000E+00  7.532E-01  1.969E+00 6.5427997E+00 1.2166295E+00 -4.7629680E+00
  4.318E-02  7.775E-01  1.975E+00 6.4866590E+00 1.0727567E+00 -4.6832765E+00
  0.000E+00  7.052E-01  1.956E+00 6.6364399E+00 1.4479082E+00 -4.6934209E+00
  4.318E-02  7.292E-01  1.963E+00 6.5937163E+00 1.3030367E+00 -4.6229515E+00
  0.000E+00  6.580E-01  1.940E+00 6.7184652E+00 1.6760901E+00 -4.6128975E+00
  4.318E-02  6.815E-01  1.948E+00 6.6761581E+00 1.5264053E+00 -4.5486812E+00
  0.000E+00  6.116E-01  1.921E+00 6.8805097E+00 1.9068229E+00 -4.5258843E+00
  4.318E-02  6.347E-01  1.931E+00 6.7873151E+00 1.7507859E+00 -4.4668880E+00
  0.000E+00  5.661E-01  1.901E+00 7.0170380E+00 2.1328209E+00 -4.4269502E+00
  4.318E-02  5.887E-01  1.912E+00 6.9626201E+00 1.9753156E+00 -4.3769759E+00
  0.000E+00  5.217E-01  1.878E+00 7.0771414E+00 2.3489755E+00 -4.3134435E+00
  4.318E-02  5.438E-01  1.890E+00 7.0570419E+00 2.1911160E+00 -4.2727277E+00
  0.000E+00  4.786E-01  1.853E+00 7.2393906E+00 2.5607234E+00 -4.1909237E+00
  4.318E-02  5.000E-01  1.866E+00 7.1395752E+00 2.3995829E+00 -4.1568252E+00
  0.000E+00  4.367E-01  1.826E+00 7.2886378E+00 2.7672552E+00 -4.0587084E+00
  4.318E-02  4.575E-01  1.840E+00 7.2878749E+00 2.6046322E+00 -4.0328575E+00
  0.000E+00  3.962E-01  1.797E+00 7.3794799E+00 2.9657480E+00 -3.9153582E+00
  4.318E-02  4.163E-01  1.812E+00 7.3157003E+00 2.8025149E+00 -3.8979920E+00
  0.000E+00  3.572E-01  1.766E+00 7.4352256E+00 3.1572908E+00 -3.7627361E+00
  4.318E-02  3.765E-01  1.782E+00 7.4113339E+00 2.9930735E+00 -3.7532506E+00
  0.000E+00  3.198E-01  1.733E+00 7.4393052E+00 3.3409408E+00 -3.6006698E+00
  4.318E-02  3.383E-01  1.750E+00 7.4258740E+00 3.1765975E+00 -3.5995164E+00
  0.000E+00  2.841E-01  1.698E+00 7.4722109E+00 3.5162098E+00 -3.4296165E+00
  4.318E-02  3.018E-01  1.716E+00 7.4722445E+00 3.3519762E+00 -3.4366077E+00
  0.000E+00  2.502E-01  1.662E+00 7.4258418E+00 3.6828913E+00 -3.2501733E+00
  4.318E-02  2.669E-01  1.680E+00 7.4393397E+00 3.5191601E+00 -3.2653077E+00
  0.000E+00  2.182E-01  1.623E+00 7.4113029E+00 3.8401851E+00 -3.0624002E+00
  4.318E-02  2.340E-01  1.643E+00 7.4352605E+00 3.6775521E+00 -3.0858135E+00
  0.000E+00  1.881E-01  1.584E+00 7.3156709E+00 3.9882856E+00 -2.8674297E+00
  4.318E-02  2.029E-01  1.604E+00 7.3795146E+00 3.8267248E+00 -2.8986071E+00
  0.000E+00  1.600E-01  1.543E+00 7.2878460E+00 4.1262643E+00 -2.6649647E+00
  4.318E-02  1.738E-01  1.563E+00 7.2886727E+00 3.9668262E+00 -2.7046070E+00
  0.000E+00  1.340E-01  1.500E+00 7.1395455E+00 4.2531151E+00 -2.4551634E+00
  4.318E-02  1.467E-01  1.521E+00 7.2394258E+00 4.0960457E+00 -2.5027518E+00
  0.000E+00  1.101E-01  1.456E+00 7.0570131E+00 4.3717004E+00 -2.2418654E+00
  4.318E-02  1.218E-01  1.478E+00 7.0771779E+00 4.2158074E+00 -2.2958014E+00
  0.000E+00  8.849E-02  1.411E+00 6.9625924E+00 4.4783503E+00 -2.0210652E+00
  4.318E-02  9.903E-02  1.434E+00 7.0170750E+00 4.3267313E+00 -2.0845451E+00
  0.000E+00  6.913E-02  1.365E+00 6.7872878E+00 4.5703586E+00 -1.7913367E+00
  4.318E-02  7.852E-02  1.388E+00 6.8805449E+00 4.4234283E+00 -1.8636624E+00
  0.000E+00  5.207E-02  1.318E+00 6.6761312E+00 4.6540488E+00 -1.5617641E+00
  4.318E-02  6.031E-02  1.342E+00 6.7184990E+00 4.5084834E+00 -1.6381461E+00
  0.000E+00  3.738E-02  1.271E+00 6.5936916E+00 4.7300331E+00 -1.3332272E+00
  4.318E-02  4.443E-02  1.295E+00 6.6364744E+00 4.5871723E+00 -1.4151208E+00
  0.000E+00  2.507E-02  1.223E+00 6.4866362E+00 4.7917585E+00 -1.0976153E+00
  4.318E-02  3.092E-02  1.247E+00 6.5428364E+00 4.6551384E+00 -1.1890746E+00
  0.000E+00  1.519E-02  1.174E+00 6.3772608E+00 4.8382788E+00 -8.5444454E-01
  4.318E-02  1.983E-02  1.198E+00 6.4312912E+00 4.7076518E+00 -9.5453588E-01
  0.000E+00  7.761E-03  1.124E+00 6.2919231E+00 4.8728441E+00 -6.0904513E-01
  4.318E-02  1.117E-02  1.149E+00 6.3298761E+00 4.7469714E+00 -7.1516316E-01
  0.000E+00  2.796E-03  1.075E+00 6.2375967E+00 4.8968193E+00 -3.6477958E-01
  4.318E-02  4.969E-03  1.100E+00 6.2594481E+00 4.7755731E+00 -4.7572144E-01
  0.000E+00  3.108E-04  1.025E+00 6.2120294E+00 4.9092988E+00 -1.2150191E-01
  4.318E-02  1.243E-03  1.050E+00 6.2219919E+00 4.7935358E+00 -2.3756023E-01
  0.000E+00  3.108E-04  9.751E-01 6.2120301E+00 4.9092975E+00 1.2150346E-01
  4.318E-02  0.000E+00  1.000E+00 6.2107172E+00 4.7997314E+00 6.9793631E-07
  0.000E+00  2.796E-03  9.253E-01 6.2375989E+00 4.8968149E+00 3.6478112E-01
  4.318E-02  1.243E-03  9.502E-01 6.2219933E+00 4.7935330E+00 2.3756162E-01
  0.000E+00  7.761E-03  8.757E-01 6.2919266E+00 4.8728374E+00 6.0904668E-01
  4.318E-02  4.969E-03  9.004E-01 6.2594509E+00 4.7755670E+00 4.7572282E-01
  0.000E+00  1.519E-02  8.264E-01 6.3772655E+00 4.8382760E+00 8.5444610E-01
  4.318E-02  1.117E-02  8.510E-01 6.3298803E+00 4.7469656E+00 7.1516453E-01
  0.000E+00  2.507E-02  7.775E-01 6.4866421E+00 4.7917677E+00 1.0976168E+00
  4.318E-02  1.983E-02  8.019E-01 6.4312969E+00 4.7076548E+00 9.5453724E-01
  0.000E+00  3.738E-02  7.292E-01 6.5936985E+00 4.7300423E+00 1.3332286E+00
  4.318E-02  3.092E-02  7.532E-01 6.5428436E+00 4.6551506E+00 1.1890759E+00
  0.000E+00  5.207E-02  6.815E-01 6.6761394E+00 4.6540341E+00 1.5617655E+00
  4.318E-02  4.443E-02  7.052E-01 6.6364828E+00 4.5871714E+00 1.4151221E+00
  0.000E+00  6.913E-02  6.347E-01 6.7872973E+00 4.5703472E+00 1.7913380E+00
  4.318E-02  6.031E-02  6.580E-01 6.7185086E+00 4.5084634E+00 1.6381472E+00
  0.000E+00  8.849E-02  5.887E-01 6.9626027E+00 4.4783708E+00 2.0210667E+00
  4.318E-02  7.852E-02  6.116E-01 6.8805557E+00 4.4234366E+00 1.8636638E+00
  0.000E+00  1.101E-01  5.438E-01 7.0570246E+00 4.3716953E+00 2.2418668E+00
  4.318E-02  9.903E-02  5.661E-01 7.0170866E+00 4.3267452E+00 2.0845464E+00
  0.000E+00  1.340E-01  5.000E-01 7.1395580E+00 4.2531044E+00 2.4551647E+00
  4.318E-02  1.218E-01  5.217E-01 7.0771904E+00 4.2157891E+00 2.2958023E+00
  0.000E+00  1.600E-01  4.575E-01 7.2878593E+00 4.1262801E+00 2.6649665E+00
  4.318E-02  1.467E-01  4.786E-01 7.2394391E+00 4.0960542E+00 2.5027532E+00
  0.000E+00  1.881E-01  4.163E-01 7.3156847E+00 3.9882798E+00 2.8674308E+00
  4.318E-02  1.738E-01  4.367E-01 7.2886865E+00 3.9668310E+00 2.7046082E+00
  0.000E+00  2.182E-01  3.765E-01 7.4113169E+00 3.8401909E+00 3.0624017E+00
  4.318E-02  2.029E-01  3.962E-01 7.3795293E+00 3.8267223E+00 2.8986085E+00
  0.000E+00  2.502E-01  3.383E-01 7.4258561E+00 3.6828940E+00 3.2501746E+00
  4.318E-02  2.340E-01  3.572E-01 7.4352757E+00 3.6775611E+00 3.0858151E+00
  0.000E+00  2.841E-01  3.018E-01 7.4722262E+00 3.5162129E+00 3.4296182E+00
  4.318E-02  2.669E-01  3.198E-01 7.4393549E+00 3.5191592E+00 3.2653088E+00
  0.000E+00  3.198E-01  2.669E-01 7.4393209E+00 3.3409463E+00 3.6006717E+00
  4.318E-02  3.018E-01  2.841E-01 7.4722594E+00 3.3519816E+00 3.4366090E+00
  0.000E+00  3.572E-01  2.340E-01 7.4352408E+00 3.1572935E+00 3.7627380E+00
  4.318E-02  3.383E-01  2.502E-01 7.4258888E+00 3.1765981E+00 3.5995175E+00
  0.000E+00  3.962E-01  2.029E-01 7.3794932E+00 2.9657492E+00 3.9153592E+00
  4.318E-02  3.765E-01  2.182E-01 7.4113491E+00 2.9930771E+00 3.7532523E+00
  0.000E+00  4.367E-01  1.738E-01 7.2886499E+00 2.7672523E+00 4.0587085E+00
  4.318E-02  4.163E-01  1.881E-01 7.3157165E+00 2.8025195E+00 3.8979943E+00
  0.000E+00  4.786E-01  1.467E-01 7.2394047E+00 2.5607237E+00 4.1909242E+00
  4.318E-02  4.575E-01  1.600E-01 7.2878909E+00 2.6046385E+00 4.0328601E+00
  0.000E+00  5.217E-01  1.218E-01 7.0771578E+00 2.3489833E+00 4.3134466E+00
  4.318E-02  5.000E-01  1.340E-01 7.1395894E+00 2.3995850E+00 4.1568268E+00
  0.000E+00  5.661E-01  9.903E-02 7.0170537E+00 2.1328389E+00 4.4269567E+00
  4.318E-02  5.438E-01  1.101E-01 7.0570544E+00 2.1911126E+00 4.2727274E+00
  0.000E+00  6.116E-01  7.852E-02 6.8805215E+00 1.9068382E+00 4.5258921E+00
  4.318E-02  5.887E-01  8.849E-02 6.9626318E+00 1.9753086E+00 4.3769742E+00
  0.000E+00  6.580E-01  6.031E-02 6.7184743E+00 1.6760925E+00 4.6129028E+00
  4.318E-02  6.347E-01  6.913E-02 6.7873264E+00 1.7507836E+00 4.4668866E+00
  0.000E+00  7.052E-01  4.443E-02 6.6364493E+00 1.4478934E+00 4.6934207E+00
  4.318E-02  6.815E-01  5.207E-02 6.6761682E+00 1.5264151E+00 4.5486825E+00
  0.000E+00  7.532E-01  3.092E-02 6.5428102E+00 1.2166062E+00 4.7629623E+00
  4.318E-02  7.292E-01  3.738E-02 6.5937254E+00 1.3030553E+00 4.6229566E+00
  0.000E+00  8.019E-01  1.983E-02 6.4312642E+00 9.7663523E-01 4.8166862E+00
  4.318E-02  7.775E-01  2.507E-02 6.4866683E+00 1.0727770E+00 4.6832849E+00
  0.000E+00  8.510E-01  1.117E-02 6.3298486E+00 7.3172304E-01 4.8569142E+00
  4.318E-02  8.264E-01  1.519E-02 6.3772931E+00 8.3510853E-01 4.7287501E+00
  0.000E+00  9.004E-01  4.969E-03 6.2594191E+00 4.8674010E-01 4.8861781E+00
  4.318E-02  8.757E-01  7.761E-03 6.2919557E+00 5.9526281E-01 4.7625348E+00
  4.318E-02  9.253E-01  2.796E-03 6.2376271E+00 3.5652540E-01 4.7859666E+00
  1.000E+01  1.050E+00  1.243E-03 6.2219587E+00 -2.4306299E-01 4.9045542E+00
  1.000E+01  1.000E+00  5.551E-16 6.2106833E+00 1.1460034E-06 4.9108928E+00
  9.957E+00  1.025E+00  3.108E-04 6.2120295E+00 -1.2426184E-01 5.0208308E+00
  1.000E+01  9.502E-01  1.243E-03 6.2219596E+00 2.4306461E-01 4.9045542E+00
  9.957E+00  9.751E-01  3.108E-04 6.2120300E+00 1.2426376E-01 5.0208308E+00
  1.000E+01  9.004E-01  4.969E-03 6.2594191E+00 4.8674010E-01 4.8861781E+00
  9.957E+00  9.253E-01  2.796E-03 6.2375995E+00 3.7306911E-01 5.0080698E+00
  1.000E+01  8.510E-01  1.117E-02 6.3298486E+00 7.3172304E-01 4.8569142E+00
  9.957E+00  8.757E-01  7.761E-03 6.2919271E+00 6.2288771E-01 4.9835504E+00
  1.000E+01  8.019E-01  1.983E-02 6.4312642E+00 9.7663523E-01 4.8166862E+00
  9.957E+00  8.264E-01  1.519E-02 6.3772644E+00 8.7386534E-01 4.9481980E+00
  1.000E+01  7.532E-01  3.092E-02 6.5428102E+00 1.2166062E+00 4.7629623E+00
  9.957E+00  7.775E-01  2.507E-02 6.4866404E+00 1.1225618E+00 4.9006230E+00
  1.000E+01  7.052E-01  4.443E-02 6.6364493E+00 1.4478934E+00 4.6934207E+00
  9.957E+00  7.292E-01  3.738E-02 6.5936989E+00 1.3635253E+00 4.8374953E+00
  1.000E+01  6.580E-01  6.031E-02 6.7184743E+00 1.6760925E+00 4.6129028E+00
  9.957E+00  6.815E-01  5.207E-02 6.6761429E+00 1.5972513E+00 4.7597746E+00
  1.000E+01  6.116E-01  7.852E-02 6.8805215E+00 1.9068382E+00 4.5258921E+00
  9.957E+00  6.347E-01  6.913E-02 6.7873006E+00 1.8320345E+00 4.6741828E+00
  1.000E+01  5.661E-01  9.903E-02 7.0170537E+00 2.1328389E+00 4.4269567E+00
  9.957E+00  5.887E-01  8.849E-02 6.9626035E+00 2.0669789E+00 4.5800974E+00
  1.000E+01  5.217E-01  1.218E-01 7.0771578E+00 2.3489833E+00 4.3134466E+00
  9.957E+00  5.438E-01  1.101E-01 7.0570247E+00 2.2927971E+00 4.4710134E+00
  1.000E+01  4.786E-01  1.467E-01 7.2394047E+00 2.5607237E+00 4.1909242E+00
  9.957E+00  5.000E-01  1.340E-01 7.1395597E+00 2.5109446E+00 4.3497339E+00
  1.000E+01  4.367E-01  1.738E-01 7.2886499E+00 2.7672523E+00 4.0587085E+00
  9.957E+00  4.575E-01  1.600E-01 7.2878617E+00 2.7255145E+00 4.2200141E+00
  1.000E+01  3.962E-01  2.029E-01 7.3794932E+00 2.9657492E+00 3.9153592E+00
  9.957E+00  4.163E-01  1.881E-01 7.3156878E+00 2.9325783E+00 4.0788900E+00
  1.000E+01  3.572E-01  2.340E-01 7.4352408E+00 3.1572935E+00 3.7627380E+00
  9.957E+00  3.765E-01  2.182E-01 7.4113202E+00 3.1319780E+00 3.9274314E+00
  1.000E+01  3.198E-01  2.669E-01 7.4393209E+00 3.3409463E+00 3.6006717E+00
  9.957E+00  3.383E-01  2.502E-01 7.4258598E+00 3.3240155E+00 3.7665630E+00
  1.000E+01  2.841E-01  3.018E-01 7.4722262E+00 3.5162129E+00 3.4296182E+00
  9.957E+00  3.018E-01  2.841E-01 7.4722301E+00 3.5075375E+00 3.5960948E+00
  1.000E+01  2.502E-01  3.383E-01 7.4258561E+00 3.6828940E+00 3.2501746E+00
  9.957E+00  2.669E-01  3.198E-01 7.4393257E+00 3.6824734E+00 3.4168448E+00
  1.000E+01  2.182E-01  3.765E-01 7.4113169E+00 3.8401909E+00 3.0624017E+00
  9.957E+00  2.340E-01  3.572E-01 7.4352465E+00 3.8482267E+00 3.2290211E+00
  1.000E+01  1.881E-01  4.163E-01 7.3156847E+00 3.9882798E+00 2.8674308E+00
  9.957E+00  2.029E-01  3.962E-01 7.3795005E+00 4.0043107E+00 3.0331261E+00
  1.000E+01  1.600E-01  4.575E-01 7.2878593E+00 4.1262801E+00 2.6649665E+00
  9.957E+00  1.738E-01  4.367E-01 7.2886576E+00 4.1509219E+00 2.8301216E+00
  1.000E+01  1.340E-01  5.000E-01 7.1395580E+00 4.2531044E+00 2.4551647E+00
  9.957E+00  1.467E-01  4.786E-01 7.2394104E+00 4.2861421E+00 2.6188991E+00
  1.000E+01  1.101E-01  5.438E-01 7.0570246E+00 4.3716953E+00 2.2418668E+00
  9.957E+00  1.218E-01  5.217E-01 7.0771622E+00 4.4114334E+00 2.4023451E+00
  1.000E+01  8.849E-02  5.887E-01 6.9626027E+00 4.4783708E+00 2.0210667E+00
  9.957E+00  9.903E-02  5.661E-01 7.0170585E+00 4.5275380E+00 2.1812858E+00
  1.000E+01  6.913E-02  6.347E-01 6.7872973E+00 4.5703472E+00 1.7913380E+00
  9.957E+00  7.852E-02  6.116E-01 6.8805277E+00 4.6287166E+00 1.9501514E+00
  1.000E+01  5.207E-02  6.815E-01 6.6761394E+00 4.6540341E+00 1.5617655E+00
  9.957E+00  6.031E-02  6.580E-01 6.7184812E+00 4.7176894E+00 1.7141705E+00
  1.000E+01  3.738E-02  7.292E-01 6.5936985E+00 4.7300423E+00 1.3332286E+00
  9.957E+00  4.443E-02  7.052E-01 6.6364559E+00 4.8000498E+00 1.4807964E+00
  1.000E+01  2.507E-02  7.775E-01 6.4866421E+00 4.7917677E+00 1.0976168E+00
  9.957E+00  3.092E-02  7.532E-01 6.5428167E+00 4.8711834E+00 1.2442593E+00
  1.000E+01  1.519E-02  8.264E-01 6.3772655E+00 4.8382760E+00 8.5444610E-01
  9.957E+00  1.983E-02  8.019E-01 6.4312700E+00 4.9261242E+00 9.9883401E-01
  1.000E+01  7.761E-03  8.757E-01 6.2919266E+00 4.8728374E+00 6.0904668E-01
  9.957E+00  1.117E-02  8.510E-01 6.3298537E+00 4.9672595E+00 7.4835291E-01
  1.000E+01  2.796E-03  9.253E-01 6.2375989E+00 4.8968149E+00 3.6478112E-01
  9.957E+00  4.969E-03  9.004E-01 6.2594247E+00 4.9971885E+00 4.9780107E-01
  1.000E+01  3.108E-04  9.751E-01 6.2120301E+00 4.9092975E+00 1.2150346E-01
  9.957E+00  1.243E-03  9.502E-01 6.2219662E+00 5.0159869E+00 2.4858844E-01
  1.000E+01  3.108E-04  1.025E+00 6.2120294E+00 4.9092988E+00 -1.2150191E-01
  9.957E+00  0.000E+00  1.000E+00 6.2106912E+00 5.0224743E+00 8.7803825E-07
  1.000E+01  2.796E-03  1.075E+00 6.2375967E+00 4.8968193E+00 -3.6477958E-01
  9.957E+00  1.243E-03  1.050E+00 6.2219648E+00 5.0159897E+00 -2.4858669E-01
  1.000E+01  7.761E-03  1.124E+00 6.2919231E+00 4.8728441E+00 -6.0904513E-01
  9.957E+00  4.969E-03  1.100E+00 6.2594219E+00 4.9971948E+00 -4.9779934E-01
  1.000E+01  1.519E-02  1.174E+00 6.3772608E+00 4.8382788E+00 -8.5444454E-01
  9.957E+00  1.117E-02  1.149E+00 6.3298495E+00 4.9672655E+00 -7.4835121E-01
  1.000E+01  2.507E-02  1.223E+00 6.4866362E+00 4.7917585E+00 -1.0976153E+00
  9.957E+00  1.983E-02  1.198E+00 6.4312643E+00 4.9261210E+00 -9.9883232E-01
  1.000E+01  3.738E-02  1.271E+00 6.5936916E+00 4.7300331E+00 -1.3332272E+00
  9.957E+00  3.092E-02  1.247E+00 6.5428096E+00 4.8711706E+00 -1.2442577E+00
  1.000E+01  5.207E-02  1.318E+00 6.6761312E+00 4.6540488E+00 -1.5617641E+00
  9.957E+00  4.443E-02  1.295E+00 6.6364476E+00 4.8000507E+00 -1.4807948E+00
  1.000E+01  6.913E-02  1.365E+00 6.7872878E+00 4.5703586E+00 -1.7913367E+00
  9.957E+00  6.031E-02  1.342E+00 6.7184717E+00 4.7177104E+00 -1.7141689E+00
  1.000E+01  8.849E-02  1.411E+00 6.9625924E+00 4.4783503E+00 -2.0210652E+00
  9.957E+00  7.852E-02  1.388E+00 6.8805174E+00 4.6287082E+00 -1.9501499E+00
  1.000E+01  1.101E-01  1.456E+00 7.0570131E+00 4.3717004E+00 -2.2418654E+00
  9.957E+00  9.903E-02  1.434E+00 7.0170473E+00 4.5275237E+00 -2.1812840E+00
  1.000E+01  1.340E-01  1.500E+00 7.1395455E+00 4.2531151E+00 -2.4551634E+00
  9.957E+00  1.218E-01  1.478E+00 7.0771499E+00 4.4114526E+00 -2.4023438E+00
  1.000E+01  1.600E-01  1.543E+00 7.2878460E+00 4.1262643E+00 -2.6649647E+00
  9.957E+00  1.467E-01  1.521E+00 7.2393973E+00 4.2861333E+00 -2.6188972E+00
  1.000E+01  1.881E-01  1.584E+00 7.3156709E+00 3.9882856E+00 -2.8674297E+00
  9.957E+00  1.738E-01  1.563E+00 7.2886439E+00 4.1509169E+00 -2.8301201E+00
  1.000E+01  2.182E-01  1.623E+00 7.4113029E+00 3.8401851E+00 -3.0624002E+00
  9.957E+00  2.029E-01  1.604E+00 7.3794860E+00 4.0043134E+00 -3.0331244E+00
  1.000E+01  2.502E-01  1.662E+00 7.4258418E+00 3.6828913E+00 -3.2501733E+00
  9.957E+00  2.340E-01  1.643E+00 7.4352316E+00 3.8482174E+00 -3.2290192E+00
  1.000E+01  2.841E-01  1.698E+00 7.4722109E+00 3.5162098E+00 -3.4296165E+00
  9.957E+00  2.669E-01  1.680E+00 7.4393108E+00 3.6824746E+00 -3.4168433E+00
  1.000E+01  3.198E-01  1.733E+00 7.4393052E+00 3.3409408E+00 -3.6006698E+00
  9.957E+00  3.018E-01  1.716E+00 7.4722155E+00 3.5075320E+00 -3.5960930E+00
  1.000E+01  3.572E-01  1.766E+00 7.4352256E+00 3.1572908E+00 -3.7627361E+00
  9.957E+00  3.383E-01  1.750E+00 7.4258450E+00 3.3240148E+00 -3.7665617E+00
  1.000E+01  3.962E-01  1.797E+00 7.3794799E+00 2.9657480E+00 -3.9153582E+00
  9.957E+00  3.765E-01  1.782E+00 7.4113046E+00 3.1319740E+00 -3.9274296E+00
  1.000E+01  4.367E-01  1.826E+00 7.2886378E+00 2.7672552E+00 -4.0587084E+00
  9.957E+00  4.163E-01  1.812E+00 7.3156713E+00 2.9325736E+00 -4.0788874E+00
  1.000E+01  4.786E-01  1.853E+00 7.2393906E+00 2.5607234E+00 -4.1909237E+00
  9.957E+00  4.575E-01  1.840E+00 7.2878467E+00 2.7255087E+00 -4.2200109E+00
  1.000E+01  5.217E-01  1.878E+00 7.0771414E+00 2.3489755E+00 -4.3134435E+00
  9.957E+00  5.000E-01  1.866E+00 7.1395478E+00 2.5109431E+00 -4.3497317E+00
  1.000E+01  5.661E-01  1.901E+00 7.0170380E+00 2.1328209E+00 -4.4269502E+00
  9.957E+00  5.438E-01  1.890E+00 7.0570145E+00 2.2928005E+00 -4.4710134E+00
  1.000E+01  6.116E-01  1.921E+00 6.8805097E+00 1.9068229E+00 -4.5258843E+00
  9.957E+00  5.887E-01  1.912E+00 6.9625910E+00 2.0669851E+00 -4.5800990E+00
  1.000E+01  6.580E-01  1.940E+00 6.7184652E+00 1.6760901E+00 -4.6128975E+00
  9.957E+00  6.347E-01  1.931E+00 6.7872852E+00 1.8320365E+00 -4.6741841E+00
  1.000E+01  7.052E-01  1.956E+00 6.6364399E+00 1.4479082E+00 -4.6934209E+00
  9.957E+00  6.815E-01  1.948E+00 6.6761275E+00 1.5972418E+00 -4.7597730E+00
  1.000E+01  7.532E-01  1.969E+00 6.5427997E+00 1.2166295E+00 -4.7629680E+00
  9.957E+00  7.292E-01  1.963E+00 6.5936870E+00 1.3635072E+00 -4.8374899E+00
  1.000E+01  8.019E-01  1.980E+00 6.4312543E+00 9.7665564E-01 -4.8166957E+00
  9.957E+00  7.775E-01  1.975E+00 6.4866321E+00 1.1225417E+00 -4.9006145E+00
  1.000E+01  8.510E-01  1.989E+00 6.3298408E+00 7.3173384E-01 -4.8569257E+00
  9.957E+00  8.264E-01  1.985E+00 6.3772579E+00 8.7384991E-01 -4.9481876E+00
  1.000E+01  9.004E-01  1.995E+00 6.2594135E+00 4.8674242E-01 -4.8861905E+00
  9.957E+00  8.757E-01  1.992E+00 6.2919207E+00 6.2287774E-01 -4.9835392E+00
  1.000E+01  9.502E-01  1.999E+00 6.2219556E+00 2.4306285E-01 -4.9045668E+00
  9.957E+00  9.253E-01  1.997E+00 6.2375928E+00 3.7306395E-01 -5.0080583E+00
  1.000E+01  1.000E+00  2.000E+00 6.2106804E+00 -2.7425470E-06 -4.9109054E+00
  9.957E+00  9.751E-01  2.000E+00 6.2120236E+00 1.2425986E-01 -5.0208191E+00
  1.000E+01  1.050E+00  1.999E+00 6.2219567E+00 -2.4306765E-01 -4.9045668E+00
  9.957E+00  1.025E+00  2.000E+00 6.2120241E+00 -1.2426510E-01 -5.0208191E+00
  1.000E+01  1.100E+00  1.995E+00 6.2594156E+00 -4.8674762E-01 -4.8861905E+00
  9.957E+00  1.075E+00  1.997E+00 6.2375944E+00 -3.7306877E-01 -5.0080583E+00
  1.000E+01  1.149E+00  1.989E+00 6.3298440E+00 -7.3173903E-01 -4.8569257E+00
  9.957E+00  1.124E+00  1.992E+00 6.2919233E+00 -6.2288321E-01 -4.9835392E+00
  1.000E+01  1.198E+00  1.980E+00 6.4312586E+00 -9.7666050E-01 -4.8166956E+00
  9.957E+00  1.174E+00  1.985E+00 6.3772616E+00 -8.7385476E-01 -4.9481876E+00