# TIME = 10.000000
VARIABLES = X, Y, Z, FX, FY, FZ
ZONE N=29232 E=58212 F=FEPOINT ET=TRIANGLE
  0.000E+00  9.502E-01  1.243E-03 1.2017428E+01 -8.4086642E-01 -1.6971035E+01
  0.000E+00  1.000E+00  0.000E+00 1.2012132E+01 -3.1171065E-05 -1.6995938E+01
  4.318E-02  9.751E-01  3.108E-04 1.1752400E+01 -3.5495300E-01 -1.4451109E+01
  0.000E+00  1.050E+00  1.243E-03 1.2017429E+01 8.4093013E-01 -1.6971036E+01
  4.318E-02  1.025E+00  3.108E-04 1.1752411E+01 3.5495206E-01 -1.4451109E+01
  0.000E+00  1.100E+00  4.969E-03 1.2039963E+01 1.6777812E+00 -1.6899702E+01
  4.318E-02  1.075E+00  2.796E-03 1.1771450E+01 1.0645844E+00 -1.4414629E+01
  0.000E+00  1.149E+00  1.117E-02 1.2098771E+01 2.5130525E+00 -1.6793073E+01
  4.318E-02  1.124E+00  7.761E-03 1.1821791E+01 1.7758524E+00 -1.4348991E+01
  0.000E+00  1.198E+00  1.983E-02 1.2207686E+01 3.3540407E+00 -1.6662613E+01
  4.318E-02  1.174E+00  1.519E-02 1.1917706E+01 2.4975702E+00 -1.4261745E+01
  0.000E+00  1.247E+00  3.092E-02 1.2343703E+01 4.1994140E+00 -1.6501417E+01
  4.318E-02  1.223E+00  2.507E-02 1.2055364E+01 3.2284937E+00 -1.4146937E+01
  0.000E+00  1.295E+00  4.443E-02 1.2444315E+01 5.0270365E+00 -1.6282283E+01
  4.318E-02  1.271E+00  3.738E-02 1.2183607E+01 3.9447354E+00 -1.3980144E+01
  0.000E+00  1.342E+00  6.031E-02 1.2490330E+01 5.8239778E+00 -1.5997927E+01
  4.318E-02  1.318E+00  5.207E-02 1.2244621E+01 4.6245536E+00 -1.3750407E+01
  0.000E+00  1.388E+00  7.852E-02 1.2661545E+01 6.6035445E+00 -1.5673889E+01
  4.318E-02  1.365E+00  6.913E-02 1.2322158E+01 5.2863533E+00 -1.3485682E+01
  0.000E+00  1.434E+00  9.903E-02 1.2825920E+01 7.3809657E+00 -1.5332037E+01
  4.318E-02  1.411E+00  8.849E-02 1.2532690E+01 5.9563962E+00 -1.3209743E+01
  0.000E+00  1.478E+00  1.218E-01 1.2841323E+01 8.1391921E+00 -1.4950209E+01
  4.318E-02  1.456E+00  1.101E-01 1.2627389E+01 6.6157760E+00 -1.2905421E+01
  0.000E+00  1.521E+00  1.467E-01 1.3032659E+01 8.8700926E+00 -1.4518868E+01
  4.318E-02  1.500E+00  1.340E-01 1.2673812E+01 7.2456019E+00 -1.2553918E+01
  0.000E+00  1.563E+00  1.738E-01 1.3078392E+01 9.5834782E+00 -1.4059833E+01
  4.318E-02  1.543E+00  1.600E-01 1.2862951E+01 7.8604953E+00 -1.2173833E+01
  0.000E+00  1.604E+00  2.029E-01 1.3152077E+01 1.0272330E+01 -1.3565362E+01
  4.318E-02  1.584E+00  1.881E-01 1.2854438E+01 8.4601292E+00 -1.1771908E+01
  0.000E+00  1.643E+00  2.340E-01 1.3237922E+01 1.0934626E+01 -1.3035140E+01
  4.318E-02  1.623E+00  2.182E-01 1.2974129E+01 9.0339377E+00 -1.1331712E+01
  0.000E+00  1.680E+00  2.669E-01 1.3204080E+01 1.1571848E+01 -1.2475591E+01
  4.318E-02  1.662E+00  2.502E-01 1.2967069E+01 9.5888247E+00 -1.0869975E+01
  0.000E+00  1.716E+00  3.018E-01 1.3271590E+01 1.2179009E+01 -1.1883528E+01
  4.318E-02  1.698E+00  2.841E-01 1.3041666E+01 1.0118244E+01 -1.0377699E+01
  0.000E+00  1.750E+00  3.383E-01 1.3197405E+01 1.2759067E+01 -1.1263555E+01
  4.318E-02  1.733E+00  3.198E-01 1.2976655E+01 1.0625231E+01 -9.8627959E+00
  0.000E+00  1.782E+00  3.765E-01 1.3205727E+01 1.3304571E+01 -1.0613192E+01
  4.318E-02  1.766E+00  3.572E-01 1.3009474E+01 1.1103556E+01 -9.3198348E+00
  0.000E+00  1.812E+00  4.163E-01 1.3086518E+01 1.3821017E+01 -9.9371393E+00
  4.318E-02  1.797E+00  3.962E-01 1.2926952E+01 1.1556351E+01 -8.7554776E+00
  0.000E+00  1.840E+00  4.575E-01 1.3095675E+01 1.4295413E+01 -9.2335995E+00
  4.318E-02  1.826E+00  4.367E-01 1.2851493E+01 1.1979965E+01 -8.1682931E+00
  0.000E+00  1.866E+00  5.000E-01 1.2906283E+01 1.4742615E+01 -8.5102464E+00
  4.318E-02  1.853E+00  4.786E-01 1.2807827E+01 1.2367841E+01 -7.5571270E+00
  0.000E+00  1.890E+00  5.438E-01 1.2860478E+01 1.5149950E+01 -7.7637989E+00
  4.318E-02  1.878E+00  5.217E-01 1.2616619E+01 1.2737663E+01 -6.9354924E+00
  0.000E+00  1.912E+00  5.887E-01 1.2765381E+01 1.5506026E+01 -6.9912796E+00
  4.318E-02  1.901E+00  5.661E-01 1.2601621E+01 1.3063732E+01 -6.2888001E+00
  0.000E+00  1.931E+00  6.347E-01 1.2557601E+01 1.5835487E+01 -6.2104492E+00
  4.318E-02  1.921E+00  6.116E-01 1.2435296E+01 1.3346503E+01 -5.6171648E+00
  0.000E+00  1.948E+00  6.815E-01 1.2476675E+01 1.6140478E+01 -5.4236585E+00
  4.318E-02  1.940E+00  6.580E-01 1.2262760E+01 1.3615250E+01 -4.9510600E+00
  0.000E+00  1.963E+00  7.292E-01 1.2406516E+01 1.6389208E+01 -4.6104146E+00
  4.318E-02  1.956E+00  7.052E-01 1.2223848E+01 1.3862931E+01 -4.2833247E+00
  0.000E+00  1.975E+00  7.775E-01 1.2277617E+01 1.6570870E+01 -3.7706646E+00
  4.318E-02  1.969E+00  7.532E-01 1.2129429E+01 1.4058190E+01 -3.5842177E+00
  0.000E+00  1.985E+00  8.264E-01 1.2151261E+01 1.6709744E+01 -2.9264449E+00
  4.318E-02  1.980E+00  8.019E-01 1.1987573E+01 1.4191546E+01 -2.8572662E+00
  0.000E+00  1.992E+00  8.757E-01 1.2070596E+01 1.6826093E+01 -2.0902399E+00
  4.318E-02  1.989E+00  8.510E-01 1.1864172E+01 1.4287498E+01 -2.1304272E+00
  0.000E+00  1.997E+00  9.253E-01 1.2031167E+01 1.6914872E+01 -1.2567297E+00
  4.318E-02  1.995E+00  9.004E-01 1.1792267E+01 1.4361929E+01 -1.4156481E+00
  0.000E+00  2.000E+00  9.751E-01 1.2016863E+01 1.6962682E+01 -4.1974501E-01
  4.318E-02  1.999E+00  9.502E-01 1.1762677E+01 1.4412270E+01 -7.0771124E-01
  0.000E+00  2.000E+00  1.025E+00 1.2016869E+01 1.6962711E+01 4.1966537E-01
  4.318E-02  2.000E+00  1.000E+00 1.1755635E+01 1.4430389E+01 -4.1389517E-05
  0.000E+00  1.997E+00  1.075E+00 1.2031181E+01 1.6914995E+01 1.2566609E+00
  4.318E-02  1.999E+00  1.050E+00 1.1762687E+01 1.4412432E+01 7.0763468E-01
  0.000E+00  1.992E+00  1.124E+00 1.2070610E+01 1.6826392E+01 2.0901912E+00
  4.318E-02  1.995E+00  1.100E+00 1.1792284E+01 1.4362288E+01 1.4155891E+00
  0.000E+00  1.985E+00  1.174E+00 1.2151269E+01 1.6710239E+01 2.9264200E+00
  4.318E-02  1.989E+00  1.149E+00 1.1864194E+01 1.4288023E+01 2.1303928E+00
  0.000E+00  1.975E+00  1.223E+00 1.2277632E+01 1.6571287E+01 3.7706609E+00
  4.318E-02  1.980E+00  1.198E+00 1.1987611E+01 1.4192002E+01 2.8572554E+00
  0.000E+00  1.963E+00  1.271E+00 1.2406559E+01 1.6389184E+01 4.6104313E+00
  4.318E-02  1.969E+00  1.247E+00 1.2129496E+01 1.4058300E+01 3.5842281E+00
  0.000E+00  1.948E+00  1.318E+00 1.2476725E+01 1.6140301E+01 5.4237034E+00
  4.318E-02  1.956E+00  1.295E+00 1.2223923E+01 1.3862885E+01 4.2833614E+00
  0.000E+00  1.931E+00  1.365E+00 1.2557617E+01 1.5835770E+01 6.2105178E+00
  4.318E-02  1.940E+00  1.342E+00 1.2262796E+01 1.3615537E+01 4.9511217E+00
  0.000E+00  1.912E+00  1.411E+00 1.2765395E+01 1.5506213E+01 6.9913376E+00
  4.318E-02  1.921E+00  1.388E+00 1.2435315E+01 1.3346783E+01 5.6172261E+00
  0.000E+00  1.890E+00  1.456E+00 1.2860505E+01 1.5149888E+01 7.7638435E+00
  4.318E-02  1.901E+00  1.434E+00 1.2601653E+01 1.3063700E+01 6.2888496E+00
  0.000E+00  1.866E+00  1.500E+00 1.2906297E+01 1.4742830E+01 8.5102913E+00
  4.318E-02  1.878E+00  1.478E+00 1.2616639E+01 1.2737780E+01 6.9355399E+00
  0.000E+00  1.840E+00  1.543E+00 1.3095702E+01 1.4295441E+01 9.2336225E+00
  4.318E-02  1.853E+00  1.521E+00 1.2807863E+01 1.2367952E+01 7.5571587E+00
  0.000E+00  1.812E+00  1.584E+00 1.3086537E+01 1.3820883E+01 9.9371448E+00
  4.318E-02  1.826E+00  1.563E+00 1.2851530E+01 1.1979912E+01 8.1683061E+00
  0.000E+00  1.782E+00  1.623E+00 1.3205738E+01 1.3304616E+01 1.0613196E+01
  4.318E-02  1.797E+00  1.604E+00 1.2926960E+01 1.1556345E+01 8.7554830E+00
  0.000E+00  1.750E+00  1.662E+00 1.3197423E+01 1.2759142E+01 1.1263552E+01
  4.318E-02  1.766E+00  1.643E+00 1.3009486E+01 1.1103595E+01 9.3198359E+00
  0.000E+00  1.716E+00  1.698E+00 1.3271613E+01 1.2179010E+01 1.1883517E+01
  4.318E-02  1.733E+00  1.680E+00 1.2976685E+01 1.0625259E+01 9.8627902E+00
  0.000E+00  1.680E+00  1.733E+00 1.3204100E+01 1.1571778E+01 1.2475579E+01
  4.318E-02  1.698E+00  1.716E+00 1.3041695E+01 1.0118221E+01 1.0377688E+01
  0.000E+00  1.643E+00  1.766E+00 1.3237939E+01 1.0934689E+01 1.3035138E+01
  4.318E-02  1.662E+00  1.750E+00 1.2967080E+01 9.5888178E+00 1.0869968E+01
  0.000E+00  1.604E+00  1.797E+00 1.3152103E+01 1.0272375E+01 1.3565358E+01
  4.318E-02  1.623E+00  1.782E+00 1.2974155E+01 9.0339849E+00 1.1331708E+01
  0.000E+00  1.563E+00  1.826E+00 1.3078415E+01 9.5833978E+00 1.4059824E+01
  4.318E-02  1.584E+00  1.812E+00 1.2854474E+01 8.4601080E+00 1.1771900E+01
  0.000E+00  1.521E+00  1.853E+00 1.3032681E+01 8.8701303E+00 1.4518863E+01
  4.318E-02  1.543E+00  1.840E+00 1.2862961E+01 7.8604775E+00 1.2173827E+01
  0.000E+00  1.478E+00  1.878E+00 1.2841353E+01 8.1392162E+00 1.4950203E+01
  4.318E-02  1.500E+00  1.866E+00 1.2673830E+01 7.2456395E+00 1.2553915E+01
  0.000E+00  1.434E+00  1.901E+00 1.2825939E+01 7.3808876E+00 1.5332027E+01
  4.318E-02  1.456E+00  1.890E+00 1.2627417E+01 6.6157570E+00 1.2905416E+01
  0.000E+00  1.388E+00  1.921E+00 1.2661553E+01 6.6035979E+00 1.5673884E+01
  4.318E-02  1.411E+00  1.912E+00 1.2532698E+01 5.9563869E+00 1.3209739E+01
  0.000E+00  1.342E+00  1.940E+00 1.2490343E+01 5.8239747E+00 1.5997924E+01
  4.318E-02  1.365E+00  1.931E+00 1.2322185E+01 5.2863759E+00 1.3485679E+01
  0.000E+00  1.295E+00  1.956E+00 1.2444323E+01 5.0270027E+00 1.6282281E+01
  4.318E-02  1.318E+00  1.948E+00 1.2244643E+01 4.6245037E+00 1.3750400E+01
  0.000E+00  1.247E+00  1.969E+00 1.2343721E+01 4.1994960E+00 1.6501422E+01
  4.318E-02  1.271E+00  1.963E+00 1.2183609E+01 3.9447329E+00 1.3980135E+01
  0.000E+00  1.198E+00  1.980E+00 1.2207705E+01 3.3539828E+00 1.6662616E+01
  4.318E-02  1.223E+00  1.975E+00 1.2055385E+01 3.2284807E+00 1.4146926E+01
  0.000E+00  1.149E+00  1.989E+00 1.2098779E+01 2.5130733E+00 1.6793077E+01
  4.318E-02  1.174E+00  1.985E+00 1.1917705E+01 2.4975288E+00 1.4261732E+01
  0.000E+00  1.100E+00  1.995E+00 1.2039974E+01 1.6777908E+00 1.6899706E+01
  4.318E-02  1.124E+00  1.992E+00 1.1821798E+01 1.7758772E+00 1.4348979E+01
  0.000E+00  1.050E+00  1.999E+00 1.2017428E+01 8.4086372E-01 1.6971037E+01
  4.318E-02  1.075E+00  1.997E+00 1.1771462E+01 1.0645469E+00 1.4414617E+01
  0.000E+00  1.000E+00  2.000E+00 1.2012132E+01 3.0681369E-05 1.6995940E+01
  4.318E-02  1.025E+00  2.000E+00 1.1752403E+01 3.5495316E-01 1.4451097E+01
  0.000E+00  9.502E-01  1.999E+00 1.2017429E+01 -8.4092837E-01 1.6971038E+01
  4.318E-02  9.751E-01  2.000E+00 1.1752413E+01 -3.5495318E-01 1.4451097E+01
  0.000E+00  9.004E-01  1.995E+00 1.2039965E+01 -1.6777799E+00 1.6899704E+01
  4.318E-02  9.253E-01  1.997E+00 1.1771452E+01 -1.0645858E+00 1.4414617E+01
  0.000E+00  8.510E-01  1.989E+00 1.2098777E+01 -2.5130558E+00 1.6793075E+01
  4.318E-02  8.757E-01  1.992E+00 1.1821792E+01 -1.7758517E+00 1.4348978E+01
  0.000E+00  8.019E-01  1.980E+00 1.2207694E+01 -3.3540513E+00 1.6662615E+01
  4.318E-02  8.264E-01  1.985E+00 1.1917705E+01 -2.4975646E+00 1.4261732E+01
  0.000E+00  7.532E-01  1.969E+00 1.2343710E+01 -4.1994301E+00 1.6501418E+01
  4.318E-02  7.775E-01  1.975E+00 1.2055363E+01 -3.2284827E+00 1.4146925E+01
  0.000E+00  7.052E-01  1.956E+00 1.2444315E+01 -5.0270511E+00 1.6282280E+01
  4.318E-02  7.292E-01  1.963E+00 1.2183608E+01 -3.9447220E+00 1.3980134E+01
  0.000E+00  6.580E-01  1.940E+00 1.2490324E+01 -5.8239844E+00 1.5997921E+01
  4.318E-02  6.815E-01  1.948E+00 1.2244626E+01 -4.6245431E+00 1.3750400E+01
  0.000E+00  6.116E-01  1.921E+00 1.2661540E+01 -6.6035418E+00 1.5673880E+01
  4.318E-02  6.347E-01  1.931E+00 1.2322164E+01 -5.2863490E+00 1.3485677E+01
  0.000E+00  5.661E-01  1.901E+00 1.2825923E+01 -7.3809574E+00 1.5332027E+01
  4.318E-02  5.887E-01  1.912E+00 1.2532693E+01 -5.9563967E+00 1.3209738E+01
  0.000E+00  5.217E-01  1.878E+00 1.2841331E+01 -8.1391827E+00 1.4950199E+01
  4.318E-02  5.438E-01  1.890E+00 1.2627388E+01 -6.6157779E+00 1.2905417E+01
  0.000E+00  4.786E-01  1.853E+00 1.3032667E+01 -8.8700853E+00 1.4518859E+01
  4.318E-02  5.000E-01  1.866E+00 1.2673811E+01 -7.2456016E+00 1.2553913E+01
  0.000E+00  4.367E-01  1.826E+00 1.3078395E+01 -9.5834738E+00 1.4059826E+01
  4.318E-02  4.575E-01  1.840E+00 1.2862952E+01 -7.8604921E+00 1.2173828E+01
  0.000E+00  3.962E-01  1.797E+00 1.3152079E+01 -1.0272326E+01 1.3565356E+01
  4.318E-02  4.163E-01  1.812E+00 1.2854441E+01 -8.4601243E+00 1.1771902E+01
  0.000E+00  3.572E-01  1.766E+00 1.3237924E+01 -1.0934621E+01 1.3035134E+01
  4.318E-02  3.765E-01  1.782E+00 1.2974133E+01 -9.0339323E+00 1.1331706E+01
  0.000E+00  3.198E-01  1.733E+00 1.3204084E+01 -1.1571842E+01 1.2475585E+01
  4.318E-02  3.383E-01  1.750E+00 1.2967072E+01 -9.5888196E+00 1.0869969E+01
  0.000E+00  2.841E-01  1.698E+00 1.3271594E+01 -1.2179004E+01 1.1883522E+01
  4.318E-02  3.018E-01  1.716E+00 1.3041669E+01 -1.0118239E+01 1.0377693E+01
  0.000E+00  2.502E-01  1.662E+00 1.3197408E+01 -1.2759055E+01 1.1263548E+01
  4.318E-02  2.669E-01  1.680E+00 1.2976659E+01 -1.0625228E+01 9.8627916E+00
  0.000E+00  2.182E-01  1.623E+00 1.3205731E+01 -1.3304566E+01 1.0613188E+01
  4.318E-02  2.340E-01  1.643E+00 1.3009478E+01 -1.1103553E+01 9.3198320E+00
  0.000E+00  1.881E-01  1.584E+00 1.3086523E+01 -1.3821012E+01 9.9371361E+00
  4.318E-02  2.029E-01  1.604E+00 1.2926955E+01 -1.1556346E+01 8.7554738E+00
  0.000E+00  1.600E-01  1.543E+00 1.3095680E+01 -1.4295408E+01 9.2335969E+00
  4.318E-02  1.738E-01  1.563E+00 1.2851496E+01 -1.1979960E+01 8.1682902E+00
  0.000E+00  1.340E-01  1.500E+00 1.2906288E+01 -1.4742611E+01 8.5102445E+00
  4.318E-02  1.467E-01  1.521E+00 1.2807830E+01 -1.2367836E+01 7.5571245E+00
  0.000E+00  1.101E-01  1.456E+00 1.2860483E+01 -1.5149946E+01 7.7637973E+00
  4.318E-02  1.218E-01  1.478E+00 1.2616622E+01 -1.2737658E+01 6.9354906E+00
  0.000E+00  8.849E-02  1.411E+00 1.2765385E+01 -1.5506021E+01 6.9912781E+00
  4.318E-02  9.903E-02  1.434E+00 1.2601625E+01 -1.3063731E+01 6.2887986E+00
  0.000E+00  6.913E-02  1.365E+00 1.2557607E+01 -1.5835485E+01 6.2104483E+00
  4.318E-02  7.852E-02  1.388E+00 1.2435300E+01 -1.3346500E+01 5.6171635E+00
  0.000E+00  5.207E-02  1.318E+00 1.2476681E+01 -1.6140477E+01 5.4236576E+00
  4.318E-02  6.031E-02  1.342E+00 1.2262765E+01 -1.3615248E+01 4.9510586E+00
  0.000E+00  3.738E-02  1.271E+00 1.2406522E+01 -1.6389207E+01 4.6104134E+00
  4.318E-02  4.443E-02  1.295E+00 1.2223852E+01 -1.3862929E+01 4.2833233E+00
  0.000E+00  2.507E-02  1.223E+00 1.2277622E+01 -1.6570869E+01 3.7706629E+00
  4.318E-02  3.092E-02  1.247E+00 1.2129433E+01 -1.4058188E+01 3.5842161E+00
  0.000E+00  1.519E-02  1.174E+00 1.2151266E+01 -1.6709742E+01 2.9264428E+00
  4.318E-02  1.983E-02  1.198E+00 1.1987576E+01 -1.4191544E+01 2.8572644E+00
  0.000E+00  7.761E-03  1.124E+00 1.2070599E+01 -1.6826090E+01 2.0902375E+00
  4.318E-02  1.117E-02  1.149E+00 1.1864174E+01 -1.4287496E+01 2.1304251E+00
  0.000E+00  2.796E-03  1.075E+00 1.2031169E+01 -1.6914869E+01 1.2567273E+00
  4.318E-02  4.969E-03  1.100E+00 1.1792269E+01 -1.4361926E+01 1.4156459E+00
  0.000E+00  3.108E-04  1.025E+00 1.2016864E+01 -1.6962677E+01 4.1974278E-01
  4.318E-02  1.243E-03  1.050E+00 1.1762678E+01 -1.4412266E+01 7.0770913E-01
  0.000E+00  3.108E-04  9.751E-01 1.2016869E+01 -1.6962705E+01 -4.1966726E-01
  4.318E-02  0.000E+00  1.000E+00 1.1755635E+01 -1.4430385E+01 3.9506828E-05
  0.000E+00  2.796E-03  9.253E-01 1.2031180E+01 -1.6914988E+01 -1.2566623E+00
  4.318E-02  1.243E-03  9.502E-01 1.1762688E+01 -1.4412427E+01 -7.0763618E-01
  0.000E+00  7.761E-03  8.757E-01 1.2070609E+01 -1.6826386E+01 -2.0901920E+00
  4.318E-02  4.969E-03  9.004E-01 1.1792284E+01 -1.4362283E+01 -1.4155901E+00
  0.000E+00  1.519E-02  8.264E-01 1.2151267E+01 -1.6710232E+01 -2.9264200E+00
  4.318E-02  1.117E-02  8.510E-01 1.1864193E+01 -1.4288017E+01 -2.1303932E+00
  0.000E+00  2.507E-02  7.775E-01 1.2277630E+01 -1.6571280E+01 -3.7706601E+00
  4.318E-02  1.983E-02  8.019E-01 1.1987609E+01 -1.4191996E+01 -2.8572551E+00
  0.000E+00  3.738E-02  7.292E-01 1.2406557E+01 -1.6389177E+01 -4.6104297E+00
  4.318E-02  3.092E-02  7.532E-01 1.2129494E+01 -1.4058294E+01 -3.5842272E+00
  0.000E+00  5.207E-02  6.815E-01 1.2476722E+01 -1.6140295E+01 -5.4237011E+00
  4.318E-02  4.443E-02  7.052E-01 1.2223921E+01 -1.3862881E+01 -4.2833599E+00
  0.000E+00  6.913E-02  6.347E-01 1.2557614E+01 -1.5835765E+01 -6.2105150E+00
  4.318E-02  6.031E-02  6.580E-01 1.2262793E+01 -1.3615533E+01 -4.9511197E+00
  0.000E+00  8.849E-02  5.887E-01 1.2765393E+01 -1.5506211E+01 -6.9913349E+00
  4.318E-02  7.852E-02  6.116E-01 1.2435312E+01 -1.3346780E+01 -5.6172238E+00
  0.000E+00  1.101E-01  5.438E-01 1.2860503E+01 -1.5149885E+01 -7.7638408E+00
  4.318E-02  9.903E-02  5.661E-01 1.2601651E+01 -1.3063697E+01 -6.2888472E+00
  0.000E+00  1.340E-01  5.000E-01 1.2906295E+01 -1.4742829E+01 -8.5102888E+00
  4.318E-02  1.218E-01  5.217E-01 1.2616638E+01 -1.2737778E+01 -6.9355379E+00
  0.000E+00  1.600E-01  4.575E-01 1.3095700E+01 -1.4295441E+01 -9.2336205E+00
  4.318E-02  1.467E-01  4.786E-01 1.2807861E+01 -1.2367952E+01 -7.5571569E+00
  0.000E+00  1.881E-01  4.163E-01 1.3086536E+01 -1.3820884E+01 -9.9371434E+00
  4.318E-02  1.738E-01  4.367E-01 1.2851529E+01 -1.1979912E+01 -8.1683047E+00
  0.000E+00  2.182E-01  3.765E-01 1.3205737E+01 -1.3304617E+01 -1.0613195E+01
  4.318E-02  2.029E-01  3.962E-01 1.2926959E+01 -1.1556347E+01 -8.7554823E+00
  0.000E+00  2.502E-01  3.383E-01 1.3197423E+01 -1.2759147E+01 -1.1263553E+01
  4.318E-02  2.340E-01  3.572E-01 1.3009485E+01 -1.1103596E+01 -9.3198352E+00
  0.000E+00  2.841E-01  3.018E-01 1.3271612E+01 -1.2179013E+01 -1.1883518E+01
  4.318E-02  2.669E-01  3.198E-01 1.2976684E+01 -1.0625261E+01 -9.8627904E+00
  0.000E+00  3.198E-01  2.669E-01 1.3204100E+01 -1.1571781E+01 -1.2475580E+01
  4.318E-02  3.018E-01  2.841E-01 1.3041695E+01 -1.0118224E+01 -1.0377689E+01
  0.000E+00  3.572E-01  2.340E-01 1.3237939E+01 -1.0934692E+01 -1.3035140E+01
  4.318E-02  3.383E-01  2.502E-01 1.2967079E+01 -9.5888210E+00 -1.0869969E+01
  0.000E+00  3.962E-01  2.029E-01 1.3152105E+01 -1.0272377E+01 -1.3565361E+01
  4.318E-02  3.765E-01  2.182E-01 1.2974154E+01 -9.0339889E+00 -1.1331710E+01
  0.000E+00  4.367E-01  1.738E-01 1.3078414E+01 -9.5834011E+00 -1.4059827E+01
  4.318E-02  4.163E-01  1.881E-01 1.2854473E+01 -8.4601119E+00 -1.1771903E+01
  0.000E+00  4.786E-01  1.467E-01 1.3032677E+01 -8.8701368E+00 -1.4518868E+01
  4.318E-02  4.575E-01  1.600E-01 1.2862962E+01 -7.8604799E+00 -1.2173829E+01
  0.000E+00  5.217E-01  1.218E-01 1.2841348E+01 -8.1392252E+00 -1.4950209E+01
  4.318E-02  5.000E-01  1.340E-01 1.2673834E+01 -7.2456393E+00 -1.2553917E+01
  0.000E+00  5.661E-01  9.903E-02 1.2825938E+01 -7.3808958E+00 -1.5332034E+01
  4.318E-02  5.438E-01  1.101E-01 1.2627419E+01 -6.6157552E+00 -1.2905418E+01
  0.000E+00  6.116E-01  7.852E-02 1.2661560E+01 -6.6036009E+00 -1.5673891E+01
  4.318E-02  5.887E-01  8.849E-02 1.2532696E+01 -5.9563863E+00 -1.3209740E+01
  0.000E+00  6.580E-01  6.031E-02 1.2490351E+01 -5.8239684E+00 -1.5997928E+01
  4.318E-02  6.347E-01  6.913E-02 1.2322181E+01 -5.2863805E+00 -1.3485682E+01
  0.000E+00  7.052E-01  4.443E-02 1.2444325E+01 -5.0269886E+00 -1.6282282E+01
  4.318E-02  6.815E-01  5.207E-02 1.2244640E+01 -4.6245146E+00 -1.3750405E+01
  0.000E+00  7.532E-01  3.092E-02 1.2343716E+01 -4.1994806E+00 -1.6501419E+01
  4.318E-02  7.292E-01  3.738E-02 1.2183609E+01 -3.9447469E+00 -1.3980143E+01
  0.000E+00  8.019E-01  1.983E-02 1.2207698E+01 -3.3539728E+00 -1.6662612E+01
  4.318E-02  7.775E-01  2.507E-02 1.2055387E+01 -3.2284924E+00 -1.4146936E+01
  0.000E+00  8.510E-01  1.117E-02 1.2098773E+01 -2.5130708E+00 -1.6793073E+01
  4.318E-02  8.264E-01  1.519E-02 1.1917706E+01 -2.4975352E+00 -1.4261744E+01
  0.000E+00  9.004E-01  4.969E-03 1.2039972E+01 -1.6777930E+00 -1.6899703E+01
  4.318E-02  8.757E-01  7.761E-03 1.1821797E+01 -1.7758788E+00 -1.4348991E+01
  4.318E-02  9.253E-01  2.796E-03 1.1771460E+01 -1.0645464E+00 -1.4414629E+01
  1.000E+01  1.050E+00  1.243E-03 1.2017429E+01 8.4093013E-01 -1.6971036E+01
  1.000E+01  1.000E+00  5.551E-16 1.2012132E+01 -3.1171065E-05 -1.6995938E+01
  9.957E+00  1.025E+00  3.108E-04 1.2226601E+01 4.9228859E-01 -1.9738377E+01
  1.000E+01  9.502E-01  1.243E-03 1.2017428E+01 -8.4086642E-01 -1.6971035E+01
  9.957E+00  9.751E-01  3.108E-04 1.2226604E+01 -4.9230432E-01 -1.9738376E+01
  1.000E+01  9.004E-01  4.969E-03 1.2039972E+01 -1.6777930E+00 -1.6899703E+01
  9.957E+00  9.253E-01  2.796E-03 1.2242027E+01 -1.4738618E+00 -1.9678366E+01
  1.000E+01  8.510E-01  1.117E-02 1.2098773E+01 -2.5130708E+00 -1.6793073E+01
  9.957E+00  8.757E-01  7.761E-03 1.2279675E+01 -2.4477951E+00 -1.9564128E+01
  1.000E+01  8.019E-01  1.983E-02 1.2207698E+01 -3.3539728E+00 -1.6662612E+01
  9.957E+00  8.264E-01  1.519E-02 1.2350838E+01 -3.4140064E+00 -1.9406947E+01
  1.000E+01  7.532E-01  3.092E-02 1.2343716E+01 -4.1994806E+00 -1.6501419E+01
  9.957E+00  7.775E-01  2.507E-02 1.2462363E+01 -4.3769139E+00 -1.9219704E+01
  1.000E+01  7.052E-01  4.443E-02 1.2444325E+01 -5.0269886E+00 -1.6282282E+01
  9.957E+00  7.292E-01  3.738E-02 1.2583040E+01 -5.3374549E+00 -1.8996593E+01
  1.000E+01  6.580E-01  6.031E-02 1.2490351E+01 -5.8239684E+00 -1.5997928E+01
  9.957E+00  6.815E-01  5.207E-02 1.2657136E+01 -6.2862839E+00 -1.8716540E+01
  1.000E+01  6.116E-01  7.852E-02 1.2661560E+01 -6.6036009E+00 -1.5673891E+01
  9.957E+00  6.347E-01  6.913E-02 1.2743583E+01 -7.2114205E+00 -1.8370352E+01
  1.000E+01  5.661E-01  9.903E-02 1.2825938E+01 -7.3808958E+00 -1.5332034E+01
  9.957E+00  5.887E-01  8.849E-02 1.2950603E+01 -8.1115875E+00 -1.7979010E+01
  1.000E+01  5.217E-01  1.218E-01 1.2841348E+01 -8.1392252E+00 -1.4950209E+01
  9.957E+00  5.438E-01  1.101E-01 1.3044485E+01 -8.9965832E+00 -1.7556420E+01
  1.000E+01  4.786E-01  1.467E-01 1.3032677E+01 -8.8701368E+00 -1.4518868E+01
  9.957E+00  5.000E-01  1.340E-01 1.3090270E+01 -9.8626525E+00 -1.7088234E+01
  1.000E+01  4.367E-01  1.738E-01 1.3078414E+01 -9.5834011E+00 -1.4059827E+01
  9.957E+00  4.575E-01  1.600E-01 1.3281262E+01 -1.0701438E+01 -1.6571774E+01
  1.000E+01  3.962E-01  2.029E-01 1.3152105E+01 -1.0272377E+01 -1.3565361E+01
  9.957E+00  4.163E-01  1.881E-01 1.3273103E+01 -1.1514169E+01 -1.6020042E+01
  1.000E+01  3.572E-01  2.340E-01 1.3237939E+01 -1.0934692E+01 -1.3035140E+01
  9.957E+00  3.765E-01  2.182E-01 1.3393236E+01 -1.2297782E+01 -1.5424286E+01
  1.000E+01  3.198E-01  2.669E-01 1.3204100E+01 -1.1571781E+01 -1.2475580E+01
  9.957E+00  3.383E-01  2.502E-01 1.3385554E+01 -1.3051145E+01 -1.4792740E+01
  1.000E+01  2.841E-01  3.018E-01 1.3271612E+01 -1.2179013E+01 -1.1883518E+01
  9.957E+00  3.018E-01  2.841E-01 1.3461763E+01 -1.3772310E+01 -1.4124608E+01
  1.000E+01  2.502E-01  3.383E-01 1.3197423E+01 -1.2759147E+01 -1.1263553E+01
  9.957E+00  2.669E-01  3.198E-01 1.3394255E+01 -1.4461315E+01 -1.3422393E+01
  1.000E+01  2.182E-01  3.765E-01 1.3205737E+01 -1.3304617E+01 -1.0613195E+01
  9.957E+00  2.340E-01  3.572E-01 1.3430514E+01 -1.5113259E+01 -1.2685488E+01
  1.000E+01  1.881E-01  4.163E-01 1.3086536E+01 -1.3820884E+01 -9.9371434E+00
  9.957E+00  2.029E-01  3.962E-01 1.3343944E+01 -1.5730218E+01 -1.1917207E+01
  1.000E+01  1.600E-01  4.575E-01 1.3095700E+01 -1.4295441E+01 -9.2336205E+00
  9.957E+00  1.738E-01  4.367E-01 1.3273286E+01 -1.6304504E+01 -1.1117091E+01
  1.000E+01  1.340E-01  5.000E-01 1.2906295E+01 -1.4742829E+01 -8.5102888E+00
  9.957E+00  1.467E-01  4.786E-01 1.3226115E+01 -1.6839294E+01 -1.0289893E+01
  1.000E+01  1.101E-01  5.438E-01 1.2860503E+01 -1.5149885E+01 -7.7638408E+00
  9.957E+00  1.218E-01  5.217E-01 1.3035221E+01 -1.7333831E+01 -9.4354008E+00
  1.000E+01  8.849E-02  5.887E-01 1.2765393E+01 -1.5506211E+01 -6.9913349E+00
  9.957E+00  9.903E-02  5.661E-01 1.3020905E+01 -1.7775701E+01 -8.5559075E+00
  1.000E+01  6.913E-02  6.347E-01 1.2557614E+01 -1.5835765E+01 -6.2105150E+00
  9.957E+00  7.852E-02  6.116E-01 1.2857984E+01 -1.8177914E+01 -7.6604209E+00
  1.000E+01  5.207E-02  6.815E-01 1.2476722E+01 -1.6140295E+01 -5.4237011E+00
  9.957E+00  6.031E-02  6.580E-01 1.2683798E+01 -1.8546588E+01 -6.7468458E+00
  1.000E+01  3.738E-02  7.292E-01 1.2406557E+01 -1.6389177E+01 -4.6104297E+00
  9.957E+00  4.443E-02  7.052E-01 1.2631023E+01 -1.8855530E+01 -5.8075623E+00
  1.000E+01  2.507E-02  7.775E-01 1.2277630E+01 -1.6571280E+01 -3.7706601E+00
  9.957E+00  3.092E-02  7.532E-01 1.2532413E+01 -1.9099481E+01 -4.8503126E+00
  1.000E+01  1.519E-02  8.264E-01 1.2151267E+01 -1.6710232E+01 -2.9264200E+00
  9.957E+00  1.983E-02  8.019E-01 1.2409637E+01 -1.9297182E+01 -3.8882981E+00
  1.000E+01  7.761E-03  8.757E-01 1.2070609E+01 -1.6826386E+01 -2.0901920E+00
  9.957E+00  1.117E-02  8.510E-01 1.2314628E+01 -1.9467153E+01 -2.9256282E+00
  1.000E+01  2.796E-03  9.253E-01 1.2031180E+01 -1.6914988E+01 -1.2566623E+00
  9.957E+00  4.969E-03  9.004E-01 1.2262127E+01 -1.9600933E+01 -1.9573515E+00
  1.000E+01  3.108E-04  9.751E-01 1.2016869E+01 -1.6962705E+01 -4.1966726E-01
  9.957E+00  1.243E-03  9.502E-01 1.2240313E+01 -1.9686695E+01 -9.8145522E-01
  1.000E+01  3.108E-04  1.025E+00 1.2016864E+01 -1.6962677E+01 4.1974278E-01
  9.957E+00  0.000E+00  1.000E+00 1.2234603E+01 -1.9715958E+01 3.7488723E-05
  1.000E+01  2.796E-03  1.075E+00 1.2031169E+01 -1.6914869E+01 1.2567273E+00
  9.957E+00  1.243E-03  1.050E+00 1.2240303E+01 -1.9686717E+01 9.8152477E-01
  1.000E+01  7.761E-03  1.124E+00 1.2070599E+01 -1.6826090E+01 2.0902375E+00
  9.957E+00  4.969E-03  1.100E+00 1.2262113E+01 -1.9600919E+01 1.9574057E+00
  1.000E+01  1.519E-02  1.174E+00 1.2151266E+01 -1.6709742E+01 2.9264428E+00
  9.957E+00  1.117E-02  1.149E+00 1.2314623E+01 -1.9466959E+01 2.9256612E+00
  1.000E+01  2.507E-02  1.223E+00 1.2277622E+01 -1.6570869E+01 3.7706629E+00
  9.957E+00  1.983E-02  1.198E+00 1.2409651E+01 -1.9296773E+01 3.8883130E+00
  1.000E+01  3.738E-02  1.271E+00 1.2406522E+01 -1.6389207E+01 4.6104134E+00
  9.957E+00  3.092E-02  1.247E+00 1.2532431E+01 -1.9099193E+01 4.8503162E+00
  1.000E+01  5.207E-02  1.318E+00 1.2476681E+01 -1.6140477E+01 5.4236576E+00
  9.957E+00  4.443E-02  1.295E+00 1.2631016E+01 -1.8855743E+01 5.8075472E+00
  1.000E+01  6.913E-02  1.365E+00 1.2557607E+01 -1.5835485E+01 6.2104483E+00
  9.957E+00  6.031E-02  1.342E+00 1.2683786E+01 -1.8546772E+01 6.7467992E+00
  1.000E+01  8.849E-02  1.411E+00 1.2765385E+01 -1.5506021E+01 6.9912781E+00
  9.957E+00  7.852E-02  1.388E+00 1.2857991E+01 -1.8177562E+01 7.6603548E+00
  1.000E+01  1.101E-01  1.456E+00 1.2860483E+01 -1.5149946E+01 7.7637973E+00
  9.957E+00  9.903E-02  1.434E+00 1.3020894E+01 -1.7775640E+01 8.5558614E+00
  1.000E+01  1.340E-01  1.500E+00 1.2906288E+01 -1.4742611E+01 8.5102445E+00
  9.957E+00  1.218E-01  1.478E+00 1.3035211E+01 -1.7333869E+01 9.4353674E+00
  1.000E+01  1.600E-01  1.543E+00 1.3095680E+01 -1.4295408E+01 9.2335969E+00
  9.957E+00  1.467E-01  1.521E+00 1.3226119E+01 -1.6839076E+01 1.0289861E+01
  1.000E+01  1.881E-01  1.584E+00 1.3086523E+01 -1.3821012E+01 9.9371361E+00
  9.957E+00  1.738E-01  1.563E+00 1.3273275E+01 -1.6304615E+01 1.1117078E+01
  1.000E+01  2.182E-01  1.623E+00 1.3205731E+01 -1.3304566E+01 1.0613188E+01
  9.957E+00  2.029E-01  1.604E+00 1.3343937E+01 -1.5730261E+01 1.1917199E+01
  1.000E+01  2.502E-01  1.662E+00 1.3197408E+01 -1.2759055E+01 1.1263548E+01
  9.957E+00  2.340E-01  1.643E+00 1.3430502E+01 -1.5113163E+01 1.2685487E+01
  1.000E+01  2.841E-01  1.698E+00 1.3271594E+01 -1.2179004E+01 1.1883522E+01
  9.957E+00  2.669E-01  1.680E+00 1.3394246E+01 -1.4461265E+01 1.3422398E+01
  1.000E+01  3.198E-01  1.733E+00 1.3204084E+01 -1.1571842E+01 1.2475585E+01
  9.957E+00  3.018E-01  1.716E+00 1.3461751E+01 -1.3772349E+01 1.4124614E+01
  1.000E+01  3.572E-01  1.766E+00 1.3237924E+01 -1.0934621E+01 1.3035134E+01
  9.957E+00  3.383E-01  1.750E+00 1.3385537E+01 -1.3051151E+01 1.4792738E+01
  1.000E+01  3.962E-01  1.797E+00 1.3152079E+01 -1.0272326E+01 1.3565356E+01
  9.957E+00  3.765E-01  1.782E+00 1.3393220E+01 -1.2297668E+01 1.5424277E+01
  1.000E+01  4.367E-01  1.826E+00 1.3078395E+01 -9.5834738E+00 1.4059826E+01
  9.957E+00  4.163E-01  1.812E+00 1.3273088E+01 -1.1514199E+01 1.6020037E+01
  1.000E+01  4.786E-01  1.853E+00 1.3032667E+01 -8.8700853E+00 1.4518859E+01
  9.957E+00  4.575E-01  1.840E+00 1.3281241E+01 -1.0701463E+01 1.6571766E+01
  1.000E+01  5.217E-01  1.878E+00 1.2841331E+01 -8.1391827E+00 1.4950199E+01
  9.957E+00  5.000E-01  1.866E+00 1.3090249E+01 -9.8625692E+00 1.7088223E+01
  1.000E+01  5.661E-01  1.901E+00 1.2825923E+01 -7.3809574E+00 1.5332027E+01
  9.957E+00  5.438E-01  1.890E+00 1.3044470E+01 -8.9966226E+00 1.7556415E+01
  1.000E+01  6.116E-01  1.921E+00 1.2661540E+01 -6.6035418E+00 1.5673880E+01
  9.957E+00  5.887E-01  1.912E+00 1.2950590E+01 -8.1115989E+00 1.7979001E+01
  1.000E+01  6.580E-01  1.940E+00 1.2490324E+01 -5.8239844E+00 1.5997921E+01
  9.957E+00  6.347E-01  1.931E+00 1.2743578E+01 -7.2113486E+00 1.8370340E+01
  1.000E+01  7.052E-01  1.956E+00 1.2444315E+01 -5.0270511E+00 1.6282280E+01
  9.957E+00  6.815E-01  1.948E+00 1.2657131E+01 -6.2863470E+00 1.8716530E+01
  1.000E+01  7.532E-01  1.969E+00 1.2343710E+01 -4.1994301E+00 1.6501418E+01
  9.957E+00  7.292E-01  1.963E+00 1.2583028E+01 -5.3374073E+00 1.8996579E+01
  1.000E+01  8.019E-01  1.980E+00 1.2207694E+01 -3.3540513E+00 1.6662615E+01
  9.957E+00  7.775E-01  1.975E+00 1.2462354E+01 -4.3768940E+00 1.9219688E+01
  1.000E+01  8.510E-01  1.989E+00 1.2098777E+01 -2.5130558E+00 1.6793075E+01
  9.957E+00  8.264E-01  1.985E+00 1.2350826E+01 -3.4140598E+00 1.9406933E+01
  1.000E+01  9.004E-01  1.995E+00 1.2039965E+01 -1.6777799E+00 1.6899704E+01
  9.957E+00  8.757E-01  1.992E+00 1.2279670E+01 -2.4477255E+00 1.9564112E+01
  1.000E+01  9.502E-01  1.999E+00 1.2017429E+01 -8.4092837E-01 1.6971038E+01
  9.957E+00  9.253E-01  1.997E+00 1.2242028E+01 -1.4739276E+00 1.9678352E+01
  1.000E+01  1.000E+00  2.000E+00 1.2012132E+01 3.0681369E-05 1.6995940E+01
  9.957E+00  9.751E-01  2.000E+00 1.2226605E+01 -4.9228951E-01 1.9738364E+01
  1.000E+01  1.050E+00  1.999E+00 1.2017428E+01 8.4086372E-01 1.6971037E+01
  9.957E+00  1.025E+00  2.000E+00 1.2226608E+01 4.9230431E-01 1.9738364E+01
  1.000E+01  1.100E+00  1.995E+00 1.2039974E+01 1.6777908E+00 1.6899706E+01
  9.957E+00  1.075E+00  1.997E+00 1.2242030E+01 1.4738618E+00 1.9678353E+01
  1.000E+01  1.149E+00  1.989E+00 1.2098779E+01 2.5130733E+00 1.6793077E+01
  9.957E+00  1.124E+00  1.992E+00 1.2279675E+01 2.4477927E+00 1.9564115E+01