# TIME = 13.000000
VARIABLES = X, Y, Z, FX, FY, FZ
ZONE N=29232 E=58212 F=FEPOINT ET=TRIANGLE
  0.000E+00  9.502E-01  1.243E-03 5.4262674E+00 -7.1129614E-01 -1.4268659E+01
  0.000E+00  1.000E+00  0.000E+00 5.4072325E+00 -2.5895140E-05 -1.4269760E+01
  4.318E-02  9.751E-01  3.108E-04 5.1277094E+00 -6.7491508E-01 -2.7213055E+01
  0.000E+00  1.050E+00  1.243E-03 5.4262564E+00 7.1127693E-01 -1.4268669E+01
  4.318E-02  1.025E+00  3.108E-04 5.1277125E+00 6.7488214E-01 -2.7213084E+01
  0.000E+00  1.100E+00  4.969E-03 5.4828225E+00 1.4109980E+00 -1.4236842E+01
  4.318E-02  1.075E+00  2.796E-03 5.1463494E+00 2.0194361E+00 -2.7147889E+01
  0.000E+00  1.149E+00  1.117E-02 5.5958112E+00 2.0910646E+00 -1.4157332E+01
  4.318E-02  1.124E+00  7.761E-03 5.1907389E+00 3.3493423E+00 -2.6999128E+01
  0.000E+00  1.198E+00  1.983E-02 5.7210687E+00 2.7800138E+00 -1.3982150E+01
  4.318E-02  1.174E+00  1.519E-02 5.2825861E+00 4.6717354E+00 -2.6748204E+01
  0.000E+00  1.247E+00  3.092E-02 5.8174447E+00 3.5021980E+00 -1.3839538E+01
  4.318E-02  1.223E+00  2.507E-02 5.4048471E+00 6.0122361E+00 -2.6463188E+01
  0.000E+00  1.295E+00  4.443E-02 5.8384306E+00 4.2225937E+00 -1.3684700E+01
  4.318E-02  1.271E+00  3.738E-02 5.5097144E+00 7.3589938E+00 -2.6175602E+01
  0.000E+00  1.342E+00  6.031E-02 5.8124671E+00 4.9084195E+00 -1.3464782E+01
  4.318E-02  1.318E+00  5.207E-02 5.5455537E+00 8.6862900E+00 -2.5832138E+01
  0.000E+00  1.388E+00  7.852E-02 5.9733391E+00 5.5446684E+00 -1.3177338E+01
  4.318E-02  1.365E+00  6.913E-02 5.6392208E+00 9.9503820E+00 -2.5374364E+01
  0.000E+00  1.434E+00  9.903E-02 6.1377737E+00 6.1914421E+00 -1.2905581E+01
  4.318E-02  1.411E+00  8.849E-02 5.8550230E+00 1.1192229E+01 -2.4889352E+01
  0.000E+00  1.478E+00  1.218E-01 6.1678502E+00 6.8605288E+00 -1.2636076E+01
  4.318E-02  1.456E+00  1.101E-01 5.8962103E+00 1.2486608E+01 -2.4401144E+01
  0.000E+00  1.521E+00  1.467E-01 6.4053677E+00 7.5290145E+00 -1.2311337E+01
  4.318E-02  1.500E+00  1.340E-01 5.9115153E+00 1.3707911E+01 -2.3711152E+01
  0.000E+00  1.563E+00  1.738E-01 6.3966586E+00 8.2179774E+00 -1.1988947E+01
  4.318E-02  1.543E+00  1.600E-01 6.1543371E+00 1.4851496E+01 -2.2974562E+01
  0.000E+00  1.604E+00  2.029E-01 6.4372932E+00 8.7524907E+00 -1.1581237E+01
  4.318E-02  1.584E+00  1.881E-01 6.1219011E+00 1.6001025E+01 -2.2282112E+01
  0.000E+00  1.643E+00  2.340E-01 6.5780858E+00 9.3347562E+00 -1.1157587E+01
  4.318E-02  1.623E+00  2.182E-01 6.2415167E+00 1.7133133E+01 -2.1486744E+01
  0.000E+00  1.680E+00  2.669E-01 6.5034695E+00 1.0010823E+01 -1.0714930E+01
  4.318E-02  1.662E+00  2.502E-01 6.2470757E+00 1.8197896E+01 -2.0608862E+01
  0.000E+00  1.716E+00  3.018E-01 6.5706840E+00 1.0443450E+01 -1.0209060E+01
  4.318E-02  1.698E+00  2.841E-01 6.3199078E+00 1.9208369E+01 -1.9703278E+01
  0.000E+00  1.750E+00  3.383E-01 6.5298860E+00 1.1004167E+01 -9.6721191E+00
  4.318E-02  1.733E+00  3.198E-01 6.2671258E+00 2.0200944E+01 -1.8731111E+01
  0.000E+00  1.782E+00  3.765E-01 6.5240901E+00 1.1477736E+01 -9.1196430E+00
  4.318E-02  1.766E+00  3.572E-01 6.2862650E+00 2.1097119E+01 -1.7701585E+01
  0.000E+00  1.812E+00  4.163E-01 6.4176715E+00 1.1877702E+01 -8.5153274E+00
  4.318E-02  1.797E+00  3.962E-01 6.2261563E+00 2.1961011E+01 -1.6614293E+01
  0.000E+00  1.840E+00  4.575E-01 6.4321082E+00 1.2285992E+01 -7.8659117E+00
  4.318E-02  1.826E+00  4.367E-01 6.1351592E+00 2.2740852E+01 -1.5502034E+01
  0.000E+00  1.866E+00  5.000E-01 6.2247679E+00 1.2623089E+01 -7.2495826E+00
  4.318E-02  1.853E+00  4.786E-01 6.1004875E+00 2.3486632E+01 -1.4329629E+01
  0.000E+00  1.890E+00  5.438E-01 6.2077498E+00 1.2919565E+01 -6.5420134E+00
  4.318E-02  1.878E+00  5.217E-01 5.8854879E+00 2.4128455E+01 -1.3115825E+01
  0.000E+00  1.912E+00  5.887E-01 6.1572524E+00 1.3211559E+01 -5.9153790E+00
  4.318E-02  1.901E+00  5.661E-01 5.8826282E+00 2.4695958E+01 -1.1852320E+01
  0.000E+00  1.931E+00  6.347E-01 5.7284051E+00 1.3149001E+01 -5.1010722E+00
  4.318E-02  1.921E+00  6.116E-01 5.7326052E+00 2.5169833E+01 -1.0589055E+01
  0.000E+00  1.948E+00  6.815E-01 5.8527308E+00 1.3921268E+01 -4.6436533E+00
  4.318E-02  1.940E+00  6.580E-01 5.5230098E+00 2.5616928E+01 -9.2652757E+00
  0.000E+00  1.963E+00  7.292E-01 5.7464163E+00 1.3008304E+01 -3.6225752E+00
  4.318E-02  1.956E+00  7.052E-01 5.5009432E+00 2.6290855E+01 -8.0954565E+00
  0.000E+00  1.975E+00  7.775E-01 5.5390738E+00 1.3948219E+01 -3.1141723E+00
  4.318E-02  1.969E+00  7.532E-01 5.3857492E+00 2.6096355E+01 -6.4796920E+00
  0.000E+00  1.985E+00  8.264E-01 5.6104440E+00 1.3478955E+01 -2.3494518E+00
  4.318E-02  1.980E+00  8.019E-01 5.2149775E+00 2.6770686E+01 -5.3721293E+00
  0.000E+00  1.992E+00  8.757E-01 5.2907731E+00 1.3893809E+01 -1.7686486E+00
  4.318E-02  1.989E+00  8.510E-01 5.2182538E+00 2.6462094E+01 -3.8279824E+00
  0.000E+00  1.997E+00  9.253E-01 5.3771216E+00 1.4068030E+01 -1.0175178E+00
  4.318E-02  1.995E+00  9.004E-01 4.9591511E+00 2.6991339E+01 -2.6741598E+00
  0.000E+00  2.000E+00  9.751E-01 5.2744055E+00 1.4066805E+01 -4.2470449E-01
  4.318E-02  1.999E+00  9.502E-01 5.1313631E+00 2.6829298E+01 -1.3122030E+00
  0.000E+00  2.000E+00  1.025E+00 5.2744039E+00 1.4067622E+01 4.2401430E-01
  4.318E-02  2.000E+00  1.000E+00 4.9032607E+00 2.7024529E+01 -2.9881795E-04
  0.000E+00  1.997E+00  1.075E+00 5.3770986E+00 1.4070405E+01 1.0171271E+00
  4.318E-02  1.999E+00  1.050E+00 5.1314959E+00 2.6830664E+01 1.3117200E+00
  0.000E+00  1.992E+00  1.124E+00 5.2907342E+00 1.3897148E+01 1.7687876E+00
  4.318E-02  1.995E+00  1.100E+00 4.9593926E+00 2.6993814E+01 2.6740465E+00
  0.000E+00  1.985E+00  1.174E+00 5.6103705E+00 1.3482433E+01 2.3501101E+00
  4.318E-02  1.989E+00  1.149E+00 5.2185143E+00 2.6465099E+01 3.8283610E+00
  0.000E+00  1.975E+00  1.223E+00 5.5390288E+00 1.3950903E+01 3.1150397E+00
  4.318E-02  1.980E+00  1.198E+00 5.2152251E+00 2.6773313E+01 5.3728662E+00
  0.000E+00  1.963E+00  1.271E+00 5.7464783E+00 1.3010648E+01 3.6233447E+00
  4.318E-02  1.969E+00  1.247E+00 5.3859854E+00 2.6098219E+01 6.4804656E+00
  0.000E+00  1.948E+00  1.318E+00 5.8529003E+00 1.3924100E+01 4.6444940E+00
  4.318E-02  1.956E+00  1.295E+00 5.5012367E+00 2.6292455E+01 8.0960517E+00
  0.000E+00  1.931E+00  1.365E+00 5.7286495E+00 1.3151796E+01 5.1022792E+00
  4.318E-02  1.940E+00  1.342E+00 5.5233919E+00 2.5618834E+01 9.2659696E+00
  0.000E+00  1.912E+00  1.411E+00 6.1574214E+00 1.3213089E+01 5.9165490E+00
  4.318E-02  1.921E+00  1.388E+00 5.7329679E+00 2.5171145E+01 1.0589861E+01
  0.000E+00  1.890E+00  1.456E+00 6.2078856E+00 1.2920898E+01 6.5428968E+00
  4.318E-02  1.901E+00  1.434E+00 5.8828927E+00 2.4696591E+01 1.1852937E+01
  0.000E+00  1.866E+00  1.500E+00 6.2249043E+00 1.2624228E+01 7.2503903E+00
  4.318E-02  1.878E+00  1.478E+00 5.8857137E+00 2.4129179E+01 1.3116280E+01
  0.000E+00  1.840E+00  1.543E+00 6.4322193E+00 1.2286261E+01 7.8665052E+00
  4.318E-02  1.853E+00  1.521E+00 6.1006825E+00 2.3486820E+01 1.4329998E+01
  0.000E+00  1.812E+00  1.584E+00 6.4177837E+00 1.1877831E+01 8.5155985E+00
  4.318E-02  1.826E+00  1.563E+00 6.1352898E+00 2.2740612E+01 1.5502135E+01
  0.000E+00  1.782E+00  1.623E+00 6.5241930E+00 1.1477558E+01 9.1197104E+00
  4.318E-02  1.797E+00  1.604E+00 6.2262637E+00 2.1960681E+01 1.6614163E+01
  0.000E+00  1.750E+00  1.662E+00 6.5299487E+00 1.1003870E+01 9.6719891E+00
  4.318E-02  1.766E+00  1.643E+00 6.2863264E+00 2.1096666E+01 1.7701313E+01
  0.000E+00  1.716E+00  1.698E+00 6.5707352E+00 1.0443102E+01 1.0208796E+01
  4.318E-02  1.733E+00  1.680E+00 6.2671527E+00 2.0200505E+01 1.8730736E+01
  0.000E+00  1.680E+00  1.733E+00 6.5035193E+00 1.0010423E+01 1.0714578E+01
  4.318E-02  1.698E+00  1.716E+00 6.3199227E+00 1.9207862E+01 1.9702827E+01
  0.000E+00  1.643E+00  1.766E+00 6.5781262E+00 9.3344492E+00 1.1157196E+01
  4.318E-02  1.662E+00  1.750E+00 6.2470817E+00 1.8197464E+01 2.0608366E+01
  0.000E+00  1.604E+00  1.797E+00 6.4373178E+00 8.7522054E+00 1.1580849E+01
  4.318E-02  1.623E+00  1.782E+00 6.2415150E+00 1.7132816E+01 2.1486272E+01
  0.000E+00  1.563E+00  1.826E+00 6.3966885E+00 8.2177189E+00 1.1988564E+01
  4.318E-02  1.584E+00  1.812E+00 6.1218944E+00 1.6000710E+01 2.2281667E+01
  0.000E+00  1.521E+00  1.853E+00 6.4053993E+00 7.5288163E+00 1.2310977E+01
  4.318E-02  1.543E+00  1.840E+00 6.1543335E+00 1.4851242E+01 2.2974133E+01
  0.000E+00  1.478E+00  1.878E+00 6.1678672E+00 6.8603814E+00 1.2635751E+01
  4.318E-02  1.500E+00  1.866E+00 5.9115055E+00 1.3707737E+01 2.3710770E+01
  0.000E+00  1.434E+00  1.901E+00 6.1377891E+00 6.1913228E+00 1.2905291E+01
  4.318E-02  1.456E+00  1.890E+00 5.8962009E+00 1.2486451E+01 2.4400808E+01
  0.000E+00  1.388E+00  1.921E+00 5.9733480E+00 5.5445881E+00 1.3177080E+01
  4.318E-02  1.411E+00  1.912E+00 5.8550209E+00 1.1192106E+01 2.4889048E+01
  0.000E+00  1.342E+00  1.940E+00 5.8124676E+00 4.9083416E+00 1.3464544E+01
  4.318E-02  1.365E+00  1.931E+00 5.6392151E+00 9.9503208E+00 2.5374098E+01
  0.000E+00  1.295E+00  1.956E+00 5.8384466E+00 4.2225206E+00 1.3684481E+01
  4.318E-02  1.318E+00  1.948E+00 5.5455408E+00 8.6862023E+00 2.5831891E+01
  0.000E+00  1.247E+00  1.969E+00 5.8174638E+00 3.5021813E+00 1.3839355E+01
  4.318E-02  1.271E+00  1.963E+00 5.5096921E+00 7.3589686E+00 2.6175371E+01
  0.000E+00  1.198E+00  1.980E+00 5.7210908E+00 2.7799899E+00 1.3982010E+01
  4.318E-02  1.223E+00  1.975E+00 5.4048135E+00 6.0122177E+00 2.6462988E+01
  0.000E+00  1.149E+00  1.989E+00 5.5958381E+00 2.0910845E+00 1.4157236E+01
  4.318E-02  1.174E+00  1.985E+00 5.2825550E+00 4.6717045E+00 2.6748021E+01
  0.000E+00  1.100E+00  1.995E+00 5.4828352E+00 1.4110266E+00 1.4236793E+01
  4.318E-02  1.124E+00  1.992E+00 5.1907117E+00 3.3493735E+00 2.6998981E+01
  0.000E+00  1.050E+00  1.999E+00 5.4262712E+00 7.1128956E-01 1.4268644E+01
  4.318E-02  1.075E+00  1.997E+00 5.1463292E+00 2.0194243E+00 2.7147776E+01
  0.000E+00  1.000E+00  2.000E+00 5.4072409E+00 1.4509750E-05 1.4269750E+01
  4.318E-02  1.025E+00  2.000E+00 5.1277044E+00 6.7490558E-01 2.7212990E+01
  0.000E+00  9.502E-01  1.999E+00 5.4262734E+00 -7.1129025E-01 1.4268657E+01
  4.318E-02  9.751E-01  2.000E+00 5.1277057E+00 -6.7488978E-01 2.7212994E+01
  0.000E+00  9.004E-01  1.995E+00 5.4828474E+00 -1.4110081E+00 1.4236819E+01
  4.318E-02  9.253E-01  1.997E+00 5.1463380E+00 -2.0194350E+00 2.7147771E+01
  0.000E+00  8.510E-01  1.989E+00 5.5958417E+00 -2.0910649E+00 1.4157294E+01
  4.318E-02  8.757E-01  1.992E+00 5.1907236E+00 -3.3493281E+00 2.6998987E+01
  0.000E+00  8.019E-01  1.980E+00 5.7210974E+00 -2.7800002E+00 1.3982099E+01
  4.318E-02  8.264E-01  1.985E+00 5.2825649E+00 -4.6717096E+00 2.6748073E+01
  0.000E+00  7.532E-01  1.969E+00 5.8174655E+00 -3.5021709E+00 1.3839482E+01
  4.318E-02  7.775E-01  1.975E+00 5.4048257E+00 -6.0122075E+00 2.6463078E+01
  0.000E+00  7.052E-01  1.956E+00 5.8384387E+00 -4.2225597E+00 1.3684645E+01
  4.318E-02  7.292E-01  1.963E+00 5.5096985E+00 -7.3589651E+00 2.6175511E+01
  0.000E+00  6.580E-01  1.940E+00 5.8124649E+00 -4.9083911E+00 1.3464738E+01
  4.318E-02  6.815E-01  1.948E+00 5.5455474E+00 -8.6862645E+00 2.5832069E+01
  0.000E+00  6.116E-01  1.921E+00 5.9733336E+00 -5.5446530E+00 1.3177307E+01
  4.318E-02  6.347E-01  1.931E+00 5.6392216E+00 -9.9503545E+00 2.5374309E+01
  0.000E+00  5.661E-01  1.901E+00 6.1377716E+00 -6.1914343E+00 1.2905555E+01
  4.318E-02  5.887E-01  1.912E+00 5.8550225E+00 -1.1192202E+01 2.4889308E+01
  0.000E+00  5.217E-01  1.878E+00 6.1678525E+00 -6.8605191E+00 1.2636052E+01
  4.318E-02  5.438E-01  1.890E+00 5.8962059E+00 -1.2486584E+01 2.4401106E+01
  0.000E+00  4.786E-01  1.853E+00 6.4053706E+00 -7.5289971E+00 1.2311312E+01
  4.318E-02  5.000E-01  1.866E+00 5.9115078E+00 -1.3707891E+01 2.3711118E+01
  0.000E+00  4.367E-01  1.826E+00 6.3966585E+00 -8.2179599E+00 1.1988927E+01
  4.318E-02  4.575E-01  1.840E+00 6.1543307E+00 -1.4851478E+01 2.2974533E+01
  0.000E+00  3.962E-01  1.797E+00 6.4372904E+00 -8.7524761E+00 1.1581219E+01
  4.318E-02  4.163E-01  1.812E+00 6.1218968E+00 -1.6001007E+01 2.2282084E+01
  0.000E+00  3.572E-01  1.766E+00 6.5780817E+00 -9.3347453E+00 1.1157573E+01
  4.318E-02  3.765E-01  1.782E+00 6.2415129E+00 -1.7133112E+01 2.1486720E+01
  0.000E+00  3.198E-01  1.733E+00 6.5034654E+00 -1.0010813E+01 1.0714920E+01
  4.318E-02  3.383E-01  1.750E+00 6.2470705E+00 -1.8197877E+01 2.0608841E+01
  0.000E+00  2.841E-01  1.698E+00 6.5706810E+00 -1.0443441E+01 1.0209052E+01
  4.318E-02  3.018E-01  1.716E+00 6.3199023E+00 -1.9208351E+01 1.9703259E+01
  0.000E+00  2.502E-01  1.662E+00 6.5298836E+00 -1.1004156E+01 9.6721128E+00
  4.318E-02  2.669E-01  1.680E+00 6.2671202E+00 -2.0200926E+01 1.8731095E+01
  0.000E+00  2.182E-01  1.623E+00 6.5240868E+00 -1.1477732E+01 9.1196426E+00
  4.318E-02  2.340E-01  1.643E+00 6.2862597E+00 -2.1097103E+01 1.7701574E+01
  0.000E+00  1.881E-01  1.584E+00 6.4176681E+00 -1.1877703E+01 8.5153321E+00
  4.318E-02  2.029E-01  1.604E+00 6.2261517E+00 -2.1960999E+01 1.6614287E+01
  0.000E+00  1.600E-01  1.543E+00 6.4321044E+00 -1.2286000E+01 7.8659206E+00
  4.318E-02  1.738E-01  1.563E+00 6.1351545E+00 -2.2740843E+01 1.5502033E+01
  0.000E+00  1.340E-01  1.500E+00 6.2247633E+00 -1.2623104E+01 7.2495970E+00
  4.318E-02  1.467E-01  1.521E+00 6.1004829E+00 -2.3486630E+01 1.4329634E+01
  0.000E+00  1.101E-01  1.456E+00 6.2077432E+00 -1.2919591E+01 6.5420349E+00
  4.318E-02  1.218E-01  1.478E+00 5.8854841E+00 -2.4128462E+01 1.3115836E+01
  0.000E+00  8.849E-02  1.411E+00 6.1572431E+00 -1.3211602E+01 5.9154057E+00
  4.318E-02  9.903E-02  1.434E+00 5.8826268E+00 -2.4695981E+01 1.1852339E+01
  0.000E+00  6.913E-02  1.365E+00 5.7283932E+00 -1.3149058E+01 5.1011024E+00
  4.318E-02  7.852E-02  1.388E+00 5.7326055E+00 -2.5169866E+01 1.0589077E+01
  0.000E+00  5.207E-02  1.318E+00 5.8527101E+00 -1.3921333E+01 4.6436843E+00
  4.318E-02  6.031E-02  1.342E+00 5.5230139E+00 -2.5616982E+01 9.2653086E+00
  0.000E+00  3.738E-02  1.271E+00 5.7463919E+00 -1.3008370E+01 3.6225963E+00
  4.318E-02  4.443E-02  1.295E+00 5.5009520E+00 -2.6290928E+01 8.0954833E+00
  0.000E+00  2.507E-02  1.223E+00 5.5390417E+00 -1.3948281E+01 3.1141970E+00
  4.318E-02  3.092E-02  1.247E+00 5.3857587E+00 -2.6096457E+01 6.4797293E+00
  0.000E+00  1.519E-02  1.174E+00 5.6104114E+00 -1.3479029E+01 2.3494554E+00
  4.318E-02  1.983E-02  1.198E+00 5.2149978E+00 -2.6770800E+01 5.3721522E+00
  0.000E+00  7.761E-03  1.124E+00 5.2907389E+00 -1.3893855E+01 1.7686507E+00
  4.318E-02  1.117E-02  1.149E+00 5.2182733E+00 -2.6462193E+01 3.8279923E+00
  0.000E+00  2.796E-03  1.075E+00 5.3770919E+00 -1.4068080E+01 1.0174989E+00
  4.318E-02  4.969E-03  1.100E+00 4.9591741E+00 -2.6991443E+01 2.6741630E+00
  0.000E+00  3.108E-04  1.025E+00 5.2743942E+00 -1.4066803E+01 4.2467744E-01
  4.318E-02  1.243E-03  1.050E+00 5.1313749E+00 -2.6829352E+01 1.3121778E+00
  0.000E+00  3.108E-04  9.751E-01 5.2744085E+00 -1.4067605E+01 -4.2404123E-01
  4.318E-02  0.000E+00  1.000E+00 4.9032578E+00 -2.7024533E+01 2.7795215E-04
  0.000E+00  2.796E-03  9.253E-01 5.3771222E+00 -1.4070334E+01 -1.0171433E+00
  4.318E-02  1.243E-03  9.502E-01 5.1314784E+00 -2.6830617E+01 -1.3117452E+00
  0.000E+00  7.761E-03  8.757E-01 5.2907621E+00 -1.3897087E+01 -1.7687806E+00
  4.318E-02  4.969E-03  9.004E-01 4.9593622E+00 -2.6993720E+01 -2.6740426E+00
  0.000E+00  1.519E-02  8.264E-01 5.6103984E+00 -1.3482355E+01 -2.3501012E+00
  4.318E-02  1.117E-02  8.510E-01 5.2184887E+00 -2.6465014E+01 -3.8283498E+00
  0.000E+00  2.507E-02  7.775E-01 5.5390548E+00 -1.3950851E+01 -3.1150129E+00
  4.318E-02  1.983E-02  8.019E-01 5.2151996E+00 -2.6773222E+01 -5.3728437E+00
  0.000E+00  3.738E-02  7.292E-01 5.7464958E+00 -1.3010596E+01 -3.6233238E+00
  4.318E-02  3.092E-02  7.532E-01 5.3859713E+00 -2.6098149E+01 -6.4804323E+00
  0.000E+00  5.207E-02  6.815E-01 5.8529151E+00 -1.3924059E+01 -4.6444681E+00
  4.318E-02  4.443E-02  7.052E-01 5.5012237E+00 -2.6292423E+01 -8.0960344E+00
  0.000E+00  6.913E-02  6.347E-01 5.7286556E+00 -1.3151763E+01 -5.1022571E+00
  4.318E-02  6.031E-02  6.580E-01 5.5233832E+00 -2.5618821E+01 -9.2659503E+00
  0.000E+00  8.849E-02  5.887E-01 6.1574242E+00 -1.3213070E+01 -5.9165341E+00
  4.318E-02  7.852E-02  6.116E-01 5.7329632E+00 -2.5171153E+01 -1.0589857E+01
  0.000E+00  1.101E-01  5.438E-01 6.2078851E+00 -1.2920891E+01 -6.5428871E+00
  4.318E-02  9.903E-02  5.661E-01 5.8828906E+00 -2.4696607E+01 -1.1852938E+01
  0.000E+00  1.340E-01  5.000E-01 6.2249023E+00 -1.2624223E+01 -7.2503853E+00
  4.318E-02  1.218E-01  5.217E-01 5.8857130E+00 -2.4129204E+01 -1.3116290E+01
  0.000E+00  1.600E-01  4.575E-01 6.4322175E+00 -1.2286259E+01 -7.8665015E+00
  4.318E-02  1.467E-01  4.786E-01 6.1006818E+00 -2.3486846E+01 -1.4330013E+01
  0.000E+00  1.881E-01  4.163E-01 6.4177807E+00 -1.1877833E+01 -8.5155970E+00
  4.318E-02  1.738E-01  4.367E-01 6.1352897E+00 -2.2740640E+01 -1.5502151E+01
  0.000E+00  2.182E-01  3.765E-01 6.5241898E+00 -1.1477566E+01 -9.1197116E+00
  4.318E-02  2.029E-01  3.962E-01 6.2262643E+00 -2.1960712E+01 -1.6614183E+01
  0.000E+00  2.502E-01  3.383E-01 6.5299451E+00 -1.1003889E+01 -9.6719975E+00
  4.318E-02  2.340E-01  3.572E-01 6.2863277E+00 -2.1096702E+01 -1.7701338E+01
  0.000E+00  2.841E-01  3.018E-01 6.5707327E+00 -1.0443128E+01 -1.0208814E+01
  4.318E-02  2.669E-01  3.198E-01 6.2671548E+00 -2.0200548E+01 -1.8730769E+01
  0.000E+00  3.198E-01  2.669E-01 6.5035165E+00 -1.0010456E+01 -1.0714606E+01
  4.318E-02  3.018E-01  2.841E-01 6.3199260E+00 -1.9207911E+01 -1.9702871E+01
  0.000E+00  3.572E-01  2.340E-01 6.5781250E+00 -9.3344888E+00 -1.1157237E+01
  4.318E-02  3.383E-01  2.502E-01 6.2470862E+00 -1.8197519E+01 -2.0608421E+01
  0.000E+00  3.962E-01  2.029E-01 6.4373159E+00 -8.7522437E+00 -1.1580899E+01
  4.318E-02  3.765E-01  2.182E-01 6.2415195E+00 -1.7132870E+01 -2.1486337E+01
  0.000E+00  4.367E-01  1.738E-01 6.3966835E+00 -8.2177521E+00 -1.1988613E+01
  4.318E-02  4.163E-01  1.881E-01 6.1218999E+00 -1.6000756E+01 -2.2281735E+01
  0.000E+00  4.786E-01  1.467E-01 6.4053926E+00 -7.5288398E+00 -1.2311019E+01
  4.318E-02  4.575E-01  1.600E-01 6.1543398E+00 -1.4851280E+01 -2.2974200E+01
  0.000E+00  5.217E-01  1.218E-01 6.1678628E+00 -6.8603922E+00 -1.2635786E+01
  4.318E-02  5.000E-01  1.340E-01 5.9115122E+00 -1.3707767E+01 -2.3710830E+01
  0.000E+00  5.661E-01  9.903E-02 6.1377903E+00 -6.1913209E+00 -1.2905311E+01
  4.318E-02  5.438E-01  1.101E-01 5.8962046E+00 -1.2486477E+01 -2.4400862E+01
  0.000E+00  6.116E-01  7.852E-02 5.9733546E+00 -5.5445905E+00 -1.3177097E+01
  4.318E-02  5.887E-01  8.849E-02 5.8550180E+00 -1.1192128E+01 -2.4889096E+01
  0.000E+00  6.580E-01  6.031E-02 5.8124753E+00 -4.9083519E+00 -1.3464561E+01
  4.318E-02  6.347E-01  6.913E-02 5.6392096E+00 -9.9503348E+00 -2.5374141E+01
  0.000E+00  7.052E-01  4.443E-02 5.8384492E+00 -4.2225356E+00 -1.3684501E+01
  4.318E-02  6.815E-01  5.207E-02 5.5455376E+00 -8.6862114E+00 -2.5831930E+01
  0.000E+00  7.532E-01  3.092E-02 5.8174597E+00 -3.5021936E+00 -1.3839380E+01
  4.318E-02  7.292E-01  3.738E-02 5.5096955E+00 -7.3589754E+00 -2.6175410E+01
  0.000E+00  8.019E-01  1.983E-02 5.7210829E+00 -2.7799956E+00 -1.3982036E+01
  4.318E-02  7.775E-01  2.507E-02 5.4048222E+00 -6.0122270E+00 -2.6463028E+01
  0.000E+00  8.510E-01  1.117E-02 5.5958317E+00 -2.0910865E+00 -1.4157259E+01
  4.318E-02  8.264E-01  1.519E-02 5.2825638E+00 -4.6717139E+00 -2.6748063E+01
  0.000E+00  9.004E-01  4.969E-03 5.4828311E+00 -1.4110294E+00 -1.4236812E+01
  4.318E-02  8.757E-01  7.761E-03 5.1907178E+00 -3.3493841E+00 -2.6999025E+01
  4.318E-02  9.253E-01  2.796E-03 5.1463336E+00 -2.0194338E+00 -2.7147828E+01
  1.000E+01  1.050E+00  1.243E-03 5.4262564E+00 7.1127693E-01 -1.4268669E+01
  1.000E+01  1.000E+00  5.551E-16 5.4072325E+00 -2.5895140E-05 -1.4269760E+01
  9.957E+00  1.025E+00  3.108E-04 6.2751724E+00 6.3242391E-02 -3.4957578E+00
  1.000E+01  9.502E-01  1.243E-03 5.4262674E+00 -7.1129614E-01 -1.4268659E+01
  9.957E+00  9.751E-01  3.108E-04 6.2751818E+00 -6.3264618E-02 -3.4957352E+00
  1.000E+01  9.004E-01  4.969E-03 5.4828311E+00 -1.4110294E+00 -1.4236812E+01
  9.957E+00  9.253E-01  2.796E-03 6.2876728E+00 -1.9896698E-01 -3.3421234E+00
  1.000E+01  8.510E-01  1.117E-02 5.5958317E+00 -2.0910865E+00 -1.4157259E+01
  9.957E+00  8.757E-01  7.761E-03 6.3300914E+00 -3.1480078E-01 -3.1505315E+00
  1.000E+01  8.019E-01  1.983E-02 5.7210829E+00 -2.7799956E+00 -1.3982036E+01
  9.957E+00  8.264E-01  1.519E-02 6.3935467E+00 -4.7047621E-01 -2.9078001E+00
  1.000E+01  7.532E-01  3.092E-02 5.8174597E+00 -3.5021936E+00 -1.3839380E+01
  9.957E+00  7.775E-01  2.507E-02 6.5618013E+00 -6.5019919E-01 -2.7012980E+00
  1.000E+01  7.052E-01  4.443E-02 5.8384492E+00 -4.2225356E+00 -1.3684501E+01
  9.957E+00  7.292E-01  3.738E-02 6.7297641E+00 -8.7635815E-01 -2.7817748E+00
  1.000E+01  6.580E-01  6.031E-02 5.8124753E+00 -4.9083519E+00 -1.3464561E+01
  9.957E+00  6.815E-01  5.207E-02 6.8606404E+00 -1.0906845E+00 -3.0181307E+00
  1.000E+01  6.116E-01  7.852E-02 5.9733546E+00 -5.5445905E+00 -1.3177097E+01
  9.957E+00  6.347E-01  6.913E-02 7.0003356E+00 -1.1637611E+00 -3.0863548E+00
  1.000E+01  5.661E-01  9.903E-02 6.1377903E+00 -6.1913209E+00 -1.2905311E+01
  9.957E+00  5.887E-01  8.849E-02 7.2257769E+00 -1.2672739E+00 -3.0450086E+00
  1.000E+01  5.217E-01  1.218E-01 6.1678628E+00 -6.8603922E+00 -1.2635786E+01
  9.957E+00  5.438E-01  1.101E-01 7.2658130E+00 -1.5289458E+00 -3.0251605E+00
  1.000E+01  4.786E-01  1.467E-01 6.4053926E+00 -7.5288398E+00 -1.2311019E+01
  9.957E+00  5.000E-01  1.340E-01 7.1754878E+00 -1.7914925E+00 -3.0568521E+00
  1.000E+01  4.367E-01  1.738E-01 6.3966835E+00 -8.2177521E+00 -1.1988613E+01
  9.957E+00  4.575E-01  1.600E-01 7.4047552E+00 -1.6226147E+00 -2.7062041E+00
  1.000E+01  3.962E-01  2.029E-01 6.4373159E+00 -8.7522437E+00 -1.1580899E+01
  9.957E+00  4.163E-01  1.881E-01 7.6012093E+00 -1.7207062E+00 -2.5795431E+00
  1.000E+01  3.572E-01  2.340E-01 6.5781250E+00 -9.3344888E+00 -1.1157237E+01
  9.957E+00  3.765E-01  2.182E-01 7.5691314E+00 -2.3295044E+00 -2.9058899E+00
  1.000E+01  3.198E-01  2.669E-01 6.5035165E+00 -1.0010456E+01 -1.0714606E+01
  9.957E+00  3.383E-01  2.502E-01 7.3988306E+00 -2.1244203E+00 -2.5305928E+00
  1.000E+01  2.841E-01  3.018E-01 6.5707327E+00 -1.0443128E+01 -1.0208814E+01
  9.957E+00  3.018E-01  2.841E-01 7.8411468E+00 -2.1436353E+00 -2.3030193E+00
  1.000E+01  2.502E-01  3.383E-01 6.5299451E+00 -1.1003889E+01 -9.6719975E+00
  9.957E+00  2.669E-01  3.198E-01 7.4156717E+00 -2.8423809E+00 -2.6161353E+00
  1.000E+01  2.182E-01  3.765E-01 6.5241898E+00 -1.1477566E+01 -9.1197116E+00
  9.957E+00  2.340E-01  3.572E-01 7.6350675E+00 -2.1287101E+00 -1.9934396E+00
  1.000E+01  1.881E-01  4.163E-01 6.4177807E+00 -1.1877833E+01 -8.5155970E+00
  9.957E+00  2.029E-01  3.962E-01 7.5089916E+00 -3.1512464E+00 -2.2919034E+00
  1.000E+01  1.600E-01  4.575E-01 6.4322175E+00 -1.2286259E+01 -7.8665015E+00
  9.957E+00  1.738E-01  4.367E-01 7.3397246E+00 -2.4570888E+00 -1.8524373E+00
  1.000E+01  1.340E-01  5.000E-01 6.2249023E+00 -1.2624223E+01 -7.2503853E+00
  9.957E+00  1.467E-01  4.786E-01 7.4689661E+00 -3.2454406E+00 -1.8495732E+00
  1.000E+01  1.101E-01  5.438E-01 6.2078851E+00 -1.2920891E+01 -6.5428871E+00
  9.957E+00  1.218E-01  5.217E-01 7.0965603E+00 -2.5573628E+00 -1.5845467E+00
  1.000E+01  8.849E-02  5.887E-01 6.1574242E+00 -1.3213070E+01 -5.9165341E+00
  9.957E+00  9.903E-02  5.661E-01 7.2667347E+00 -3.2274945E+00 -1.3359993E+00
  1.000E+01  6.913E-02  6.347E-01 5.7286556E+00 -1.3151763E+01 -5.1022571E+00
  9.957E+00  7.852E-02  6.116E-01 6.9939064E+00 -2.6551175E+00 -1.2664940E+00
  1.000E+01  5.207E-02  6.815E-01 5.8529151E+00 -1.3924059E+01 -4.6444681E+00
  9.957E+00  6.031E-02  6.580E-01 6.8788030E+00 -3.1568143E+00 -9.5749183E-01
  1.000E+01  3.738E-02  7.292E-01 5.7464958E+00 -1.3010596E+01 -3.6233238E+00
  9.957E+00  4.443E-02  7.052E-01 6.7696752E+00 -2.6836922E+00 -8.7045456E-01
  1.000E+01  2.507E-02  7.775E-01 5.5390548E+00 -1.3950851E+01 -3.1150129E+00
  9.957E+00  3.092E-02  7.532E-01 6.7854022E+00 -2.8484410E+00 -5.8964619E-01
  1.000E+01  1.519E-02  8.264E-01 5.6103984E+00 -1.3482355E+01 -2.3501012E+00
  9.957E+00  1.983E-02  8.019E-01 6.6505650E+00 -2.3758021E+00 -3.5461086E-01
  1.000E+01  7.761E-03  8.757E-01 5.2907621E+00 -1.3897087E+01 -1.7687806E+00
  9.957E+00  1.117E-02  8.510E-01 6.4717080E+00 -2.8359787E+00 -3.6765876E-01
  1.000E+01  2.796E-03  9.253E-01 5.3771222E+00 -1.4070334E+01 -1.0171433E+00
  9.957E+00  4.969E-03  9.004E-01 6.5304301E+00 -2.4918532E+00 -1.7442190E-01
  1.000E+01  3.108E-04  9.751E-01 5.2744085E+00 -1.4067605E+01 -4.2404123E-01
  9.957E+00  1.243E-03  9.502E-01 6.3063719E+00 -2.6966336E+00 -1.2602217E-01
  1.000E+01  3.108E-04  1.025E+00 5.2743942E+00 -1.4066803E+01 4.2467744E-01
  9.957E+00  0.000E+00  1.000E+00 6.4505957E+00 -2.6273399E+00 3.6109179E-04
  1.000E+01  2.796E-03  1.075E+00 5.3770919E+00 -1.4068080E+01 1.0174989E+00
  9.957E+00  1.243E-03  1.050E+00 6.3065008E+00 -2.6950205E+00 1.2658906E-01
  1.000E+01  7.761E-03  1.124E+00 5.2907389E+00 -1.3893855E+01 1.7686507E+00
  9.957E+00  4.969E-03  1.100E+00 6.5306868E+00 -2.4889562E+00 1.7455898E-01
  1.000E+01  1.519E-02  1.174E+00 5.6104114E+00 -1.3479029E+01 2.3494554E+00
  9.957E+00  1.117E-02  1.149E+00 6.4720384E+00 -2.8326283E+00 3.6726574E-01
  1.000E+01  2.507E-02  1.223E+00 5.5390417E+00 -1.3948281E+01 3.1141970E+00
  9.957E+00  1.983E-02  1.198E+00 6.6508739E+00 -2.3728244E+00 3.5388663E-01
  1.000E+01  3.738E-02  1.271E+00 5.7463919E+00 -1.3008370E+01 3.6225963E+00
  9.957E+00  3.092E-02  1.247E+00 6.7856029E+00 -2.8459712E+00 5.8893388E-01
  1.000E+01  5.207E-02  1.318E+00 5.8527101E+00 -1.3921333E+01 4.6436843E+00
  9.957E+00  4.443E-02  1.295E+00 6.7697268E+00 -2.6806325E+00 8.6970246E-01
  1.000E+01  6.913E-02  1.365E+00 5.7283932E+00 -1.3149058E+01 5.1011024E+00
  9.957E+00  6.031E-02  1.342E+00 6.8788073E+00 -3.1531128E+00 9.5626948E-01
  1.000E+01  8.849E-02  1.411E+00 6.1572431E+00 -1.3211602E+01 5.9154057E+00
  9.957E+00  7.852E-02  1.388E+00 6.9939263E+00 -2.6525416E+00 1.2650000E+00
  1.000E+01  1.101E-01  1.456E+00 6.2077432E+00 -1.2919591E+01 6.5420349E+00
  9.957E+00  9.903E-02  1.434E+00 7.2667768E+00 -3.2258751E+00 1.3347773E+00
  1.000E+01  1.340E-01  1.500E+00 6.2247633E+00 -1.2623104E+01 7.2495970E+00
  9.957E+00  1.218E-01  1.478E+00 7.0965600E+00 -2.5555199E+00 1.5834785E+00
  1.000E+01  1.600E-01  1.543E+00 6.4321044E+00 -1.2286000E+01 7.8659206E+00
  9.957E+00  1.467E-01  1.521E+00 7.4689850E+00 -3.2445400E+00 1.8486258E+00
  1.000E+01  1.881E-01  1.584E+00 6.4176681E+00 -1.1877703E+01 8.5153321E+00
  9.957E+00  1.738E-01  1.563E+00 7.3396834E+00 -2.4565613E+00 1.8517839E+00
  1.000E+01  2.182E-01  1.623E+00 6.5240868E+00 -1.1477732E+01 9.1196426E+00
  9.957E+00  2.029E-01  1.604E+00 7.5089215E+00 -3.1509513E+00 2.2914969E+00
  1.000E+01  2.502E-01  1.662E+00 6.5298836E+00 -1.1004156E+01 9.6721128E+00
  9.957E+00  2.340E-01  1.643E+00 7.6349979E+00 -2.1287917E+00 1.9932332E+00
  1.000E+01  2.841E-01  1.698E+00 6.5706810E+00 -1.0443441E+01 1.0209052E+01
  9.957E+00  2.669E-01  1.680E+00 7.4156180E+00 -2.8425228E+00 2.6161640E+00
  1.000E+01  3.198E-01  1.733E+00 6.5034654E+00 -1.0010813E+01 1.0714920E+01
  9.957E+00  3.018E-01  1.716E+00 7.8410899E+00 -2.1438346E+00 2.3031299E+00
  1.000E+01  3.572E-01  1.766E+00 6.5780817E+00 -9.3347453E+00 1.1157573E+01
  9.957E+00  3.383E-01  1.750E+00 7.3987563E+00 -2.1246226E+00 2.5307852E+00
  1.000E+01  3.962E-01  1.797E+00 6.4372904E+00 -8.7524761E+00 1.1581219E+01
  9.957E+00  3.765E-01  1.782E+00 7.5690871E+00 -2.3297076E+00 2.9061161E+00
  1.000E+01  4.367E-01  1.826E+00 6.3966585E+00 -8.2179599E+00 1.1988927E+01
  9.957E+00  4.163E-01  1.812E+00 7.6011700E+00 -1.7208690E+00 2.5797719E+00
  1.000E+01  4.786E-01  1.853E+00 6.4053706E+00 -7.5289971E+00 1.2311312E+01
  9.957E+00  4.575E-01  1.840E+00 7.4047019E+00 -1.6227566E+00 2.7064365E+00
  1.000E+01  5.217E-01  1.878E+00 6.1678525E+00 -6.8605191E+00 1.2636052E+01
  9.957E+00  5.000E-01  1.866E+00 7.1754533E+00 -1.7916405E+00 3.0570867E+00
  1.000E+01  5.661E-01  1.901E+00 6.1377716E+00 -6.1914343E+00 1.2905555E+01
  9.957E+00  5.438E-01  1.890E+00 7.2657921E+00 -1.5290252E+00 3.0253769E+00
  1.000E+01  6.116E-01  1.921E+00 5.9733336E+00 -5.5446530E+00 1.3177307E+01
  9.957E+00  5.887E-01  1.912E+00 7.2257482E+00 -1.2673426E+00 3.0451993E+00
  1.000E+01  6.580E-01  1.940E+00 5.8124649E+00 -4.9083911E+00 1.3464738E+01
  9.957E+00  6.347E-01  1.931E+00 7.0003245E+00 -1.1638228E+00 3.0865329E+00
  1.000E+01  7.052E-01  1.956E+00 5.8384387E+00 -4.2225597E+00 1.3684645E+01
  9.957E+00  6.815E-01  1.948E+00 6.8606300E+00 -1.0907198E+00 3.0182906E+00
  1.000E+01  7.532E-01  1.969E+00 5.8174655E+00 -3.5021709E+00 1.3839482E+01
  9.957E+00  7.292E-01  1.963E+00 6.7297465E+00 -8.7638429E-01 2.7819106E+00
  1.000E+01  8.019E-01  1.980E+00 5.7210974E+00 -2.7800002E+00 1.3982099E+01
  9.957E+00  7.775E-01  1.975E+00 6.5618017E+00 -6.5020571E-01 2.7014111E+00
  1.000E+01  8.510E-01  1.989E+00 5.5958417E+00 -2.0910649E+00 1.4157294E+01
  9.957E+00  8.264E-01  1.985E+00 6.3935381E+00 -4.7046445E-01 2.9078800E+00
  1.000E+01  9.004E-01  1.995E+00 5.4828474E+00 -1.4110081E+00 1.4236819E+01
  9.957E+00  8.757E-01  1.992E+00 6.3300944E+00 -3.1478808E-01 3.1505809E+00
  1.000E+01  9.502E-01  1.999E+00 5.4262734E+00 -7.1129025E-01 1.4268657E+01
  9.957E+00  9.253E-01  1.997E+00 6.2876835E+00 -1.9894360E-01 3.3421443E+00
  1.000E+01  1.000E+00  2.000E+00 5.4072409E+00 1.4509750E-05 1.4269750E+01
  9.957E+00  9.751E-01  2.000E+00 6.2751839E+00 -6.3245799E-02 3.4957234E+00
  1.000E+01  1.050E+00  1.999E+00 5.4262712E+00 7.1128956E-01 1.4268644E+01
  9.957E+00  1.025E+00  2.000E+00 6.2751904E+00 6.3259280E-02 3.4957160E+00
  1.000E+01  1.100E+00  1.995E+00 5.4828352E+00 1.4110266E+00 1.4236793E+01
  9.957E+00  1.075E+00  1.997E+00 6.2876781E+00 1.9896062E-01 3.3421187E+00
  1.000E+01  1.149E+00  1.989E+00 5.5958381E+00 2.0910845E+00 1.4157236E+01
  9.957E+00  1.124E+00  1.992E+00 6.3300930E+00 3.1479632E-01 3.1505337E+00