# TIME = 9.000000
VARIABLES = X, Y, Z, FX, FY, FZ
ZONE N=29232 E=58212 F=FEPOINT ET=TRIANGLE
  0.000E+00  9.502E-01  1.243E-03 9.0518769E+00 -1.1081888E-02 -2.2523181E-01
  0.000E+00  1.000E+00  0.000E+00 9.0412231E+00 6.6023363E-06 -2.2537864E-01
  4.318E-02  9.751E-01  3.108E-04 8.7643810E+00 1.0799801E-02 4.3607978E-01
  0.000E+00  1.050E+00  1.243E-03 9.0518760E+00 1.1069982E-02 -2.2523145E-01
  4.318E-02  1.025E+00  3.108E-04 8.7643783E+00 -1.0800459E-02 4.3607986E-01
  0.000E+00  1.100E+00  4.969E-03 9.0888885E+00 2.2391007E-02 -2.2449959E-01
  4.318E-02  1.075E+00  2.796E-03 8.7895688E+00 -3.2375782E-02 4.3499074E-01
  0.000E+00  1.149E+00  1.117E-02 9.1623564E+00 3.3778529E-02 -2.2276875E-01
  4.318E-02  1.124E+00  7.761E-03 8.8449716E+00 -5.3957467E-02 4.3306222E-01
  0.000E+00  1.198E+00  1.983E-02 9.2711428E+00 4.4798783E-02 -2.2045176E-01
  4.318E-02  1.174E+00  1.519E-02 8.9345303E+00 -7.5754124E-02 4.3040924E-01
  0.000E+00  1.247E+00  3.092E-02 9.3878114E+00 5.5081449E-02 -2.1864535E-01
  4.318E-02  1.223E+00  2.507E-02 9.0500242E+00 -9.7872125E-02 4.2634262E-01
  0.000E+00  1.295E+00  4.443E-02 9.4734851E+00 6.4987833E-02 -2.1762882E-01
  4.318E-02  1.271E+00  3.738E-02 9.1573222E+00 -1.1968968E-01 4.1939843E-01
  0.000E+00  1.342E+00  6.031E-02 9.5362115E+00 7.5701580E-02 -2.1512482E-01
  4.318E-02  1.318E+00  5.207E-02 9.2264884E+00 -1.4021021E-01 4.1025400E-01
  0.000E+00  1.388E+00  7.852E-02 9.7118065E+00 8.6406058E-02 -2.0830614E-01
  4.318E-02  1.365E+00  6.913E-02 9.3297055E+00 -1.6002250E-01 4.0403476E-01
  0.000E+00  1.434E+00  9.903E-02 9.8585830E+00 9.7322160E-02 -2.0616723E-01
  4.318E-02  1.411E+00  8.849E-02 9.5240289E+00 -1.8055073E-01 3.9720997E-01
  0.000E+00  1.478E+00  1.218E-01 9.8939874E+00 1.0791700E-01 -2.0334938E-01
  4.318E-02  1.456E+00  1.101E-01 9.6124808E+00 -1.9951907E-01 3.8389374E-01
  0.000E+00  1.521E+00  1.467E-01 1.0076145E+01 1.1670038E-01 -1.9372595E-01
  4.318E-02  1.500E+00  1.340E-01 9.6813373E+00 -2.1805349E-01 3.7462092E-01
  0.000E+00  1.563E+00  1.738E-01 1.0116104E+01 1.2858158E-01 -1.9253309E-01
  4.318E-02  1.543E+00  1.600E-01 9.8486497E+00 -2.3691909E-01 3.6400856E-01
  0.000E+00  1.604E+00  2.029E-01 1.0206636E+01 1.3613886E-01 -1.8222780E-01
  4.318E-02  1.584E+00  1.881E-01 9.8578218E+00 -2.5373853E-01 3.4934843E-01
  0.000E+00  1.643E+00  2.340E-01 1.0270548E+01 1.4691241E-01 -1.7790258E-01
  4.318E-02  1.623E+00  2.182E-01 9.9657034E+00 -2.7074538E-01 3.3803039E-01
  0.000E+00  1.680E+00  2.669E-01 1.0260493E+01 1.5534263E-01 -1.6884941E-01
  4.318E-02  1.662E+00  2.502E-01 9.9703328E+00 -2.8730406E-01 3.2268585E-01
  0.000E+00  1.716E+00  3.018E-01 1.0307239E+01 1.6374139E-01 -1.6191102E-01
  4.318E-02  1.698E+00  2.841E-01 1.0028502E+01 -3.0210222E-01 3.0883120E-01
  0.000E+00  1.750E+00  3.383E-01 1.0247920E+01 1.7283020E-01 -1.5281290E-01
  4.318E-02  1.733E+00  3.198E-01 9.9833961E+00 -3.1792403E-01 2.9330895E-01
  0.000E+00  1.782E+00  3.765E-01 1.0244566E+01 1.7891464E-01 -1.4416824E-01
  4.318E-02  1.766E+00  3.572E-01 9.9921213E+00 -3.3039907E-01 2.7669972E-01
  0.000E+00  1.812E+00  4.163E-01 1.0135484E+01 1.8820741E-01 -1.3511747E-01
  4.318E-02  1.797E+00  3.962E-01 9.9294007E+00 -3.4607934E-01 2.6135585E-01
  0.000E+00  1.840E+00  4.575E-01 1.0128382E+01 1.9227515E-01 -1.2454774E-01
  4.318E-02  1.826E+00  4.367E-01 9.8387568E+00 -3.5491663E-01 2.4216090E-01
  0.000E+00  1.866E+00  5.000E-01 9.9590496E+00 1.9935398E-01 -1.1516475E-01
  4.318E-02  1.853E+00  4.786E-01 9.7982632E+00 -3.7070105E-01 2.2590599E-01
  0.000E+00  1.890E+00  5.438E-01 9.8917833E+00 2.0655116E-01 -1.0490585E-01
  4.318E-02  1.878E+00  5.217E-01 9.6180222E+00 -3.7752269E-01 2.0640348E-01
  0.000E+00  1.912E+00  5.887E-01 9.8037235E+00 2.0768476E-01 -9.3865206E-02
  4.318E-02  1.901E+00  5.661E-01 9.5801851E+00 -3.8925013E-01 1.8777612E-01
  0.000E+00  1.931E+00  6.347E-01 9.6071244E+00 2.1374056E-01 -8.3238745E-02
  4.318E-02  1.921E+00  6.116E-01 9.4345424E+00 -3.9986414E-01 1.6832913E-01
  0.000E+00  1.948E+00  6.815E-01 9.5047050E+00 2.1910976E-01 -7.1900376E-02
  4.318E-02  1.940E+00  6.580E-01 9.2601078E+00 -4.0461547E-01 1.4815724E-01
  0.000E+00  1.963E+00  7.292E-01 9.4368207E+00 2.2034631E-01 -6.1536848E-02
  4.318E-02  1.956E+00  7.052E-01 9.1951720E+00 -4.1246939E-01 1.2830873E-01
  0.000E+00  1.975E+00  7.775E-01 9.3292711E+00 2.2205092E-01 -5.1474698E-02
  4.318E-02  1.969E+00  7.532E-01 9.1085003E+00 -4.2047544E-01 1.0733489E-01
  0.000E+00  1.985E+00  8.264E-01 9.2127936E+00 2.2459830E-01 -4.0556562E-02
  4.318E-02  1.980E+00  8.019E-01 8.9922779E+00 -4.2567583E-01 8.5472511E-02
  0.000E+00  1.992E+00  8.757E-01 9.1224220E+00 2.2684371E-01 -2.8939296E-02
  4.318E-02  1.989E+00  8.510E-01 8.8842838E+00 -4.2853203E-01 6.3698172E-02
  0.000E+00  1.997E+00  9.253E-01 9.0666283E+00 2.2824626E-01 -1.7258785E-02
  4.318E-02  1.995E+00  9.004E-01 8.8112294E+00 -4.3046667E-01 4.2355214E-02
  0.000E+00  2.000E+00  9.751E-01 9.0413419E+00 2.2884576E-01 -5.7331810E-03
  4.318E-02  1.999E+00  9.502E-01 8.7742742E+00 -4.3199081E-01 2.1209867E-02
  0.000E+00  2.000E+00  1.025E+00 9.0413434E+00 2.2883205E-01 5.7199812E-03
  4.318E-02  2.000E+00  1.000E+00 8.7636038E+00 -4.3262523E-01 -5.2946425E-06
  0.000E+00  1.997E+00  1.075E+00 9.0666331E+00 2.2820437E-01 1.7244776E-02
  4.318E-02  1.999E+00  1.050E+00 8.7742775E+00 -4.3200776E-01 -2.1220574E-02
  0.000E+00  1.992E+00  1.124E+00 9.1224309E+00 2.2677738E-01 2.8924293E-02
  4.318E-02  1.995E+00  1.100E+00 8.8112358E+00 -4.3049324E-01 -4.2365856E-02
  0.000E+00  1.985E+00  1.174E+00 9.2128070E+00 2.2453107E-01 4.0542806E-02
  4.318E-02  1.989E+00  1.149E+00 8.8842927E+00 -4.2855249E-01 -6.3707497E-02
  0.000E+00  1.975E+00  1.223E+00 9.3292868E+00 2.2202659E-01 5.1467235E-02
  4.318E-02  1.980E+00  1.198E+00 8.9922876E+00 -4.2567657E-01 -8.5478834E-02
  0.000E+00  1.963E+00  1.271E+00 9.4368356E+00 2.2038615E-01 6.1538638E-02
  4.318E-02  1.969E+00  1.247E+00 9.1085098E+00 -4.2046372E-01 -1.0733832E-01
  0.000E+00  1.948E+00  1.318E+00 9.5047194E+00 2.1917509E-01 7.1907588E-02
  4.318E-02  1.956E+00  1.295E+00 9.1951826E+00 -4.1246899E-01 -1.2831140E-01
  0.000E+00  1.931E+00  1.365E+00 9.6071412E+00 2.1377807E-01 8.3245931E-02
  4.318E-02  1.940E+00  1.342E+00 9.2601207E+00 -4.0462717E-01 -1.4815942E-01
  0.000E+00  1.912E+00  1.411E+00 9.8037388E+00 2.0769663E-01 9.3871166E-02
  4.318E-02  1.921E+00  1.388E+00 9.4345561E+00 -3.9986463E-01 -1.6832872E-01
  0.000E+00  1.890E+00  1.456E+00 9.8917963E+00 2.0654151E-01 1.0490895E-01
  4.318E-02  1.901E+00  1.434E+00 9.5801977E+00 -3.8924145E-01 -1.8777309E-01
  0.000E+00  1.866E+00  1.500E+00 9.9590595E+00 1.9933558E-01 1.1516627E-01
  4.318E-02  1.878E+00  1.478E+00 9.6180317E+00 -3.7751575E-01 -2.0639979E-01
  0.000E+00  1.840E+00  1.543E+00 1.0128390E+01 1.9228672E-01 1.2455258E-01
  4.318E-02  1.853E+00  1.521E+00 9.7982683E+00 -3.7069518E-01 -2.2590289E-01
  0.000E+00  1.812E+00  1.584E+00 1.0135491E+01 1.8823715E-01 1.3512471E-01
  4.318E-02  1.826E+00  1.563E+00 9.8387620E+00 -3.5491406E-01 -2.4215909E-01
  0.000E+00  1.782E+00  1.623E+00 1.0244574E+01 1.7892064E-01 1.4417189E-01
  4.318E-02  1.797E+00  1.604E+00 9.9294090E+00 -3.4607625E-01 -2.6135410E-01
  0.000E+00  1.750E+00  1.662E+00 1.0247924E+01 1.7280808E-01 1.5281453E-01
  4.318E-02  1.766E+00  1.643E+00 9.9921299E+00 -3.3039452E-01 -2.7669688E-01
  0.000E+00  1.716E+00  1.698E+00 1.0307242E+01 1.6375002E-01 1.6191417E-01
  4.318E-02  1.733E+00  1.680E+00 9.9833990E+00 -3.1791993E-01 -2.9330593E-01
  0.000E+00  1.680E+00  1.733E+00 1.0260499E+01 1.5536404E-01 1.6885421E-01
  4.318E-02  1.698E+00  1.716E+00 1.0028505E+01 -3.0209989E-01 -3.0882956E-01
  0.000E+00  1.643E+00  1.766E+00 1.0270555E+01 1.4690164E-01 1.7790392E-01
  4.318E-02  1.662E+00  1.750E+00 9.9703392E+00 -2.8730115E-01 -3.2268369E-01
  0.000E+00  1.604E+00  1.797E+00 1.0206641E+01 1.3613306E-01 1.8222949E-01
  4.318E-02  1.623E+00  1.782E+00 9.9657056E+00 -2.7074163E-01 -3.3802774E-01
  0.000E+00  1.563E+00  1.826E+00 1.0116106E+01 1.2860368E-01 1.9253756E-01
  4.318E-02  1.584E+00  1.812E+00 9.8578218E+00 -2.5373793E-01 -3.4934709E-01
  0.000E+00  1.521E+00  1.853E+00 1.0076144E+01 1.1669744E-01 1.9372866E-01
  4.318E-02  1.543E+00  1.840E+00 9.8486590E+00 -2.3691765E-01 -3.6400829E-01
  0.000E+00  1.478E+00  1.878E+00 9.8939842E+00 1.0791125E-01 2.0335106E-01
  4.318E-02  1.500E+00  1.866E+00 9.6813436E+00 -2.1805370E-01 -3.7461959E-01
  0.000E+00  1.434E+00  1.901E+00 9.8585867E+00 9.7335893E-02 2.0616900E-01
  4.318E-02  1.456E+00  1.890E+00 9.6124825E+00 -1.9951740E-01 -3.8389232E-01
  0.000E+00  1.388E+00  1.921E+00 9.7118180E+00 8.6391538E-02 2.0830550E-01
  4.318E-02  1.411E+00  1.912E+00 9.5240301E+00 -1.8054846E-01 -3.9720818E-01
  0.000E+00  1.342E+00  1.940E+00 9.5362222E+00 7.5702599E-02 2.1512470E-01
  4.318E-02  1.365E+00  1.931E+00 9.3296984E+00 -1.6002087E-01 -4.0403340E-01
  0.000E+00  1.295E+00  1.956E+00 9.4734916E+00 6.4995919E-02 2.1762864E-01
  4.318E-02  1.318E+00  1.948E+00 9.2264835E+00 -1.4020846E-01 -4.1025366E-01
  0.000E+00  1.247E+00  1.969E+00 9.3878082E+00 5.5063239E-02 2.1864297E-01
  4.318E-02  1.271E+00  1.963E+00 9.1573257E+00 -1.1968695E-01 -4.1939770E-01
  0.000E+00  1.198E+00  1.980E+00 9.2711353E+00 4.4805874E-02 2.2044869E-01
  4.318E-02  1.223E+00  1.975E+00 9.0500262E+00 -9.7868392E-02 -4.2634120E-01
  0.000E+00  1.149E+00  1.989E+00 9.1623520E+00 3.3769106E-02 2.2276417E-01
  4.318E-02  1.174E+00  1.985E+00 8.9345364E+00 -7.5750541E-02 -4.3040735E-01
  0.000E+00  1.100E+00  1.995E+00 9.0888856E+00 2.2384797E-02 2.2449417E-01
  4.318E-02  1.124E+00  1.992E+00 8.8449731E+00 -5.3955944E-02 -4.3306012E-01
  0.000E+00  1.050E+00  1.999E+00 9.0518778E+00 1.1080436E-02 2.2522573E-01
  4.318E-02  1.075E+00  1.997E+00 8.7895659E+00 -3.2374803E-02 -4.3498893E-01
  0.000E+00  1.000E+00  2.000E+00 9.0412251E+00 -7.1608619E-06 2.2537240E-01
  4.318E-02  1.025E+00  2.000E+00 8.7643777E+00 -1.0800339E-02 -4.3607835E-01
  0.000E+00  9.502E-01  1.999E+00 9.0518767E+00 -1.1069628E-02 2.2522509E-01
  4.318E-02  9.751E-01  2.000E+00 8.7643749E+00 1.0799843E-02 -4.3607863E-01
  0.000E+00  9.004E-01  1.995E+00 9.0888857E+00 -2.2388889E-02 2.2449322E-01
  4.318E-02  9.253E-01  1.997E+00 8.7895668E+00 3.2374772E-02 -4.3498971E-01
  0.000E+00  8.510E-01  1.989E+00 9.1623494E+00 -3.3774172E-02 2.2276263E-01
  4.318E-02  8.757E-01  1.992E+00 8.8449721E+00 5.3955379E-02 -4.3306145E-01
  0.000E+00  8.019E-01  1.980E+00 9.2711339E+00 -4.4793294E-02 2.2044630E-01
  4.318E-02  8.264E-01  1.985E+00 8.9345331E+00 7.5750753E-02 -4.3040896E-01
  0.000E+00  7.532E-01  1.969E+00 9.3878060E+00 -5.5077229E-02 2.1864090E-01
  4.318E-02  7.775E-01  1.975E+00 9.0500268E+00 9.7868530E-02 -4.2634322E-01
  0.000E+00  7.052E-01  1.956E+00 9.4734877E+00 -6.4985978E-02 2.1762516E-01
  4.318E-02  7.292E-01  1.963E+00 9.1573208E+00 1.1968728E-01 -4.1940006E-01
  0.000E+00  6.580E-01  1.940E+00 9.5362201E+00 -7.5699743E-02 2.1512123E-01
  4.318E-02  6.815E-01  1.948E+00 9.2264814E+00 1.4020944E-01 -4.1025614E-01
  0.000E+00  6.116E-01  1.921E+00 9.7118136E+00 -8.6402258E-02 2.0830226E-01
  4.318E-02  6.347E-01  1.931E+00 9.3296964E+00 1.6002195E-01 -4.0403658E-01
  0.000E+00  5.661E-01  1.901E+00 9.8585821E+00 -9.7317660E-02 2.0616374E-01
  4.318E-02  5.887E-01  1.912E+00 9.5240231E+00 1.8054996E-01 -3.9721159E-01
  0.000E+00  5.217E-01  1.878E+00 9.8939806E+00 -1.0791579E-01 2.0334695E-01
  4.318E-02  5.438E-01  1.890E+00 9.6124807E+00 1.9951945E-01 -3.8389577E-01
  0.000E+00  4.786E-01  1.853E+00 1.0076138E+01 -1.1670251E-01 1.9372428E-01
  4.318E-02  5.000E-01  1.866E+00 9.6813391E+00 2.1805630E-01 -3.7462385E-01
  0.000E+00  4.367E-01  1.826E+00 1.0116100E+01 -1.2858189E-01 1.9253089E-01
  4.318E-02  4.575E-01  1.840E+00 9.8486514E+00 2.3692050E-01 -3.6401217E-01
  0.000E+00  3.962E-01  1.797E+00 1.0206636E+01 -1.3613682E-01 1.8222500E-01
  4.318E-02  4.163E-01  1.812E+00 9.8578190E+00 2.5374113E-01 -3.4935102E-01
  0.000E+00  3.572E-01  1.766E+00 1.0270547E+01 -1.4690878E-01 1.7789947E-01
  4.318E-02  3.765E-01  1.782E+00 9.9657000E+00 2.7074627E-01 -3.3803253E-01
  0.000E+00  3.198E-01  1.733E+00 1.0260492E+01 -1.5533971E-01 1.6884670E-01
  4.318E-02  3.383E-01  1.750E+00 9.9703300E+00 2.8730523E-01 -3.2268779E-01
  0.000E+00  2.841E-01  1.698E+00 1.0307236E+01 -1.6373985E-01 1.6190838E-01
  4.318E-02  3.018E-01  1.716E+00 1.0028500E+01 3.0210407E-01 -3.0883325E-01
  0.000E+00  2.502E-01  1.662E+00 1.0247916E+01 -1.7282419E-01 1.5281147E-01
  4.318E-02  2.669E-01  1.680E+00 9.9833943E+00 3.1792611E-01 -2.9331073E-01
  0.000E+00  2.182E-01  1.623E+00 1.0244564E+01 -1.7891295E-01 1.4416588E-01
  4.318E-02  2.340E-01  1.643E+00 9.9921201E+00 3.3040069E-01 -2.7670173E-01
  0.000E+00  1.881E-01  1.584E+00 1.0135482E+01 -1.8820468E-01 1.3511559E-01
  4.318E-02  2.029E-01  1.604E+00 9.9293987E+00 3.4608158E-01 -2.6135766E-01
  0.000E+00  1.600E-01  1.543E+00 1.0128380E+01 -1.9227230E-01 1.2454596E-01
  4.318E-02  1.738E-01  1.563E+00 9.8387548E+00 3.5491883E-01 -2.4216249E-01
  0.000E+00  1.340E-01  1.500E+00 9.9590481E+00 -1.9935110E-01 1.1516318E-01
  4.318E-02  1.467E-01  1.521E+00 9.7982611E+00 3.7070330E-01 -2.2590744E-01
  0.000E+00  1.101E-01  1.456E+00 9.8917818E+00 -2.0654831E-01 1.0490444E-01
  4.318E-02  1.218E-01  1.478E+00 9.6180202E+00 3.7752501E-01 -2.0640477E-01
  0.000E+00  8.849E-02  1.411E+00 9.8037217E+00 -2.0768183E-01 9.3864057E-02
  4.318E-02  9.903E-02  1.434E+00 9.5801833E+00 3.8925229E-01 -1.8777731E-01
  0.000E+00  6.913E-02  1.365E+00 9.6071230E+00 -2.1373794E-01 8.3237688E-02
  4.318E-02  7.852E-02  1.388E+00 9.4345406E+00 3.9986639E-01 -1.6833016E-01
  0.000E+00  5.207E-02  1.318E+00 9.5047037E+00 -2.1910724E-01 7.1899505E-02
  4.318E-02  6.031E-02  1.342E+00 9.2601060E+00 4.0461772E-01 -1.4815816E-01
  0.000E+00  3.738E-02  1.271E+00 9.4368193E+00 -2.2034400E-01 6.1536117E-02
  4.318E-02  4.443E-02  1.295E+00 9.1951704E+00 4.1247168E-01 -1.2830955E-01
  0.000E+00  2.507E-02  1.223E+00 9.3292695E+00 -2.2204883E-01 5.1474056E-02
  4.318E-02  3.092E-02  1.247E+00 9.1084989E+00 4.2047779E-01 -1.0733562E-01
  0.000E+00  1.519E-02  1.174E+00 9.2127920E+00 -2.2459634E-01 4.0555968E-02
  4.318E-02  1.983E-02  1.198E+00 8.9922766E+00 4.2567820E-01 -8.5473165E-02
  0.000E+00  7.761E-03  1.124E+00 9.1224205E+00 -2.2684178E-01 2.8938721E-02
  4.318E-02  1.117E-02  1.149E+00 8.8842825E+00 4.2853434E-01 -6.3698767E-02
  0.000E+00  2.796E-03  1.075E+00 9.0666268E+00 -2.2824429E-01 1.7258207E-02
  4.318E-02  4.969E-03  1.100E+00 8.8112281E+00 4.3046887E-01 -4.2355754E-02
  0.000E+00  3.108E-04  1.025E+00 9.0413405E+00 -2.2884370E-01 5.7326234E-03
  4.318E-02  1.243E-03  1.050E+00 8.7742729E+00 4.3199288E-01 -2.1210345E-02
  0.000E+00  3.108E-04  9.751E-01 9.0413421E+00 -2.2882987E-01 -5.7204474E-03
  4.318E-02  0.000E+00  1.000E+00 8.7636024E+00 4.3262712E-01 4.8928078E-06
  0.000E+00  2.796E-03  9.253E-01 9.0666319E+00 -2.2820209E-01 -1.7245075E-02
  4.318E-02  1.243E-03  9.502E-01 8.7742760E+00 4.3200946E-01 2.1220261E-02
  0.000E+00  7.761E-03  8.757E-01 9.1224298E+00 -2.2677508E-01 -2.8924393E-02
  4.318E-02  4.969E-03  9.004E-01 8.8112343E+00 4.3049477E-01 4.2365654E-02
  0.000E+00  1.519E-02  8.264E-01 9.2128059E+00 -2.2452885E-01 -4.0542721E-02
  4.318E-02  1.117E-02  8.510E-01 8.8842911E+00 4.2855388E-01 6.3707426E-02
  0.000E+00  2.507E-02  7.775E-01 9.3292857E+00 -2.2202457E-01 -5.1466991E-02
  4.318E-02  1.983E-02  8.019E-01 8.9922860E+00 4.2567788E-01 8.5478895E-02
  0.000E+00  3.738E-02  7.292E-01 9.4368343E+00 -2.2038440E-01 -6.1538281E-02
  4.318E-02  3.092E-02  7.532E-01 9.1085084E+00 4.2046500E-01 1.0733849E-01
  0.000E+00  5.207E-02  6.815E-01 9.5047179E+00 -2.1917363E-01 -7.1907174E-02
  4.318E-02  4.443E-02  7.052E-01 9.1951813E+00 4.1247025E-01 1.2831166E-01
  0.000E+00  6.913E-02  6.347E-01 9.6071398E+00 -2.1377682E-01 -8.3245514E-02
  4.318E-02  6.031E-02  6.580E-01 9.2601196E+00 4.0462837E-01 1.4815976E-01
  0.000E+00  8.849E-02  5.887E-01 9.8037377E+00 -2.0769573E-01 -9.3870663E-02
  4.318E-02  7.852E-02  6.116E-01 9.4345549E+00 3.9986574E-01 1.6832910E-01
  0.000E+00  1.101E-01  5.438E-01 9.8917949E+00 -2.0654071E-01 -1.0490850E-01
  4.318E-02  9.903E-02  5.661E-01 9.5801967E+00 3.8924237E-01 1.8777356E-01
  0.000E+00  1.340E-01  5.000E-01 9.9590582E+00 -1.9933502E-01 -1.1516580E-01
  4.318E-02  1.218E-01  5.217E-01 9.6180307E+00 3.7751652E-01 2.0640023E-01
  0.000E+00  1.600E-01  4.575E-01 1.0128389E+01 -1.9228632E-01 -1.2455216E-01
  4.318E-02  1.467E-01  4.786E-01 9.7982674E+00 3.7069584E-01 2.2590334E-01
  0.000E+00  1.881E-01  4.163E-01 1.0135491E+01 -1.8823683E-01 -1.3512425E-01
  4.318E-02  1.738E-01  4.367E-01 9.8387611E+00 3.5491459E-01 2.4215953E-01
  0.000E+00  2.182E-01  3.765E-01 1.0244573E+01 -1.7891952E-01 -1.4417178E-01
  4.318E-02  2.029E-01  3.962E-01 9.9294081E+00 3.4607653E-01 2.6135446E-01
  0.000E+00  2.502E-01  3.383E-01 1.0247925E+01 -1.7281154E-01 -1.5281339E-01
  4.318E-02  2.340E-01  3.572E-01 9.9921282E+00 3.3039519E-01 2.7669713E-01
  0.000E+00  2.841E-01  3.018E-01 1.0307242E+01 -1.6374927E-01 -1.6191417E-01
  4.318E-02  2.669E-01  3.198E-01 9.9833980E+00 3.1791992E-01 2.9330647E-01
  0.000E+00  3.198E-01  2.669E-01 1.0260498E+01 -1.5536495E-01 -1.6885422E-01
  4.318E-02  3.018E-01  2.841E-01 1.0028504E+01 3.0209983E-01 3.0882989E-01
  0.000E+00  3.572E-01  2.340E-01 1.0270553E+01 -1.4690356E-01 -1.7790431E-01
  4.318E-02  3.383E-01  2.502E-01 9.9703393E+00 2.8730152E-01 3.2268416E-01
  0.000E+00  3.962E-01  2.029E-01 1.0206639E+01 -1.3613368E-01 -1.8222960E-01
  4.318E-02  3.765E-01  2.182E-01 9.9657065E+00 2.7074201E-01 3.3802800E-01
  0.000E+00  4.367E-01  1.738E-01 1.0116107E+01 -1.2860227E-01 -1.9253711E-01
  4.318E-02  4.163E-01  1.881E-01 9.8578222E+00 2.5373637E-01 3.4934691E-01
  0.000E+00  4.786E-01  1.467E-01 1.0076149E+01 -1.1669448E-01 -1.9372785E-01
  4.318E-02  4.575E-01  1.600E-01 9.8486550E+00 2.3691704E-01 3.6400714E-01
  0.000E+00  5.217E-01  1.218E-01 9.8939890E+00 -1.0791197E-01 -2.0335090E-01
  4.318E-02  5.000E-01  1.340E-01 9.6813398E+00 2.1805143E-01 3.7461901E-01
  0.000E+00  5.661E-01  9.903E-02 9.8585856E+00 -9.7340092E-02 -2.0617032E-01
  4.318E-02  5.438E-01  1.101E-01 9.6124807E+00 1.9951733E-01 3.8389248E-01
  0.000E+00  6.116E-01  7.852E-02 9.7118094E+00 -8.6395411E-02 -2.0830732E-01
  4.318E-02  5.887E-01  8.849E-02 9.5240334E+00 1.8054912E-01 3.9720880E-01
  0.000E+00  6.580E-01  6.031E-02 9.5362122E+00 -7.5704699E-02 -2.1512641E-01
  4.318E-02  6.347E-01  6.913E-02 9.3297059E+00 1.6002122E-01 4.0403340E-01
  0.000E+00  7.052E-01  4.443E-02 9.4734877E+00 -6.4998260E-02 -2.1763066E-01
  4.318E-02  6.815E-01  5.207E-02 9.2264891E+00 1.4020877E-01 4.1025313E-01
  0.000E+00  7.532E-01  3.092E-02 9.3878125E+00 -5.5068136E-02 -2.1864602E-01
  4.318E-02  7.292E-01  3.738E-02 9.1573259E+00 1.1968868E-01 4.1939746E-01
  0.000E+00  8.019E-01  1.983E-02 9.2711433E+00 -4.4812197E-02 -2.2045302E-01
  4.318E-02  7.775E-01  2.507E-02 9.0500225E+00 9.7871176E-02 4.2634185E-01
  0.000E+00  8.510E-01  1.117E-02 9.1623583E+00 -3.3774416E-02 -2.2276944E-01
  4.318E-02  8.264E-01  1.519E-02 8.9345328E+00 7.5752978E-02 4.3040871E-01
  0.000E+00  9.004E-01  4.969E-03 9.0888880E+00 -2.2387957E-02 -2.2449997E-01
  4.318E-02  8.757E-01  7.761E-03 8.8449721E+00 5.3956997E-02 4.3306174E-01
  4.318E-02  9.253E-01  2.796E-03 8.7895676E+00 3.2374701E-02 4.3499051E-01
  1.000E+01  1.050E+00  1.243E-03 9.0518760E+00 1.1069982E-02 -2.2523145E-01
  1.000E+01  1.000E+00  5.551E-16 9.0412231E+00 6.6023363E-06 -2.2537864E-01
  9.957E+00  1.025E+00  3.108E-04 9.3339733E+00 2.4965671E-02 -1.0124837E+00
  1.000E+01  9.502E-01  1.243E-03 9.0518769E+00 -1.1081888E-02 -2.2523181E-01
  9.957E+00  9.751E-01  3.108E-04 9.3339684E+00 -2.4963944E-02 -1.0124839E+00
  1.000E+01  9.004E-01  4.969E-03 9.0888880E+00 -2.2387957E-02 -2.2449997E-01
  9.957E+00  9.253E-01  2.796E-03 9.3591462E+00 -7.5037546E-02 -1.0100696E+00
  1.000E+01  8.510E-01  1.117E-02 9.1623583E+00 -3.3774416E-02 -2.2276944E-01
  9.957E+00  8.757E-01  7.761E-03 9.4151213E+00 -1.2547729E-01 -1.0052561E+00
  1.000E+01  8.019E-01  1.983E-02 9.2711433E+00 -4.4812197E-02 -2.2045302E-01
  9.957E+00  8.264E-01  1.519E-02 9.5061765E+00 -1.7626240E-01 -9.9804323E-01
  1.000E+01  7.532E-01  3.092E-02 9.3878125E+00 -5.5068136E-02 -2.1864602E-01
  9.957E+00  7.775E-01  2.507E-02 9.6236357E+00 -2.2618258E-01 -9.8853762E-01
  1.000E+01  7.052E-01  4.443E-02 9.4734877E+00 -6.4998260E-02 -2.1763066E-01
  9.957E+00  7.292E-01  3.738E-02 9.7312921E+00 -2.7405808E-01 -9.7722372E-01
  1.000E+01  6.580E-01  6.031E-02 9.5362122E+00 -7.5704699E-02 -2.1512641E-01
  9.957E+00  6.815E-01  5.207E-02 9.7972938E+00 -3.2088394E-01 -9.6384365E-01
  1.000E+01  6.116E-01  7.852E-02 9.7118094E+00 -8.6395411E-02 -2.0830732E-01
  9.957E+00  6.347E-01  6.913E-02 9.8980888E+00 -3.6857010E-01 -9.4494922E-01
  1.000E+01  5.661E-01  9.903E-02 9.8585856E+00 -9.7340092E-02 -2.0617032E-01
  9.957E+00  5.887E-01  8.849E-02 1.0096540E+01 -4.1564125E-01 -9.2429360E-01
  1.000E+01  5.217E-01  1.218E-01 9.8939890E+00 -1.0791197E-01 -2.0335090E-01
  9.957E+00  5.438E-01  1.101E-01 1.0184050E+01 -4.6212480E-01 -9.0699740E-01
  1.000E+01  4.786E-01  1.467E-01 1.0076149E+01 -1.1669448E-01 -1.9372785E-01
  9.957E+00  5.000E-01  1.340E-01 1.0249642E+01 -5.0650628E-01 -8.8117743E-01
  1.000E+01  4.367E-01  1.738E-01 1.0116107E+01 -1.2860227E-01 -1.9253711E-01
  9.957E+00  4.575E-01  1.600E-01 1.0421235E+01 -5.4934519E-01 -8.5410889E-01
  1.000E+01  3.962E-01  2.029E-01 1.0206639E+01 -1.3613368E-01 -1.8222960E-01
  9.957E+00  4.163E-01  1.881E-01 1.0426432E+01 -5.9276468E-01 -8.2876957E-01
  1.000E+01  3.572E-01  2.340E-01 1.0270553E+01 -1.4690356E-01 -1.7790431E-01
  9.957E+00  3.765E-01  2.182E-01 1.0537160E+01 -6.3306134E-01 -7.9592385E-01
  1.000E+01  3.198E-01  2.669E-01 1.0260498E+01 -1.5536495E-01 -1.6885422E-01
  9.957E+00  3.383E-01  2.502E-01 1.0539542E+01 -6.7228491E-01 -7.6518128E-01
  1.000E+01  2.841E-01  3.018E-01 1.0307242E+01 -1.6374927E-01 -1.6191417E-01
  9.957E+00  3.018E-01  2.841E-01 1.0600549E+01 -7.1038374E-01 -7.2963152E-01
  1.000E+01  2.502E-01  3.383E-01 1.0247925E+01 -1.7281154E-01 -1.5281339E-01
  9.957E+00  2.669E-01  3.198E-01 1.0552474E+01 -7.4520090E-01 -6.9343570E-01
  1.000E+01  2.182E-01  3.765E-01 1.0244573E+01 -1.7891952E-01 -1.4417178E-01
  9.957E+00  2.340E-01  3.572E-01 1.0564391E+01 -7.8064663E-01 -6.5575752E-01
  1.000E+01  1.881E-01  4.163E-01 1.0135491E+01 -1.8823683E-01 -1.3512425E-01
  9.957E+00  2.029E-01  3.962E-01 1.0499579E+01 -8.0981462E-01 -6.1431661E-01
  1.000E+01  1.600E-01  4.575E-01 1.0128389E+01 -1.9228632E-01 -1.2455216E-01
  9.957E+00  1.738E-01  4.367E-01 1.0409535E+01 -8.4383147E-01 -5.7512082E-01
  1.000E+01  1.340E-01  5.000E-01 9.9590582E+00 -1.9933502E-01 -1.1516580E-01
  9.957E+00  1.467E-01  4.786E-01 1.0370364E+01 -8.6618739E-01 -5.2985013E-01
  1.000E+01  1.101E-01  5.438E-01 9.8917949E+00 -2.0654071E-01 -1.0490850E-01
  9.957E+00  1.218E-01  5.217E-01 1.0186266E+01 -8.9652628E-01 -4.8728049E-01
  1.000E+01  8.849E-02  5.887E-01 9.8037377E+00 -2.0769573E-01 -9.3870663E-02
  9.957E+00  9.903E-02  5.661E-01 1.0153347E+01 -9.1756494E-01 -4.4160464E-01
  1.000E+01  6.913E-02  6.347E-01 9.6071398E+00 -2.1377682E-01 -8.3245514E-02
  9.957E+00  7.852E-02  6.116E-01 1.0005093E+01 -9.3567852E-01 -3.9409540E-01
  1.000E+01  5.207E-02  6.815E-01 9.5047179E+00 -2.1917363E-01 -7.1907174E-02
  9.957E+00  6.031E-02  6.580E-01 9.8280157E+00 -9.5718603E-01 -3.4635892E-01
  1.000E+01  3.738E-02  7.292E-01 9.4368343E+00 -2.2038440E-01 -6.1538281E-02
  9.957E+00  4.443E-02  7.052E-01 9.7672452E+00 -9.7288288E-01 -2.9889970E-01
  1.000E+01  2.507E-02  7.775E-01 9.3292857E+00 -2.2202457E-01 -5.1466991E-02
  9.957E+00  3.092E-02  7.532E-01 9.6818690E+00 -9.8517571E-01 -2.5160451E-01
  1.000E+01  1.519E-02  8.264E-01 9.2128059E+00 -2.2452885E-01 -4.0542721E-02
  9.957E+00  1.983E-02  8.019E-01 9.5639211E+00 -9.9563078E-01 -2.0247000E-01
  1.000E+01  7.761E-03  8.757E-01 9.1224298E+00 -2.2677508E-01 -2.8924393E-02
  9.957E+00  1.117E-02  8.510E-01 9.4537129E+00 -1.0043031E+00 -1.5179066E-01
  1.000E+01  2.796E-03  9.253E-01 9.0666319E+00 -2.2820209E-01 -1.7245075E-02
  9.957E+00  4.969E-03  9.004E-01 9.3795400E+00 -1.0106010E+00 -1.0085402E-01
  1.000E+01  3.108E-04  9.751E-01 9.0413421E+00 -2.2882987E-01 -5.7204474E-03
  9.957E+00  1.243E-03  9.502E-01 9.3423978E+00 -1.0141671E+00 -5.0236599E-02
  1.000E+01  3.108E-04  1.025E+00 9.0413405E+00 -2.2884370E-01 5.7326234E-03
  9.957E+00  0.000E+00  1.000E+00 9.3317588E+00 -1.0152827E+00 7.5104788E-06
  1.000E+01  2.796E-03  1.075E+00 9.0666268E+00 -2.2824429E-01 1.7258207E-02
  9.957E+00  1.243E-03  1.050E+00 9.3423943E+00 -1.0141281E+00 5.0250484E-02
  1.000E+01  7.761E-03  1.124E+00 9.1224205E+00 -2.2684178E-01 2.8938721E-02
  9.957E+00  4.969E-03  1.100E+00 9.3795328E+00 -1.0105413E+00 1.0086553E-01
  1.000E+01  1.519E-02  1.174E+00 9.2127920E+00 -2.2459634E-01 4.0555968E-02
  9.957E+00  1.117E-02  1.149E+00 9.4537004E+00 -1.0042602E+00 1.5180054E-01
  1.000E+01  2.507E-02  1.223E+00 9.3292695E+00 -2.2204883E-01 5.1474056E-02
  9.957E+00  1.983E-02  1.198E+00 9.5639009E+00 -9.9562849E-01 2.0247815E-01
  1.000E+01  3.738E-02  1.271E+00 9.4368193E+00 -2.2034400E-01 6.1536117E-02
  9.957E+00  3.092E-02  1.247E+00 9.6818430E+00 -9.8517232E-01 2.5160543E-01
  1.000E+01  5.207E-02  1.318E+00 9.5047037E+00 -2.1910724E-01 7.1899505E-02
  9.957E+00  4.443E-02  1.295E+00 9.7672217E+00 -9.7280672E-01 2.9888729E-01
  1.000E+01  6.913E-02  1.365E+00 9.6071230E+00 -2.1373794E-01 8.3237688E-02
  9.957E+00  6.031E-02  1.342E+00 9.8279993E+00 -9.5706420E-01 3.4633869E-01
  1.000E+01  8.849E-02  1.411E+00 9.8037217E+00 -2.0768183E-01 9.3864057E-02
  9.957E+00  7.852E-02  1.388E+00 1.0005079E+01 -9.3562008E-01 3.9407959E-01
  1.000E+01  1.101E-01  1.456E+00 9.8917818E+00 -2.0654831E-01 1.0490444E-01
  9.957E+00  9.903E-02  1.434E+00 1.0153333E+01 -9.1756507E-01 4.4159627E-01
  1.000E+01  1.340E-01  1.500E+00 9.9590481E+00 -1.9935110E-01 1.1516318E-01
  9.957E+00  1.218E-01  1.478E+00 1.0186254E+01 -8.9653831E-01 4.8727585E-01
  1.000E+01  1.600E-01  1.543E+00 1.0128380E+01 -1.9227230E-01 1.2454596E-01
  9.957E+00  1.467E-01  1.521E+00 1.0370348E+01 -8.6618417E-01 5.2984402E-01
  1.000E+01  1.881E-01  1.584E+00 1.0135482E+01 -1.8820468E-01 1.3511559E-01
  9.957E+00  1.738E-01  1.563E+00 1.0409521E+01 -8.4380514E-01 5.7510911E-01
  1.000E+01  2.182E-01  1.623E+00 1.0244564E+01 -1.7891295E-01 1.4416588E-01
  9.957E+00  2.029E-01  1.604E+00 1.0499574E+01 -8.0979063E-01 6.1430548E-01
  1.000E+01  2.502E-01  1.662E+00 1.0247916E+01 -1.7282419E-01 1.5281147E-01
  9.957E+00  2.340E-01  1.643E+00 1.0564389E+01 -7.8065280E-01 6.5575314E-01
  1.000E+01  2.841E-01  1.698E+00 1.0307236E+01 -1.6373985E-01 1.6190838E-01
  9.957E+00  2.669E-01  1.680E+00 1.0552462E+01 -7.4520530E-01 6.9343207E-01
  1.000E+01  3.198E-01  1.733E+00 1.0260492E+01 -1.5533971E-01 1.6884670E-01
  9.957E+00  3.018E-01  1.716E+00 1.0600539E+01 -7.1036181E-01 7.2962163E-01
  1.000E+01  3.572E-01  1.766E+00 1.0270547E+01 -1.4690878E-01 1.7789947E-01
  9.957E+00  3.383E-01  1.750E+00 1.0539541E+01 -6.7227572E-01 7.6517370E-01
  1.000E+01  3.962E-01  1.797E+00 1.0206636E+01 -1.3613682E-01 1.8222500E-01
  9.957E+00  3.765E-01  1.782E+00 1.0537153E+01 -6.3306861E-01 7.9591983E-01
  1.000E+01  4.367E-01  1.826E+00 1.0116100E+01 -1.2858189E-01 1.9253089E-01
  9.957E+00  4.163E-01  1.812E+00 1.0426421E+01 -5.9275134E-01 8.2876154E-01
  1.000E+01  4.786E-01  1.853E+00 1.0076138E+01 -1.1670251E-01 1.9372428E-01
  9.957E+00  4.575E-01  1.840E+00 1.0421238E+01 -5.4933278E-01 8.5410044E-01
  1.000E+01  5.217E-01  1.878E+00 9.8939806E+00 -1.0791579E-01 2.0334695E-01
  9.957E+00  5.000E-01  1.866E+00 1.0249639E+01 -5.0651084E-01 8.8117189E-01
  1.000E+01  5.661E-01  1.901E+00 9.8585821E+00 -9.7317660E-02 2.0616374E-01
  9.957E+00  5.438E-01  1.890E+00 1.0184042E+01 -4.6211599E-01 9.0698995E-01
  1.000E+01  6.116E-01  1.921E+00 9.7118136E+00 -8.6402258E-02 2.0830226E-01
  9.957E+00  5.887E-01  1.912E+00 1.0096538E+01 -4.1563850E-01 9.2428727E-01
  1.000E+01  6.580E-01  1.940E+00 9.5362201E+00 -7.5699743E-02 2.1512123E-01
  9.957E+00  6.347E-01  1.931E+00 9.8980755E+00 -3.6857704E-01 9.4494523E-01
  1.000E+01  7.052E-01  1.956E+00 9.4734877E+00 -6.4985978E-02 2.1762516E-01
  9.957E+00  6.815E-01  1.948E+00 9.7972834E+00 -3.2087273E-01 9.6383829E-01
  1.000E+01  7.532E-01  1.969E+00 9.3878060E+00 -5.5077229E-02 2.1864090E-01
  9.957E+00  7.292E-01  1.963E+00 9.7312931E+00 -2.7406158E-01 9.7722026E-01
  1.000E+01  8.019E-01  1.980E+00 9.2711339E+00 -4.4793294E-02 2.2044630E-01
  9.957E+00  7.775E-01  1.975E+00 9.6236312E+00 -2.2618542E-01 9.8853495E-01
  1.000E+01  8.510E-01  1.989E+00 9.1623494E+00 -3.3774172E-02 2.2276263E-01
  9.957E+00  8.264E-01  1.985E+00 9.5061819E+00 -1.7625851E-01 9.9804096E-01
  1.000E+01  9.004E-01  1.995E+00 9.0888857E+00 -2.2388889E-02 2.2449322E-01
  9.957E+00  8.757E-01  1.992E+00 9.4151216E+00 -1.2548740E-01 1.0052553E+00
  1.000E+01  9.502E-01  1.999E+00 9.0518767E+00 -1.1069628E-02 2.2522509E-01
  9.957E+00  9.253E-01  1.997E+00 9.3591415E+00 -7.5031721E-02 1.0100690E+00
  1.000E+01  1.000E+00  2.000E+00 9.0412251E+00 -7.1608619E-06 2.2537240E-01
  9.957E+00  9.751E-01  2.000E+00 9.3339705E+00 -2.4966486E-02 1.0124841E+00
  1.000E+01  1.050E+00  1.999E+00 9.0518778E+00 1.1080436E-02 2.2522573E-01
  9.957E+00  1.025E+00  2.000E+00 9.3339657E+00 2.4963715E-02 1.0124844E+00
  1.000E+01  1.100E+00  1.995E+00 9.0888856E+00 2.2384797E-02 2.2449417E-01
  9.957E+00  1.075E+00  1.997E+00 9.3591452E+00 7.5038180E-02 1.0100702E+00
  1.000E+01  1.149E+00  1.989E+00 9.1623520E+00 3.3769106E-02 2.2276417E-01
  9.957E+00  1.124E+00  1.992E+00 9.4151231E+00 1.2547916E-01 1.0052567E+00