# TIME = 6.000000
VARIABLES = X, Y, Z, FX, FY, FZ
ZONE N=29232 E=58212 F=FEPOINT ET=TRIANGLE
  0.000E+00  9.502E-01  1.243E-03 6.2535977E+00 2.0796566E-01 4.1964782E+00
  0.000E+00  1.000E+00  0.000E+00 6.2423765E+00 -7.0077594E-06 4.2019023E+00
  4.318E-02  9.751E-01  3.108E-04 6.2404987E+00 1.0126353E-01 4.0918356E+00
  0.000E+00  1.050E+00  1.243E-03 6.2535975E+00 -2.0798018E-01 4.1964783E+00
  4.318E-02  1.025E+00  3.108E-04 6.2404987E+00 -1.0127803E-01 4.0918357E+00
  0.000E+00  1.100E+00  4.969E-03 6.2909165E+00 -4.1647557E-01 4.1807577E+00
  4.318E-02  1.075E+00  2.796E-03 6.2659769E+00 -3.0404712E-01 4.0814390E+00
  0.000E+00  1.149E+00  1.117E-02 6.3611712E+00 -6.2609274E-01 4.1557265E+00
  4.318E-02  1.124E+00  7.761E-03 6.3201468E+00 -5.0764056E-01 4.0614615E+00
  0.000E+00  1.198E+00  1.983E-02 6.4623934E+00 -8.3565539E-01 4.1213099E+00
  4.318E-02  1.174E+00  1.519E-02 6.4052876E+00 -7.1218487E-01 4.0326555E+00
  0.000E+00  1.247E+00  3.092E-02 6.5736571E+00 -1.0409937E+00 4.0753305E+00
  4.318E-02  1.223E+00  2.507E-02 6.5144243E+00 -9.1487947E-01 3.9938832E+00
  0.000E+00  1.295E+00  4.443E-02 6.6668229E+00 -1.2389001E+00 4.0158119E+00
  4.318E-02  1.271E+00  3.738E-02 6.6211188E+00 -1.1112751E+00 3.9424237E+00
  0.000E+00  1.342E+00  6.031E-02 6.7482402E+00 -1.4341598E+00 3.9469352E+00
  4.318E-02  1.318E+00  5.207E-02 6.7030121E+00 -1.3017629E+00 3.8790742E+00
  0.000E+00  1.388E+00  7.852E-02 6.9100448E+00 -1.6315934E+00 3.8725174E+00
  4.318E-02  1.365E+00  6.913E-02 6.8136915E+00 -1.4931017E+00 3.8093484E+00
  0.000E+00  1.434E+00  9.903E-02 7.0462565E+00 -1.8249645E+00 3.7878295E+00
  4.318E-02  1.411E+00  8.849E-02 6.9887983E+00 -1.6845756E+00 3.7326765E+00
  0.000E+00  1.478E+00  1.218E-01 7.1057152E+00 -2.0099182E+00 3.6907125E+00
  4.318E-02  1.456E+00  1.101E-01 7.0827347E+00 -1.8686118E+00 3.6437433E+00
  0.000E+00  1.521E+00  1.467E-01 7.2678574E+00 -2.1910876E+00 3.5859174E+00
  4.318E-02  1.500E+00  1.340E-01 7.1647757E+00 -2.0463976E+00 3.5449363E+00
  0.000E+00  1.563E+00  1.738E-01 7.3166642E+00 -2.3677811E+00 3.4727367E+00
  4.318E-02  1.543E+00  1.600E-01 7.3129555E+00 -2.2212663E+00 3.4392151E+00
  0.000E+00  1.604E+00  2.029E-01 7.4073172E+00 -2.5376456E+00 3.3501432E+00
  4.318E-02  1.584E+00  1.881E-01 7.3403078E+00 -2.3900199E+00 3.3241968E+00
  0.000E+00  1.643E+00  2.340E-01 7.4629416E+00 -2.7015103E+00 3.2195137E+00
  4.318E-02  1.623E+00  2.182E-01 7.4358697E+00 -2.5525133E+00 3.2007762E+00
  0.000E+00  1.680E+00  2.669E-01 7.4668076E+00 -2.8586593E+00 3.0808848E+00
  4.318E-02  1.662E+00  2.502E-01 7.4501763E+00 -2.7090341E+00 3.0696671E+00
  0.000E+00  1.716E+00  3.018E-01 7.4998193E+00 -3.0086152E+00 2.9344996E+00
  4.318E-02  1.698E+00  2.841E-01 7.4966030E+00 -2.8585729E+00 2.9307468E+00
  0.000E+00  1.750E+00  3.383E-01 7.4533821E+00 -3.1512232E+00 2.7809905E+00
  4.318E-02  1.733E+00  3.198E-01 7.4636106E+00 -3.0011681E+00 2.7846712E+00
  0.000E+00  1.782E+00  3.765E-01 7.4390933E+00 -3.2858159E+00 2.6203094E+00
  4.318E-02  1.766E+00  3.572E-01 7.4597369E+00 -3.1362114E+00 2.6315901E+00
  0.000E+00  1.812E+00  4.163E-01 7.3435173E+00 -3.4125170E+00 2.4535011E+00
  4.318E-02  1.797E+00  3.962E-01 7.4041220E+00 -3.2634582E+00 2.4719645E+00
  0.000E+00  1.840E+00  4.575E-01 7.3161964E+00 -3.5305846E+00 2.2802653E+00
  4.318E-02  1.826E+00  4.367E-01 7.3134820E+00 -3.3828863E+00 2.3065020E+00
  0.000E+00  1.866E+00  5.000E-01 7.1679927E+00 -3.6391257E+00 2.1007526E+00
  4.318E-02  1.853E+00  4.786E-01 7.2646589E+00 -3.4931255E+00 2.1343756E+00
  0.000E+00  1.890E+00  5.438E-01 7.0859714E+00 -3.7405516E+00 1.9182481E+00
  4.318E-02  1.878E+00  5.217E-01 7.1025498E+00 -3.5952259E+00 1.9578906E+00
  0.000E+00  1.912E+00  5.887E-01 6.9920513E+00 -3.8318452E+00 1.7293234E+00
  4.318E-02  1.901E+00  5.661E-01 7.0430661E+00 -3.6898154E+00 1.7777220E+00
  0.000E+00  1.931E+00  6.347E-01 6.8169187E+00 -3.9105630E+00 1.5327586E+00
  4.318E-02  1.921E+00  6.116E-01 6.9068681E+00 -3.7723069E+00 1.5893571E+00
  0.000E+00  1.948E+00  6.815E-01 6.7062488E+00 -3.9821339E+00 1.3363311E+00
  4.318E-02  1.940E+00  6.580E-01 6.7450874E+00 -3.8448169E+00 1.3970402E+00
  0.000E+00  1.963E+00  7.292E-01 6.6243780E+00 -4.0471600E+00 1.1407800E+00
  4.318E-02  1.956E+00  7.052E-01 6.6636510E+00 -3.9119080E+00 1.2068404E+00
  0.000E+00  1.975E+00  7.775E-01 6.5176854E+00 -4.0999896E+00 9.3916754E-01
  4.318E-02  1.969E+00  7.532E-01 6.5704782E+00 -3.9698817E+00 1.0140591E+00
  0.000E+00  1.985E+00  8.264E-01 6.4085399E+00 -4.1397936E+00 7.3109093E-01
  4.318E-02  1.980E+00  8.019E-01 6.4592228E+00 -4.0146733E+00 8.1403343E-01
  0.000E+00  1.992E+00  8.757E-01 6.3233933E+00 -4.1693623E+00 5.2111554E-01
  4.318E-02  1.989E+00  8.510E-01 6.3580110E+00 -4.0482008E+00 6.0988944E-01
  0.000E+00  1.997E+00  9.253E-01 6.2692243E+00 -4.1898700E+00 3.1211498E-01
  4.318E-02  1.995E+00  9.004E-01 6.2877611E+00 -4.0725848E+00 4.0569243E-01
  0.000E+00  2.000E+00  9.751E-01 6.2437488E+00 -4.2005438E+00 1.0396125E-01
  4.318E-02  1.999E+00  9.502E-01 6.2504433E+00 -4.0879004E+00 2.0259064E-01
  0.000E+00  2.000E+00  1.025E+00 6.2437488E+00 -4.2005420E+00 -1.0395924E-01
  4.318E-02  2.000E+00  1.000E+00 6.2392216E+00 -4.0931838E+00 8.9932010E-07
  0.000E+00  1.997E+00  1.075E+00 6.2692243E+00 -4.1898644E+00 -3.1211298E-01
  4.318E-02  1.999E+00  1.050E+00 6.2504434E+00 -4.0878970E+00 -2.0258885E-01
  0.000E+00  1.992E+00  1.124E+00 6.3233933E+00 -4.1693535E+00 -5.2111356E-01
  4.318E-02  1.995E+00  1.100E+00 6.2877612E+00 -4.0725774E+00 -4.0569065E-01
  0.000E+00  1.985E+00  1.174E+00 6.4085401E+00 -4.1397873E+00 -7.3108898E-01
  4.318E-02  1.989E+00  1.149E+00 6.3580112E+00 -4.0481924E+00 -6.0988771E-01
  0.000E+00  1.975E+00  1.223E+00 6.5176858E+00 -4.0999927E+00 -9.3916566E-01
  4.318E-02  1.980E+00  1.198E+00 6.4592230E+00 -4.0146712E+00 -8.1403178E-01
  0.000E+00  1.963E+00  1.271E+00 6.6243784E+00 -4.0471624E+00 -1.1407781E+00
  4.318E-02  1.969E+00  1.247E+00 6.5704783E+00 -3.9698864E+00 -1.0140574E+00
  0.000E+00  1.948E+00  1.318E+00 6.7062493E+00 -3.9821148E+00 -1.3363293E+00
  4.318E-02  1.956E+00  1.295E+00 6.6636511E+00 -3.9119005E+00 -1.2068388E+00
  0.000E+00  1.931E+00  1.365E+00 6.8169192E+00 -3.9105455E+00 -1.5327569E+00
  4.318E-02  1.940E+00  1.342E+00 6.7450876E+00 -3.8447921E+00 -1.3970386E+00
  0.000E+00  1.912E+00  1.411E+00 6.9920511E+00 -3.8318536E+00 -1.7293216E+00
  4.318E-02  1.921E+00  1.388E+00 6.9068686E+00 -3.7723054E+00 -1.5893559E+00
  0.000E+00  1.890E+00  1.456E+00 7.0859718E+00 -3.7405378E+00 -1.9182465E+00
  4.318E-02  1.901E+00  1.434E+00 7.0430666E+00 -3.6898180E+00 -1.7777207E+00
  0.000E+00  1.866E+00  1.500E+00 7.1679932E+00 -3.6391060E+00 -2.1007509E+00
  4.318E-02  1.878E+00  1.478E+00 7.1025503E+00 -3.5952004E+00 -1.9578891E+00
  0.000E+00  1.840E+00  1.543E+00 7.3161969E+00 -3.5305869E+00 -2.2802640E+00
  4.318E-02  1.853E+00  1.521E+00 7.2646596E+00 -3.4931221E+00 -2.1343746E+00
  0.000E+00  1.812E+00  1.584E+00 7.3435179E+00 -3.4125006E+00 -2.4534994E+00
  4.318E-02  1.826E+00  1.563E+00 7.3134826E+00 -3.3828791E+00 -2.3065007E+00
  0.000E+00  1.782E+00  1.623E+00 7.4390942E+00 -3.2858093E+00 -2.6203082E+00
  4.318E-02  1.797E+00  1.604E+00 7.4041225E+00 -3.2634438E+00 -2.4719633E+00
  0.000E+00  1.750E+00  1.662E+00 7.4533829E+00 -3.1512134E+00 -2.7809892E+00
  4.318E-02  1.766E+00  1.643E+00 7.4597373E+00 -3.1362058E+00 -2.6315891E+00
  0.000E+00  1.716E+00  1.698E+00 7.4998194E+00 -3.0086037E+00 -2.9344981E+00
  4.318E-02  1.733E+00  1.680E+00 7.4636113E+00 -3.0011541E+00 -2.7846700E+00
  0.000E+00  1.680E+00  1.733E+00 7.4668074E+00 -2.8586482E+00 -3.0808831E+00
  4.318E-02  1.698E+00  1.716E+00 7.4966041E+00 -2.8585650E+00 -2.9307460E+00
  0.000E+00  1.643E+00  1.766E+00 7.4629422E+00 -2.7014975E+00 -3.2195123E+00
  4.318E-02  1.662E+00  1.750E+00 7.4501774E+00 -2.7090219E+00 -3.0696661E+00
  0.000E+00  1.604E+00  1.797E+00 7.4073192E+00 -2.5376366E+00 -3.3501427E+00
  4.318E-02  1.623E+00  1.782E+00 7.4358702E+00 -2.5525015E+00 -3.2007749E+00
  0.000E+00  1.563E+00  1.826E+00 7.3166667E+00 -2.3677728E+00 -3.4727370E+00
  4.318E-02  1.584E+00  1.812E+00 7.3403074E+00 -2.3900042E+00 -3.3241949E+00
  0.000E+00  1.521E+00  1.853E+00 7.2678576E+00 -2.1910761E+00 -3.5859168E+00
  4.318E-02  1.543E+00  1.840E+00 7.3129551E+00 -2.2212513E+00 -3.4392134E+00
  0.000E+00  1.478E+00  1.878E+00 7.1057134E+00 -2.0098969E+00 -3.6907090E+00
  4.318E-02  1.500E+00  1.866E+00 7.1647763E+00 -2.0463858E+00 -3.5449357E+00
  0.000E+00  1.434E+00  1.901E+00 7.0462552E+00 -1.8249379E+00 -3.7878232E+00
  4.318E-02  1.456E+00  1.890E+00 7.0827363E+00 -1.8686070E+00 -3.6437447E+00
  0.000E+00  1.388E+00  1.921E+00 6.9100455E+00 -1.6315715E+00 -3.8725114E+00
  4.318E-02  1.411E+00  1.912E+00 6.9888006E+00 -1.6845705E+00 -3.7326789E+00
  0.000E+00  1.342E+00  1.940E+00 6.7482413E+00 -1.4341551E+00 -3.9469336E+00
  4.318E-02  1.365E+00  1.931E+00 6.8136942E+00 -1.4930880E+00 -3.8093494E+00
  0.000E+00  1.295E+00  1.956E+00 6.6668228E+00 -1.2389097E+00 -4.0158162E+00
  4.318E-02  1.318E+00  1.948E+00 6.7030149E+00 -1.3017379E+00 -3.8790717E+00
  0.000E+00  1.247E+00  1.969E+00 6.5736563E+00 -1.0410058E+00 -4.0753397E+00
  4.318E-02  1.271E+00  1.963E+00 6.6211205E+00 -1.1112441E+00 -3.9424176E+00
  0.000E+00  1.198E+00  1.980E+00 6.4623934E+00 -8.3565835E-01 -4.1213215E+00
  4.318E-02  1.223E+00  1.975E+00 6.5144240E+00 -9.1485107E-01 -3.9938750E+00
  0.000E+00  1.149E+00  1.989E+00 6.3611724E+00 -6.2608482E-01 -4.1557387E+00
  4.318E-02  1.174E+00  1.985E+00 6.4052859E+00 -7.1216324E-01 -4.0326464E+00
  0.000E+00  1.100E+00  1.995E+00 6.2909182E+00 -4.1646070E-01 -4.1807697E+00
  4.318E-02  1.124E+00  1.992E+00 6.3201452E+00 -5.0762537E-01 -4.0614526E+00
  0.000E+00  1.050E+00  1.999E+00 6.2535991E+00 -2.0796371E-01 -4.1964899E+00
  4.318E-02  1.075E+00  1.997E+00 6.2659762E+00 -3.0403383E-01 -4.0814305E+00
  0.000E+00  1.000E+00  2.000E+00 6.2423779E+00 6.7966958E-06 -4.2019138E+00
  4.318E-02  1.025E+00  2.000E+00 6.2404987E+00 -1.0126452E-01 -4.0918276E+00
  0.000E+00  9.502E-01  1.999E+00 6.2535991E+00 2.0797781E-01 -4.1964900E+00
  4.318E-02  9.751E-01  2.000E+00 6.2404987E+00 1.0127864E-01 -4.0918276E+00
  0.000E+00  9.004E-01  1.995E+00 6.2909183E+00 4.1647445E-01 -4.1807699E+00
  4.318E-02  9.253E-01  1.997E+00 6.2659762E+00 3.0404824E-01 -4.0814307E+00
  0.000E+00  8.510E-01  1.989E+00 6.3611726E+00 6.2609851E-01 -4.1557390E+00
  4.318E-02  8.757E-01  1.992E+00 6.3201453E+00 5.0763921E-01 -4.0614528E+00
  0.000E+00  8.019E-01  1.980E+00 6.4623936E+00 8.3567217E-01 -4.1213219E+00
  4.318E-02  8.264E-01  1.985E+00 6.4052861E+00 7.1217746E-01 -4.0326467E+00
  0.000E+00  7.532E-01  1.969E+00 6.5736566E+00 1.0410192E+00 -4.0753401E+00
  4.318E-02  7.775E-01  1.975E+00 6.5144243E+00 9.1486492E-01 -3.9938753E+00
  0.000E+00  7.052E-01  1.956E+00 6.6668231E+00 1.2389231E+00 -4.0158167E+00
  4.318E-02  7.292E-01  1.963E+00 6.6211208E+00 1.1112579E+00 -3.9424180E+00
  0.000E+00  6.580E-01  1.940E+00 6.7482417E+00 1.4341681E+00 -3.9469341E+00
  4.318E-02  6.815E-01  1.948E+00 6.7030153E+00 1.3017514E+00 -3.8790721E+00
  0.000E+00  6.116E-01  1.921E+00 6.9100461E+00 1.6315851E+00 -3.8725121E+00
  4.318E-02  6.347E-01  1.931E+00 6.8136946E+00 1.4931018E+00 -3.8093498E+00
  0.000E+00  5.661E-01  1.901E+00 7.0462557E+00 1.8249499E+00 -3.7878238E+00
  4.318E-02  5.887E-01  1.912E+00 6.9888009E+00 1.6845835E+00 -3.7326791E+00
  0.000E+00  5.217E-01  1.878E+00 7.1057140E+00 2.0099099E+00 -3.6907097E+00
  4.318E-02  5.438E-01  1.890E+00 7.0827369E+00 1.8686195E+00 -3.6437452E+00
  0.000E+00  4.786E-01  1.853E+00 7.2678583E+00 2.1910882E+00 -3.5859174E+00
  4.318E-02  5.000E-01  1.866E+00 7.1647769E+00 2.0463990E+00 -3.5449362E+00
  0.000E+00  4.367E-01  1.826E+00 7.3166673E+00 2.3677854E+00 -3.4727377E+00
  4.318E-02  4.575E-01  1.840E+00 7.3129557E+00 2.2212635E+00 -3.4392138E+00
  0.000E+00  3.962E-01  1.797E+00 7.4073199E+00 2.5376477E+00 -3.3501434E+00
  4.318E-02  4.163E-01  1.812E+00 7.3403081E+00 2.3900169E+00 -3.3241953E+00
  0.000E+00  3.572E-01  1.766E+00 7.4629430E+00 2.7015095E+00 -3.2195130E+00
  4.318E-02  3.765E-01  1.782E+00 7.4358709E+00 2.5525126E+00 -3.2007753E+00
  0.000E+00  3.198E-01  1.733E+00 7.4668082E+00 2.8586577E+00 -3.0808839E+00
  4.318E-02  3.383E-01  1.750E+00 7.4501782E+00 2.7090343E+00 -3.0696666E+00
  0.000E+00  2.841E-01  1.698E+00 7.4998202E+00 3.0086143E+00 -2.9344988E+00
  4.318E-02  3.018E-01  1.716E+00 7.4966049E+00 2.8585730E+00 -2.9307463E+00
  0.000E+00  2.502E-01  1.662E+00 7.4533837E+00 3.1512230E+00 -2.7809900E+00
  4.318E-02  2.669E-01  1.680E+00 7.4636121E+00 3.0011677E+00 -2.7846706E+00
  0.000E+00  2.182E-01  1.623E+00 7.4390951E+00 3.2858157E+00 -2.6203089E+00
  4.318E-02  2.340E-01  1.643E+00 7.4597382E+00 3.1362107E+00 -2.6315895E+00
  0.000E+00  1.881E-01  1.584E+00 7.3435189E+00 3.4125165E+00 -2.4535005E+00
  4.318E-02  2.029E-01  1.604E+00 7.4041234E+00 3.2634576E+00 -2.4719639E+00
  0.000E+00  1.600E-01  1.543E+00 7.3161978E+00 3.5305840E+00 -2.2802647E+00
  4.318E-02  1.738E-01  1.563E+00 7.3134836E+00 3.3828860E+00 -2.3065015E+00
  0.000E+00  1.340E-01  1.500E+00 7.1679942E+00 3.6391251E+00 -2.1007521E+00
  4.318E-02  1.467E-01  1.521E+00 7.2646605E+00 3.4931251E+00 -2.1343751E+00
  0.000E+00  1.101E-01  1.456E+00 7.0859729E+00 3.7405511E+00 -1.9182476E+00
  4.318E-02  1.218E-01  1.478E+00 7.1025513E+00 3.5952255E+00 -1.9578901E+00
  0.000E+00  8.849E-02  1.411E+00 6.9920527E+00 3.8318446E+00 -1.7293228E+00
  4.318E-02  9.903E-02  1.434E+00 7.0430676E+00 3.6898150E+00 -1.7777215E+00
  0.000E+00  6.913E-02  1.365E+00 6.8169203E+00 3.9105626E+00 -1.5327582E+00
  4.318E-02  7.852E-02  1.388E+00 6.9068695E+00 3.7723064E+00 -1.5893567E+00
  0.000E+00  5.207E-02  1.318E+00 6.7062505E+00 3.9821336E+00 -1.3363308E+00
  4.318E-02  6.031E-02  1.342E+00 6.7450888E+00 3.8448163E+00 -1.3970397E+00
  0.000E+00  3.738E-02  1.271E+00 6.6243797E+00 4.0471598E+00 -1.1407796E+00
  4.318E-02  4.443E-02  1.295E+00 6.6636523E+00 3.9119074E+00 -1.2068399E+00
  0.000E+00  2.507E-02  1.223E+00 6.5176870E+00 4.0999893E+00 -9.3916717E-01
  4.318E-02  3.092E-02  1.247E+00 6.5704795E+00 3.9698811E+00 -1.0140587E+00
  0.000E+00  1.519E-02  1.174E+00 6.4085414E+00 4.1397932E+00 -7.3109058E-01
  4.318E-02  1.983E-02  1.198E+00 6.4592242E+00 4.0146728E+00 -8.1403304E-01
  0.000E+00  7.761E-03  1.124E+00 6.3233946E+00 4.1693618E+00 -5.2111523E-01
  4.318E-02  1.117E-02  1.149E+00 6.3580124E+00 4.0482004E+00 -6.0988907E-01
  0.000E+00  2.796E-03  1.075E+00 6.2692256E+00 4.1898696E+00 -3.1211471E-01
  4.318E-02  4.969E-03  1.100E+00 6.2877625E+00 4.0725844E+00 -4.0569208E-01
  0.000E+00  3.108E-04  1.025E+00 6.2437501E+00 4.2005433E+00 -1.0396100E-01
  4.318E-02  1.243E-03  1.050E+00 6.2504447E+00 4.0879000E+00 -2.0259032E-01
  0.000E+00  3.108E-04  9.751E-01 6.2437501E+00 4.2005416E+00 1.0395946E-01
  4.318E-02  0.000E+00  1.000E+00 6.2392229E+00 4.0931834E+00 -6.0189616E-07
  0.000E+00  2.796E-03  9.253E-01 6.2692257E+00 4.1898641E+00 3.1211318E-01
  4.318E-02  1.243E-03  9.502E-01 6.2504446E+00 4.0878966E+00 2.0258912E-01
  0.000E+00  7.761E-03  8.757E-01 6.3233947E+00 4.1693533E+00 5.2111376E-01
  4.318E-02  4.969E-03  9.004E-01 6.2877624E+00 4.0725770E+00 4.0569091E-01
  0.000E+00  1.519E-02  8.264E-01 6.4085413E+00 4.1397869E+00 7.3108918E-01
  4.318E-02  1.117E-02  8.510E-01 6.3580124E+00 4.0481921E+00 6.0988794E-01
  0.000E+00  2.507E-02  7.775E-01 6.5176869E+00 4.0999922E+00 9.3916584E-01
  4.318E-02  1.983E-02  8.019E-01 6.4592243E+00 4.0146709E+00 8.1403199E-01
  0.000E+00  3.738E-02  7.292E-01 6.6243794E+00 4.0471619E+00 1.1407783E+00
  4.318E-02  3.092E-02  7.532E-01 6.5704797E+00 3.9698862E+00 1.0140576E+00
  0.000E+00  5.207E-02  6.815E-01 6.7062503E+00 3.9821143E+00 1.3363294E+00
  4.318E-02  4.443E-02  7.052E-01 6.6636524E+00 3.9119003E+00 1.2068390E+00
  0.000E+00  6.913E-02  6.347E-01 6.8169203E+00 3.9105452E+00 1.5327569E+00
  4.318E-02  6.031E-02  6.580E-01 6.7450889E+00 3.8447919E+00 1.3970388E+00
  0.000E+00  8.849E-02  5.887E-01 6.9920524E+00 3.8318536E+00 1.7293218E+00
  4.318E-02  7.852E-02  6.116E-01 6.9068698E+00 3.7723052E+00 1.5893560E+00
  0.000E+00  1.101E-01  5.438E-01 7.0859729E+00 3.7405375E+00 1.9182466E+00
  4.318E-02  9.903E-02  5.661E-01 7.0430677E+00 3.6898177E+00 1.7777208E+00
  0.000E+00  1.340E-01  5.000E-01 7.1679943E+00 3.6391059E+00 2.1007510E+00
  4.318E-02  1.218E-01  5.217E-01 7.1025513E+00 3.5952001E+00 1.9578892E+00
  0.000E+00  1.600E-01  4.575E-01 7.3161980E+00 3.5305869E+00 2.2802641E+00
  4.318E-02  1.467E-01  4.786E-01 7.2646606E+00 3.4931217E+00 2.1343747E+00
  0.000E+00  1.881E-01  4.163E-01 7.3435188E+00 3.4125003E+00 2.4534995E+00
  4.318E-02  1.738E-01  4.367E-01 7.3134836E+00 3.3828788E+00 2.3065008E+00
  0.000E+00  2.182E-01  3.765E-01 7.4390949E+00 3.2858088E+00 2.6203082E+00
  4.318E-02  2.029E-01  3.962E-01 7.4041237E+00 3.2634437E+00 2.4719634E+00
  0.000E+00  2.502E-01  3.383E-01 7.4533837E+00 3.1512129E+00 2.7809892E+00
  4.318E-02  2.340E-01  3.572E-01 7.4597385E+00 3.1362059E+00 2.6315892E+00
  0.000E+00  2.841E-01  3.018E-01 7.4998209E+00 3.0086040E+00 2.9344984E+00
  4.318E-02  2.669E-01  3.198E-01 7.4636122E+00 3.0011540E+00 2.7846700E+00
  0.000E+00  3.198E-01  2.669E-01 7.4668091E+00 2.8586491E+00 3.0808835E+00
  4.318E-02  3.018E-01  2.841E-01 7.4966045E+00 2.8585642E+00 2.9307459E+00
  0.000E+00  3.572E-01  2.340E-01 7.4629431E+00 2.7014977E+00 3.2195125E+00
  4.318E-02  3.383E-01  2.502E-01 7.4501778E+00 2.7090211E+00 3.0696660E+00
  0.000E+00  3.962E-01  2.029E-01 7.4073186E+00 2.5376339E+00 3.3501420E+00
  4.318E-02  3.765E-01  2.182E-01 7.4358711E+00 2.5525017E+00 3.2007753E+00
  0.000E+00  4.367E-01  1.738E-01 7.3166656E+00 2.3677680E+00 3.4727355E+00
  4.318E-02  4.163E-01  1.881E-01 7.3403092E+00 2.3900067E+00 3.3241958E+00
  0.000E+00  4.786E-01  1.467E-01 7.2678587E+00 2.1910750E+00 3.5859162E+00
  4.318E-02  4.575E-01  1.600E-01 7.3129569E+00 2.2212536E+00 3.4392142E+00
  0.000E+00  5.217E-01  1.218E-01 7.1057164E+00 2.0099047E+00 3.6907114E+00
  4.318E-02  5.000E-01  1.340E-01 7.1647769E+00 2.0463838E+00 3.5449353E+00
  0.000E+00  5.661E-01  9.903E-02 7.0462576E+00 1.8249520E+00 3.7878284E+00
  4.318E-02  5.438E-01  1.101E-01 7.0827359E+00 1.8685989E+00 3.6437424E+00
  0.000E+00  6.116E-01  7.852E-02 6.9100459E+00 1.6315794E+00 3.8725163E+00
  4.318E-02  5.887E-01  8.849E-02 6.9887992E+00 1.6845618E+00 3.7326754E+00
  0.000E+00  6.580E-01  6.031E-02 6.7482411E+00 1.4341462E+00 3.9469343E+00
  4.318E-02  6.347E-01  6.913E-02 6.8136925E+00 1.4930876E+00 3.8093476E+00
  0.000E+00  7.052E-01  4.443E-02 6.6668237E+00 1.2388862E+00 4.0158110E+00
  4.318E-02  6.815E-01  5.207E-02 6.7030130E+00 1.3017490E+00 3.8790734E+00
  0.000E+00  7.532E-01  3.092E-02 6.5736578E+00 1.0409798E+00 4.0753298E+00
  4.318E-02  7.292E-01  3.738E-02 6.6211195E+00 1.1112609E+00 3.9424230E+00
  0.000E+00  8.019E-01  1.983E-02 6.4623939E+00 8.3564113E-01 4.1213093E+00
  4.318E-02  7.775E-01  2.507E-02 6.5144249E+00 9.1486521E-01 3.9938827E+00
  0.000E+00  8.510E-01  1.117E-02 6.3611716E+00 6.2607862E-01 4.1557261E+00
  4.318E-02  8.264E-01  1.519E-02 6.4052881E+00 7.1217025E-01 4.0326550E+00
  0.000E+00  9.004E-01  4.969E-03 6.2909168E+00 4.1646140E-01 4.1807574E+00
  4.318E-02  8.757E-01  7.761E-03 6.3201472E+00 5.0762632E-01 4.0614611E+00
  4.318E-02  9.253E-01  2.796E-03 6.2659771E+00 3.0403233E-01 4.0814388E+00
  1.000E+01  1.050E+00  1.243E-03 6.2535975E+00 -2.0798018E-01 4.1964783E+00
  1.000E+01  1.000E+00  5.551E-16 6.2423765E+00 -7.0077594E-06 4.2019023E+00
  9.957E+00  1.025E+00  3.108E-04 6.2477471E+00 -1.0666415E-01 4.3095508E+00
  1.000E+01  9.502E-01  1.243E-03 6.2535977E+00 2.0796566E-01 4.1964782E+00
  9.957E+00  9.751E-01  3.108E-04 6.2477471E+00 1.0665023E-01 4.3095507E+00
  1.000E+01  9.004E-01  4.969E-03 6.2909168E+00 4.1646140E-01 4.1807574E+00
  9.957E+00  9.253E-01  2.796E-03 6.2732235E+00 3.2020534E-01 4.2986017E+00
  1.000E+01  8.510E-01  1.117E-02 6.3611716E+00 6.2607862E-01 4.1557261E+00
  9.957E+00  8.757E-01  7.761E-03 6.3273954E+00 5.3463261E-01 4.2775627E+00
  1.000E+01  8.019E-01  1.983E-02 6.4623939E+00 8.3564113E-01 4.1213093E+00
  9.957E+00  8.264E-01  1.519E-02 6.4125496E+00 7.5006147E-01 4.2472260E+00
  1.000E+01  7.532E-01  3.092E-02 6.5736578E+00 1.0409798E+00 4.0753298E+00
  9.957E+00  7.775E-01  2.507E-02 6.5217076E+00 9.6354344E-01 4.2063904E+00
  1.000E+01  7.052E-01  4.443E-02 6.6668237E+00 1.2388862E+00 4.0158110E+00
  9.957E+00  7.292E-01  3.738E-02 6.6284049E+00 1.1703926E+00 4.1521858E+00
  1.000E+01  6.580E-01  6.031E-02 6.7482411E+00 1.4341462E+00 3.9469343E+00
  9.957E+00  6.815E-01  5.207E-02 6.7102592E+00 1.3710190E+00 4.0854589E+00
  1.000E+01  6.116E-01  7.852E-02 6.9100459E+00 1.6315794E+00 3.8725163E+00
  9.957E+00  6.347E-01  6.913E-02 6.8209251E+00 1.5725388E+00 4.0120358E+00
  1.000E+01  5.661E-01  9.903E-02 7.0462576E+00 1.8249520E+00 3.7878284E+00
  9.957E+00  5.887E-01  8.849E-02 6.9960947E+00 1.7742015E+00 3.9312865E+00
  1.000E+01  5.217E-01  1.218E-01 7.1057164E+00 2.0099047E+00 3.6907114E+00
  9.957E+00  5.438E-01  1.101E-01 7.0900045E+00 1.9680301E+00 3.8376036E+00
  1.000E+01  4.786E-01  1.467E-01 7.2678587E+00 2.1910750E+00 3.5859162E+00
  9.957E+00  5.000E-01  1.340E-01 7.1720134E+00 2.1552747E+00 3.7335518E+00
  1.000E+01  4.367E-01  1.738E-01 7.3166656E+00 2.3677680E+00 3.4727355E+00
  9.957E+00  4.575E-01  1.600E-01 7.3202564E+00 2.3394500E+00 3.6222037E+00
  1.000E+01  3.962E-01  2.029E-01 7.4073186E+00 2.5376339E+00 3.3501420E+00
  9.957E+00  4.163E-01  1.881E-01 7.3475495E+00 2.5171812E+00 3.5010592E+00
  1.000E+01  3.572E-01  2.340E-01 7.4629431E+00 2.7014977E+00 3.2195125E+00
  9.957E+00  3.765E-01  2.182E-01 7.4431541E+00 2.6883165E+00 3.3710789E+00
  1.000E+01  3.198E-01  2.669E-01 7.4668091E+00 2.8586491E+00 3.0808835E+00
  9.957E+00  3.383E-01  2.502E-01 7.4574317E+00 2.8531700E+00 3.2329894E+00
  1.000E+01  2.841E-01  3.018E-01 7.4998209E+00 3.0086040E+00 2.9344984E+00
  9.957E+00  3.018E-01  2.841E-01 7.5038933E+00 3.0106598E+00 3.0866806E+00
  1.000E+01  2.502E-01  3.383E-01 7.4533837E+00 3.1512129E+00 2.7809892E+00
  9.957E+00  2.669E-01  3.198E-01 7.4708696E+00 3.1608467E+00 2.9328342E+00
  1.000E+01  2.182E-01  3.765E-01 7.4390949E+00 3.2858088E+00 2.6203082E+00
  9.957E+00  2.340E-01  3.572E-01 7.4670264E+00 3.3030706E+00 2.7716029E+00
  1.000E+01  1.881E-01  4.163E-01 7.3435188E+00 3.4125003E+00 2.4534995E+00
  9.957E+00  2.029E-01  3.962E-01 7.4114027E+00 3.4370961E+00 2.6034932E+00
  1.000E+01  1.600E-01  4.575E-01 7.3161980E+00 3.5305869E+00 2.2802641E+00
  9.957E+00  1.738E-01  4.367E-01 7.3207446E+00 3.5628635E+00 2.4292150E+00
  1.000E+01  1.340E-01  5.000E-01 7.1679943E+00 3.6391059E+00 2.1007510E+00
  9.957E+00  1.467E-01  4.786E-01 7.2719627E+00 3.6789945E+00 2.2479382E+00
  1.000E+01  1.101E-01  5.438E-01 7.0859729E+00 3.7405375E+00 1.9182466E+00
  9.957E+00  1.218E-01  5.217E-01 7.1097857E+00 3.7864875E+00 2.0620629E+00
  1.000E+01  8.849E-02  5.887E-01 6.9920524E+00 3.8318536E+00 1.7293218E+00
  9.957E+00  9.903E-02  5.661E-01 7.0503685E+00 3.8861393E+00 1.8723054E+00
  1.000E+01  6.913E-02  6.347E-01 6.8169203E+00 3.9105452E+00 1.5327569E+00
  9.957E+00  7.852E-02  6.116E-01 6.9141491E+00 3.9730302E+00 1.6739193E+00
  1.000E+01  5.207E-02  6.815E-01 6.7062503E+00 3.9821143E+00 1.3363294E+00
  9.957E+00  6.031E-02  6.580E-01 6.7523211E+00 4.0493613E+00 1.4713727E+00
  1.000E+01  3.738E-02  7.292E-01 6.6243794E+00 4.0471619E+00 1.1407783E+00
  9.957E+00  4.443E-02  7.052E-01 6.6709335E+00 4.1200357E+00 1.2710534E+00
  1.000E+01  2.507E-02  7.775E-01 6.5176869E+00 4.0999922E+00 9.3916584E-01
  9.957E+00  3.092E-02  7.532E-01 6.5777835E+00 4.1811140E+00 1.0680109E+00
  1.000E+01  1.519E-02  8.264E-01 6.4085413E+00 4.1397869E+00 7.3108918E-01
  9.957E+00  1.983E-02  8.019E-01 6.4665140E+00 4.2282858E+00 8.5733630E-01
  1.000E+01  7.761E-03  8.757E-01 6.3233947E+00 4.1693533E+00 5.2111376E-01
  9.957E+00  1.117E-02  8.510E-01 6.3652809E+00 4.2635887E+00 6.4232936E-01
  1.000E+01  2.796E-03  9.253E-01 6.2692257E+00 4.1898641E+00 3.1211318E-01
  9.957E+00  4.969E-03  9.004E-01 6.2950229E+00 4.2892679E+00 4.2727112E-01
  1.000E+01  3.108E-04  9.751E-01 6.2437501E+00 4.2005416E+00 1.0395946E-01
  9.957E+00  1.243E-03  9.502E-01 6.2577069E+00 4.3054005E+00 2.1336707E-01
  1.000E+01  3.108E-04  1.025E+00 6.2437501E+00 4.2005433E+00 -1.0396100E-01
  9.957E+00  0.000E+00  1.000E+00 6.2464890E+00 4.3109699E+00 -9.1460352E-07
  1.000E+01  2.796E-03  1.075E+00 6.2692256E+00 4.1898696E+00 -3.1211471E-01
  9.957E+00  1.243E-03  1.050E+00 6.2577069E+00 4.3054040E+00 -2.1336889E-01
  1.000E+01  7.761E-03  1.124E+00 6.3233946E+00 4.1693618E+00 -5.2111523E-01
  9.957E+00  4.969E-03  1.100E+00 6.2950230E+00 4.2892756E+00 -4.2727293E-01
  1.000E+01  1.519E-02  1.174E+00 6.4085414E+00 4.1397932E+00 -7.3109058E-01
  9.957E+00  1.117E-02  1.149E+00 6.3652809E+00 4.2635972E+00 -6.4233115E-01
  1.000E+01  2.507E-02  1.223E+00 6.5176870E+00 4.0999893E+00 -9.3916717E-01
  9.957E+00  1.983E-02  1.198E+00 6.4665139E+00 4.2282874E+00 -8.5733802E-01
  1.000E+01  3.738E-02  1.271E+00 6.6243797E+00 4.0471598E+00 -1.1407796E+00
  9.957E+00  3.092E-02  1.247E+00 6.5777833E+00 4.1811082E+00 -1.0680126E+00
  1.000E+01  5.207E-02  1.318E+00 6.7062505E+00 3.9821336E+00 -1.3363308E+00
  9.957E+00  4.443E-02  1.295E+00 6.6709334E+00 4.1200425E+00 -1.2710550E+00
  1.000E+01  6.913E-02  1.365E+00 6.8169203E+00 3.9105626E+00 -1.5327582E+00
  9.957E+00  6.031E-02  1.342E+00 6.7523210E+00 4.0493864E+00 -1.4713742E+00
  1.000E+01  8.849E-02  1.411E+00 6.9920527E+00 3.8318446E+00 -1.7293228E+00
  9.957E+00  7.852E-02  1.388E+00 6.9141492E+00 3.9730310E+00 -1.6739208E+00
  1.000E+01  1.101E-01  1.456E+00 7.0859729E+00 3.7405511E+00 -1.9182476E+00
  9.957E+00  9.903E-02  1.434E+00 7.0503687E+00 3.8861358E+00 -1.8723066E+00
  1.000E+01  1.340E-01  1.500E+00 7.1679942E+00 3.6391251E+00 -2.1007521E+00
  9.957E+00  1.218E-01  1.478E+00 7.1097857E+00 3.7865135E+00 -2.0620645E+00
  1.000E+01  1.600E-01  1.543E+00 7.3161978E+00 3.5305840E+00 -2.2802647E+00
  9.957E+00  1.467E-01  1.521E+00 7.2719627E+00 3.6789972E+00 -2.2479392E+00
  1.000E+01  1.881E-01  1.584E+00 7.3435189E+00 3.4125165E+00 -2.4535005E+00
  9.957E+00  1.738E-01  1.563E+00 7.3207445E+00 3.5628700E+00 -2.4292163E+00
  1.000E+01  2.182E-01  1.623E+00 7.4390951E+00 3.2858157E+00 -2.6203089E+00
  9.957E+00  2.029E-01  1.604E+00 7.4114024E+00 3.4371098E+00 -2.6034943E+00
  1.000E+01  2.502E-01  1.662E+00 7.4533837E+00 3.1512230E+00 -2.7809900E+00
  9.957E+00  2.340E-01  1.643E+00 7.4670261E+00 3.3030747E+00 -2.7716037E+00
  1.000E+01  2.841E-01  1.698E+00 7.4998202E+00 3.0086143E+00 -2.9344988E+00
  9.957E+00  2.669E-01  1.680E+00 7.4708696E+00 3.1608601E+00 -2.9328353E+00
  1.000E+01  3.198E-01  1.733E+00 7.4668082E+00 2.8586577E+00 -3.0808839E+00
  9.957E+00  3.018E-01  1.716E+00 7.5038938E+00 3.0106679E+00 -3.0866816E+00
  1.000E+01  3.572E-01  1.766E+00 7.4629430E+00 2.7015095E+00 -3.2195130E+00
  9.957E+00  3.383E-01  1.750E+00 7.4574319E+00 2.8531826E+00 -3.2329906E+00
  1.000E+01  3.962E-01  1.797E+00 7.4073199E+00 2.5376477E+00 -3.3501434E+00
  9.957E+00  3.765E-01  1.782E+00 7.4431533E+00 2.6883266E+00 -3.3710797E+00
  1.000E+01  4.367E-01  1.826E+00 7.3166673E+00 2.3677854E+00 -3.4727377E+00
  9.957E+00  4.163E-01  1.812E+00 7.3475481E+00 2.5171907E+00 -3.5010593E+00
  1.000E+01  4.786E-01  1.853E+00 7.2678583E+00 2.1910882E+00 -3.5859174E+00
  9.957E+00  4.575E-01  1.840E+00 7.3202563E+00 2.3394597E+00 -3.6222035E+00
  1.000E+01  5.217E-01  1.878E+00 7.1057140E+00 2.0099099E+00 -3.6907097E+00
  9.957E+00  5.000E-01  1.866E+00 7.1720156E+00 2.1552897E+00 -3.7335529E+00
  1.000E+01  5.661E-01  1.901E+00 7.0462557E+00 1.8249499E+00 -3.7878238E+00
  9.957E+00  5.438E-01  1.890E+00 7.0900067E+00 1.9680500E+00 -3.8376069E+00
  1.000E+01  6.116E-01  1.921E+00 6.9100461E+00 1.6315851E+00 -3.8725121E+00
  9.957E+00  5.887E-01  1.912E+00 6.9960940E+00 1.7742220E+00 -3.9312905E+00
  1.000E+01  6.580E-01  1.940E+00 6.7482417E+00 1.4341681E+00 -3.9469341E+00
  9.957E+00  6.347E-01  1.931E+00 6.8209222E+00 1.5725524E+00 -4.0120384E+00
  1.000E+01  7.052E-01  1.956E+00 6.6668231E+00 1.2389231E+00 -4.0158167E+00
  9.957E+00  6.815E-01  1.948E+00 6.7102570E+00 1.3710209E+00 -4.0854577E+00
  1.000E+01  7.532E-01  1.969E+00 6.5736566E+00 1.0410192E+00 -4.0753401E+00
  9.957E+00  7.292E-01  1.963E+00 6.6284053E+00 1.1703892E+00 -4.1521810E+00
  1.000E+01  8.019E-01  1.980E+00 6.4623936E+00 8.3567217E-01 -4.1213219E+00
  9.957E+00  7.775E-01  1.975E+00 6.5217099E+00 9.6354236E-01 -4.2063833E+00
  1.000E+01  8.510E-01  1.989E+00 6.3611726E+00 6.2609851E-01 -4.1557390E+00
  9.957E+00  8.264E-01  1.985E+00 6.4125517E+00 7.5006778E-01 -4.2472179E+00
  1.000E+01  9.004E-01  1.995E+00 6.2909183E+00 4.1647445E-01 -4.1807699E+00
  9.957E+00  8.757E-01  1.992E+00 6.3273963E+00 5.3464475E-01 -4.2775545E+00
  1.000E+01  9.502E-01  1.999E+00 6.2535991E+00 2.0797781E-01 -4.1964900E+00
  9.957E+00  9.253E-01  1.997E+00 6.2732232E+00 3.2022063E-01 -4.2985937E+00
  1.000E+01  1.000E+00  2.000E+00 6.2423779E+00 6.7966958E-06 -4.2019138E+00
  9.957E+00  9.751E-01  2.000E+00 6.2477464E+00 1.0666475E-01 -4.3095427E+00
  1.000E+01  1.050E+00  1.999E+00 6.2535991E+00 -2.0796371E-01 -4.1964899E+00
  9.957E+00  1.025E+00  2.000E+00 6.2477464E+00 -1.0665128E-01 -4.3095426E+00
  1.000E+01  1.100E+00  1.995E+00 6.2909182E+00 -4.1646070E-01 -4.1807697E+00
  9.957E+00  1.075E+00  1.997E+00 6.2732232E+00 -3.2020688E-01 -4.2985935E+00
  1.000E+01  1.149E+00  1.989E+00 6.3611724E+00 -6.2608482E-01 -4.1557387E+00
  9.957E+00  1.124E+00  1.992E+00 6.3273961E+00 -5.3463155E-01 -4.2775542E+00
  1.000E+01  1.198E+00  1.980E+00 6.4623934E+00 -8.3565835E-01 -4.1213215E+00
  9.957E+00  1.174E+00  1.985E+00 6.4125515E+00 -7.5005421E-01 -4.2472175E+00