# TIME = 1.100000
variables = x, y, z
zone N=5762 E=11520 F=FEPOINT ET=TRIANGLE
 5.1869900E+00 1.4263461E+00 1.6896051E+00
 5.1869900E+00 1.4263461E+00 3.1039490E-01
 5.1869900E+00 5.7365420E-01 1.6896050E+00
 5.1869900E+00 5.7365421E-01 3.1039492E-01
 3.7009373E+00 1.0000001E+00 1.6675599E+00
 6.6728071E+00 1.0000001E+00 1.6671913E+00
 3.7009372E+00 1.0000001E+00 3.3243992E-01
 6.6728071E+00 1.0000001E+00 3.3280859E-01
 4.3628003E+00 1.8334650E+00 9.9999994E-01
 4.3628003E+00 1.6653528E-01 9.9999994E-01
 6.0110006E+00 1.8287905E+00 9.9999994E-01
 6.0110006E+00 1.7120972E-01 9.9999994E-01
 5.1353476E+00 1.4188355E+00 1.6946719E+00
 5.0788387E+00 1.4106612E+00 1.7006117E+00
 5.0196582E+00 1.4022201E+00 1.7071992E+00
 4.9581847E+00 1.3934953E+00 1.7144289E+00
 4.8944882E+00 1.3843929E+00 1.7222772E+00
 4.8287687E+00 1.3748041E+00 1.7306587E+00
 4.7612212E+00 1.3645816E+00 1.7394347E+00
 4.6921054E+00 1.3535596E+00 1.7483929E+00
 4.6217199E+00 1.3415513E+00 1.7572553E+00
 4.5504088E+00 1.3283641E+00 1.7656794E+00
 4.4785548E+00 1.3138122E+00 1.7732750E+00
 4.4065806E+00 1.2977328E+00 1.7796207E+00
 4.3349427E+00 1.2800026E+00 1.7842929E+00
 4.2641258E+00 1.2605517E+00 1.7868901E+00
 4.1946322E+00 1.2393742E+00 1.7870646E+00
 4.1269665E+00 1.2165328E+00 1.7845436E+00
 4.0616177E+00 1.1921576E+00 1.7791504E+00
 3.9990386E+00 1.1664384E+00 1.7708110E+00
 3.9396264E+00 1.1396127E+00 1.7595567E+00
 3.8837055E+00 1.1119495E+00 1.7455135E+00
 3.8315183E+00 1.0837305E+00 1.7288904E+00
 3.7832642E+00 1.0552606E+00 1.7099713E+00
 3.7391322E+00 1.0268605E+00 1.6891163E+00
 5.1306228E+00 6.0993516E-01 1.7112702E+00
 5.0727224E+00 6.1934664E-01 1.7174731E+00
 5.0123881E+00 6.2894335E-01 1.7242549E+00
 4.9498632E+00 6.3889268E-01 1.7316592E+00
 4.8852142E+00 6.4931936E-01 1.7396620E+00
 4.8186148E+00 6.6033915E-01 1.7481582E+00
 4.7503046E+00 6.7209803E-01 1.7569793E+00
 4.6805656E+00 6.8476246E-01 1.7658852E+00
 4.6097270E+00 6.9850854E-01 1.7745671E+00
 4.5381579E+00 7.1351130E-01 1.7826548E+00
 4.4662658E+00 7.2992790E-01 1.7897357E+00
 4.3944927E+00 7.4788293E-01 1.7953761E+00
 4.3233101E+00 7.6745318E-01 1.7991508E+00
 4.2532106E+00 7.8865674E-01 1.8006711E+00
 4.1846949E+00 8.1144632E-01 1.7996140E+00
 4.1182563E+00 8.3570893E-01 1.7957436E+00
 4.0543612E+00 8.6127101E-01 1.7889264E+00
 3.9934302E+00 8.8791062E-01 1.7791364E+00
 3.9358189E+00 9.1537230E-01 1.7664514E+00
 3.8817987E+00 9.4339485E-01 1.7510380E+00
 3.8315179E+00 9.7172182E-01 1.7331160E+00
 3.7847740E+00 1.0000001E+00 1.7128203E+00
 5.1292781E+00 6.3969443E-01 1.7268053E+00
 5.0697928E+00 6.5042764E-01 1.7331885E+00
 5.0082684E+00 6.6125332E-01 1.7400537E+00
 4.9445438E+00 6.7253623E-01 1.7475443E+00
 4.8787568E+00 6.8438439E-01 1.7556011E+00
 4.8110976E+00 6.9692823E-01 1.7641025E+00
 4.7418323E+00 7.1031407E-01 1.7728525E+00
 4.6712788E+00 7.2470330E-01 1.7815791E+00
 4.5997963E+00 7.4025974E-01 1.7899418E+00
 4.5277848E+00 7.5713542E-01 1.7975411E+00
 4.4556788E+00 7.7545523E-01 1.8039423E+00
 4.3839436E+00 7.9530199E-01 1.8087000E+00
 4.3130674E+00 8.1670383E-01 1.8113909E+00
 4.2435518E+00 8.3962647E-01 1.8116423E+00
 4.1758960E+00 8.6397046E-01 1.8091617E+00
 4.1105815E+00 8.8957532E-01 1.8037538E+00
 4.0480503E+00 9.1622957E-01 1.7953345E+00
 3.9886876E+00 9.4368609E-01 1.7839283E+00
 3.9327925E+00 9.7169110E-01 1.7696580E+00
 3.8805246E+00 1.0000001E+00 1.7527061E+00
 3.8315179E+00 1.0282784E+00 1.7331160E+00
 5.1280126E+00 6.7116041E-01 1.7415938E+00
 5.0673669E+00 6.8309622E-01 1.7479507E+00
 5.0046649E+00 6.9525294E-01 1.7548168E+00
 4.9398391E+00 7.0793638E-01 1.7622734E+00
 4.8730068E+00 7.2128293E-01 1.7702567E+00
 4.8043985E+00 7.3541816E-01 1.7786169E+00
 4.7343121E+00 7.5048667E-01 1.7871307E+00
 4.6630964E+00 7.6663888E-01 1.7954953E+00
 4.5911431E+00 7.8401896E-01 1.8033409E+00
 4.5188805E+00 8.0275017E-01 1.8102437E+00
 4.4467675E+00 8.2291912E-01 1.8157542E+00
 4.3752881E+00 8.4456291E-01 1.8194242E+00
 4.3049414E+00 8.6765918E-01 1.8208424E+00
 4.2362302E+00 8.9212221E-01 1.8196623E+00
 4.1696450E+00 9.1780440E-01 1.8156295E+00
 4.1056455E+00 9.4450550E-01 1.8085969E+00
 4.0446408E+00 9.7198671E-01 1.7985312E+00
 3.9869614E+00 1.0000001E+00 1.7855043E+00
 3.9327925E+00 1.0283092E+00 1.7696580E+00
 3.8817987E+00 1.0566054E+00 1.7510380E+00
 5.1268765E+00 7.0446098E-01 1.7555042E+00
 5.0651231E+00 7.1766497E-01 1.7617326E+00
 5.0013708E+00 7.3117232E-01 1.7684598E+00
 4.9355562E+00 7.4529860E-01 1.7757424E+00
 4.8678275E+00 7.6017128E-01 1.7834904E+00
 4.7984443E+00 7.7591797E-01 1.7915321E+00
 4.7277365E+00 7.9267310E-01 1.7996153E+00
 4.6560854E+00 8.1057074E-01 1.8074099E+00
 4.5839103E+00 8.2972902E-01 1.8145215E+00
 4.5116644E+00 8.5023579E-01 1.8205097E+00
 4.4398246E+00 8.7213445E-01 1.8249196E+00
 4.3688863E+00 8.9541321E-01 1.8273112E+00
 4.2993503E+00 9.1999909E-01 1.8272959E+00
 4.2317116E+00 9.4575784E-01 1.8245628E+00
 4.1664403E+00 9.7250121E-01 1.8189036E+00
 4.1039649E+00 1.0000001E+00 1.8102215E+00
 4.0446408E+00 1.0280135E+00 1.7985312E+00
 3.9886876E+00 1.0563142E+00 1.7839283E+00
 3.9358189E+00 1.0846280E+00 1.7664514E+00
 5.1258076E+00 7.3955534E-01 1.7683294E+00
 5.0630634E+00 7.5404087E-01 1.7742992E+00
 4.9983886E+00 7.6892717E-01 1.7807495E+00
 4.9317432E+00 7.8450988E-01 1.7877005E+00
 4.8633001E+00 8.0091573E-01 1.7950415E+00
 4.7933501E+00 8.1826331E-01 1.8025755E+00
 4.7222549E+00 8.3667397E-01 1.8100257E+00
 4.6504231E+00 8.5625821E-01 1.8170384E+00
 4.5782993E+00 8.7710226E-01 1.8232020E+00
 4.5063539E+00 8.9925368E-01 1.8280687E+00
 4.4350758E+00 9.2270943E-01 1.8311890E+00
 4.3649622E+00 9.4740871E-01 1.8321423E+00
 4.2965071E+00 9.7323071E-01 1.8305725E+00
 4.2301865E+00 1.0000001E+00 1.8262125E+00
 4.1664403E+00 1.0274990E+00 1.8189036E+00
 4.1056455E+00 1.0554948E+00 1.8085969E+00
 4.0480502E+00 1.0837707E+00 1.7953345E+00
 3.9934302E+00 1.1120896E+00 1.7791364E+00
 5.1248534E+00 7.7635155E-01 1.7798538E+00
 5.0612391E+00 7.9211820E-01 1.7854286E+00
 4.9957951E+00 8.0837654E-01 1.7914489E+00
 4.9284936E+00 8.2539983E-01 1.7979014E+00
 4.8595379E+00 8.4330593E-01 1.8046529E+00
 4.7892477E+00 8.6220259E-01 1.8114846E+00
 4.7180125E+00 8.8219049E-01 1.8180981E+00
 4.6462656E+00 9.0335227E-01 1.8241226E+00
 4.5744693E+00 9.2573711E-01 1.8291380E+00
 4.5031057E+00 9.4934946E-01 1.8326995E+00
 4.4326659E+00 9.7413957E-01 1.8343738E+00
 4.3636409E+00 1.0000001E+00 1.8337698E+00
 4.2965071E+00 1.0267696E+00 1.8305725E+00
 4.2317116E+00 1.0542424E+00 1.8245628E+00
 4.1696450E+00 1.0821959E+00 1.8156295E+00
 4.1105815E+00 1.1104249E+00 1.8037538E+00
 4.0543612E+00 1.1387293E+00 1.7889264E+00
 5.1240207E+00 8.1469063E-01 1.7898588E+00
 5.0596851E+00 8.3170954E-01 1.7948953E+00
 4.9936404E+00 8.4930434E-01 1.8003281E+00
 4.9258791E+00 8.6771661E-01 1.8061108E+00
 4.8566289E+00 8.8705253E-01 1.8120905E+00
 4.7862379E+00 9.0740264E-01 1.8180289E+00
 4.7151193E+00 9.2884368E-01 1.8236118E+00
 4.6437243E+00 9.5142504E-01 1.8284593E+00
 4.5725270E+00 9.7515700E-01 1.8321524E+00
 4.5020122E+00 1.0000001E+00 1.8342595E+00
 4.4326659E+00 1.0258607E+00 1.8343738E+00
 4.3649622E+00 1.0525916E+00 1.8321423E+00
 4.2993503E+00 1.0800012E+00 1.8272959E+00
 4.2362302E+00 1.1078781E+00 1.8196623E+00
 4.1758960E+00 1.1360298E+00 1.8091617E+00
 4.1182562E+00 1.1642913E+00 1.7957436E+00
 5.1233312E+00 8.5437459E-01 1.7981428E+00
 5.0584368E+00 8.7258761E-01 1.8024968E+00
 4.9919773E+00 8.9144775E-01 1.8071845E+00
 4.9239630E+00 9.1115976E-01 1.8121301E+00
 4.8546470E+00 9.3181301E-01 1.8171630E+00
 4.7843996E+00 9.5347757E-01 1.8220306E+00
 4.7136528E+00 9.7620166E-01 1.8264096E+00
 4.6428695E+00 1.0000001E+00 1.8299196E+00
 4.5725270E+00 1.0248433E+00 1.8321524E+00
 4.5031057E+00 1.0506508E+00 1.8326995E+00
 4.4350758E+00 1.0772908E+00 1.8311890E+00
 4.3688863E+00 1.1045871E+00 1.8273112E+00
 4.3049414E+00 1.1323411E+00 1.8208424E+00
 4.2435518E+00 1.1603738E+00 1.8116423E+00
 4.1846949E+00 1.1885539E+00 1.7996141E+00
 5.1227989E+00 8.9515849E-01 1.8045275E+00
 5.0575225E+00 9.1447560E-01 1.8080602E+00
 4.9908447E+00 9.3449597E-01 1.8118532E+00
 4.9227933E+00 9.5538106E-01 1.8158060E+00
 4.8536426E+00 9.7720036E-01 1.8197345E+00
 4.7837814E+00 1.0000001E+00 1.8233773E+00
 4.7136528E+00 1.0237986E+00 1.8264096E+00
 4.6437243E+00 1.0485752E+00 1.8284593E+00
 4.5744693E+00 1.0742631E+00 1.8291381E+00
 4.5063539E+00 1.1007466E+00 1.8280687E+00
 4.4398246E+00 1.1278658E+00 1.8249196E+00
 4.3752881E+00 1.1554374E+00 1.8194243E+00
 4.3130674E+00 1.1832964E+00 1.8113909E+00
 4.2532106E+00 1.2113435E+00 1.8006711E+00
 5.1224368E+00 9.3675927E-01 1.8088688E+00
 5.0569647E+00 9.5706017E-01 1.8114536E+00
 4.9902710E+00 9.7810244E-01 1.8142178E+00
 4.9224000E+00 1.0000001E+00 1.8170423E+00
 4.8536426E+00 1.0227999E+00 1.8197345E+00
 4.7843996E+00 1.0465227E+00 1.8220306E+00
 4.7151193E+00 1.0711566E+00 1.8236118E+00
 4.6462656E+00 1.0966480E+00 1.8241226E+00
 4.5782993E+00 1.1228980E+00 1.8232020E+00
 4.5116644E+00 1.1497645E+00 1.8205097E+00
 4.4467675E+00 1.1770812E+00 1.8157542E+00
 4.3839436E+00 1.2046983E+00 1.8087000E+00
 4.3233101E+00 1.2325471E+00 1.7991508E+00
 5.1222534E+00 9.7886325E-01 1.8110657E+00
 5.0567772E+00 1.0000001E+00 1.8125940E+00
 4.9902710E+00 1.0218978E+00 1.8142178E+00
 4.9227933E+00 1.0446192E+00 1.8158060E+00
 4.8546470E+00 1.0681873E+00 1.8171630E+00
 4.7862379E+00 1.0925976E+00 1.8180289E+00
 4.7180125E+00 1.1178098E+00 1.8180981E+00
 4.6504231E+00 1.1437421E+00 1.8170384E+00
 4.5839103E+00 1.1702712E+00 1.8145215E+00
 4.5188805E+00 1.1972501E+00 1.8102437E+00
 4.4556788E+00 1.2245450E+00 1.8039424E+00
 4.3944927E+00 1.2521173E+00 1.7953761E+00
 5.1222534E+00 1.0211370E+00 1.8110657E+00
 5.0569647E+00 1.0429401E+00 1.8114536E+00
 4.9908447E+00 1.0655043E+00 1.8118533E+00
 4.9239630E+00 1.0888405E+00 1.8121301E+00
 4.8566289E+00 1.1129477E+00 1.8120905E+00
 4.7892477E+00 1.1377977E+00 1.8114847E+00
 4.7222549E+00 1.1633263E+00 1.8100258E+00
 4.6560854E+00 1.1894295E+00 1.8074099E+00
 4.5911431E+00 1.2159813E+00 1.8033409E+00
 4.5277848E+00 1.2428649E+00 1.7975411E+00
 4.4662658E+00 1.2700724E+00 1.7897357E+00
 5.1224368E+00 1.0632410E+00 1.8088689E+00
 5.0575225E+00 1.0855247E+00 1.8080602E+00
 4.9919773E+00 1.1085525E+00 1.8071846E+00
 4.9258791E+00 1.1322837E+00 1.8061109E+00
 4.8595379E+00 1.1566943E+00 1.8046530E+00
 4.7933501E+00 1.1817370E+00 1.8025755E+00
 4.7277365E+00 1.2073272E+00 1.7996154E+00
 4.6630964E+00 1.2333614E+00 1.7954954E+00
 4.5997963E+00 1.2597405E+00 1.7899419E+00
 4.5381579E+00 1.2864890E+00 1.7826548E+00
 5.1227989E+00 1.1048418E+00 1.8045275E+00
 5.0584368E+00 1.1274127E+00 1.8024968E+00
 4.9936404E+00 1.1506959E+00 1.8003281E+00
 4.9284936E+00 1.1746004E+00 1.7979014E+00
 4.8633001E+00 1.1990845E+00 1.7950416E+00
 4.7984443E+00 1.2240823E+00 1.7915321E+00
 4.7343121E+00 1.2495136E+00 1.7871307E+00
 4.6712788E+00 1.2752970E+00 1.7815792E+00
 4.6097270E+00 1.3014917E+00 1.7745671E+00
 5.1233312E+00 1.1456257E+00 1.7981429E+00
 5.0596851E+00 1.1682907E+00 1.7948953E+00
 4.9957951E+00 1.1916237E+00 1.7914490E+00
 4.9317432E+00 1.2154904E+00 1.7877005E+00
 4.8678275E+00 1.2398290E+00 1.7834905E+00
 4.8043985E+00 1.2645821E+00 1.7786170E+00
 4.7418323E+00 1.2896862E+00 1.7728526E+00
 4.6805656E+00 1.3152378E+00 1.7658853E+00
 5.1240207E+00 1.1853096E+00 1.7898589E+00
 5.0612391E+00 1.2078821E+00 1.7854287E+00
 4.9983886E+00 1.2310731E+00 1.7807496E+00
 4.9355562E+00 1.2547017E+00 1.7757424E+00
 4.8730068E+00 1.2787174E+00 1.7702568E+00
 4.8110976E+00 1.3030721E+00 1.7641026E+00
 4.7503046E+00 1.3279023E+00 1.7569793E+00
 5.1248534E+00 1.2236487E+00 1.7798538E+00
 5.0630634E+00 1.2459594E+00 1.7742992E+00
 5.0013708E+00 1.2688280E+00 1.7684599E+00
 4.9398391E+00 1.2920639E+00 1.7622735E+00
 4.8787568E+00 1.3156159E+00 1.7556011E+00
 4.8186148E+00 1.3396611E+00 1.7481583E+00
 5.1258076E+00 1.2604449E+00 1.7683294E+00
 5.0651231E+00 1.2823353E+00 1.7617326E+00
 5.0046649E+00 1.3047473E+00 1.7548169E+00
 4.9445438E+00 1.3274641E+00 1.7475443E+00
 4.8852142E+00 1.3506809E+00 1.7396621E+00
 5.1268765E+00 1.2955393E+00 1.7555043E+00
 5.0673669E+00 1.3169041E+00 1.7479508E+00
 5.0082684E+00 1.3387470E+00 1.7400538E+00
 4.9498633E+00 1.3611076E+00 1.7316593E+00
 5.1280126E+00 1.3288399E+00 1.7415939E+00
 5.0697928E+00 1.3495727E+00 1.7331886E+00
 5.0123881E+00 1.3710570E+00 1.7242550E+00
 5.1292781E+00 1.3603059E+00 1.7268054E+00
 5.0727224E+00 1.3806537E+00 1.7174732E+00
 5.1306228E+00 1.3900651E+00 1.7112703E+00
 5.1869914E+00 1.4010096E+00 1.7046031E+00
 5.1869925E+00 1.3723253E+00 1.7201820E+00
 5.1869929E+00 1.3420593E+00 1.7350503E+00
 5.1869932E+00 1.3098519E+00 1.7492022E+00
 5.1869935E+00 1.2758513E+00 1.7623818E+00
 5.1869939E+00 1.2401255E+00 1.7743826E+00
 5.1869942E+00 1.2028174E+00 1.7849853E+00
 5.1869945E+00 1.1640948E+00 1.7939883E+00
 5.1869947E+00 1.1241779E+00 1.8012057E+00
 5.1869949E+00 1.0833245E+00 1.8064817E+00
 5.1869950E+00 1.0418266E+00 1.8096970E+00
 5.1869950E+00 1.0000001E+00 1.8107772E+00
 5.1869950E+00 9.5817367E-01 1.8096970E+00
 5.1869949E+00 9.1667575E-01 1.8064817E+00
 5.1869947E+00 8.7582231E-01 1.8012057E+00
 5.1869945E+00 8.3590544E-01 1.7939882E+00
 5.1869942E+00 7.9718290E-01 1.7849853E+00
 5.1869939E+00 7.5987478E-01 1.7743825E+00
 5.1869936E+00 7.2414902E-01 1.7623817E+00
 5.1869932E+00 6.9014840E-01 1.7492022E+00
 5.1869929E+00 6.5794101E-01 1.7350502E+00
 5.1869925E+00 6.2767504E-01 1.7201819E+00
 5.1869914E+00 5.9899066E-01 1.7046030E+00
 5.2386358E+00 5.8134342E-01 1.6943754E+00
 5.2951537E+00 5.8970557E-01 1.6999865E+00
 5.3543477E+00 5.9833409E-01 1.7062250E+00
 5.4158386E+00 6.0724331E-01 1.7130880E+00
 5.4795540E+00 6.1652446E-01 1.7205530E+00
 5.5452908E+00 6.2628308E-01 1.7285383E+00
 5.6128496E+00 6.3666218E-01 1.7369103E+00
 5.6819652E+00 6.4782258E-01 1.7454648E+00
 5.7523332E+00 6.5994495E-01 1.7539351E+00
 5.8236036E+00 6.7321542E-01 1.7619930E+00
 5.8953890E+00 6.8781355E-01 1.7692657E+00
 5.9672648E+00 7.0389672E-01 1.7753511E+00
 6.0387761E+00 7.2158469E-01 1.7798449E+00
 6.1094444E+00 7.4094695E-01 1.7823632E+00
 6.1787786E+00 7.6199236E-01 1.7825711E+00
 6.2462890E+00 7.8466548E-01 1.7802026E+00
 6.3115040E+00 8.0884658E-01 1.7750795E+00
 6.3739880E+00 8.3435890E-01 1.7671182E+00
 6.4333586E+00 8.6097916E-01 1.7563335E+00
 6.4893023E+00 8.8845245E-01 1.7428290E+00
 6.5415816E+00 9.1650889E-01 1.7267885E+00
 6.5899966E+00 9.4485426E-01 1.7084698E+00
 6.6343502E+00 9.7317381E-01 1.6882084E+00
 5.2433640E+00 1.3898839E+00 1.7109389E+00
 5.3012734E+00 1.3802954E+00 1.7167967E+00
 5.3616214E+00 1.3705244E+00 1.7232142E+00
 5.4241633E+00 1.3604061E+00 1.7302369E+00
 5.4888306E+00 1.3498185E+00 1.7378422E+00
 5.5554459E+00 1.3386493E+00 1.7459287E+00
 5.6237653E+00 1.3267569E+00 1.7543342E+00
 5.6935014E+00 1.3139798E+00 1.7628277E+00
 5.7643188E+00 1.3001477E+00 1.7711123E+00
 5.8358430E+00 1.2850912E+00 1.7788336E+00
 5.9076623E+00 1.2686583E+00 1.7855971E+00
 5.9793332E+00 1.2507279E+00 1.7909886E+00
 6.0503866E+00 1.2312246E+00 1.7946017E+00
 6.1203369E+00 1.2101286E+00 1.7960639E+00
 6.1886949E+00 1.1874817E+00 1.7950632E+00
 6.2549824E+00 1.1633884E+00 1.7913675E+00
 6.3187492E+00 1.1380109E+00 1.7848394E+00
 6.3795911E+00 1.1115583E+00 1.7754409E+00
 6.4371653E+00 1.0842729E+00 1.7632314E+00
 6.4912093E+00 1.0564041E+00 1.7483545E+00
 6.5415793E+00 1.0281973E+00 1.7310053E+00
 6.5884764E+00 1.0000001E+00 1.7112984E+00
 5.2447104E+00 1.3601349E+00 1.7264586E+00
 5.3042048E+00 1.3492357E+00 1.7324796E+00
 5.3657430E+00 1.3382497E+00 1.7389654E+00
 5.4294847E+00 1.3268140E+00 1.7460591E+00
 5.4952895E+00 1.3148235E+00 1.7537036E+00
 5.5629638E+00 1.3021514E+00 1.7617817E+00
 5.6322367E+00 1.2886559E+00 1.7701042E+00
 5.7027849E+00 1.2741804E+00 1.7784092E+00
 5.7742431E+00 1.2585663E+00 1.7863696E+00
 5.8462058E+00 1.2416663E+00 1.7936025E+00
 5.9182348E+00 1.2233591E+00 1.7996922E+00
 5.9898639E+00 1.2035640E+00 1.8042126E+00
 6.0606082E+00 1.1822517E+00 1.8067589E+00
 6.1299740E+00 1.1594528E+00 1.8069730E+00
 6.1974738E+00 1.1352594E+00 1.8045710E+00
 6.2626411E+00 1.1098221E+00 1.7993589E+00
 6.3250496E+00 1.0833408E+00 1.7912457E+00
 6.3843290E+00 1.0560500E+00 1.7802416E+00
 6.4401913E+00 1.0281920E+00 1.7664496E+00
 6.4924850E+00 1.0000001E+00 1.7500290E+00
 6.5415793E+00 9.7180299E-01 1.7310053E+00
 5.2459765E+00 1.3286803E+00 1.7412324E+00
 5.3066315E+00 1.3165921E+00 1.7472127E+00
 5.3693475E+00 1.3042908E+00 1.7536849E+00
 5.4341905E+00 1.2914727E+00 1.7607303E+00
 5.5010405E+00 1.2780046E+00 1.7682876E+00
 5.5696631E+00 1.2637646E+00 1.7762122E+00
 5.6397560E+00 1.2486123E+00 1.7842883E+00
 5.7109643E+00 1.2324019E+00 1.7922246E+00
 5.7828905E+00 1.2149935E+00 1.7996653E+00
 5.8551009E+00 1.1962675E+00 1.8062043E+00
 5.9271334E+00 1.1761395E+00 1.8114110E+00
 5.9985037E+00 1.1545723E+00 1.8148568E+00
 6.0687169E+00 1.1315854E+00 1.8161474E+00
 6.1372783E+00 1.1072587E+00 1.8149491E+00
 6.2037098E+00 1.0817313E+00 1.8110138E+00
 6.2675660E+00 1.0551927E+00 1.8041929E+00
 6.3284528E+00 1.0278701E+00 1.7944436E+00
 6.3860528E+00 1.0000001E+00 1.7818220E+00
 6.4401913E+00 9.7180828E-01 1.7664496E+00
 6.4912093E+00 9.4359619E-01 1.7483545E+00
 5.2471135E+00 1.2953932E+00 1.7551290E+00
 5.3088762E+00 1.2820522E+00 1.7609670E+00
 5.3726427E+00 1.2684180E+00 1.7672869E+00
 5.4384745E+00 1.2541773E+00 1.7741453E+00
 5.5062206E+00 1.2392059E+00 1.7814557E+00
 5.5756176E+00 1.2233797E+00 1.7890515E+00
 5.6463306E+00 1.2065684E+00 1.7966898E+00
 5.7179726E+00 1.1886417E+00 1.8040519E+00
 5.7901181E+00 1.1694851E+00 1.8107590E+00
 5.8623092E+00 1.1490129E+00 1.8163884E+00
 5.9340660E+00 1.1271824E+00 1.8205043E+00
 6.0048937E+00 1.1040032E+00 1.8226853E+00
 6.0742959E+00 1.0795439E+00 1.8225585E+00
 6.1417864E+00 1.0539312E+00 1.8198234E+00
 6.2069069E+00 1.0273439E+00 1.8142757E+00
 6.2692431E+00 1.0000001E+00 1.8058146E+00
 6.3284528E+00 9.7213015E-01 1.7944436E+00
 6.3843290E+00 9.4395027E-01 1.7802416E+00
 6.4371653E+00 9.1572736E-01 1.7632314E+00
 5.2481831E+00 1.2603138E+00 1.7679411E+00
 5.3109368E+00 1.2457086E+00 1.7735080E+00
 5.3756259E+00 1.2307150E+00 1.7795390E+00
 5.4422885E+00 1.2150401E+00 1.7860548E+00
 5.5107488E+00 1.1985602E+00 1.7929485E+00
 5.5807120E+00 1.1811601E+00 1.8000293E+00
 5.6518113E+00 1.1627221E+00 1.8070300E+00
 5.7236324E+00 1.1431389E+00 1.8136094E+00
 5.7957249E+00 1.1223265E+00 1.8193717E+00
 5.8676137E+00 1.1002384E+00 1.8238871E+00
 5.9388077E+00 1.0768763E+00 1.8267245E+00
 6.0088104E+00 1.0522974E+00 1.8274808E+00
 6.0771329E+00 1.0266164E+00 1.8258137E+00
 6.1433078E+00 1.0000001E+00 1.8214645E+00
 6.2069069E+00 9.7265636E-01 1.8142757E+00
 6.2675660E+00 9.4480752E-01 1.8041929E+00
 6.3250496E+00 9.1665945E-01 1.7912457E+00
 6.3795911E+00 8.8844191E-01 1.7754409E+00
 5.2491380E+00 1.2235344E+00 1.7794536E+00
 5.3127619E+00 1.2076670E+00 1.7846144E+00
 5.3782203E+00 1.1913227E+00 1.7902051E+00
 5.4455390E+00 1.1742310E+00 1.7962135E+00
 5.5145116E+00 1.1562770E+00 1.8025108E+00
 5.5848145E+00 1.1373560E+00 1.8088849E+00
 5.6560530E+00 1.1173704E+00 1.8150474E+00
 5.7277880E+00 1.0962398E+00 1.8206410E+00
 5.7995520E+00 1.0739161E+00 1.8252612E+00
 5.8708583E+00 1.0503945E+00 1.8284809E+00
 5.9412139E+00 1.0257218E+00 1.8298843E+00
 6.0101292E+00 1.0000001E+00 1.8290963E+00
 6.0771329E+00 9.7338383E-01 1.8258137E+00
 6.1417864E+00 9.4606908E-01 1.8198234E+00
 6.2037098E+00 9.1826898E-01 1.8110138E+00
 6.2626411E+00 8.9017812E-01 1.7993589E+00
 6.3187492E+00 8.6198932E-01 1.7848394E+00
 5.2499713E+00 1.1852137E+00 1.7894481E+00
 5.3143166E+00 1.1681144E+00 1.7940611E+00
 5.3803757E+00 1.1504566E+00 1.7990563E+00
 5.4481541E+00 1.1320010E+00 1.8043887E+00
 5.5174211E+00 1.1126443E+00 1.8099101E+00
 5.5878242E+00 1.0922987E+00 1.8153895E+00
 5.6589456E+00 1.0708897E+00 1.8205235E+00
 5.7303281E+00 1.0483692E+00 1.8249454E+00
 5.8014927E+00 1.0247269E+00 1.8282519E+00
 5.8719505E+00 1.0000001E+00 1.8300284E+00
 5.9412139E+00 9.7427851E-01 1.8298843E+00
 6.0088104E+00 9.4770283E-01 1.8274808E+00
 6.0742959E+00 9.2045638E-01 1.8225585E+00
 6.1372783E+00 8.9274156E-01 1.8149491E+00
 6.1974738E+00 8.6474088E-01 1.8045710E+00
 6.2549824E+00 8.3661181E-01 1.7913675E+00
 5.2506614E+00 1.1455494E+00 1.7977233E+00
 5.3155655E+00 1.1272779E+00 1.8016465E+00
 5.3820394E+00 1.1083786E+00 1.8058909E+00
 5.4500707E+00 1.0886493E+00 1.8103826E+00
 5.5194032E+00 1.0680030E+00 1.8149562E+00
 5.5896625E+00 1.0463719E+00 1.8193669E+00
 5.6604117E+00 1.0237091E+00 1.8233021E+00
 5.7311826E+00 1.0000001E+00 1.8263949E+00
 5.8014927E+00 9.7527336E-01 1.8282519E+00
 5.8708583E+00 9.4960579E-01 1.8284809E+00
 5.9388077E+00 9.2312398E-01 1.8267245E+00
 6.0048937E+00 8.9599704E-01 1.8226853E+00
 6.0687169E+00 8.6841491E-01 1.8161474E+00
 6.1299740E+00 8.4054750E-01 1.8069730E+00
 6.1886949E+00 8.1251852E-01 1.7950632E+00
 5.2511941E+00 1.1047864E+00 1.8041011E+00
 5.3164803E+00 1.0854336E+00 1.8071979E+00
 5.3831724E+00 1.0653988E+00 1.8105447E+00
 5.4512407E+00 1.0445228E+00 1.8140430E+00
 5.5204077E+00 1.0227381E+00 1.8175143E+00
 5.5902807E+00 1.0000001E+00 1.8207054E+00
 5.6604117E+00 9.7629117E-01 1.8233021E+00
 5.7303281E+00 9.5163103E-01 1.8249454E+00
 5.7995520E+00 9.2608412E-01 1.8252612E+00
 5.8676137E+00 8.9976191E-01 1.8238871E+00
 5.9340660E+00 8.7281789E-01 1.8205043E+00
 5.9985037E+00 8.4542800E-01 1.8148568E+00
 6.0606082E+00 8.1774855E-01 1.8067589E+00
 6.1203369E+00 7.8987167E-01 1.7960639E+00
 5.2515565E+00 1.0632074E+00 1.8084377E+00
 5.3170383E+00 1.0428942E+00 1.8105840E+00
 5.3837463E+00 1.0218624E+00 1.8129016E+00
 5.4516341E+00 1.0000001E+00 1.8152740E+00
 5.5204077E+00 9.7726215E-01 1.8175143E+00
 5.5896625E+00 9.5362839E-01 1.8193669E+00
 5.6589456E+00 9.2911054E-01 1.8205235E+00
 5.7277880E+00 9.0376050E-01 1.8206410E+00
 5.7957249E+00 8.7767375E-01 1.8193717E+00
 5.8623092E+00 8.5098731E-01 1.8163884E+00
 5.9271334E+00 8.2386077E-01 1.8114110E+00
 5.9898639E+00 7.9643631E-01 1.8042126E+00
 6.0503866E+00 7.6877562E-01 1.7946017E+00
 5.2517400E+00 1.0211258E+00 1.8106322E+00
 5.3172258E+00 1.0000001E+00 1.8117220E+00
 5.3837463E+00 9.7813782E-01 1.8129016E+00
 5.4512407E+00 9.5547751E-01 1.8140430E+00
 5.5194032E+00 9.3199724E-01 1.8149562E+00
 5.5878242E+00 9.0770154E-01 1.8153895E+00
 5.6560530E+00 8.8262988E-01 1.8150474E+00
 5.7236324E+00 8.5686140E-01 1.8136093E+00
 5.7901181E+00 8.3051515E-01 1.8107590E+00
 5.8551009E+00 8.0373274E-01 1.8062042E+00
 5.9182348E+00 7.7664112E-01 1.7996922E+00
 5.9793332E+00 7.4927236E-01 1.7909886E+00
 5.2517400E+00 9.7887450E-01 1.8106322E+00
 5.3170383E+00 9.5710611E-01 1.8105840E+00
 5.3831724E+00 9.3460150E-01 1.8105447E+00
 5.4500707E+00 9.1135096E-01 1.8103826E+00
 5.5174211E+00 8.8735595E-01 1.8099100E+00
 5.5848145E+00 8.6264426E-01 1.8088849E+00
 5.6518113E+00 8.3727817E-01 1.8070300E+00
 5.7179726E+00 8.1135853E-01 1.8040519E+00
 5.7828905E+00 7.8500675E-01 1.7996653E+00
 5.8462058E+00 7.5833401E-01 1.7936025E+00
 5.9076623E+00 7.3134200E-01 1.7855971E+00
 5.2515565E+00 9.3679284E-01 1.8084377E+00
 5.3164803E+00 9.1456670E-01 1.8071979E+00
 5.3820394E+00 8.9162164E-01 1.8058909E+00
 5.4481541E+00 8.6799928E-01 1.8043887E+00
 5.5145116E+00 8.4372329E-01 1.8025108E+00
 5.5807120E+00 8.1884017E-01 1.8000292E+00
 5.6463307E+00 7.9343188E-01 1.7966897E+00
 5.7109643E+00 7.6759836E-01 1.7922246E+00
 5.7742431E+00 7.4143399E-01 1.7863696E+00
 5.8358430E+00 7.1490904E-01 1.7788336E+00
 5.2511941E+00 8.9521385E-01 1.8041010E+00
 5.3155655E+00 8.7272238E-01 1.8016465E+00
 5.3803757E+00 8.4954371E-01 1.7990563E+00
 5.4455390E+00 8.2576926E-01 1.7962135E+00
 5.5107488E+00 8.0144012E-01 1.7929484E+00
 5.5756176E+00 7.7662055E-01 1.7890515E+00
 5.6397560E+00 7.5138792E-01 1.7842883E+00
 5.7027849E+00 7.2581987E-01 1.7784091E+00
 5.7643188E+00 6.9985255E-01 1.7711123E+00
 5.2506614E+00 8.5445084E-01 1.7977233E+00
 5.3143166E+00 8.3188583E-01 1.7940611E+00
 5.3782203E+00 8.0867754E-01 1.7902051E+00
 5.4422885E+00 7.8496019E-01 1.7860547E+00
 5.5062206E+00 7.6079440E-01 1.7814556E+00
 5.5696631E+00 7.3623565E-01 1.7762121E+00
 5.6322367E+00 7.1134438E-01 1.7701041E+00
 5.6935014E+00 6.8602045E-01 1.7628276E+00
 5.2499713E+00 8.1478661E-01 1.7894481E+00
 5.3127619E+00 7.9233331E-01 1.7846143E+00
 5.3756259E+00 7.6928527E-01 1.7795389E+00
 5.4384745E+00 7.4582298E-01 1.7741453E+00
 5.5010405E+00 7.2199563E-01 1.7682876E+00
 5.5629638E+00 6.9784884E-01 1.7617816E+00
 5.6237653E+00 6.7324343E-01 1.7543342E+00
 5.2491380E+00 7.7646585E-01 1.7794535E+00
 5.3109368E+00 7.5429170E-01 1.7735080E+00
 5.3726427E+00 7.3158231E-01 1.7672869E+00
 5.4341905E+00 7.0852754E-01 1.7607302E+00
 5.4952895E+00 6.8517680E-01 1.7537035E+00
 5.5554459E+00 6.6135100E-01 1.7459287E+00
 5.2481831E+00 7.3968643E-01 1.7679410E+00
 5.3088762E+00 7.1794807E-01 1.7609670E+00
 5.3693475E+00 6.9570951E-01 1.7536848E+00
 5.4294847E+00 6.7318631E-01 1.7460590E+00
 5.4888306E+00 6.5018181E-01 1.7378422E+00
 5.2471135E+00 7.0460708E-01 1.7551289E+00
 5.3066315E+00 6.8340815E-01 1.7472127E+00
 5.3657430E+00 6.6175058E-01 1.7389654E+00
 5.4241633E+00 6.3959422E-01 1.7302369E+00
 5.2459765E+00 6.7131998E-01 1.7412323E+00
 5.3042048E+00 6.5076461E-01 1.7324795E+00
 5.3616214E+00 6.2947593E-01 1.7232141E+00
 5.2447104E+00 6.3986538E-01 1.7264585E+00
 5.3012734E+00 6.1970486E-01 1.7167966E+00
 5.2433640E+00 6.1011640E-01 1.7109388E+00
 5.1550201E+00 1.4463056E+00 1.6770843E+00
 5.1198909E+00 1.4682453E+00 1.6626149E+00
 5.0835071E+00 1.4908104E+00 1.6468804E+00
 5.0457113E+00 1.5139357E+00 1.6297965E+00
 5.0067317E+00 1.5375322E+00 1.6112750E+00
 4.9667150E+00 1.5614898E+00 1.5912217E+00
 4.9258744E+00 1.5856786E+00 1.5695380E+00
 4.8844454E+00 1.6099301E+00 1.5461407E+00
 4.8427035E+00 1.6340444E+00 1.5209635E+00
 4.8009452E+00 1.6577925E+00 1.4939649E+00
 4.7594869E+00 1.6809214E+00 1.4651394E+00
 4.7186501E+00 1.7031637E+00 1.4345233E+00
 4.6787529E+00 1.7242492E+00 1.4022021E+00
 4.6400973E+00 1.7439177E+00 1.3683130E+00
 4.6029586E+00 1.7619339E+00 1.3330438E+00
 4.5675772E+00 1.7780985E+00 1.2966278E+00
 4.5341498E+00 1.7922601E+00 1.2593344E+00
 4.5028265E+00 1.8043197E+00 1.2214575E+00
 4.4737071E+00 1.8142347E+00 1.1833003E+00
 4.4468438E+00 1.8220159E+00 1.1451618E+00
 4.4222471E+00 1.8277231E+00 1.1073262E+00
 4.3999167E+00 1.8314511E+00 1.0700723E+00
 4.3798713E+00 1.8333266E+00 1.0337103E+00
 3.7297475E+00 1.0767627E+00 1.6802874E+00
 3.7211020E+00 1.1268281E+00 1.6678971E+00
 3.7155144E+00 1.1785713E+00 1.6527297E+00
 3.7136639E+00 1.2317872E+00 1.6347274E+00
 3.7159879E+00 1.2860106E+00 1.6137749E+00
 3.7228713E+00 1.3406357E+00 1.5898400E+00
 3.7346177E+00 1.3949672E+00 1.5629869E+00
 3.7514167E+00 1.4482532E+00 1.5333833E+00
 3.7733190E+00 1.4997253E+00 1.5013009E+00
 3.8002221E+00 1.5486425E+00 1.4671089E+00
 3.8318684E+00 1.5943362E+00 1.4312582E+00
 3.8678552E+00 1.6362515E+00 1.3942583E+00
 3.9076586E+00 1.6739784E+00 1.3566475E+00
 3.9506648E+00 1.7072712E+00 1.3189622E+00
 3.9962081E+00 1.7360503E+00 1.2817066E+00
 4.0436088E+00 1.7603931E+00 1.2453283E+00
 4.0922070E+00 1.7805090E+00 1.2102007E+00
 4.1413938E+00 1.7967122E+00 1.1766135E+00
 4.1906275E+00 1.8093856E+00 1.1447720E+00
 4.2394671E+00 1.8189527E+00 1.1147980E+00
 4.2875573E+00 1.8258462E+00 1.0867235E+00
 4.3346044E+00 1.8304958E+00 1.0603432E+00
 3.7762733E+00 1.1063976E+00 1.7007845E+00
 3.7700729E+00 1.1573855E+00 1.6880733E+00
 3.7669994E+00 1.2096579E+00 1.6724618E+00
 3.7677694E+00 1.2631111E+00 1.6538937E+00
 3.7727848E+00 1.3172536E+00 1.6322623E+00
 3.7823785E+00 1.3714417E+00 1.6075551E+00
 3.7967896E+00 1.4249512E+00 1.5798660E+00
 3.8161356E+00 1.4770182E+00 1.5493989E+00
 3.8403893E+00 1.5268851E+00 1.5164656E+00
 3.8693730E+00 1.5738451E+00 1.4814746E+00
 3.9027608E+00 1.6172880E+00 1.4449124E+00
 3.9400967E+00 1.6567354E+00 1.4073152E+00
 3.9808212E+00 1.6918677E+00 1.3692380E+00
 4.0243070E+00 1.7225321E+00 1.3312218E+00
 4.0698953E+00 1.7487401E+00 1.2937646E+00
 4.1169324E+00 1.7706468E+00 1.2572985E+00
 4.1648015E+00 1.7885258E+00 1.2221747E+00
 4.2129453E+00 1.8027338E+00 1.1886581E+00
 4.2609020E+00 1.8136816E+00 1.1569217E+00
 4.3083023E+00 1.8218032E+00 1.1270347E+00
 4.3548881E+00 1.8275534E+00 1.0987008E+00
 3.8268696E+00 1.1354270E+00 1.7191552E+00
 3.8231382E+00 1.1869018E+00 1.7059562E+00
 3.8226474E+00 1.2394196E+00 1.6897675E+00
 3.8260722E+00 1.2928205E+00 1.6705090E+00
 3.8337697E+00 1.3465758E+00 1.6480914E+00
 3.8460127E+00 1.4000103E+00 1.6225301E+00
 3.8629726E+00 1.4523827E+00 1.5939548E+00
 3.8846915E+00 1.5029331E+00 1.5626104E+00
 3.9110680E+00 1.5509309E+00 1.5288505E+00
 3.9418541E+00 1.5957205E+00 1.4931229E+00
 3.9766669E+00 1.6367627E+00 1.4559451E+00
 4.0150093E+00 1.6736660E+00 1.4178751E+00
 4.0563019E+00 1.7062032E+00 1.3794761E+00
 4.0999176E+00 1.7343143E+00 1.3412859E+00
 4.1452182E+00 1.7580924E+00 1.3037874E+00
 4.1915880E+00 1.7777609E+00 1.2673902E+00
 4.2384597E+00 1.7936411E+00 1.2324176E+00
 4.2853537E+00 1.8061218E+00 1.1990994E+00
 4.3318856E+00 1.8156287E+00 1.1675478E+00
 4.3777778E+00 1.8226301E+00 1.1375298E+00
 3.8814053E+00 1.1638829E+00 1.7350541E+00
 3.8802323E+00 1.2155385E+00 1.7212217E+00
 3.8823947E+00 1.2679759E+00 1.7043263E+00
 3.8885024E+00 1.3209806E+00 1.6842729E+00
 3.8988531E+00 1.3739882E+00 1.6609962E+00
 3.9136540E+00 1.4263055E+00 1.6345458E+00
 3.9330039E+00 1.4771912E+00 1.6050927E+00
 3.9568711E+00 1.5259079E+00 1.5729242E+00
 3.9850840E+00 1.5717711E+00 1.5384351E+00
 4.0173356E+00 1.6141921E+00 1.5021071E+00
 4.0531985E+00 1.6527155E+00 1.4644825E+00
 4.0921516E+00 1.6870412E+00 1.4261300E+00
 4.1336117E+00 1.7170352E+00 1.3876118E+00
 4.1769684E+00 1.7427215E+00 1.3494512E+00
 4.2216188E+00 1.7642645E+00 1.3121078E+00
 4.2669949E+00 1.7819385E+00 1.2759611E+00
 4.3126081E+00 1.7961002E+00 1.2412958E+00
 4.3580589E+00 1.8071561E+00 1.2082805E+00
 4.4030653E+00 1.8155771E+00 1.1767449E+00
 3.9397143E+00 1.1914996E+00 1.7482392E+00
 3.9411577E+00 1.2430210E+00 1.7336428E+00
 3.9459987E+00 1.2950430E+00 1.7159326E+00