# TIME = 0.000000
VARIABLES = X, Y, Z, FX, FY, FZ
ZONE N=29232 E=58212 F=FEPOINT ET=TRIANGLE
  0.000E+00  9.502E-01  1.243E-03 3.5885805E+00 8.3721188E-01 1.6838925E+01
  0.000E+00  1.000E+00  0.000E+00 3.5872195E+00 -1.1154261E-06 1.6860411E+01
  4.318E-02  9.751E-01  3.108E-04 3.5870003E+00 4.1861106E-01 1.6856136E+01
  0.000E+00  1.050E+00  1.243E-03 3.5885808E+00 -8.3721422E-01 1.6838925E+01
  4.318E-02  1.025E+00  3.108E-04 3.5870004E+00 -4.1861486E-01 1.6856136E+01
  0.000E+00  1.100E+00  4.969E-03 3.5940035E+00 -1.6752179E+00 1.6776194E+01
  4.318E-02  1.075E+00  2.796E-03 3.5903340E+00 -1.2561848E+00 1.6813690E+01
  0.000E+00  1.149E+00  1.117E-02 3.6060286E+00 -2.5141440E+00 1.6675024E+01
  4.318E-02  1.124E+00  7.761E-03 3.5992036E+00 -2.0948698E+00 1.6731503E+01
  0.000E+00  1.198E+00  1.983E-02 3.6240328E+00 -3.3485150E+00 1.6533564E+01
  4.318E-02  1.174E+00  1.519E-02 3.6149644E+00 -2.9327343E+00 1.6610801E+01
  0.000E+00  1.247E+00  3.092E-02 3.6405111E+00 -4.1672942E+00 1.6345337E+01
  4.318E-02  1.223E+00  2.507E-02 3.6334033E+00 -3.7607389E+00 1.6446799E+01
  0.000E+00  1.295E+00  4.443E-02 3.6466246E+00 -4.9678912E+00 1.6110932E+01
  4.318E-02  1.271E+00  3.738E-02 3.6448650E+00 -4.5695815E+00 1.6234345E+01
  0.000E+00  1.342E+00  6.031E-02 3.6570557E+00 -5.7618978E+00 1.5841851E+01
  4.318E-02  1.318E+00  5.207E-02 3.6468251E+00 -5.3653719E+00 1.5981182E+01
  0.000E+00  1.388E+00  7.852E-02 3.6920747E+00 -6.5504365E+00 1.5539741E+01
  4.318E-02  1.365E+00  6.913E-02 3.6759809E+00 -6.1583118E+00 1.5696793E+01
  0.000E+00  1.434E+00  9.903E-02 3.6991285E+00 -7.3177216E+00 1.5193728E+01
  4.318E-02  1.411E+00  8.849E-02 3.7022831E+00 -6.9376813E+00 1.5373379E+01
  0.000E+00  1.478E+00  1.218E-01 3.7164448E+00 -8.0638363E+00 1.4808342E+01
  4.318E-02  1.456E+00  1.101E-01 3.6981154E+00 -7.6934074E+00 1.5006321E+01
  0.000E+00  1.521E+00  1.467E-01 3.7427940E+00 -8.7926687E+00 1.4388811E+01
  4.318E-02  1.500E+00  1.340E-01 3.7336255E+00 -8.4312774E+00 1.4604025E+01
  0.000E+00  1.563E+00  1.738E-01 3.7385272E+00 -9.4990610E+00 1.3932571E+01
  4.318E-02  1.543E+00  1.600E-01 3.7314357E+00 -9.1495086E+00 1.4166235E+01
  0.000E+00  1.604E+00  2.029E-01 3.7601809E+00 -1.0181578E+01 1.3441597E+01
  4.318E-02  1.584E+00  1.881E-01 3.7635536E+00 -9.8439732E+00 1.3692169E+01
  0.000E+00  1.643E+00  2.340E-01 3.7670824E+00 -1.0839027E+01 1.2917487E+01
  4.318E-02  1.623E+00  2.182E-01 3.7533300E+00 -1.0514315E+01 1.3184577E+01
  0.000E+00  1.680E+00  2.669E-01 3.7687539E+00 -1.1469408E+01 1.2361133E+01
  4.318E-02  1.662E+00  2.502E-01 3.7703590E+00 -1.1158447E+01 1.2644098E+01
  0.000E+00  1.716E+00  3.018E-01 3.7698012E+00 -1.2071300E+01 1.1774027E+01
  4.318E-02  1.698E+00  2.841E-01 3.7698044E+00 -1.1774805E+01 1.2072153E+01
  0.000E+00  1.750E+00  3.383E-01 3.7703574E+00 -1.2643199E+01 1.1157705E+01
  4.318E-02  1.733E+00  3.198E-01 3.7687608E+00 -1.2361943E+01 1.1470212E+01
  0.000E+00  1.782E+00  3.765E-01 3.7533294E+00 -1.3183637E+01 1.0513613E+01
  4.318E-02  1.766E+00  3.572E-01 3.7670981E+00 -1.2918330E+01 1.0839783E+01
  0.000E+00  1.812E+00  4.163E-01 3.7635462E+00 -1.3691192E+01 9.8433144E+00
  4.318E-02  1.797E+00  3.962E-01 3.7602001E+00 -1.3442471E+01 1.0182286E+01
  0.000E+00  1.840E+00  4.575E-01 3.7314302E+00 -1.4165216E+01 9.1488918E+00
  4.318E-02  1.826E+00  4.367E-01 3.7385483E+00 -1.3933475E+01 9.4997185E+00
  0.000E+00  1.866E+00  5.000E-01 3.7336153E+00 -1.4602964E+01 8.4307050E+00
  4.318E-02  1.853E+00  4.786E-01 3.7428206E+00 -1.4389732E+01 8.7932720E+00
  0.000E+00  1.890E+00  5.438E-01 3.6980964E+00 -1.5005231E+01 7.6928832E+00
  4.318E-02  1.878E+00  5.217E-01 3.7164773E+00 -1.4809286E+01 8.0643863E+00
  0.000E+00  1.912E+00  5.887E-01 3.7022557E+00 -1.5372262E+01 6.9372092E+00
  4.318E-02  1.901E+00  5.661E-01 3.6991745E+00 -1.5194698E+01 7.3182202E+00
  0.000E+00  1.931E+00  6.347E-01 3.6759510E+00 -1.5695652E+01 6.1578911E+00
  4.318E-02  1.921E+00  6.116E-01 3.6921315E+00 -1.5540731E+01 6.5508825E+00
  0.000E+00  1.948E+00  6.815E-01 3.6467980E+00 -1.5980015E+01 5.3650026E+00
  4.318E-02  1.940E+00  6.580E-01 3.6571181E+00 -1.5842860E+01 5.7622883E+00
  0.000E+00  1.963E+00  7.292E-01 3.6448404E+00 -1.6233151E+01 4.5692658E+00
  4.318E-02  1.956E+00  7.052E-01 3.6466858E+00 -1.6111948E+01 4.9682241E+00
  0.000E+00  1.975E+00  7.775E-01 3.6333786E+00 -1.6445583E+01 3.7604787E+00
  4.318E-02  1.969E+00  7.532E-01 3.6405700E+00 -1.6346356E+01 4.1675693E+00
  0.000E+00  1.985E+00  8.264E-01 3.6149389E+00 -1.6609572E+01 2.9325286E+00
  4.318E-02  1.980E+00  8.019E-01 3.6240921E+00 -1.6534594E+01 3.3487349E+00
  0.000E+00  1.992E+00  8.757E-01 3.5991801E+00 -1.6730261E+01 2.0947152E+00
  4.318E-02  1.989E+00  8.510E-01 3.6060875E+00 -1.6676068E+01 2.5143147E+00
  0.000E+00  1.997E+00  9.253E-01 3.5903219E+00 -1.6812436E+01 1.2560832E+00
  4.318E-02  1.995E+00  9.004E-01 3.5940563E+00 -1.6777251E+01 1.6753435E+00
  0.000E+00  2.000E+00  9.751E-01 3.5870121E+00 -1.6854873E+01 4.1857723E-01
  4.318E-02  1.999E+00  9.502E-01 3.5886181E+00 -1.6839991E+01 8.3728605E-01
  0.000E+00  2.000E+00  1.025E+00 3.5870397E+00 -1.6854873E+01 -4.1857770E-01
  4.318E-02  2.000E+00  1.000E+00 3.5872371E+00 -1.6861481E+01 1.9176685E-06
  0.000E+00  1.997E+00  1.075E+00 3.5903900E+00 -1.6812434E+01 -1.2560837E+00
  4.318E-02  1.999E+00  1.050E+00 3.5885857E+00 -1.6839991E+01 -8.3728364E-01
  0.000E+00  1.992E+00  1.124E+00 3.5992596E+00 -1.6730259E+01 -2.0947157E+00
  4.318E-02  1.995E+00  1.100E+00 3.5940079E+00 -1.6777249E+01 -1.6753440E+00
  0.000E+00  1.985E+00  1.174E+00 3.6150112E+00 -1.6609571E+01 -2.9325291E+00
  4.318E-02  1.989E+00  1.149E+00 3.6060400E+00 -1.6676067E+01 -2.5143171E+00
  0.000E+00  1.975E+00  1.223E+00 3.6334417E+00 -1.6445586E+01 -3.7604792E+00
  4.318E-02  1.980E+00  1.198E+00 3.6240515E+00 -1.6534596E+01 -3.3487376E+00
  0.000E+00  1.963E+00  1.271E+00 3.6448981E+00 -1.6233151E+01 -4.5692662E+00
  4.318E-02  1.969E+00  1.247E+00 3.6405349E+00 -1.6346359E+01 -4.1675717E+00
  0.000E+00  1.948E+00  1.318E+00 3.6468529E+00 -1.5980009E+01 -5.3650030E+00
  4.318E-02  1.956E+00  1.295E+00 3.6466538E+00 -1.6111945E+01 -4.9682261E+00
  0.000E+00  1.931E+00  1.365E+00 3.6760037E+00 -1.5695653E+01 -6.1578916E+00
  4.318E-02  1.940E+00  1.342E+00 3.6570884E+00 -1.5842856E+01 -5.7622903E+00
  0.000E+00  1.912E+00  1.411E+00 3.7023048E+00 -1.5372264E+01 -6.9372096E+00
  4.318E-02  1.921E+00  1.388E+00 3.6921041E+00 -1.5540734E+01 -6.5508847E+00
  0.000E+00  1.890E+00  1.456E+00 3.6981381E+00 -1.5005226E+01 -7.6928835E+00
  4.318E-02  1.901E+00  1.434E+00 3.6991510E+00 -1.5194695E+01 -7.3182226E+00
  0.000E+00  1.866E+00  1.500E+00 3.7336446E+00 -1.4602966E+01 -8.4307054E+00
  4.318E-02  1.878E+00  1.478E+00 3.7164609E+00 -1.4809283E+01 -8.0643891E+00
  0.000E+00  1.840E+00  1.543E+00 3.7314438E+00 -1.4165216E+01 -9.1488922E+00
  4.318E-02  1.853E+00  1.521E+00 3.7428141E+00 -1.4389733E+01 -8.7932749E+00
  0.000E+00  1.812E+00  1.584E+00 3.7635436E+00 -1.3691191E+01 -9.8433148E+00
  4.318E-02  1.826E+00  1.563E+00 3.7385530E+00 -1.3933471E+01 -9.4997213E+00
  0.000E+00  1.782E+00  1.623E+00 3.7533146E+00 -1.3183637E+01 -1.0513614E+01
  4.318E-02  1.797E+00  1.604E+00 3.7602149E+00 -1.3442471E+01 -1.0182288E+01
  0.000E+00  1.750E+00  1.662E+00 3.7703389E+00 -1.2643198E+01 -1.1157706E+01
  4.318E-02  1.766E+00  1.643E+00 3.7671187E+00 -1.2918328E+01 -1.0839785E+01
  0.000E+00  1.716E+00  1.698E+00 3.7697873E+00 -1.2071300E+01 -1.1774028E+01
  4.318E-02  1.733E+00  1.680E+00 3.7687815E+00 -1.2361943E+01 -1.1470213E+01
  0.000E+00  1.680E+00  1.733E+00 3.7687498E+00 -1.1469407E+01 -1.2361133E+01
  4.318E-02  1.698E+00  1.716E+00 3.7698206E+00 -1.1774804E+01 -1.2072154E+01
  0.000E+00  1.643E+00  1.766E+00 3.7670869E+00 -1.0839026E+01 -1.2917487E+01
  4.318E-02  1.662E+00  1.750E+00 3.7703691E+00 -1.1158446E+01 -1.2644098E+01
  0.000E+00  1.604E+00  1.797E+00 3.7601864E+00 -1.0181577E+01 -1.3441597E+01
  4.318E-02  1.623E+00  1.782E+00 3.7533368E+00 -1.0514314E+01 -1.3184578E+01
  0.000E+00  1.563E+00  1.826E+00 3.7385236E+00 -9.4990604E+00 -1.3932571E+01
  4.318E-02  1.584E+00  1.812E+00 3.7635637E+00 -9.8439711E+00 -1.3692171E+01
  0.000E+00  1.521E+00  1.853E+00 3.7427801E+00 -8.7926683E+00 -1.4388811E+01
  4.318E-02  1.543E+00  1.840E+00 3.7314535E+00 -9.1495061E+00 -1.4166237E+01
  0.000E+00  1.478E+00  1.878E+00 3.7164338E+00 -8.0638358E+00 -1.4808342E+01
  4.318E-02  1.500E+00  1.866E+00 3.7336469E+00 -8.4312763E+00 -1.4604026E+01
  0.000E+00  1.434E+00  1.901E+00 3.6991346E+00 -7.3177209E+00 -1.5193728E+01
  4.318E-02  1.456E+00  1.890E+00 3.6981298E+00 -7.6934072E+00 -1.5006320E+01
  0.000E+00  1.388E+00  1.921E+00 3.6920972E+00 -6.5504355E+00 -1.5539741E+01
  4.318E-02  1.411E+00  1.912E+00 3.7022855E+00 -6.9376813E+00 -1.5373379E+01
  0.000E+00  1.342E+00  1.940E+00 3.6570810E+00 -5.7618960E+00 -1.5841850E+01
  4.318E-02  1.365E+00  1.931E+00 3.6759768E+00 -6.1583109E+00 -1.5696794E+01
  0.000E+00  1.295E+00  1.956E+00 3.6466431E+00 -4.9678877E+00 -1.6110931E+01
  4.318E-02  1.318E+00  1.948E+00 3.6468232E+00 -5.3653708E+00 -1.5981183E+01
  0.000E+00  1.247E+00  1.969E+00 3.6405222E+00 -4.1672883E+00 -1.6345335E+01
  4.318E-02  1.271E+00  1.963E+00 3.6448683E+00 -4.5695817E+00 -1.6234347E+01
  0.000E+00  1.198E+00  1.980E+00 3.6240379E+00 -3.3485101E+00 -1.6533563E+01
  4.318E-02  1.223E+00  1.975E+00 3.6334116E+00 -3.7607401E+00 -1.6446801E+01
  0.000E+00  1.149E+00  1.989E+00 3.6060244E+00 -2.5141513E+00 -1.6675024E+01
  4.318E-02  1.174E+00  1.985E+00 3.6149788E+00 -2.9327315E+00 -1.6610802E+01
  0.000E+00  1.100E+00  1.995E+00 3.5939832E+00 -1.6752447E+00 -1.6776197E+01
  4.318E-02  1.124E+00  1.992E+00 3.5992268E+00 -2.0948547E+00 -1.6731502E+01
  0.000E+00  1.050E+00  1.999E+00 3.5885426E+00 -8.3724347E-01 -1.6838931E+01
  4.318E-02  1.075E+00  1.997E+00 3.5903663E+00 -1.2561602E+00 -1.6813687E+01
  0.000E+00  1.000E+00  2.000E+00 3.5871730E+00 -7.9044947E-07 -1.6860418E+01
  4.318E-02  1.025E+00  2.000E+00 3.5870381E+00 -4.1860094E-01 -1.6856131E+01
  0.000E+00  9.502E-01  1.999E+00 3.5885421E+00 8.3724206E-01 -1.6838931E+01
  4.318E-02  9.751E-01  2.000E+00 3.5870379E+00 4.1860118E-01 -1.6856131E+01
  0.000E+00  9.004E-01  1.995E+00 3.5939822E+00 1.6752437E+00 -1.6776198E+01
  4.318E-02  9.253E-01  1.997E+00 3.5903657E+00 1.2561604E+00 -1.6813687E+01
  0.000E+00  8.510E-01  1.989E+00 3.6060230E+00 2.5141505E+00 -1.6675025E+01
  4.318E-02  8.757E-01  1.992E+00 3.5992258E+00 2.0948548E+00 -1.6731503E+01
  0.000E+00  8.019E-01  1.980E+00 3.6240361E+00 3.3485094E+00 -1.6533564E+01
  4.318E-02  8.264E-01  1.985E+00 3.6149774E+00 2.9327317E+00 -1.6610803E+01
  0.000E+00  7.532E-01  1.969E+00 3.6405200E+00 4.1672877E+00 -1.6345337E+01
  4.318E-02  7.775E-01  1.975E+00 3.6334099E+00 3.7607406E+00 -1.6446802E+01
  0.000E+00  7.052E-01  1.956E+00 3.6466405E+00 4.9678874E+00 -1.6110933E+01
  4.318E-02  7.292E-01  1.963E+00 3.6448662E+00 4.5695824E+00 -1.6234348E+01
  0.000E+00  6.580E-01  1.940E+00 3.6570780E+00 5.7618960E+00 -1.5841853E+01
  4.318E-02  6.815E-01  1.948E+00 3.6468207E+00 5.3653719E+00 -1.5981185E+01
  0.000E+00  6.116E-01  1.921E+00 3.6920938E+00 6.5504359E+00 -1.5539744E+01
  4.318E-02  6.347E-01  1.931E+00 3.6759740E+00 6.1583123E+00 -1.5696796E+01
  0.000E+00  5.661E-01  1.901E+00 3.6991309E+00 7.3177218E+00 -1.5193731E+01
  4.318E-02  5.887E-01  1.912E+00 3.7022823E+00 6.9376830E+00 -1.5373381E+01
  0.000E+00  5.217E-01  1.878E+00 3.7164297E+00 8.0638370E+00 -1.4808345E+01
  4.318E-02  5.438E-01  1.890E+00 3.6981263E+00 7.6934094E+00 -1.5006323E+01
  0.000E+00  4.786E-01  1.853E+00 3.7427757E+00 8.7926699E+00 -1.4388815E+01
  4.318E-02  5.000E-01  1.866E+00 3.7336431E+00 8.4312786E+00 -1.4604028E+01
  0.000E+00  4.367E-01  1.826E+00 3.7385189E+00 9.4990627E+00 -1.3932575E+01
  4.318E-02  4.575E-01  1.840E+00 3.7314493E+00 9.1495091E+00 -1.4166239E+01
  0.000E+00  3.962E-01  1.797E+00 3.7601814E+00 1.0181580E+01 -1.3441601E+01
  4.318E-02  4.163E-01  1.812E+00 3.7635593E+00 9.8439743E+00 -1.3692173E+01
  0.000E+00  3.572E-01  1.766E+00 3.7670816E+00 1.0839029E+01 -1.2917491E+01
  4.318E-02  3.765E-01  1.782E+00 3.7533322E+00 1.0514318E+01 -1.3184581E+01
  0.000E+00  3.198E-01  1.733E+00 3.7687442E+00 1.1469411E+01 -1.2361137E+01
  4.318E-02  3.383E-01  1.750E+00 3.7703642E+00 1.1158451E+01 -1.2644101E+01
  0.000E+00  2.841E-01  1.698E+00 3.7697815E+00 1.2071304E+01 -1.1774032E+01
  4.318E-02  3.018E-01  1.716E+00 3.7698154E+00 1.1774809E+01 -1.2072156E+01
  0.000E+00  2.502E-01  1.662E+00 3.7703329E+00 1.2643203E+01 -1.1157710E+01
  4.318E-02  2.669E-01  1.680E+00 3.7687762E+00 1.2361947E+01 -1.1470216E+01
  0.000E+00  2.182E-01  1.623E+00 3.7533084E+00 1.3183642E+01 -1.0513618E+01
  4.318E-02  2.340E-01  1.643E+00 3.7671132E+00 1.2918334E+01 -1.0839787E+01
  0.000E+00  1.881E-01  1.584E+00 3.7635372E+00 1.3691197E+01 -9.8433184E+00
  4.318E-02  2.029E-01  1.604E+00 3.7602092E+00 1.3442476E+01 -1.0182290E+01
  0.000E+00  1.600E-01  1.543E+00 3.7314373E+00 1.4165223E+01 -9.1488956E+00
  4.318E-02  1.738E-01  1.563E+00 3.7385471E+00 1.3933480E+01 -9.4997235E+00
  0.000E+00  1.340E-01  1.500E+00 3.7336379E+00 1.4602971E+01 -8.4307086E+00
  4.318E-02  1.467E-01  1.521E+00 3.7428081E+00 1.4389737E+01 -8.7932769E+00
  0.000E+00  1.101E-01  1.456E+00 3.6981313E+00 1.5005238E+01 -7.6928865E+00
  4.318E-02  1.218E-01  1.478E+00 3.7164547E+00 1.4809292E+01 -8.0643908E+00
  0.000E+00  8.849E-02  1.411E+00 3.7022978E+00 1.5372269E+01 -6.9372123E+00
  4.318E-02  9.903E-02  1.434E+00 3.6991448E+00 1.5194705E+01 -7.3182241E+00
  0.000E+00  6.913E-02  1.365E+00 3.6759967E+00 1.5695659E+01 -6.1578939E+00
  4.318E-02  7.852E-02  1.388E+00 3.6920977E+00 1.5540738E+01 -6.5508858E+00
  0.000E+00  5.207E-02  1.318E+00 3.6468458E+00 1.5980023E+01 -5.3650050E+00
  4.318E-02  6.031E-02  1.342E+00 3.6570820E+00 1.5842868E+01 -5.7622911E+00
  0.000E+00  3.738E-02  1.271E+00 3.6448909E+00 1.6233159E+01 -4.5692679E+00
  4.318E-02  4.443E-02  1.295E+00 3.6466473E+00 1.6111957E+01 -4.9682266E+00
  0.000E+00  2.507E-02  1.223E+00 3.6334345E+00 1.6445592E+01 -3.7604804E+00
  4.318E-02  3.092E-02  1.247E+00 3.6405283E+00 1.6346365E+01 -4.1675718E+00
  0.000E+00  1.519E-02  1.174E+00 3.6150040E+00 1.6609581E+01 -2.9325299E+00
  4.318E-02  1.983E-02  1.198E+00 3.6240449E+00 1.6534603E+01 -3.3487373E+00
  0.000E+00  7.761E-03  1.124E+00 3.5992523E+00 1.6730271E+01 -2.0947161E+00
  4.318E-02  1.117E-02  1.149E+00 3.6060334E+00 1.6676077E+01 -2.5143164E+00
  0.000E+00  2.796E-03  1.075E+00 3.5903827E+00 1.6812445E+01 -1.2560837E+00
  4.318E-02  4.969E-03  1.100E+00 3.5940013E+00 1.6777260E+01 -1.6753429E+00
  0.000E+00  3.108E-04  1.025E+00 3.5870324E+00 1.6854882E+01 -4.1857723E-01
  4.318E-02  1.243E-03  1.050E+00 3.5885790E+00 1.6840000E+01 -8.3728217E-01
  0.000E+00  3.108E-04  9.751E-01 3.5870048E+00 1.6854882E+01 4.1857815E-01
  4.318E-02  0.000E+00  1.000E+00 3.5872304E+00 1.6861490E+01 3.7905463E-06
  0.000E+00  2.796E-03  9.253E-01 3.5903146E+00 1.6812444E+01 1.2560846E+00
  4.318E-02  1.243E-03  9.502E-01 3.5886115E+00 1.6839999E+01 8.3728832E-01
  0.000E+00  7.761E-03  8.757E-01 3.5991729E+00 1.6730268E+01 2.0947170E+00
  4.318E-02  4.969E-03  9.004E-01 3.5940497E+00 1.6777257E+01 1.6753462E+00
  0.000E+00  1.519E-02  8.264E-01 3.6149318E+00 1.6609580E+01 2.9325308E+00
  4.318E-02  1.117E-02  8.510E-01 3.6060810E+00 1.6676075E+01 2.5143177E+00
  0.000E+00  2.507E-02  7.775E-01 3.6333715E+00 1.6445595E+01 3.7604813E+00
  4.318E-02  1.983E-02  8.019E-01 3.6240856E+00 1.6534604E+01 3.3487383E+00
  0.000E+00  3.738E-02  7.292E-01 3.6448333E+00 1.6233159E+01 4.5692688E+00
  4.318E-02  3.092E-02  7.532E-01 3.6405635E+00 1.6346367E+01 4.1675731E+00
  0.000E+00  5.207E-02  6.815E-01 3.6467911E+00 1.5980018E+01 5.3650059E+00
  4.318E-02  4.443E-02  7.052E-01 3.6466794E+00 1.6111952E+01 4.9682282E+00
  0.000E+00  6.913E-02  6.347E-01 3.6759442E+00 1.5695660E+01 6.1578949E+00
  4.318E-02  6.031E-02  6.580E-01 3.6571119E+00 1.5842863E+01 5.7622927E+00
  0.000E+00  8.849E-02  5.887E-01 3.7022489E+00 1.5372272E+01 6.9372132E+00
  4.318E-02  7.852E-02  6.116E-01 3.6921253E+00 1.5540742E+01 6.5508873E+00
  0.000E+00  1.101E-01  5.438E-01 3.6980898E+00 1.5005232E+01 7.6928874E+00
  4.318E-02  9.903E-02  5.661E-01 3.6991684E+00 1.5194702E+01 7.3182251E+00
  0.000E+00  1.340E-01  5.000E-01 3.7336089E+00 1.4602973E+01 8.4307095E+00
  4.318E-02  1.218E-01  5.217E-01 3.7164713E+00 1.4809290E+01 8.0643914E+00
  0.000E+00  1.600E-01  4.575E-01 3.7314240E+00 1.4165222E+01 9.1488965E+00
  4.318E-02  1.467E-01  4.786E-01 3.7428148E+00 1.4389740E+01 8.7932773E+00
  0.000E+00  1.881E-01  4.163E-01 3.7635401E+00 1.3691197E+01 9.8433193E+00
  4.318E-02  1.738E-01  4.367E-01 3.7385427E+00 1.3933478E+01 9.4997239E+00
  0.000E+00  2.182E-01  3.765E-01 3.7533235E+00 1.3183642E+01 1.0513618E+01
  4.318E-02  2.029E-01  3.962E-01 3.7601946E+00 1.3442477E+01 1.0182291E+01
  0.000E+00  2.502E-01  3.383E-01 3.7703518E+00 1.2643202E+01 1.1157710E+01
  4.318E-02  2.340E-01  3.572E-01 3.7670928E+00 1.2918333E+01 1.0839789E+01
  0.000E+00  2.841E-01  3.018E-01 3.7697958E+00 1.2071303E+01 1.1774032E+01
  4.318E-02  2.669E-01  3.198E-01 3.7687557E+00 1.2361946E+01 1.1470218E+01
  0.000E+00  3.198E-01  2.669E-01 3.7687488E+00 1.1469410E+01 1.2361138E+01
  4.318E-02  3.018E-01  2.841E-01 3.7697996E+00 1.1774807E+01 1.2072159E+01
  0.000E+00  3.572E-01  2.340E-01 3.7670775E+00 1.0839029E+01 1.2917492E+01
  4.318E-02  3.383E-01  2.502E-01 3.7703544E+00 1.1158449E+01 1.2644103E+01
  0.000E+00  3.962E-01  2.029E-01 3.7601763E+00 1.0181579E+01 1.3441602E+01
  4.318E-02  3.765E-01  2.182E-01 3.7533256E+00 1.0514316E+01 1.3184582E+01
  0.000E+00  4.367E-01  1.738E-01 3.7385229E+00 9.4990620E+00 1.3932576E+01
  4.318E-02  4.163E-01  1.881E-01 3.7635494E+00 9.8439736E+00 1.3692174E+01
  0.000E+00  4.786E-01  1.467E-01 3.7427900E+00 8.7926693E+00 1.4388816E+01
  4.318E-02  4.575E-01  1.600E-01 3.7314319E+00 9.1495082E+00 1.4166240E+01
  0.000E+00  5.217E-01  1.218E-01 3.7164411E+00 8.0638364E+00 1.4808346E+01
  4.318E-02  5.000E-01  1.340E-01 3.7336219E+00 8.4312769E+00 1.4604030E+01
  0.000E+00  5.661E-01  9.903E-02 3.6991252E+00 7.3177211E+00 1.5193731E+01
  4.318E-02  5.438E-01  1.101E-01 3.6981121E+00 7.6934061E+00 1.5006325E+01
  0.000E+00  6.116E-01  7.852E-02 3.6920717E+00 6.5504357E+00 1.5539744E+01
  4.318E-02  5.887E-01  8.849E-02 3.7022801E+00 6.9376796E+00 1.5373383E+01
  0.000E+00  6.580E-01  6.031E-02 3.6570531E+00 5.7618966E+00 1.5841854E+01
  4.318E-02  6.347E-01  6.913E-02 3.6759782E+00 6.1583097E+00 1.5696797E+01
  0.000E+00  7.052E-01  4.443E-02 3.6466223E+00 4.9678897E+00 1.6110935E+01
  4.318E-02  6.815E-01  5.207E-02 3.6468228E+00 5.3653694E+00 1.5981185E+01
  0.000E+00  7.532E-01  3.092E-02 3.6405091E+00 4.1672923E+00 1.6345339E+01
  4.318E-02  7.292E-01  3.738E-02 3.6448630E+00 4.5695787E+00 1.6234348E+01
  0.000E+00  8.019E-01  1.983E-02 3.6240312E+00 3.3485128E+00 1.6533566E+01
  4.318E-02  7.775E-01  2.507E-02 3.6334017E+00 3.7607359E+00 1.6446801E+01
  0.000E+00  8.510E-01  1.117E-02 3.6060275E+00 2.5141415E+00 1.6675026E+01
  4.318E-02  8.264E-01  1.519E-02 3.6149631E+00 2.9327311E+00 1.6610803E+01
  0.000E+00  9.004E-01  4.969E-03 3.5940027E+00 1.6752154E+00 1.6776195E+01
  4.318E-02  8.757E-01  7.761E-03 3.5992027E+00 2.0948665E+00 1.6731504E+01
  4.318E-02  9.253E-01  2.796E-03 3.5903335E+00 1.2561813E+00 1.6813691E+01
  1.000E+01  1.050E+00  1.243E-03 3.5885808E+00 -8.3721422E-01 1.6838925E+01
  1.000E+01  1.000E+00  5.551E-16 3.5872195E+00 -1.1154261E-06 1.6860411E+01
  9.957E+00  1.025E+00  3.108E-04 3.5869826E+00 -4.1858598E-01 1.6855053E+01
  1.000E+01  9.502E-01  1.243E-03 3.5885805E+00 8.3721188E-01 1.6838925E+01
  9.957E+00  9.751E-01  3.108E-04 3.5869824E+00 4.1858431E-01 1.6855053E+01
  1.000E+01  9.004E-01  4.969E-03 3.5940027E+00 1.6752154E+00 1.6776195E+01
  9.957E+00  9.253E-01  2.796E-03 3.5903188E+00 1.2560995E+00 1.6812610E+01
  1.000E+01  8.510E-01  1.117E-02 3.6060275E+00 2.5141415E+00 1.6675026E+01
  9.957E+00  8.757E-01  7.761E-03 3.5991897E+00 2.0947310E+00 1.6730429E+01
  1.000E+01  8.019E-01  1.983E-02 3.6240312E+00 3.3485128E+00 1.6533566E+01
  9.957E+00  8.264E-01  1.519E-02 3.6149490E+00 2.9325425E+00 1.6609736E+01
  1.000E+01  7.532E-01  3.092E-02 3.6405091E+00 4.1672923E+00 1.6345339E+01
  9.957E+00  7.775E-01  2.507E-02 3.6333864E+00 3.7604948E+00 1.6445745E+01
  1.000E+01  7.052E-01  4.443E-02 3.6466223E+00 4.9678897E+00 1.6110935E+01
  9.957E+00  7.292E-01  3.738E-02 3.6448488E+00 4.5692859E+00 1.6233306E+01
  1.000E+01  6.580E-01  6.031E-02 3.6570531E+00 5.7618966E+00 1.5841854E+01
  9.957E+00  6.815E-01  5.207E-02 3.6468081E+00 5.3650257E+00 1.5980159E+01
  1.000E+01  6.116E-01  7.852E-02 3.6920717E+00 6.5504357E+00 1.5539744E+01
  9.957E+00  6.347E-01  6.913E-02 3.6759604E+00 6.1579157E+00 1.5695788E+01
  1.000E+01  5.661E-01  9.903E-02 3.6991252E+00 7.3177211E+00 1.5193731E+01
  9.957E+00  5.887E-01  8.849E-02 3.7022603E+00 6.9372363E+00 1.5372394E+01
  1.000E+01  5.217E-01  1.218E-01 3.7164411E+00 8.0638364E+00 1.4808346E+01
  9.957E+00  5.438E-01  1.101E-01 3.6980935E+00 7.6929140E+00 1.5005360E+01
  1.000E+01  4.786E-01  1.467E-01 3.7427900E+00 8.7926693E+00 1.4388816E+01
  9.957E+00  5.000E-01  1.340E-01 3.7336051E+00 8.4307365E+00 1.4603091E+01
  1.000E+01  4.367E-01  1.738E-01 3.7385229E+00 9.4990620E+00 1.3932576E+01
  9.957E+00  4.575E-01  1.600E-01 3.7314158E+00 9.1489207E+00 1.4165331E+01
  1.000E+01  3.962E-01  2.029E-01 3.7601763E+00 1.0181579E+01 1.3441602E+01
  9.957E+00  4.163E-01  1.881E-01 3.7635247E+00 9.8433414E+00 1.3691295E+01
  1.000E+01  3.572E-01  2.340E-01 3.7670775E+00 1.0839029E+01 1.2917492E+01
  9.957E+00  3.765E-01  2.182E-01 3.7533096E+00 1.0513641E+01 1.3183735E+01
  1.000E+01  3.198E-01  2.669E-01 3.7687488E+00 1.1469410E+01 1.2361138E+01
  9.957E+00  3.383E-01  2.502E-01 3.7703336E+00 1.1157733E+01 1.2643290E+01
  1.000E+01  2.841E-01  3.018E-01 3.7697958E+00 1.2071303E+01 1.1774032E+01
  9.957E+00  3.018E-01  2.841E-01 3.7697780E+00 1.1774052E+01 1.2071382E+01
  1.000E+01  2.502E-01  3.383E-01 3.7703518E+00 1.2643202E+01 1.1157710E+01
  9.957E+00  2.669E-01  3.198E-01 3.7687359E+00 1.2361153E+01 1.1469481E+01
  1.000E+01  2.182E-01  3.765E-01 3.7533235E+00 1.3183642E+01 1.0513618E+01
  9.957E+00  2.340E-01  3.572E-01 3.7670681E+00 1.2917503E+01 1.0839092E+01
  1.000E+01  1.881E-01  4.163E-01 3.7635401E+00 1.3691197E+01 9.8433193E+00
  9.957E+00  2.029E-01  3.962E-01 3.7601739E+00 1.3441613E+01 1.0181638E+01
  1.000E+01  1.600E-01  4.575E-01 3.7314240E+00 1.4165222E+01 9.1488965E+00
  9.957E+00  1.738E-01  4.367E-01 3.7385230E+00 1.3932582E+01 9.4991144E+00
  1.000E+01  1.340E-01  5.000E-01 3.7336089E+00 1.4602973E+01 8.4307095E+00
  9.957E+00  1.467E-01  4.786E-01 3.7427882E+00 1.4388815E+01 8.7927132E+00
  1.000E+01  1.101E-01  5.438E-01 3.6980898E+00 1.5005232E+01 7.6928874E+00
  9.957E+00  1.218E-01  5.217E-01 3.7164492E+00 1.4808339E+01 8.0638742E+00
  1.000E+01  8.849E-02  5.887E-01 3.7022489E+00 1.5372272E+01 6.9372132E+00
  9.957E+00  9.903E-02  5.661E-01 3.6991470E+00 1.5193726E+01 7.3177555E+00
  1.000E+01  6.913E-02  6.347E-01 3.6759442E+00 1.5695660E+01 6.1578949E+00
  9.957E+00  7.852E-02  6.116E-01 3.6921058E+00 1.5539744E+01 6.5504663E+00
  1.000E+01  5.207E-02  6.815E-01 3.6467911E+00 1.5980018E+01 5.3650059E+00
  9.957E+00  6.031E-02  6.580E-01 3.6570890E+00 1.5841846E+01 5.7619218E+00
  1.000E+01  3.738E-02  7.292E-01 3.6448333E+00 1.6233159E+01 4.5692688E+00
  9.957E+00  4.443E-02  7.052E-01 3.6466564E+00 1.6110918E+01 4.9679082E+00
  1.000E+01  2.507E-02  7.775E-01 3.6333715E+00 1.6445595E+01 3.7604813E+00
  9.957E+00  3.092E-02  7.532E-01 3.6405426E+00 1.6345317E+01 4.1673050E+00
  1.000E+01  1.519E-02  8.264E-01 3.6149318E+00 1.6609580E+01 2.9325308E+00
  9.957E+00  1.983E-02  8.019E-01 3.6240653E+00 1.6533542E+01 3.3485234E+00
  1.000E+01  7.761E-03  8.757E-01 3.5991729E+00 1.6730268E+01 2.0947170E+00
  9.957E+00  1.117E-02  8.510E-01 3.6060611E+00 1.6675005E+01 2.5141563E+00
  1.000E+01  2.796E-03  9.253E-01 3.5903146E+00 1.6812444E+01 1.2560846E+00
  9.957E+00  4.969E-03  9.004E-01 3.5940284E+00 1.6776181E+01 1.6752366E+00
  1.000E+01  3.108E-04  9.751E-01 3.5870048E+00 1.6854882E+01 4.1857815E-01
  9.957E+00  1.243E-03  9.502E-01 3.5885885E+00 1.6838918E+01 8.3722957E-01
  1.000E+01  3.108E-04  1.025E+00 3.5870324E+00 1.6854882E+01 -4.1857723E-01
  9.957E+00  0.000E+00  1.000E+00 3.5872069E+00 1.6860407E+01 -2.8684685E-06
  1.000E+01  2.796E-03  1.075E+00 3.5903827E+00 1.6812445E+01 -1.2560837E+00
  9.957E+00  1.243E-03  1.050E+00 3.5885561E+00 1.6838918E+01 -8.3723387E-01
  1.000E+01  7.761E-03  1.124E+00 3.5992523E+00 1.6730271E+01 -2.0947161E+00
  9.957E+00  4.969E-03  1.100E+00 3.5939800E+00 1.6776182E+01 -1.6752380E+00
  1.000E+01  1.519E-02  1.174E+00 3.6150040E+00 1.6609581E+01 -2.9325299E+00
  9.957E+00  1.117E-02  1.149E+00 3.6060134E+00 1.6675006E+01 -2.5141558E+00
  1.000E+01  2.507E-02  1.223E+00 3.6334345E+00 1.6445592E+01 -3.7604804E+00
  9.957E+00  1.983E-02  1.198E+00 3.6240246E+00 1.6533541E+01 -3.3485226E+00
  1.000E+01  3.738E-02  1.271E+00 3.6448909E+00 1.6233159E+01 -4.5692679E+00
  9.957E+00  3.092E-02  1.247E+00 3.6405074E+00 1.6345314E+01 -4.1673045E+00
  1.000E+01  5.207E-02  1.318E+00 3.6468458E+00 1.5980023E+01 -5.3650050E+00
  9.957E+00  4.443E-02  1.295E+00 3.6466244E+00 1.6110921E+01 -4.9679079E+00
  1.000E+01  6.913E-02  1.365E+00 3.6759967E+00 1.5695659E+01 -6.1578939E+00
  9.957E+00  6.031E-02  1.342E+00 3.6570591E+00 1.5841850E+01 -5.7619216E+00
  1.000E+01  8.849E-02  1.411E+00 3.7022978E+00 1.5372269E+01 -6.9372123E+00
  9.957E+00  7.852E-02  1.388E+00 3.6920782E+00 1.5539739E+01 -6.5504659E+00
  1.000E+01  1.101E-01  1.456E+00 3.6981313E+00 1.5005238E+01 -7.6928865E+00
  9.957E+00  9.903E-02  1.434E+00 3.6991234E+00 1.5193729E+01 -7.3177548E+00
  1.000E+01  1.340E-01  1.500E+00 3.7336379E+00 1.4602971E+01 -8.4307086E+00
  9.957E+00  1.218E-01  1.478E+00 3.7164326E+00 1.4808341E+01 -8.0638730E+00
  1.000E+01  1.600E-01  1.543E+00 3.7314373E+00 1.4165223E+01 -9.1488956E+00
  9.957E+00  1.467E-01  1.521E+00 3.7427816E+00 1.4388813E+01 -8.7927118E+00
  1.000E+01  1.881E-01  1.584E+00 3.7635372E+00 1.3691197E+01 -9.8433184E+00
  9.957E+00  1.738E-01  1.563E+00 3.7385274E+00 1.3932585E+01 -9.4991131E+00
  1.000E+01  2.182E-01  1.623E+00 3.7533084E+00 1.3183642E+01 -1.0513618E+01
  9.957E+00  2.029E-01  1.604E+00 3.7601884E+00 1.3441612E+01 -1.0181637E+01
  1.000E+01  2.502E-01  1.662E+00 3.7703329E+00 1.2643203E+01 -1.1157710E+01
  9.957E+00  2.340E-01  1.643E+00 3.7670886E+00 1.2917504E+01 -1.0839092E+01
  1.000E+01  2.841E-01  1.698E+00 3.7697815E+00 1.2071304E+01 -1.1774032E+01
  9.957E+00  2.669E-01  1.680E+00 3.7687564E+00 1.2361152E+01 -1.1469481E+01
  1.000E+01  3.198E-01  1.733E+00 3.7687442E+00 1.1469411E+01 -1.2361137E+01
  9.957E+00  3.018E-01  1.716E+00 3.7697939E+00 1.1774051E+01 -1.2071383E+01
  1.000E+01  3.572E-01  1.766E+00 3.7670816E+00 1.0839029E+01 -1.2917491E+01
  9.957E+00  3.383E-01  1.750E+00 3.7703434E+00 1.1157732E+01 -1.2643291E+01
  1.000E+01  3.962E-01  1.797E+00 3.7601814E+00 1.0181580E+01 -1.3441601E+01
  9.957E+00  3.765E-01  1.782E+00 3.7533162E+00 1.0513641E+01 -1.3183735E+01
  1.000E+01  4.367E-01  1.826E+00 3.7385189E+00 9.4990627E+00 -1.3932575E+01
  9.957E+00  4.163E-01  1.812E+00 3.7635346E+00 9.8433418E+00 -1.3691294E+01
  1.000E+01  4.786E-01  1.853E+00 3.7427757E+00 8.7926699E+00 -1.4388815E+01
  9.957E+00  4.575E-01  1.840E+00 3.7314333E+00 9.1489214E+00 -1.4165330E+01
  1.000E+01  5.217E-01  1.878E+00 3.7164297E+00 8.0638370E+00 -1.4808345E+01
  9.957E+00  5.000E-01  1.866E+00 3.7336264E+00 8.4307357E+00 -1.4603091E+01
  1.000E+01  5.661E-01  1.901E+00 3.6991309E+00 7.3177218E+00 -1.5193731E+01
  9.957E+00  5.438E-01  1.890E+00 3.6981078E+00 7.6929124E+00 -1.5005360E+01
  1.000E+01  6.116E-01  1.921E+00 3.6920938E+00 6.5504359E+00 -1.5539744E+01
  9.957E+00  5.887E-01  1.912E+00 3.7022626E+00 6.9372346E+00 -1.5372395E+01
  1.000E+01  6.580E-01  1.940E+00 3.6570780E+00 5.7618960E+00 -1.5841853E+01
  9.957E+00  6.347E-01  1.931E+00 3.6759565E+00 6.1579155E+00 -1.5695788E+01
  1.000E+01  7.052E-01  1.956E+00 3.6466405E+00 4.9678874E+00 -1.6110933E+01
  9.957E+00  6.815E-01  1.948E+00 3.6468065E+00 5.3650271E+00 -1.5980159E+01
  1.000E+01  7.532E-01  1.969E+00 3.6405200E+00 4.1672877E+00 -1.6345337E+01
  9.957E+00  7.292E-01  1.963E+00 3.6448525E+00 4.5692888E+00 -1.6233306E+01
  1.000E+01  8.019E-01  1.980E+00 3.6240361E+00 3.3485094E+00 -1.6533564E+01
  9.957E+00  7.775E-01  1.975E+00 3.6333935E+00 3.7604985E+00 -1.6445746E+01
  1.000E+01  8.510E-01  1.989E+00 3.6060230E+00 2.5141505E+00 -1.6675025E+01
  9.957E+00  8.264E-01  1.985E+00 3.6149593E+00 2.9325428E+00 -1.6609736E+01
  1.000E+01  9.004E-01  1.995E+00 3.5939822E+00 1.6752437E+00 -1.6776198E+01
  9.957E+00  8.757E-01  1.992E+00 3.5992079E+00 2.0947203E+00 -1.6730428E+01
  1.000E+01  9.502E-01  1.999E+00 3.5885421E+00 8.3724206E-01 -1.6838931E+01
  9.957E+00  9.253E-01  1.997E+00 3.5903514E+00 1.2560799E+00 -1.6812607E+01
  1.000E+01  1.000E+00  2.000E+00 3.5871730E+00 -7.9044947E-07 -1.6860418E+01
  9.957E+00  9.751E-01  2.000E+00 3.5870284E+00 4.1857372E-01 -1.6855048E+01
  1.000E+01  1.050E+00  1.999E+00 3.5885426E+00 -8.3724347E-01 -1.6838931E+01
  9.957E+00  1.025E+00  2.000E+00 3.5870286E+00 -4.1857605E-01 -1.6855048E+01
  1.000E+01  1.100E+00  1.995E+00 3.5939832E+00 -1.6752447E+00 -1.6776197E+01
  9.957E+00  1.075E+00  1.997E+00 3.5903521E+00 -1.2560823E+00 -1.6812606E+01
  1.000E+01  1.149E+00  1.989E+00 3.6060244E+00 -2.5141513E+00 -1.6675024E+01
  9.957E+00  1.124E+00  1.992E+00 3.5992090E+00 -2.0947227E+00 -1.6730427E+01
  1.000E+01  1.198E+00  1.980E+00 3.6240379E+00 -3.3485101E+00 -1.6533563E+01
  9.957E+00  1.174E+00  1.985E+00 3.6149609E+00 -2.9325451E+00 -1.6609734E+01