# TIME = 5.400000
variables = x, y, z
zone N=5762 E=11520 F=FEPOINT ET=TRIANGLE
 7.2394493E+00 1.4906132E+00 1.7937019E+00
 7.2394493E+00 1.4906130E+00 2.0629839E-01
 7.2394492E+00 5.0938715E-01 1.7937013E+00
 7.2394495E+00 5.0938650E-01 2.0629792E-01
 6.0491769E+00 9.9999992E-01 1.6045832E+00
 8.4517152E+00 9.9999992E-01 1.6168632E+00
 6.0491778E+00 9.9999991E-01 3.9541783E-01
 8.4517155E+00 9.9999992E-01 3.8313662E-01
 6.5394585E+00 1.9175449E+00 1.0000001E+00
 6.5394584E+00 8.2454759E-02 1.0000001E+00
 7.9281069E+00 1.8507502E+00 1.0000001E+00
 7.9281069E+00 1.4924977E-01 1.0000001E+00
 7.1952976E+00 1.4836725E+00 1.8025093E+00
 7.1466916E+00 1.4757188E+00 1.8120008E+00
 7.0957156E+00 1.4670414E+00 1.8216735E+00
 7.0427399E+00 1.4575203E+00 1.8313263E+00
 6.9879744E+00 1.4470040E+00 1.8407092E+00
 6.9316585E+00 1.4353123E+00 1.8494953E+00
 6.8740077E+00 1.4222449E+00 1.8572920E+00
 6.8152511E+00 1.4076019E+00 1.8636479E+00
 6.7556461E+00 1.3912046E+00 1.8680787E+00
 6.6955029E+00 1.3729190E+00 1.8701028E+00
 6.6352093E+00 1.3526771E+00 1.8692849E+00
 6.5752407E+00 1.3304928E+00 1.8652780E+00
 6.5161454E+00 1.3064680E+00 1.8578577E+00
 6.4585077E+00 1.2807887E+00 1.8469405E+00
 6.4029011E+00 1.2537105E+00 1.8325870E+00
 6.3498452E+00 1.2255383E+00 1.8149883E+00
 6.2997713E+00 1.1966032E+00 1.7944420E+00
 6.2530043E+00 1.1672402E+00 1.7713228E+00
 6.2097588E+00 1.1377721E+00 1.7460529E+00
 6.1701466E+00 1.1084988E+00 1.7190756E+00
 6.1342047E+00 1.0797062E+00 1.6908501E+00
 6.1018994E+00 1.0516552E+00 1.6618238E+00
 6.0732253E+00 1.0246679E+00 1.6325227E+00
 7.1901240E+00 5.5010579E-01 1.8224207E+00
 7.1397808E+00 5.6019890E-01 1.8326312E+00
 7.0876582E+00 5.7056288E-01 1.8426086E+00
 7.0338645E+00 5.8167084E-01 1.8523574E+00
 6.9785155E+00 5.9382534E-01 1.8616966E+00
 6.9217816E+00 6.0723634E-01 1.8703022E+00
 6.8638664E+00 6.2208539E-01 1.8777596E+00
 6.8049954E+00 6.3853369E-01 1.8835966E+00
 6.7454338E+00 6.5671025E-01 1.8873174E+00
 6.6855057E+00 6.7669310E-01 1.8884435E+00
 6.6256144E+00 6.9849200E-01 1.8865579E+00
 6.5662462E+00 7.2203752E-01 1.8813465E+00
 6.5079499E+00 7.4717994E-01 1.8726278E+00
 6.4512966E+00 7.7369821E-01 1.8603668E+00
 6.3968344E+00 8.0131742E-01 1.8446722E+00
 6.3450469E+00 8.2973128E-01 1.8257787E+00
 6.2963241E+00 8.5862586E-01 1.8040197E+00
 6.2509459E+00 8.8769915E-01 1.7797932E+00
 6.2090747E+00 9.1666808E-01 1.7535249E+00
 6.1707349E+00 9.4525829E-01 1.7256113E+00
 6.1357662E+00 9.7317593E-01 1.6963294E+00
 6.1037522E+00 9.9999992E-01 1.6657044E+00
 7.1879487E+00 5.8513137E-01 1.8408390E+00
 7.1357983E+00 5.9726893E-01 1.8515385E+00
 7.0824386E+00 6.0936113E-01 1.8617067E+00
 7.0276928E+00 6.2215402E-01 1.8714864E+00
 6.9716137E+00 6.3602632E-01 1.8807105E+00
 6.9143202E+00 6.5120953E-01 1.8890494E+00
 6.8559933E+00 6.6786503E-01 1.8960684E+00
 6.7968583E+00 6.8611679E-01 1.9012771E+00
 6.7371892E+00 7.0604655E-01 1.9041715E+00
 6.6773249E+00 7.2767947E-01 1.9042788E+00
 6.6176849E+00 7.5097097E-01 1.9012032E+00
 6.5587668E+00 7.7580120E-01 1.8946655E+00
 6.5011200E+00 8.0197881E-01 1.8845293E+00
 6.4453031E+00 8.2925494E-01 1.8708093E+00
 6.3918381E+00 8.5734417E-01 1.8536630E+00
 6.3411710E+00 8.8594948E-01 1.8333664E+00
 6.2936418E+00 9.1478475E-01 1.8102793E+00
 6.2494563E+00 9.4358609E-01 1.7847948E+00
 6.2086404E+00 9.7209487E-01 1.7572605E+00
 6.1709607E+00 9.9999992E-01 1.7278510E+00
 6.1357662E+00 1.0268239E+00 1.6963294E+00
 7.1865207E+00 6.2198019E-01 1.8581805E+00
 7.1331591E+00 6.3583892E-01 1.8689700E+00
 7.0787121E+00 6.4964917E-01 1.8791589E+00
 7.0230792E+00 6.6415687E-01 1.8888310E+00
 6.9662671E+00 6.7978550E-01 1.8978124E+00
 6.9083881E+00 6.9675771E-01 1.9057493E+00
 6.8496188E+00 7.1521059E-01 1.9121869E+00
 6.7901907E+00 7.3522927E-01 1.9166201E+00
 6.7303902E+00 7.5684864E-01 1.9185418E+00
 6.6705721E+00 7.8004253E-01 1.9174904E+00
 6.6111707E+00 8.0471564E-01 1.9130970E+00
 6.5526920E+00 8.3070297E-01 1.9051219E+00
 6.4956819E+00 8.5777942E-01 1.8934766E+00
 6.4406817E+00 8.8567852E-01 1.8782264E+00
 6.3881808E+00 9.1411693E-01 1.8595738E+00
 6.3385754E+00 9.4281922E-01 1.8378252E+00
 6.2921254E+00 9.7153091E-01 1.8133382E+00
 6.2488939E+00 9.9999992E-01 1.7864355E+00
 6.2086404E+00 1.0279050E+00 1.7572606E+00
 6.1707348E+00 1.0547416E+00 1.7256114E+00
 7.1854054E+00 6.6071428E-01 1.8743332E+00
 7.1310577E+00 6.7616656E-01 1.8849810E+00
 7.0757037E+00 6.9163764E-01 1.8949922E+00
 7.0192813E+00 7.0786247E-01 1.9043920E+00
 6.9618169E+00 7.2524303E-01 1.9129642E+00
 6.9034243E+00 7.4398215E-01 1.9203294E+00
 6.8442889E+00 7.6418261E-01 1.9260137E+00
 6.7846525E+00 7.8588835E-01 1.9295037E+00
 6.7248148E+00 8.0908671E-01 1.9302968E+00
 6.6651443E+00 8.3370221E-01 1.9279510E+00
 6.6060860E+00 8.5959318E-01 1.9221309E+00
 6.5481472E+00 8.8655727E-01 1.9126414E+00
 6.4918624E+00 9.1434673E-01 1.8994437E+00
 6.4377448E+00 9.4269166E-01 1.8826495E+00
 6.3862370E+00 9.7132538E-01 1.8624951E+00
 6.3376575E+00 9.9999992E-01 1.8392912E+00
 6.2921254E+00 1.0284689E+00 1.8133383E+00
 6.2494562E+00 1.0564138E+00 1.7847950E+00
 6.2090746E+00 1.0833318E+00 1.7535251E+00
 7.1844225E+00 7.0134757E-01 1.8891344E+00
 7.1292163E+00 7.1830419E-01 1.8994484E+00
 7.0730854E+00 7.3539727E-01 1.9091004E+00
 7.0160030E+00 7.5331011E-01 1.9180462E+00
 6.9580132E+00 7.7240675E-01 1.9260265E+00
 6.8992419E+00 7.9285221E-01 1.9326357E+00
 6.8398848E+00 8.1471075E-01 1.9373874E+00
 6.7801951E+00 8.3798199E-01 1.9397679E+00
 6.7204833E+00 8.6260635E-01 1.9392887E+00
 6.6611274E+00 8.8846238E-01 1.9355356E+00
 6.6025749E+00 9.1536925E-01 1.9282137E+00
 6.5453253E+00 9.4309838E-01 1.9171750E+00
 6.4898893E+00 9.7139429E-01 1.9024273E+00
 6.4367370E+00 9.9999993E-01 1.8841186E+00
 6.3862370E+00 1.0286745E+00 1.8624952E+00
 6.3385753E+00 1.0571806E+00 1.8378254E+00
 6.2936417E+00 1.0852151E+00 1.8102795E+00
 6.2509458E+00 1.1123007E+00 1.7797934E+00
 7.1835282E+00 7.4379037E-01 1.9023722E+00
 7.1275736E+00 7.6218627E-01 1.9121814E+00
 7.0707984E+00 7.8085364E-01 1.9212960E+00
 7.0132016E+00 8.0040384E-01 1.9296039E+00
 6.9548434E+00 8.2114655E-01 1.9368057E+00
 6.8958613E+00 8.4320232E-01 1.9424763E+00
 6.8364607E+00 8.6659188E-01 1.9461246E+00
 6.7769036E+00 8.9127044E-01 1.9472466E+00
 6.7175075E+00 9.1713389E-01 1.9453765E+00
 6.6586524E+00 9.4402128E-01 1.9401363E+00
 6.6007797E+00 9.7172321E-01 1.9312749E+00
 6.5443681E+00 9.9999993E-01 1.9186901E+00
 6.4898892E+00 1.0286056E+00 1.9024274E+00
 6.4377447E+00 1.0573082E+00 1.8826496E+00
 6.3881807E+00 1.0858829E+00 1.8595740E+00
 6.3411708E+00 1.1140504E+00 1.8333667E+00
 6.2963239E+00 1.1413740E+00 1.8040200E+00
 7.1827348E+00 7.8788368E-01 1.9138239E+00
 7.1261542E+00 8.0765381E-01 1.9229672E+00
 7.0688799E+00 8.2782904E-01 1.9313695E+00
 7.0109299E+00 8.4893691E-01 1.9388582E+00
 6.9523763E+00 8.7122266E-01 1.9451015E+00
 6.8933662E+00 8.9475696E-01 1.9496631E+00
 6.8341123E+00 9.1951625E-01 1.9520569E+00
 6.7748810E+00 9.4541294E-01 1.9517974E+00
 6.7159910E+00 9.7230433E-01 1.9484505E+00
 6.6578161E+00 9.9999993E-01 1.9416788E+00
 6.6007796E+00 1.0282766E+00 1.9312750E+00
 6.5453253E+00 1.0569015E+00 1.9171751E+00
 6.4918623E+00 1.0856531E+00 1.8994439E+00
 6.4406816E+00 1.1143214E+00 1.8782268E+00
 6.3918379E+00 1.1426558E+00 1.8536634E+00
 6.3450466E+00 1.1702687E+00 1.8257792E+00
 7.1820667E+00 8.3341678E-01 1.9232787E+00
 7.1250003E+00 8.5447613E-01 1.9316010E+00
 7.0673859E+00 8.7606661E-01 1.9391226E+00
 7.0092541E+00 8.9862042E-01 1.9456202E+00
 6.9506863E+00 9.2231182E-01 1.9507392E+00
 6.8918354E+00 9.4715967E-01 1.9540421E+00
 6.8329174E+00 9.7309732E-01 1.9550570E+00
 6.7741986E+00 9.9999992E-01 1.9533255E+00
 6.7159910E+00 1.0276955E+00 1.9484506E+00
 6.6586524E+00 1.0559786E+00 1.9401364E+00
 6.6025749E+00 1.0846306E+00 1.9282139E+00
 6.5481472E+00 1.1134426E+00 1.9126417E+00
 6.4956818E+00 1.1422205E+00 1.8934771E+00
 6.4453029E+00 1.1707450E+00 1.8708098E+00
 6.3968342E+00 1.1986826E+00 1.8446728E+00
 7.1815462E+00 8.8012915E-01 1.9305502E+00
 7.1241495E+00 9.0236669E-01 1.9379060E+00
 7.0663634E+00 9.2524942E-01 1.9443903E+00
 7.0082271E+00 9.4910481E-01 1.9497409E+00
 6.9498275E+00 9.7403242E-01 1.9535916E+00
 6.8913195E+00 9.9999991E-01 1.9555134E+00
 6.8329174E+00 1.0269025E+00 1.9550571E+00
 6.7748810E+00 1.0545869E+00 1.9517976E+00
 6.7175075E+00 1.0828660E+00 1.9453767E+00
 6.6611273E+00 1.1115375E+00 1.9355360E+00
 6.6060859E+00 1.1404067E+00 1.9221313E+00
 6.5526918E+00 1.1692970E+00 1.9051223E+00
 6.5011198E+00 1.1980212E+00 1.8845299E+00
 6.4512964E+00 1.2263018E+00 1.8603675E+00
 7.1811901E+00 9.2771734E-01 1.9354871E+00
 7.1236285E+00 9.5099494E-01 1.9417461E+00
 7.0658441E+00 9.7501708E-01 1.9470548E+00
 7.0078813E+00 9.9999990E-01 1.9511253E+00
 6.9498275E+00 1.0259674E+00 1.9535917E+00
 6.8918354E+00 1.0528402E+00 1.9540422E+00
 6.8341123E+00 1.0804836E+00 1.9520571E+00
 6.7769036E+00 1.1087294E+00 1.9472468E+00
 6.7204833E+00 1.1373936E+00 1.9392890E+00
 6.6651443E+00 1.1662977E+00 1.9279515E+00
 6.6111706E+00 1.1952843E+00 1.9130975E+00
 6.5587667E+00 1.2241988E+00 1.8946661E+00
 6.5079496E+00 1.2528201E+00 1.8726285E+00
 7.1810094E+00 9.7584499E-01 1.9379831E+00
 7.1234531E+00 9.9999989E-01 1.9430359E+00
 7.0658442E+00 1.0249827E+00 1.9470548E+00
 7.0082272E+00 1.0508950E+00 1.9497410E+00
 6.9506863E+00 1.0776880E+00 1.9507394E+00
 6.8933662E+00 1.1052429E+00 1.9496633E+00
 6.8364607E+00 1.1334080E+00 1.9461250E+00
 6.7801951E+00 1.1620179E+00 1.9397683E+00
 6.7248147E+00 1.1909132E+00 1.9302973E+00
 6.6705720E+00 1.2199575E+00 1.9174910E+00
 6.6176848E+00 1.2490291E+00 1.9012039E+00
 6.5662460E+00 1.2779626E+00 1.8813473E+00
 7.1810094E+00 1.0241548E+00 1.9379831E+00
 7.1236285E+00 1.0490048E+00 1.9417462E+00
 7.0663634E+00 1.0747504E+00 1.9443904E+00
 7.0092541E+00 1.1013794E+00 1.9456204E+00
 6.9523763E+00 1.1287772E+00 1.9451017E+00
 6.8958613E+00 1.1567976E+00 1.9424766E+00
 6.8398848E+00 1.1852892E+00 1.9373878E+00
 6.7846524E+00 1.2141116E+00 1.9295042E+00
 6.7303902E+00 1.2431514E+00 1.9185424E+00
 6.6773248E+00 1.2723206E+00 1.9042795E+00
 6.6256142E+00 1.3015081E+00 1.8865587E+00
 7.1811902E+00 1.0722824E+00 1.9354872E+00
 7.1241495E+00 1.0976331E+00 1.9379061E+00
 7.0673860E+00 1.1239332E+00 1.9391228E+00
 7.0109299E+00 1.1510630E+00 1.9388584E+00
 6.9548434E+00 1.1788533E+00 1.9368060E+00
 6.8992419E+00 1.2071477E+00 1.9326361E+00
 6.8442888E+00 1.2358174E+00 1.9260142E+00
 6.7901907E+00 1.2647708E+00 1.9166207E+00
 6.7371891E+00 1.2939535E+00 1.9041722E+00
 6.6855056E+00 1.3233071E+00 1.8884443E+00
 7.1815462E+00 1.1198707E+00 1.9305503E+00
 7.1250004E+00 1.1455237E+00 1.9316012E+00
 7.0688800E+00 1.1721708E+00 1.9313697E+00
 7.0132016E+00 1.1995961E+00 1.9296042E+00
 6.9580132E+00 1.2275932E+00 1.9260269E+00
 6.9034243E+00 1.2560178E+00 1.9203299E+00
 6.8496188E+00 1.2847895E+00 1.9121875E+00
 6.7968583E+00 1.3138833E+00 1.9012778E+00
 6.7454337E+00 1.3432899E+00 1.8873183E+00
 7.1820667E+00 1.1665831E+00 1.9232790E+00
 7.1261542E+00 1.1923461E+00 1.9229675E+00
 7.0707985E+00 1.2191463E+00 1.9212964E+00
 7.0160030E+00 1.2466898E+00 1.9180466E+00
 6.9618170E+00 1.2747570E+00 1.9129647E+00
 6.9083881E+00 1.3032423E+00 1.9057499E+00
 6.8559933E+00 1.3321351E+00 1.8960691E+00
 6.8049954E+00 1.3614665E+00 1.8835975E+00
 7.1827349E+00 1.2121162E+00 1.9138241E+00
 7.1275737E+00 1.2378136E+00 1.9121818E+00
 7.0730855E+00 1.2646027E+00 1.9091008E+00
 7.0192813E+00 1.2921375E+00 1.9043925E+00
 6.9662671E+00 1.3202146E+00 1.8978130E+00
 6.9143202E+00 1.3487906E+00 1.8890501E+00
 6.8638664E+00 1.3779148E+00 1.8777604E+00
 7.1835283E+00 1.2562095E+00 1.9023725E+00
 7.1292164E+00 1.2816958E+00 1.8994488E+00
 7.0757038E+00 1.3083624E+00 1.8949927E+00
 7.0230792E+00 1.3358432E+00 1.8888316E+00
 6.9716138E+00 1.3639738E+00 1.8807112E+00
 6.9217816E+00 1.3927639E+00 1.8703029E+00
 7.1844226E+00 1.2986524E+00 1.8891347E+00
 7.1310578E+00 1.3238335E+00 1.8849815E+00
 7.0787121E+00 1.3503509E+00 1.8791595E+00
 7.0276928E+00 1.3778461E+00 1.8714870E+00
 6.9785156E+00 1.4061749E+00 1.8616973E+00
 7.1854054E+00 1.3392857E+00 1.8743337E+00
 7.1331592E+00 1.3641612E+00 1.8689705E+00
 7.0824386E+00 1.3906390E+00 1.8617073E+00
 7.0338646E+00 1.4183294E+00 1.8523581E+00
 7.1865208E+00 1.3780199E+00 1.8581810E+00
 7.1357984E+00 1.4027312E+00 1.8515391E+00
 7.0876583E+00 1.4294373E+00 1.8426093E+00
 7.1879488E+00 1.4148688E+00 1.8408396E+00
 7.1397809E+00 1.4398013E+00 1.8326318E+00
 7.1901241E+00 1.4498944E+00 1.8224213E+00
 7.2392894E+00 1.4613950E+00 1.8110930E+00
 7.2390916E+00 1.4283263E+00 1.8290759E+00
 7.2389425E+00 1.3930944E+00 1.8463822E+00
 7.2388292E+00 1.3557579E+00 1.8627653E+00
 7.2387403E+00 1.3164133E+00 1.8779803E+00
 7.2386661E+00 1.2751980E+00 1.8917786E+00
 7.2386027E+00 1.2322615E+00 1.9039307E+00
 7.2385491E+00 1.1877969E+00 1.9142199E+00
 7.2385058E+00 1.1420420E+00 1.9224503E+00
 7.2384739E+00 1.0952763E+00 1.9284567E+00
 7.2384544E+00 1.0478153E+00 1.9321131E+00
 7.2384478E+00 9.9999988E-01 1.9333408E+00
 7.2384543E+00 9.5218448E-01 1.9321131E+00
 7.2384738E+00 9.0472347E-01 1.9284566E+00
 7.2385057E+00 8.5795783E-01 1.9224502E+00
 7.2385490E+00 8.1220294E-01 1.9142197E+00
 7.2386027E+00 7.6773836E-01 1.9039304E+00
 7.2386660E+00 7.2480191E-01 1.8917782E+00
 7.2387402E+00 6.8358666E-01 1.8779799E+00
 7.2388291E+00 6.4424214E-01 1.8627649E+00
 7.2389424E+00 6.0690571E-01 1.8463817E+00
 7.2390915E+00 5.7167388E-01 1.8290753E+00
 7.2392893E+00 5.3860526E-01 1.8110924E+00
 7.2834220E+00 5.2032609E-01 1.7959419E+00
 7.3317105E+00 5.3245796E-01 1.7981857E+00
 7.3822585E+00 5.4519188E-01 1.8003273E+00
 7.4347055E+00 5.5851702E-01 1.8023566E+00
 7.4888385E+00 5.7246677E-01 1.8042318E+00
 7.5444135E+00 5.8709596E-01 1.8058734E+00
 7.6012018E+00 6.0248205E-01 1.8071623E+00
 7.6589545E+00 6.1871304E-01 1.8079385E+00
 7.7173978E+00 6.3588142E-01 1.8080066E+00
 7.7762299E+00 6.5407441E-01 1.8071438E+00
 7.8351231E+00 6.7336494E-01 1.8051119E+00
 7.8937279E+00 6.9380283E-01 1.8016722E+00
 7.9516794E+00 7.1540706E-01 1.7966011E+00
 8.0086056E+00 7.3816034E-01 1.7897052E+00
 8.0641370E+00 7.6200635E-01 1.7808351E+00
 8.1179183E+00 7.8685066E-01 1.7698948E+00
 8.1696206E+00 8.1256473E-01 1.7568477E+00
 8.2189498E+00 8.3899222E-01 1.7417175E+00
 8.2656520E+00 8.6595552E-01 1.7245873E+00
 8.3095134E+00 8.9326333E-01 1.7055960E+00
 8.3503427E+00 9.2070267E-01 1.6849465E+00
 8.3879881E+00 9.4805018E-01 1.6628843E+00
 8.4222367E+00 9.7495852E-01 1.6397737E+00
 7.2882456E+00 1.4456739E+00 1.8149734E+00
 7.3382945E+00 1.4315925E+00 1.8175101E+00
 7.3900040E+00 1.4174913E+00 1.8196234E+00
 7.4432795E+00 1.4029785E+00 1.8214941E+00
 7.4980063E+00 1.3878446E+00 1.8231516E+00
 7.5540094E+00 1.3719850E+00 1.8245214E+00
 7.6110712E+00 1.3553213E+00 1.8254697E+00
 7.6689443E+00 1.3377796E+00 1.8258185E+00
 7.7273471E+00 1.3192883E+00 1.8253575E+00
 7.7859686E+00 1.2997847E+00 1.8238542E+00
 7.8444734E+00 1.2792239E+00 1.8210676E+00
 7.9025080E+00 1.2575867E+00 1.8167630E+00
 7.9597086E+00 1.2348855E+00 1.8107280E+00
 8.0157097E+00 1.2111681E+00 1.8027875E+00
 8.0701544E+00 1.1865165E+00 1.7928154E+00
 8.1227061E+00 1.1610432E+00 1.7807434E+00
 8.1730596E+00 1.1348833E+00 1.7665634E+00
 8.2209518E+00 1.1081873E+00 1.7503250E+00
 8.2661733E+00 1.0811199E+00 1.7321259E+00
 8.3086059E+00 1.0538729E+00 1.7120799E+00
 8.3483008E+00 1.0266908E+00 1.6902502E+00
 8.3856087E+00 9.9999992E-01 1.6665282E+00
 7.2900596E+00 1.4107734E+00 1.8329287E+00
 7.3419447E+00 1.3948613E+00 1.8355102E+00
 7.3949209E+00 1.3793512E+00 1.8374719E+00
 7.4491705E+00 1.3635423E+00 1.8391048E+00
 7.5046454E+00 1.3471293E+00 1.8404564E+00
 7.5612242E+00 1.3299653E+00 1.8414511E+00
 7.6187108E+00 1.3119706E+00 1.8419407E+00
 7.6768562E+00 1.2930834E+00 1.8417324E+00
 7.7353706E+00 1.2732509E+00 1.8406039E+00
 7.7939326E+00 1.2524343E+00 1.8383157E+00
 7.8521981E+00 1.2306160E+00 1.8346258E+00
 7.9098088E+00 1.2078062E+00 1.8293056E+00
 7.9664014E+00 1.1840469E+00 1.8221564E+00
 8.0216170E+00 1.1594117E+00 1.8130230E+00
 8.0751129E+00 1.1340020E+00 1.8018043E+00
 8.1265759E+00 1.1079380E+00 1.7884577E+00
 8.1757373E+00 1.0813496E+00 1.7729967E+00
 8.2224020E+00 1.0543733E+00 1.7554727E+00
 8.2665097E+00 1.0271734E+00 1.7359292E+00
 8.3082523E+00 9.9999992E-01 1.7143076E+00
 8.3483008E+00 9.7330904E-01 1.6902502E+00
 7.2912076E+00 1.3741728E+00 1.8498993E+00
 7.3443205E+00 1.3568367E+00 1.8522196E+00
 7.3984013E+00 1.3399624E+00 1.8538891E+00
 7.4535536E+00 1.3228453E+00 1.8551650E+00
 7.5097763E+00 1.3051193E+00 1.8560934E+00
 7.5669538E+00 1.2866290E+00 1.8565848E+00
 7.6248930E+00 1.2672973E+00 1.8564777E+00
 7.6833372E+00 1.2470763E+00 1.8555671E+00
 7.7419852E+00 1.2259327E+00 1.8536217E+00
 7.8005045E+00 1.2038520E+00 1.8503981E+00
 7.8585432E+00 1.1808435E+00 1.8456572E+00
 7.9157397E+00 1.1569453E+00 1.8391802E+00
 7.9717338E+00 1.1322250E+00 1.8307854E+00
 8.0261774E+00 1.1067757E+00 1.8203395E+00
 8.0787495E+00 1.0807078E+00 1.8077657E+00
 8.1291743E+00 1.0541379E+00 1.7930407E+00
 8.1772565E+00 1.0271862E+00 1.7761774E+00
 8.2229524E+00 9.9999992E-01 1.7571772E+00
 8.2665097E+00 9.7282646E-01 1.7359292E+00
 8.3086059E+00 9.4612695E-01 1.7120799E+00
 7.2921136E+00 1.3357550E+00 1.8657229E+00
 7.3462204E+00 1.3171802E+00 1.8675899E+00
 7.4012172E+00 1.2990411E+00 1.8688074E+00
 7.4571688E+00 1.2806397E+00 1.8695910E+00
 7.5140538E+00 1.2616199E+00 1.8699581E+00
 7.5717543E+00 1.2418290E+00 1.8698028E+00
 7.6300666E+00 1.2212030E+00 1.8689505E+00
 7.6887228E+00 1.1997101E+00 1.8671867E+00
 7.7474100E+00 1.1773386E+00 1.8642751E+00
 7.8057867E+00 1.1540982E+00 1.8599732E+00
 7.8634962E+00 1.1300243E+00 1.8540493E+00
 7.9201783E+00 1.1051795E+00 1.8462993E+00
 7.9754821E+00 1.0796502E+00 1.8365612E+00
 8.0290794E+00 1.0535387E+00 1.8247244E+00
 8.0806856E+00 1.0269526E+00 1.8107303E+00
 8.1300950E+00 9.9999992E-01 1.7945573E+00
 8.1772565E+00 9.7281367E-01 1.7761774E+00
 8.2224020E+00 9.4562652E-01 1.7554726E+00
 8.2661732E+00 9.1887998E-01 1.7321259E+00
 7.2929300E+00 1.2954865E+00 1.8802181E+00
 7.3479011E+00 1.2758074E+00 1.8814702E+00
 7.4036808E+00 1.2564793E+00 1.8820898E+00
 7.4602997E+00 1.2368495E+00 1.8822378E+00
 7.5177182E+00 1.2165882E+00 1.8818992E+00
 7.5758053E+00 1.1955631E+00 1.8809496E+00
 7.6343455E+00 1.1737269E+00 1.8792034E+00
 7.6930595E+00 1.1510676E+00 1.8764409E+00
 7.7516254E+00 1.1275956E+00 1.8724254E+00
 7.8096965E+00 1.1033447E+00 1.8669204E+00
 7.8669170E+00 1.0783730E+00 1.8597070E+00
 7.9229355E+00 1.0527609E+00 1.8505992E+00
 7.9774195E+00 1.0266036E+00 1.8394561E+00
 8.0300759E+00 9.9999991E-01 1.8261848E+00
 8.0806856E+00 9.7304725E-01 1.8107303E+00
 8.1291743E+00 9.4586191E-01 1.7930407E+00
 8.1757373E+00 9.1865027E-01 1.7729966E+00
 8.2209517E+00 8.9181259E-01 1.7503250E+00
 7.2936848E+00 1.2534497E+00 1.8931730E+00
 7.3494102E+00 1.2327697E+00 1.8936724E+00
 7.4058405E+00 1.2123319E+00 1.8935558E+00
 7.4629811E+00 1.1915474E+00 1.8929276E+00
 7.5207765E+00 1.1701278E+00 1.8917404E+00
 7.5790830E+00 1.1479675E+00 1.8898533E+00
 7.6376745E+00 1.1250406E+00 1.8870740E+00
 7.6962630E+00 1.1013557E+00 1.8831813E+00
 7.7545220E+00 1.0769453E+00 1.8779439E+00
 7.8121058E+00 1.0518638E+00 1.8711365E+00
 7.8686665E+00 1.0261860E+00 1.8625565E+00
 7.9238709E+00 9.9999991E-01 1.8520377E+00
 7.9774195E+00 9.7339625E-01 1.8394561E+00
 8.0290794E+00 9.4646110E-01 1.8247244E+00
 8.0787495E+00 9.1929207E-01 1.8077656E+00
 8.1265759E+00 8.9206185E-01 1.7884576E+00
 8.1730596E+00 8.6511659E-01 1.7665633E+00
 7.2943596E+00 1.2097997E+00 1.9043722E+00
 7.3507181E+00 1.1882168E+00 1.9039971E+00
 7.4076553E+00 1.1667615E+00 1.9030147E+00
 7.4651581E+00 1.1449192E+00 1.9014764E+00
 7.5231587E+00 1.1224524E+00 1.8993060E+00
 7.5815033E+00 1.0992865E+00 1.8963505E+00
 7.6399584E+00 1.0754184E+00 1.8924148E+00
 7.6982320E+00 1.0508774E+00 1.8872821E+00
 7.7559984E+00 1.0257148E+00 1.8807307E+00
 7.8129200E+00 9.9999990E-01 1.8725503E+00
 7.8686665E+00 9.7381384E-01 1.8625565E+00
 7.9229354E+00 9.4723888E-01 1.8505992E+00
 7.9754820E+00 9.2034967E-01 1.8365612E+00
 8.0261774E+00 8.9322413E-01 1.8203395E+00
 8.0751129E+00 8.6599784E-01 1.8018042E+00
 8.1227060E+00 8.3895670E-01 1.7807433E+00
 7.2949295E+00 1.1647432E+00 1.9136137E+00
 7.3517825E+00 1.1423693E+00 1.9122548E+00
 7.4090695E+00 1.1200085E+00 1.9102878E+00
 7.4667648E+00 1.0972308E+00 1.9077171E+00
 7.5247910E+00 1.0738551E+00 1.9044436E+00
 7.5829886E+00 1.0498406E+00 1.9003072E+00
 7.6411205E+00 1.0252065E+00 1.8951150E+00
 7.6988963E+00 9.9999989E-01 1.8886589E+00
 7.7559984E+00 9.7428500E-01 1.8807306E+00
 7.8121057E+00 9.4813604E-01 1.8711364E+00
 7.8669170E+00 9.2162679E-01 1.8597070E+00
 7.9201783E+00 8.9482038E-01 1.8462992E+00
 7.9717337E+00 8.6777488E-01 1.8307853E+00
 8.0216169E+00 8.4058813E-01 1.8130229E+00
 8.0701543E+00 8.1348333E-01 1.7928153E+00
 7.2953738E+00 1.1185351E+00 1.9207182E+00
 7.3525677E+00 1.0955018E+00 1.9182815E+00
 7.4100376E+00 1.0723704E+00 1.9152261E+00
 7.4677495E+00 1.0488044E+00 1.9115180E+00
 7.5256207E+00 1.0246833E+00 1.9070417E+00
 7.5834892E+00 9.9999988E-01 1.9016361E+00
 7.6411205E+00 9.7479326E-01 1.8951150E+00
 7.6982319E+00 9.4912235E-01 1.8872820E+00
 7.7545220E+00 9.2305455E-01 1.8779439E+00
 7.8096964E+00 8.9665508E-01 1.8669204E+00
 7.8634962E+00 8.6997554E-01 1.8540492E+00
 7.9157397E+00 8.4305458E-01 1.8391801E+00
 7.9664014E+00 8.1595298E-01 1.8221563E+00
 8.0157096E+00 7.8883175E-01 1.8027873E+00
 7.2956778E+00 1.0714723E+00 1.9255405E+00
 7.3530485E+00 1.0479304E+00 1.9219507E+00
 7.4105293E+00 1.0241851E+00 1.9177230E+00
 7.4680811E+00 9.9999988E-01 1.9127945E+00
 7.5256207E+00 9.7531646E-01 1.9070417E+00
 7.5829886E+00 9.5015921E-01 1.9003071E+00
 7.6399583E+00 9.2458137E-01 1.8924148E+00
 7.6962630E+00 8.9864410E-01 1.8831812E+00
 7.7516253E+00 8.7240418E-01 1.8724253E+00
 7.8057867E+00 8.4590168E-01 1.8599731E+00
 7.8585431E+00 8.1915640E-01 1.8456570E+00
 7.9098088E+00 7.9219367E-01 1.8293055E+00
 7.9597086E+00 7.6511434E-01 1.8107279E+00
 7.2958321E+00 1.0238832E+00 1.9279781E+00
 7.3532104E+00 9.9999987E-01 1.9231828E+00
 7.4105293E+00 9.7581464E-01 1.9177230E+00
 7.4677495E+00 9.5119534E-01 1.9115179E+00
 7.5247910E+00 9.2614468E-01 1.9044435E+00
 7.5815032E+00 9.0071326E-01 1.8963504E+00
 7.6376744E+00 8.7495924E-01 1.8870739E+00
 7.6930595E+00 8.4893225E-01 1.8764408E+00
 7.7474100E+00 8.2266127E-01 1.8642750E+00
 7.8005044E+00 7.9614788E-01 1.8503980E+00
 7.8521980E+00 7.6938388E-01 1.8346256E+00
 7.9025079E+00 7.4241323E-01 1.8167628E+00
 7.2958321E+00 9.7611652E-01 1.9279781E+00
 7.3530485E+00 9.5206931E-01 1.9219507E+00
 7.4100376E+00 9.2762934E-01 1.9152261E+00
 7.4667647E+00 9.0276902E-01 1.9077170E+00
 7.5231586E+00 8.7754740E-01 1.8993058E+00
 7.5790829E+00 8.5203228E-01 1.8898532E+00
 7.6343455E+00 8.2627295E-01 1.8792033E+00
 7.6887228E+00 8.0028973E-01 1.8671865E+00
 7.7419851E+00 7.7406714E-01 1.8536215E+00
 7.7939325E+00 7.4756557E-01 1.8383155E+00
 7.8444733E+00 7.2077600E-01 1.8210675E+00
 7.2956778E+00 9.2852747E-01 1.9255404E+00
 7.3525677E+00 9.0449799E-01 1.9182814E+00
 7.4090694E+00 8.7999130E-01 1.9102877E+00
 7.4651580E+00 8.5508055E-01 1.9014762E+00
 7.5207765E+00 8.2987197E-01 1.8917402E+00
 7.5758052E+00 8.0443674E-01 1.8809494E+00
 7.6300665E+00 7.7879682E-01 1.8689503E+00
 7.6833371E+00 7.5292361E-01 1.8555669E+00
 7.7353705E+00 7.2674898E-01 1.8406037E+00
 7.7859685E+00 7.0021521E-01 1.8238540E+00
 7.2953738E+00 8.8146467E-01 1.9207181E+00
 7.3517825E+00 8.5763054E-01 1.9122547E+00
 7.4076552E+00 8.3323831E-01 1.9030145E+00
 7.4629811E+00 8.0845241E-01 1.8929274E+00
 7.5177181E+00 7.8341165E-01 1.8818991E+00
 7.5717542E+00 7.5817083E-01 1.8698026E+00
 7.6248929E+00 7.3270256E-01 1.8564775E+00
 7.6768561E+00 7.0691654E-01 1.8417322E+00
 7.7273470E+00 6.8071163E-01 1.8253572E+00
 7.2949294E+00 8.3525666E-01 1.9136135E+00
 7.3507180E+00 8.1178307E-01 1.9039969E+00
 7.4058404E+00 7.8766792E-01 1.8935556E+00
 7.4602996E+00 7.6315032E-01 1.8822376E+00
 7.5140536E+00 7.3838001E-01 1.8699579E+00
 7.5669537E+00 7.1337094E-01 1.8565845E+00
 7.6187107E+00 6.8802932E-01 1.8419404E+00
 7.6689442E+00 6.6222032E-01 1.8258182E+00
 7.2943595E+00 7.9020013E-01 1.9043720E+00
 7.3494101E+00 7.6723012E-01 1.8936721E+00
 7.4036807E+00 7.4352055E-01 1.8820896E+00
 7.4571686E+00 7.1936025E-01 1.8695907E+00
 7.5097762E+00 6.9488063E-01 1.8560931E+00
 7.5612241E+00 6.7003471E-01 1.8414508E+00
 7.6110711E+00 6.4467865E-01 1.8254694E+00
 7.2936847E+00 7.4655024E-01 1.8931727E+00
 7.3479010E+00 7.2419252E-01 1.8814700E+00
 7.4012171E+00 7.0095885E-01 1.8688071E+00
 7.4535535E+00 6.7715462E-01 1.8551647E+00
 7.5046453E+00 6.5287073E-01 1.8404561E+00
 7.5540093E+00 6.2801505E-01 1.8245211E+00
 7.2929299E+00 7.0451344E-01 1.8802177E+00
 7.3462202E+00 6.8281978E-01 1.8675895E+00
 7.3984012E+00 6.6003761E-01 1.8538888E+00
 7.4491704E+00 6.3645776E-01 1.8391045E+00
 7.4980061E+00 6.1215548E-01 1.8231512E+00
 7.2921134E+00 6.6424504E-01 1.8657226E+00
 7.3443204E+00 6.4316331E-01 1.8522192E+00
 7.3949207E+00 6.2064882E-01 1.8374715E+00
 7.4432793E+00 5.9702156E-01 1.8214937E+00
 7.2912075E+00 6.2582724E-01 1.8498989E+00
 7.3419446E+00 6.0513881E-01 1.8355098E+00
 7.3900039E+00 5.8250884E-01 1.8196230E+00
 7.2900595E+00 5.8922676E-01 1.8329282E+00
 7.3382944E+00 5.6840762E-01 1.8175096E+00
 7.2882455E+00 5.5432629E-01 1.8149729E+00
 7.2120902E+00 1.5150318E+00 1.7810019E+00
 7.1818922E+00 1.5416711E+00 1.7659750E+00
 7.1503756E+00 1.5690892E+00 1.7491750E+00
 7.1177297E+00 1.5970661E+00 1.7305106E+00
 7.0841085E+00 1.6254142E+00 1.7098623E+00
 7.0497021E+00 1.6539150E+00 1.6871140E+00
 7.0147007E+00 1.6823352E+00 1.6621525E+00
 6.9793155E+00 1.7104091E+00 1.6348880E+00
 6.9437782E+00 1.7378420E+00 1.6052664E+00
 6.9083349E+00 1.7643169E+00 1.5732820E+00
 6.8732395E+00 1.7895075E+00 1.5389874E+00
 6.8387459E+00 1.8130946E+00 1.5024998E+00
 6.8051008E+00 1.8347828E+00 1.4640019E+00
 6.7725370E+00 1.8543170E+00 1.4237381E+00
 6.7412670E+00 1.8714957E+00 1.3820059E+00
 6.7114771E+00 1.8861805E+00 1.3391416E+00
 6.6833225E+00 1.8983006E+00 1.2955040E+00
 6.6569247E+00 1.9078513E+00 1.2514579E+00
 6.6323732E+00 1.9148885E+00 1.2073608E+00
 6.6097310E+00 1.9195210E+00 1.1635563E+00
 6.5890471E+00 1.9219011E+00 1.1203886E+00
 6.5703382E+00 1.9222118E+00 1.0781741E+00
 6.5536518E+00 1.9206721E+00 1.0374366E+00
 6.0678317E+00 1.0717233E+00 1.6228951E+00
 6.0628804E+00 1.1183378E+00 1.6100272E+00
 6.0596535E+00 1.1658701E+00 1.5950341E+00
 6.0586842E+00 1.2144879E+00 1.5781629E+00
 6.0603173E+00 1.2640985E+00 1.5594654E+00
 6.0648099E+00 1.3144588E+00 1.5389388E+00
 6.0723636E+00 1.3652374E+00 1.5165777E+00
 6.0831368E+00 1.4160462E+00 1.4924068E+00
 6.0972391E+00 1.4664517E+00 1.4664947E+00
 6.1147206E+00 1.5159887E+00 1.4389585E+00
 6.1355612E+00 1.5641779E+00 1.4099635E+00
 6.1596644E+00 1.6105451E+00 1.3797193E+00
 6.1868555E+00 1.6546427E+00 1.3484737E+00
 6.2168855E+00 1.6960697E+00 1.3165041E+00
 6.2494411E+00 1.7344901E+00 1.2841070E+00
 6.2841587E+00 1.7696476E+00 1.2515858E+00
 6.3206434E+00 1.8013740E+00 1.2192389E+00
 6.3584878E+00 1.8295924E+00 1.1873466E+00
 6.3972839E+00 1.8543106E+00 1.1561558E+00
 6.4366299E+00 1.8756131E+00 1.1258399E+00
 6.4761379E+00 1.8936523E+00 1.0964123E+00
 6.5153691E+00 1.9086161E+00 1.0675585E+00
 6.0981789E+00 1.1014391E+00 1.6522285E+00
 6.0950130E+00 1.1504016E+00 1.6393977E+00
 6.0934979E+00 1.1995746E+00 1.6242063E+00
 6.0942924E+00 1.2494168E+00 1.6070027E+00
 6.0977927E+00 1.2999547E+00 1.5878780E+00
 6.1042514E+00 1.3509824E+00 1.5668285E+00
 6.1138438E+00 1.4021645E+00 1.5438443E+00
 6.1266916E+00 1.4530883E+00 1.5189537E+00
 6.1428616E+00 1.5032936E+00 1.4922376E+00
 6.1623555E+00 1.5522950E+00 1.4638325E+00
 6.1851013E+00 1.5996040E+00 1.4339275E+00
 6.2109497E+00 1.6447512E+00 1.4027584E+00
 6.2396761E+00 1.6873093E+00 1.3705992E+00
 6.2709887E+00 1.7269130E+00 1.3377518E+00
 6.3045436E+00 1.7632766E+00 1.3045333E+00
 6.3399642E+00 1.7962051E+00 1.2712613E+00
 6.3768639E+00 1.8256007E+00 1.2382365E+00
 6.4148646E+00 1.8514612E+00 1.2057131E+00
 6.4536035E+00 1.8738731E+00 1.1738323E+00
 6.4927180E+00 1.8929974E+00 1.1424941E+00
 6.5318210E+00 1.9090487E+00 1.1110925E+00
 6.1320768E+00 1.1310966E+00 1.6809997E+00
 6.1306460E+00 1.1816495E+00 1.6679690E+00
 6.1309027E+00 1.2321707E+00 1.6524636E+00
 6.1335390E+00 1.2830842E+00 1.6348228E+00
 6.1389720E+00 1.3344365E+00 1.6151441E+00
 6.1474411E+00 1.3860153E+00 1.5934229E+00
 6.1590912E+00 1.4374638E+00 1.5696536E+00
 6.1740048E+00 1.4883429E+00 1.5438766E+00
 6.1922026E+00 1.5381693E+00 1.5161931E+00
 6.2136356E+00 1.5864435E+00 1.4867651E+00
 6.2381788E+00 1.6326762E+00 1.4558109E+00
 6.2656317E+00 1.6764131E+00 1.4235968E+00
 6.2957243E+00 1.7172583E+00 1.3904258E+00
 6.3281315E+00 1.7548935E+00 1.3566249E+00
 6.3624928E+00 1.7890935E+00 1.3225286E+00
 6.3984372E+00 1.8197347E+00 1.2884578E+00
 6.4356033E+00 1.8467970E+00 1.2546837E+00
 6.4736439E+00 1.8703586E+00 1.2213543E+00
 6.5122007E+00 1.8905845E+00 1.1883439E+00
 6.5508540E+00 1.9076967E+00 1.1550666E+00
 6.1695978E+00 1.1609966E+00 1.7087515E+00
 6.1699051E+00 1.2127086E+00 1.6953190E+00
 6.1719877E+00 1.2642647E+00 1.6793464E+00
 6.1765395E+00 1.3160127E+00 1.6611347E+00
 6.1839639E+00 1.3679532E+00 1.6407656E+00
 6.1944727E+00 1.4198433E+00 1.6182333E+00
 6.2081730E+00 1.4712972E+00 1.5935430E+00
 6.2251025E+00 1.5218512E+00 1.5667545E+00
 6.2452320E+00 1.5710061E+00 1.5379955E+00
 6.2684603E+00 1.6182588E+00 1.5074587E+00
 6.2946113E+00 1.6631323E+00 1.4753952E+00
 6.3234385E+00 1.7052010E+00 1.4421033E+00
 6.3546375E+00 1.7441141E+00 1.4079143E+00
 6.3878656E+00 1.7796136E+00 1.3731755E+00
 6.4227669E+00 1.8115457E+00 1.3382268E+00
 6.4589933E+00 1.8398655E+00 1.3033635E+00
 6.4962082E+00 1.8646354E+00 1.2687596E+00
 6.5340509E+00 1.8860151E+00 1.2343305E+00
 6.5720757E+00 1.9042338E+00 1.1995696E+00
 6.2107971E+00 1.1910850E+00 1.7350632E+00
 6.2128623E+00 1.2436464E+00 1.7210395E+00
 6.2168251E+00 1.2959491E+00 1.7044437E+00