# TIME = 2.300000
variables = x, y, z
zone N=5762 E=11520 F=FEPOINT ET=TRIANGLE
 6.0030587E+00 1.4928194E+00 1.7973015E+00
 6.0030588E+00 1.4928200E+00 2.0269899E-01
 6.0030586E+00 5.0718071E-01 1.7973010E+00
 6.0030590E+00 5.0717952E-01 2.0269872E-01
 4.8139075E+00 9.9999987E-01 1.6007840E+00
 7.2103606E+00 9.9999987E-01 1.6148230E+00
 4.8139104E+00 9.9999987E-01 3.9922005E-01
 7.2103616E+00 9.9999987E-01 3.8517751E-01
 5.3031495E+00 1.9170099E+00 1.0000008E+00
 5.3031495E+00 8.2989555E-02 1.0000008E+00
 6.6888037E+00 1.8533924E+00 1.0000008E+00
 6.6888036E+00 1.4660765E-01 1.0000008E+00
 5.9598502E+00 1.4858223E+00 1.8058824E+00
 5.9122442E+00 1.4777766E+00 1.8151172E+00
 5.8621747E+00 1.4689648E+00 1.8245357E+00
 5.8099768E+00 1.4592990E+00 1.8339312E+00
 5.7558075E+00 1.4486358E+00 1.8430628E+00
 5.6998261E+00 1.4367951E+00 1.8516138E+00
 5.6421961E+00 1.4235687E+00 1.8591923E+00
 5.5831397E+00 1.4087475E+00 1.8653313E+00
 5.5229491E+00 1.3921412E+00 1.8695185E+00
 5.4620048E+00 1.3736062E+00 1.8712397E+00
 5.4007858E+00 1.3530716E+00 1.8700330E+00
 5.3398646E+00 1.3305578E+00 1.8655385E+00
 5.2798779E+00 1.3061831E+00 1.8575369E+00
 5.2214811E+00 1.2801564E+00 1.8459663E+00
 5.1652980E+00 1.2527603E+00 1.8309219E+00
 5.1118772E+00 1.2243274E+00 1.8126373E+00
 5.0616596E+00 1.1952136E+00 1.7914559E+00
 5.0149614E+00 1.1657737E+00 1.7677955E+00
 4.9719701E+00 1.1363398E+00 1.7421127E+00
 4.9327545E+00 1.1072076E+00 1.7148703E+00
 4.8973001E+00 1.0786433E+00 1.6865306E+00
 4.8655483E+00 1.0509024E+00 1.6575549E+00
 4.8374453E+00 1.0242778E+00 1.6284467E+00
 5.9551458E+00 5.4761268E-01 1.8255499E+00
 5.9059813E+00 5.5754122E-01 1.8353557E+00
 5.8548511E+00 5.6788952E-01 1.8450071E+00
 5.8018236E+00 5.7910262E-01 1.8545012E+00
 5.7469658E+00 5.9140238E-01 1.8636219E+00
 5.6903910E+00 6.0496634E-01 1.8720312E+00
 5.6322821E+00 6.1997703E-01 1.8793025E+00
 5.5728819E+00 6.3661057E-01 1.8849415E+00
 5.5125096E+00 6.5501186E-01 1.8884195E+00
 5.4515727E+00 6.7526969E-01 1.8892224E+00
 5.3905749E+00 6.9739468E-01 1.8869071E+00
 5.3301047E+00 7.2130700E-01 1.8811496E+00
 5.2708014E+00 7.4683635E-01 1.8717786E+00
 5.2133071E+00 7.7373390E-01 1.8587868E+00
 5.1582173E+00 8.0169296E-01 1.8423234E+00
 5.1060409E+00 8.3037404E-01 1.8226710E+00
 5.0571723E+00 8.5943077E-01 1.8002122E+00
 5.0118788E+00 8.8853503E-01 1.7753925E+00
 4.9703011E+00 9.1739615E-01 1.7486839E+00
 4.9324565E+00 9.4577372E-01 1.7205435E+00
 4.8982064E+00 9.7344014E-01 1.6913341E+00
 4.8671089E+00 9.9999987E-01 1.6611177E+00
 5.9534853E+00 5.8230609E-01 1.8437867E+00
 5.9028535E+00 5.9401860E-01 1.8539510E+00
 5.8506415E+00 6.0596199E-01 1.8637457E+00
 5.7966556E+00 6.1881598E-01 1.8732796E+00
 5.7409267E+00 6.3282713E-01 1.8823225E+00
 5.6835680E+00 6.4817029E-01 1.8905101E+00
 5.6247768E+00 6.6500619E-01 1.8973841E+00
 5.5648232E+00 6.8347594E-01 1.9024215E+00
 5.5040550E+00 7.0367882E-01 1.9050771E+00
 5.4429104E+00 7.2564904E-01 1.9048373E+00
 5.3819210E+00 7.4933870E-01 1.9012786E+00
 5.3216947E+00 7.7461150E-01 1.8941150E+00
 5.2628764E+00 8.0124865E-01 1.8832263E+00
 5.2060980E+00 8.2896581E-01 1.8686630E+00
 5.1519292E+00 8.5743676E-01 1.8506323E+00
 5.1008409E+00 8.8632004E-01 1.8294685E+00
 5.0531806E+00 9.1528622E-01 1.8055954E+00
 5.0091615E+00 9.4404316E-01 1.7794826E+00
 4.9688461E+00 9.7235455E-01 1.7515896E+00
 4.9320852E+00 9.9999986E-01 1.7222569E+00
 4.8982065E+00 1.0265596E+00 1.6913341E+00
 5.9523558E+00 6.1895232E-01 1.8610710E+00
 5.9006673E+00 6.3223683E-01 1.8712857E+00
 5.8474439E+00 6.4582176E-01 1.8810912E+00
 5.7925386E+00 6.6036928E-01 1.8905312E+00
 5.7359588E+00 6.7614070E-01 1.8993570E+00
 5.6778389E+00 6.9329204E-01 1.9071713E+00
 5.6183996E+00 7.1195696E-01 1.9134857E+00
 5.5579387E+00 7.3223752E-01 1.9177540E+00
 5.4968338E+00 7.5418383E-01 1.9194210E+00
 5.4355524E+00 7.7777429E-01 1.9179820E+00
 5.3746509E+00 8.0290382E-01 1.9130415E+00
 5.3147517E+00 8.2938355E-01 1.9043589E+00
 5.2564991E+00 8.5695275E-01 1.8918700E+00
 5.2005081E+00 8.8530006E-01 1.8756860E+00
 5.1473170E+00 9.1408999E-01 1.8560712E+00
 5.0973526E+00 9.4299196E-01 1.8334078E+00
 5.0509065E+00 9.7170880E-01 1.8081496E+00
 5.0081108E+00 9.9999986E-01 1.7807613E+00
 4.9688461E+00 1.0276452E+00 1.7515896E+00
 4.9324565E+00 1.0542260E+00 1.7205434E+00
 5.9513603E+00 6.5764062E-01 1.8772737E+00
 5.8987194E+00 6.7248616E-01 1.8873724E+00
 5.8446029E+00 6.8772329E-01 1.8970192E+00
 5.7888703E+00 7.0399739E-01 1.9062023E+00
 5.7315506E+00 7.2154249E-01 1.9146338E+00
 5.6727968E+00 7.4049326E-01 1.9218886E+00
 5.6128563E+00 7.6094837E-01 1.9274530E+00
 5.5520538E+00 7.8296572E-01 1.9307662E+00
 5.4907942E+00 8.0654277E-01 1.9312738E+00
 5.4295694E+00 8.3160136E-01 1.9284904E+00
 5.3689531E+00 8.5798171E-01 1.9220592E+00
 5.3095726E+00 8.8544861E-01 1.9117915E+00
 5.2520616E+00 9.1370866E-01 1.8976834E+00
 5.1970086E+00 9.4243546E-01 1.8799050E+00
 5.1449108E+00 9.7129960E-01 1.8587725E+00
 5.0961406E+00 9.9999986E-01 1.8347028E+00
 5.0509065E+00 1.0282909E+00 1.8081496E+00
 5.0091615E+00 1.0559566E+00 1.7794826E+00
 4.9703011E+00 1.0826036E+00 1.7486839E+00
 5.9504273E+00 6.9836800E-01 1.8921914E+00
 5.8969307E+00 7.1476858E-01 1.9020101E+00
 5.8420309E+00 7.3167495E-01 1.9113299E+00
 5.7856028E+00 7.4967659E-01 1.9200737E+00
 5.7276918E+00 7.6897867E-01 1.9279205E+00
 5.6684745E+00 7.8968309E-01 1.9344201E+00
 5.6082228E+00 8.1184933E-01 1.9390423E+00
 5.5472859E+00 8.3548634E-01 1.9412219E+00
 5.4860914E+00 8.6053708E-01 1.9404169E+00
 5.4251483E+00 8.8686812E-01 1.9361731E+00
 5.3650383E+00 9.1427026E-01 1.9281805E+00
 5.3063825E+00 9.4247074E-01 1.9163081E+00
 5.2497931E+00 9.7115569E-01 1.9006113E+00
 5.1958211E+00 9.9999986E-01 1.8813145E+00
 5.1449108E+00 1.0287001E+00 1.8587725E+00
 5.0973526E+00 1.0570078E+00 1.8334078E+00
 5.0531806E+00 1.0847135E+00 1.8055954E+00
 5.0118788E+00 1.1114647E+00 1.7753925E+00
 5.9495783E+00 7.4103140E-01 1.9055814E+00
 5.8953335E+00 7.5897684E-01 1.9149547E+00
 5.8397802E+00 7.7753957E-01 1.9237682E+00
 5.7828056E+00 7.9723945E-01 1.9318834E+00
 5.7244736E+00 8.1824245E-01 1.9389503E+00
 5.6649826E+00 8.4061409E-01 1.9445013E+00
 5.6046267E+00 8.6436926E-01 1.9479994E+00
 5.5437758E+00 8.8946597E-01 1.9488862E+00
 5.4828734E+00 9.1579304E-01 1.9466441E+00
 5.4224375E+00 9.4316610E-01 1.9408600E+00
 5.3630471E+00 9.7133453E-01 1.9312774E+00
 5.3053061E+00 9.9999986E-01 1.9178241E+00
 5.2497931E+00 1.0288440E+00 1.9006113E+00
 5.1970086E+00 1.0575643E+00 1.8799050E+00
 5.1473170E+00 1.0859097E+00 1.8560712E+00
 5.1008409E+00 1.1136797E+00 1.8294685E+00
 5.0571723E+00 1.1405690E+00 1.8002122E+00
 5.9488352E+00 7.8545928E-01 1.9171978E+00
 5.8939685E+00 8.0491457E-01 1.9259563E+00
 5.8379069E+00 8.2508815E-01 1.9340799E+00
 5.7805512E+00 8.4641799E-01 1.9413759E+00
 5.7219820E+00 8.6902528E-01 1.9474723E+00
 5.6624179E+00 8.9293425E-01 1.9518931E+00
 5.6021715E+00 9.1811338E-01 1.9541046E+00
 5.5416279E+00 9.4446951E-01 1.9535675E+00
 5.4812397E+00 9.7184104E-01 1.9497994E+00
 5.4215244E+00 9.9999986E-01 1.9424358E+00
 5.3630471E+00 1.0286652E+00 1.9312774E+00
 5.3063825E+00 1.0575290E+00 1.9163081E+00
 5.2520616E+00 1.0862911E+00 1.8976834E+00
 5.2005081E+00 1.1146997E+00 1.8756860E+00
 5.1519292E+00 1.1425630E+00 1.8506323E+00
 5.1060409E+00 1.1696257E+00 1.8226710E+00
 5.9482179E+00 8.3142489E-01 1.9268101E+00
 5.8928701E+00 8.5232147E-01 1.9347843E+00
 5.8364592E+00 8.7402239E-01 1.9420363E+00
 5.7788980E+00 8.9687320E-01 1.9483295E+00
 5.7202834E+00 9.2094536E-01 1.9532782E+00
 5.6608506E+00 9.4621984E-01 1.9564076E+00
 5.6009265E+00 9.7261836E-01 1.9571988E+00
 5.5409051E+00 9.9999987E-01 1.9551422E+00
 5.4812397E+00 1.0281587E+00 1.9497994E+00
 5.4224375E+00 1.0568336E+00 1.9408600E+00
 5.3650383E+00 1.0857295E+00 1.9281806E+00
 5.3095726E+00 1.1145511E+00 1.9117916E+00
 5.2564991E+00 1.1430470E+00 1.8918700E+00
 5.2060980E+00 1.1710339E+00 1.8686630E+00
 5.1582173E+00 1.1983068E+00 1.8423235E+00
 5.9477411E+00 8.7864840E-01 1.9342151E+00
 5.8920655E+00 9.0088219E-01 1.9412420E+00
 5.8354730E+00 9.2398845E-01 1.9474512E+00
 5.7778885E+00 9.4821101E-01 1.9525735E+00
 5.7194226E+00 9.7356901E-01 1.9562197E+00
 5.6603234E+00 9.9999987E-01 1.9579261E+00
 5.6009265E+00 1.0273814E+00 1.9571988E+00
 5.5416279E+00 1.0555302E+00 1.9535675E+00
 5.4828734E+00 1.0842067E+00 1.9466441E+00
 5.4251484E+00 1.1131316E+00 1.9361731E+00
 5.3689531E+00 1.1420180E+00 1.9220592E+00
 5.3147517E+00 1.1706162E+00 1.9043589E+00
 5.2628764E+00 1.1987511E+00 1.8832263E+00
 5.2133071E+00 1.2262658E+00 1.8587868E+00
 5.9474166E+00 9.2680536E-01 1.9392486E+00
 5.8915744E+00 9.5023818E-01 1.9451795E+00
 5.8349736E+00 9.7459099E-01 1.9501927E+00
 5.7775491E+00 9.9999986E-01 1.9540004E+00
 5.7194226E+00 1.0264307E+00 1.9562197E+00
 5.6608506E+00 1.0537799E+00 1.9564076E+00
 5.6021715E+00 1.0818864E+00 1.9541046E+00
 5.5437758E+00 1.1105338E+00 1.9488862E+00
 5.4860914E+00 1.1394626E+00 1.9404169E+00
 5.4295694E+00 1.1683984E+00 1.9284904E+00
 5.3746509E+00 1.1970959E+00 1.9130416E+00
 5.3216947E+00 1.2253882E+00 1.8941150E+00
 5.2708014E+00 1.2531634E+00 1.8717787E+00
 5.9472523E+00 9.7553702E-01 1.9417952E+00
 5.8914094E+00 9.9999985E-01 1.9465027E+00
 5.8349736E+00 1.0254087E+00 1.9501927E+00
 5.7778886E+00 1.0517887E+00 1.9525735E+00
 5.7202834E+00 1.0790544E+00 1.9532782E+00
 5.6624179E+00 1.1070655E+00 1.9518931E+00
 5.6046267E+00 1.1356305E+00 1.9479994E+00
 5.5472860E+00 1.1645134E+00 1.9412219E+00
 5.4907942E+00 1.1934570E+00 1.9312738E+00
 5.4355524E+00 1.2222254E+00 1.9179820E+00
 5.3819210E+00 1.2506610E+00 1.9012786E+00
 5.3301047E+00 1.2786927E+00 1.8811497E+00
 5.9472523E+00 1.0244627E+00 1.9417952E+00
 5.8915744E+00 1.0497615E+00 1.9451795E+00
 5.8354730E+00 1.0760113E+00 1.9474512E+00
 5.7788980E+00 1.1031265E+00 1.9483295E+00
 5.7219821E+00 1.1309745E+00 1.9474723E+00
 5.6649827E+00 1.1593856E+00 1.9445013E+00
 5.6082228E+00 1.1881504E+00 1.9390423E+00
 5.5520538E+00 1.2170340E+00 1.9307663E+00
 5.4968338E+00 1.2458159E+00 1.9194211E+00
 5.4429104E+00 1.2743507E+00 1.9048373E+00
 5.3905749E+00 1.3026051E+00 1.8869072E+00
 5.9474166E+00 1.0731943E+00 1.9392487E+00
 5.8920655E+00 1.0991175E+00 1.9412420E+00
 5.8364592E+00 1.1259773E+00 1.9420364E+00
 5.7805512E+00 1.1535817E+00 1.9413759E+00
 5.7244737E+00 1.1817573E+00 1.9389503E+00
 5.6684746E+00 1.2103167E+00 1.9344201E+00
 5.6128564E+00 1.2390514E+00 1.9274531E+00
 5.5579387E+00 1.2677622E+00 1.9177540E+00
 5.5040551E+00 1.2963209E+00 1.9050771E+00
 5.4515727E+00 1.3247301E+00 1.8892226E+00
 5.9477412E+00 1.1213513E+00 1.9342152E+00
 5.8928702E+00 1.1476782E+00 1.9347843E+00
 5.8379069E+00 1.1749116E+00 1.9340799E+00
 5.7828056E+00 1.2027603E+00 1.9318835E+00
 5.7276918E+00 1.2310211E+00 1.9279205E+00
 5.6727969E+00 1.2595065E+00 1.9218887E+00
 5.6183997E+00 1.2880428E+00 1.9134858E+00
 5.5648232E+00 1.3165238E+00 1.9024216E+00
 5.5125097E+00 1.3449879E+00 1.8884196E+00
 5.9482179E+00 1.1685748E+00 1.9268102E+00
 5.8939685E+00 1.1950852E+00 1.9259564E+00
 5.8397802E+00 1.2224602E+00 1.9237682E+00
 5.7856028E+00 1.2503232E+00 1.9200738E+00
 5.7315507E+00 1.2784573E+00 1.9146339E+00
 5.6778390E+00 1.3067077E+00 1.9071714E+00
 5.6247768E+00 1.3349936E+00 1.8973842E+00
 5.5728820E+00 1.3633892E+00 1.8849417E+00
 5.9488352E+00 1.2145405E+00 1.9171979E+00
 5.8953335E+00 1.2410229E+00 1.9149548E+00
 5.8420310E+00 1.2683248E+00 1.9113300E+00
 5.7888703E+00 1.2960024E+00 1.9062024E+00
 5.7359589E+00 1.3238591E+00 1.8993572E+00
 5.6835681E+00 1.3518295E+00 1.8905103E+00
 5.6322822E+00 1.3800228E+00 1.8793027E+00
 5.9495783E+00 1.2589684E+00 1.9055816E+00
 5.8969308E+00 1.2852312E+00 1.9020102E+00
 5.8446029E+00 1.3122765E+00 1.8970194E+00
 5.7925387E+00 1.3396305E+00 1.8905314E+00
 5.7409268E+00 1.3671727E+00 1.8823227E+00
 5.6903911E+00 1.3950335E+00 1.8720315E+00
 5.9504274E+00 1.3016318E+00 1.8921916E+00
 5.8987195E+00 1.3275137E+00 1.8873726E+00
 5.8474440E+00 1.3541781E+00 1.8810914E+00
 5.7966556E+00 1.3811839E+00 1.8732798E+00
 5.7469659E+00 1.4085975E+00 1.8636221E+00
 5.9513603E+00 1.3423592E+00 1.8772739E+00
 5.9006674E+00 1.3677630E+00 1.8712860E+00
 5.8506415E+00 1.3940379E+00 1.8637460E+00
 5.8018236E+00 1.4208973E+00 1.8545015E+00
 5.9523559E+00 1.3810476E+00 1.8610713E+00
 5.9028536E+00 1.4059813E+00 1.8539513E+00
 5.8548511E+00 1.4321104E+00 1.8450075E+00
 5.9534854E+00 1.4176939E+00 1.8437871E+00
 5.9059814E+00 1.4424587E+00 1.8353561E+00
 5.9551458E+00 1.4523873E+00 1.8255503E+00
 6.0029703E+00 1.4637571E+00 1.8146002E+00
 6.0028938E+00 1.4308473E+00 1.8325079E+00
 6.0028548E+00 1.3957249E+00 1.8497874E+00
 6.0028261E+00 1.3584079E+00 1.8662042E+00
 6.0028019E+00 1.3190097E+00 1.8814920E+00
 6.0027797E+00 1.2776496E+00 1.8953964E+00
 6.0027599E+00 1.2344757E+00 1.9076740E+00
 6.0027428E+00 1.1896849E+00 1.9180930E+00
 6.0027289E+00 1.1435281E+00 1.9264423E+00
 6.0027186E+00 1.0963011E+00 1.9325435E+00
 6.0027124E+00 1.0483380E+00 1.9362608E+00
 6.0027103E+00 9.9999983E-01 1.9375096E+00
 6.0027124E+00 9.5166166E-01 1.9362608E+00
 6.0027186E+00 9.0369862E-01 1.9325434E+00
 6.0027288E+00 8.5647163E-01 1.9264422E+00
 6.0027427E+00 8.1031484E-01 1.9180929E+00
 6.0027599E+00 7.6552402E-01 1.9076738E+00
 6.0027797E+00 7.2235015E-01 1.8953962E+00
 6.0028018E+00 6.8099015E-01 1.8814918E+00
 6.0028260E+00 6.4159198E-01 1.8662039E+00
 6.0028548E+00 6.0427498E-01 1.8497871E+00
 6.0028937E+00 5.6915271E-01 1.8325075E+00
 6.0029702E+00 5.3624292E-01 1.8145997E+00
 6.0461586E+00 5.1795092E-01 1.7996585E+00
 6.0935496E+00 5.2993316E-01 1.8020066E+00
 6.1432923E+00 5.4259197E-01 1.8042470E+00
 6.1950206E+00 5.5589665E-01 1.8063508E+00
 6.2485374E+00 5.6987492E-01 1.8082652E+00
 6.3036437E+00 5.8458179E-01 1.8099029E+00
 6.3601380E+00 6.0009743E-01 1.8111409E+00
 6.4177727E+00 6.1650773E-01 1.8118154E+00
 6.4762585E+00 6.3390187E-01 1.8117276E+00
 6.5352680E+00 6.5236271E-01 1.8106509E+00
 6.5944416E+00 6.7195824E-01 1.8083438E+00
 6.6533939E+00 6.9273180E-01 1.8045650E+00
 6.7117219E+00 7.1469363E-01 1.7990906E+00
 6.7690143E+00 7.3781467E-01 1.7917305E+00
 6.8248632E+00 7.6202331E-01 1.7823435E+00
 6.8788773E+00 7.8720614E-01 1.7708480E+00
 6.9306962E+00 8.1321225E-01 1.7572280E+00
 6.9800041E+00 8.3986127E-01 1.7415334E+00
 7.0265413E+00 8.6695348E-01 1.7238749E+00
 7.0701093E+00 8.9428119E-01 1.7044154E+00
 7.1105499E+00 9.2162300E-01 1.6833734E+00
 7.1477195E+00 9.4873813E-01 1.6610254E+00
 7.1814338E+00 9.7531397E-01 1.6377522E+00
 6.0506877E+00 1.4484533E+00 1.8185193E+00
 6.0996495E+00 1.4347795E+00 1.8210549E+00
 6.1504439E+00 1.4208772E+00 1.8232253E+00
 6.2029820E+00 1.4063820E+00 1.8251843E+00
 6.2571609E+00 1.3911723E+00 1.8269061E+00
 6.3128295E+00 1.3751836E+00 1.8282899E+00
 6.3697686E+00 1.3583479E+00 1.8291936E+00
 6.4277128E+00 1.3405908E+00 1.8294377E+00
 6.4863522E+00 1.3218403E+00 1.8288095E+00
 6.5453419E+00 1.3020346E+00 1.8270731E+00
 6.6043083E+00 1.2811327E+00 1.8239835E+00
 6.6628569E+00 1.2591218E+00 1.8193030E+00
 6.7205813E+00 1.2360249E+00 1.8128190E+00
 6.7770732E+00 1.2119047E+00 1.8043604E+00
 6.8319353E+00 1.1868636E+00 1.7938111E+00
 6.8847943E+00 1.1610409E+00 1.7811194E+00
 6.9353152E+00 1.1346052E+00 1.7663007E+00
 6.9832137E+00 1.1077424E+00 1.7494357E+00
 7.0282664E+00 1.0806413E+00 1.7306621E+00
 7.0703253E+00 1.0534828E+00 1.7101557E+00
 7.1093802E+00 1.0264655E+00 1.6880702E+00
 7.1457662E+00 9.9999987E-01 1.6643631E+00
 6.0522194E+00 1.4139124E+00 1.8363695E+00
 6.1026497E+00 1.3986761E+00 1.8388902E+00
 6.1545190E+00 1.3834777E+00 1.8408994E+00
 6.2080001E+00 1.3676921E+00 1.8426362E+00
 6.2630288E+00 1.3511638E+00 1.8440703E+00
 6.3194549E+00 1.3338201E+00 1.8450904E+00
 6.3770458E+00 1.3155992E+00 1.8455396E+00
 6.4355114E+00 1.2964395E+00 1.8452224E+00
 6.4945189E+00 1.2762864E+00 1.8439133E+00
 6.5537022E+00 1.2551012E+00 1.8413672E+00
 6.6126705E+00 1.2328706E+00 1.8373364E+00
 6.6710168E+00 1.2096135E+00 1.8315883E+00
 6.7283285E+00 1.1853861E+00 1.8239238E+00
 6.7841984E+00 1.1602835E+00 1.8141931E+00
 6.8382384E+00 1.1344372E+00 1.8023087E+00
 6.8900931E+00 1.1080083E+00 1.7882507E+00
 6.9394544E+00 1.0811758E+00 1.7720683E+00
 6.9860777E+00 1.0541185E+00 1.7538699E+00
 7.0298127E+00 1.0270000E+00 1.7337978E+00
 7.0707024E+00 9.9999987E-01 1.7119477E+00
 7.1093802E+00 9.7353424E-01 1.6880702E+00
 6.0532714E+00 1.3775129E+00 1.8533307E+00
 6.1047542E+00 1.3609923E+00 1.8555909E+00
 6.1576251E+00 1.3444852E+00 1.8573216E+00
 6.2120096E+00 1.3273823E+00 1.8587162E+00
 6.2678680E+00 1.3095045E+00 1.8597366E+00
 6.3250290E+00 1.2907864E+00 1.8602569E+00
 6.3832375E+00 1.2711754E+00 1.8601060E+00
 6.4421791E+00 1.2506251E+00 1.8590753E+00
 6.5014975E+00 1.2291014E+00 1.8569284E+00
 6.5608063E+00 1.2065912E+00 1.8534154E+00
 6.6196990E+00 1.1831108E+00 1.8482903E+00
 6.6777591E+00 1.1587111E+00 1.8413309E+00
 6.7345711E+00 1.1334805E+00 1.8323569E+00
 6.7897336E+00 1.1075438E+00 1.8212451E+00
 6.8428728E+00 1.0810556E+00 1.8079393E+00
 6.8936581E+00 1.0541894E+00 1.7924537E+00
 6.9418210E+00 1.0271188E+00 1.7748656E+00
 6.9871892E+00 9.9999987E-01 1.7552914E+00
 7.0298127E+00 9.7299976E-01 1.7337978E+00
 7.0703252E+00 9.4651695E-01 1.7101557E+00
 6.0542102E+00 1.3391186E+00 1.8692301E+00
 6.1066391E+00 1.3213683E+00 1.8710845E+00
 6.1603929E+00 1.3035803E+00 1.8723951E+00
 6.2155894E+00 1.2851590E+00 1.8733117E+00
 6.2721677E+00 1.2659444E+00 1.8737733E+00
 6.3299387E+00 1.2458779E+00 1.8736416E+00
 6.3886221E+00 1.2249216E+00 1.8727331E+00
 6.4478800E+00 1.2030475E+00 1.8708290E+00
 6.5073351E+00 1.1802449E+00 1.8676874E+00
 6.5665843E+00 1.1565287E+00 1.8630584E+00
 6.6252105E+00 1.1319456E+00 1.8567047E+00
 6.6827930E+00 1.1065779E+00 1.8484208E+00
 6.7389205E+00 1.0805434E+00 1.8380510E+00
 6.7932046E+00 1.0539903E+00 1.8255028E+00
 6.8452950E+00 1.0270863E+00 1.8107531E+00
 6.8948993E+00 9.9999986E-01 1.7938451E+00
 6.9418210E+00 9.7288098E-01 1.7748656E+00
 6.9860777E+00 9.4588124E-01 1.7538698E+00
 7.0282664E+00 9.1935841E-01 1.7306620E+00
 6.0550941E+00 1.2987249E+00 1.8838593E+00
 6.1083736E+00 1.2797893E+00 1.8851689E+00
 6.1629012E+00 1.2607388E+00 1.8859216E+00
 6.2187800E+00 1.2410293E+00 1.8862142E+00
 6.2759330E+00 1.2205187E+00 1.8859660E+00
 6.3341484E+00 1.1991646E+00 1.8850265E+00
 6.3931234E+00 1.1769454E+00 1.8832033E+00
 6.4524989E+00 1.1538546E+00 1.8802721E+00
 6.5118809E+00 1.1299074E+00 1.8759905E+00
 6.5708548E+00 1.1051475E+00 1.8701158E+00
 6.6289989E+00 1.0796518E+00 1.8624257E+00
 6.6858956E+00 1.0535311E+00 1.8527377E+00
 6.7411457E+00 1.0269267E+00 1.8409254E+00
 6.7943830E+00 9.9999986E-01 1.8269285E+00
 6.8452950E+00 9.7291344E-01 1.8107531E+00
 6.8936580E+00 9.4581030E-01 1.7924536E+00
 6.9394544E+00 9.1882393E-01 1.7720682E+00
 6.9832136E+00 8.9225735E-01 1.7494356E+00
 6.0558985E+00 1.2564320E+00 1.8969841E+00
 6.1099220E+00 1.2363566E+00 1.8976141E+00
 6.1650957E+00 1.2160884E+00 1.8976669E+00
 6.2215106E+00 1.1951465E+00 1.8971879E+00
 6.2790724E+00 1.1734153E+00 1.8960782E+00
 6.3375484E+00 1.1508692E+00 1.8941789E+00
 6.3966160E+00 1.1275067E+00 1.8912925E+00
 6.4558989E+00 1.1033446E+00 1.8871944E+00
 6.5149914E+00 1.0784250E+00 1.8816481E+00
 6.5734737E+00 1.0528199E+00 1.8744246E+00
 6.6309263E+00 1.0266336E+00 1.8653229E+00
 6.6869429E+00 9.9999986E-01 1.8541882E+00
 6.7411457E+00 9.7307306E-01 1.8409254E+00
 6.7932046E+00 9.4600945E-01 1.8255027E+00
 6.8428728E+00 9.1894416E-01 1.8079393E+00
 6.8900931E+00 8.9199147E-01 1.7882506E+00
 6.9353151E+00 8.6539456E-01 1.7663006E+00
 6.0566023E+00 1.2124099E+00 1.9083657E+00
 6.1112449E+00 1.1912614E+00 1.9081844E+00
 6.1669218E+00 1.1698478E+00 1.9073964E+00
 6.2237109E+00 1.1477623E+00 1.9060013E+00
 6.2815025E+00 1.1249191E+00 1.9038859E+00
 6.3400454E+00 1.1013128E+00 1.9008863E+00
 6.3990002E+00 1.0769627E+00 1.8968050E+00
 6.4579792E+00 1.0519101E+00 1.8914228E+00
 6.5165704E+00 1.0262232E+00 1.8845156E+00
 6.5743560E+00 9.9999985E-01 1.8758739E+00
 6.6309263E+00 9.7336615E-01 1.8653229E+00
 6.6858956E+00 9.4646863E-01 1.8527377E+00
 6.7389205E+00 9.1945631E-01 1.8380510E+00
 6.7897335E+00 8.9245598E-01 1.8212450E+00
 6.8382384E+00 8.6556259E-01 1.8023085E+00
 6.8847943E+00 8.3895884E-01 1.7811193E+00
 6.0571865E+00 1.1668814E+00 1.9177809E+00
 6.1123090E+00 1.1447549E+00 1.9166620E+00
 6.1683327E+00 1.1223000E+00 1.9148993E+00
 6.2253242E+00 1.0991931E+00 1.9124538E+00
 6.2831589E+00 1.0753813E+00 1.9092027E+00
 6.3415709E+00 1.0508805E+00 1.9049817E+00
 6.4002091E+00 1.0257318E+00 1.8995986E+00
 6.4586792E+00 9.9999984E-01 1.8928452E+00
 6.5165704E+00 9.7377647E-01 1.8845156E+00
 6.5734737E+00 9.4717983E-01 1.8744246E+00
 6.6289988E+00 9.2034796E-01 1.8624257E+00
 6.6827929E+00 8.9342181E-01 1.8484207E+00
 6.7345711E+00 8.6651924E-01 1.8323568E+00
 6.7841984E+00 8.3971630E-01 1.8141930E+00
 6.8319352E+00 8.1313619E-01 1.7938110E+00
 6.0576376E+00 1.1201215E+00 1.9250323E+00
 6.1130885E+00 1.0971413E+00 1.9228611E+00
 6.1692936E+00 1.0737800E+00 1.9200033E+00
 6.2263090E+00 1.0498054E+00 1.9163905E+00
 6.2839982E+00 1.0251996E+00 1.9118956E+00
 6.3420840E+00 9.9999983E-01 1.9063590E+00
 6.4002091E+00 9.7426792E-01 1.8995985E+00
 6.4579792E+00 9.4808955E-01 1.8914228E+00
 6.5149914E+00 9.2157469E-01 1.8816480E+00
 6.5708548E+00 8.9485219E-01 1.8701157E+00
 6.6252105E+00 8.6805411E-01 1.8567046E+00
 6.6777590E+00 8.4128869E-01 1.8413308E+00
 6.7283284E+00 8.1461368E-01 1.8239236E+00
 6.7770731E+00 7.8809510E-01 1.8043602E+00
 6.0579445E+00 1.0724481E+00 1.9299605E+00
 6.1135641E+00 1.0487650E+00 1.9266399E+00
 6.1697802E+00 1.0246607E+00 1.9225867E+00
 6.2266401E+00 9.9999982E-01 1.9177138E+00
 6.2839982E+00 9.7480006E-01 1.9118956E+00
 6.3415709E+00 9.4911917E-01 1.9049817E+00
 6.3990002E+00 9.2303698E-01 1.8968049E+00
 6.4558989E+00 8.9665505E-01 1.8871943E+00
 6.5118808E+00 8.7009230E-01 1.8759904E+00
 6.5665843E+00 8.4347100E-01 1.8630582E+00
 6.6196990E+00 8.1688899E-01 1.8482901E+00
 6.6710168E+00 7.9038628E-01 1.8315881E+00
 6.7205812E+00 7.6397486E-01 1.8128187E+00
 6.0581000E+00 1.0242125E+00 1.9324536E+00
 6.1137240E+00 9.9999982E-01 1.9279096E+00
 6.1697802E+00 9.7533891E-01 1.9225867E+00
 6.2263090E+00 9.5019421E-01 1.9163905E+00
 6.2831589E+00 9.2461836E-01 1.9092027E+00
 6.3400453E+00 8.9868685E-01 1.9008862E+00
 6.3966159E+00 8.7249299E-01 1.8912924E+00
 6.4524988E+00 8.4614512E-01 1.8802720E+00
 6.5073350E+00 8.1975480E-01 1.8676872E+00
 6.5608062E+00 7.9340856E-01 1.8534151E+00
 6.6126704E+00 7.6712917E-01 1.8373362E+00
 6.6628569E+00 7.4087802E-01 1.8193027E+00
 6.0580999E+00 9.7578715E-01 1.9324536E+00
 6.1135641E+00 9.5123466E-01 1.9266399E+00
 6.1692935E+00 9.2621961E-01 1.9200032E+00
 6.2253241E+00 9.0080659E-01 1.9124537E+00
 6.2815025E+00 8.7508054E-01 1.9038858E+00
 6.3375484E+00 8.4913046E-01 1.8941788E+00
 6.3931233E+00 8.2305434E-01 1.8832032E+00
 6.4478799E+00 7.9695226E-01 1.8708288E+00
 6.5014974E+00 7.7089843E-01 1.8569282E+00
 6.5537021E+00 7.4489858E-01 1.8413669E+00
 6.6043082E+00 7.1886715E-01 1.8239832E+00
 6.0579445E+00 9.2755158E-01 1.9299605E+00
 6.1130885E+00 9.0285836E-01 1.9228610E+00
 6.1683326E+00 8.7769966E-01 1.9148992E+00
 6.2237109E+00 8.5223734E-01 1.9060012E+00
 6.2790723E+00 8.2658445E-01 1.8960781E+00
 6.3341483E+00 8.0083509E-01 1.8850263E+00
 6.3886220E+00 7.7507817E-01 1.8727328E+00
 6.4421790E+00 7.4937469E-01 1.8590750E+00
 6.4945188E+00 7.2371346E-01 1.8439130E+00
 6.5453418E+00 6.9796521E-01 1.8270728E+00
 6.0576375E+00 8.7987819E-01 1.9250322E+00
 6.1123090E+00 8.5524474E-01 1.9166619E+00
 6.1669217E+00 8.3015193E-01 1.9073963E+00
 6.2215105E+00 8.0485322E-01 1.8971877E+00
 6.2759329E+00 7.7948102E-01 1.8859658E+00
 6.3299386E+00 7.5412189E-01 1.8736413E+00
 6.3832374E+00 7.2882438E-01 1.8601057E+00
 6.4355113E+00 7.0356030E-01 1.8452221E+00
 6.4863521E+00 6.7815962E-01 1.8288092E+00
 6.0571864E+00 8.3311831E-01 1.9177808E+00
 6.1112448E+00 8.0873833E-01 1.9081843E+00
 6.1650956E+00 7.8391137E-01 1.8976667E+00
 6.2187799E+00 7.5897047E-01 1.8862140E+00
 6.2721676E+00 7.3405544E-01 1.8737730E+00
 6.3250289E+00 7.0921339E-01 1.8602566E+00
 6.3770457E+00 6.8440065E-01 1.8455392E+00
 6.4277127E+00 6.5940904E-01 1.8294374E+00
 6.0566022E+00 7.8758986E-01 1.9083655E+00
 6.1099219E+00 7.6364313E-01 1.8976139E+00
 6.1629011E+00 7.3926093E-01 1.8859214E+00
 6.2155893E+00 7.1484079E-01 1.8733114E+00
 6.2678678E+00 6.9049534E-01 1.8597363E+00
 6.3194548E+00 6.6617979E-01 1.8450901E+00
 6.3697685E+00 6.4165197E-01 1.8291933E+00
 6.0558984E+00 7.4356781E-01 1.8969839E+00
 6.1083735E+00 7.2021054E-01 1.8851687E+00
 6.1603928E+00 6.9641952E-01 1.8723948E+00
 6.2120094E+00 6.7261754E-01 1.8587159E+00
 6.2630287E+00 6.4883614E-01 1.8440699E+00
 6.3128294E+00 6.2481634E-01 1.8282895E+00
 6.0550940E+00 7.0127490E-01 1.8838591E+00
 6.1066390E+00 6.7863156E-01 1.8710843E+00
 6.1576250E+00 6.5551473E-01 1.8573213E+00
 6.2080000E+00 6.3230783E-01 1.8426358E+00
 6.2571607E+00 6.0882771E-01 1.8269057E+00
 6.0542101E+00 6.6088127E-01 1.8692298E+00
 6.1047541E+00 6.3900761E-01 1.8555906E+00
 6.1545189E+00 6.1652219E-01 1.8408990E+00
 6.2029819E+00 5.9361802E-01 1.8251839E+00
 6.0532713E+00 6.2248699E-01 1.8533303E+00
 6.1026496E+00 6.0132390E-01 1.8388898E+00
 6.1504437E+00 5.7912275E-01 1.8232249E+00
 6.0522193E+00 5.8608761E-01 1.8363690E+00
 6.0996494E+00 5.6522048E-01 1.8210544E+00
 6.0506876E+00 5.5154669E-01 1.8185188E+00
 5.9762904E+00 1.5170517E+00 1.7845646E+00
 5.9467811E+00 1.5435075E+00 1.7694790E+00
 5.9159484E+00 1.5707843E+00 1.7525847E+00
 5.8839145E+00 1.5986594E+00 1.7337962E+00
 5.8508372E+00 1.6269312E+00 1.7130007E+00
 5.8168685E+00 1.6553904E+00 1.6900738E+00
 5.7821783E+00 1.6838081E+00 1.6648935E+00
 5.7469647E+00 1.7119136E+00 1.6373664E+00
 5.7114562E+00 1.7394016E+00 1.6074375E+00
 5.6759039E+00 1.7659413E+00 1.5751028E+00
 5.6405756E+00 1.7911910E+00 1.5404187E+00
 5.6057466E+00 1.8148150E+00 1.5035094E+00
 5.5716920E+00 1.8365028E+00 1.4645690E+00
 5.5386768E+00 1.8559866E+00 1.4238591E+00
 5.5069469E+00 1.8730574E+00 1.3816989E+00
 5.4767198E+00 1.8875753E+00 1.3384511E+00
 5.4481765E+00 1.8994742E+00 1.2945040E+00
 5.4214555E+00 1.9087611E+00 1.2502503E+00
 5.3966497E+00 1.9155090E+00 1.2060680E+00
 5.3738080E+00 1.9198457E+00 1.1623058E+00
 5.3529553E+00 1.9219422E+00 1.1192969E+00
 5.3341062E+00 1.9219987E+00 1.0773688E+00
 5.3173339E+00 1.9202579E+00 1.0370106E+00
 4.8319999E+00 1.0702503E+00 1.6188053E+00
 4.8268548E+00 1.1158127E+00 1.6058885E+00
 4.8234655E+00 1.1625677E+00 1.5909718E+00
 4.8223699E+00 1.2106455E+00 1.5742790E+00
 4.8238656E+00 1.2598949E+00 1.5557825E+00
 4.8281958E+00 1.3100438E+00 1.5354346E+00
 4.8355784E+00 1.3607487E+00 1.5132204E+00
 4.8461964E+00 1.4116083E+00 1.4891688E+00
 4.8601817E+00 1.4621742E+00 1.4633540E+00
 4.8776014E+00 1.5119647E+00 1.4358972E+00
 4.8984470E+00 1.5604820E+00 1.4069662E+00
 4.9226275E+00 1.6072312E+00 1.3767733E+00
 4.9499668E+00 1.6517418E+00 1.3455706E+00
 4.9802066E+00 1.6935892E+00 1.3136418E+00
 5.0130152E+00 1.7324142E+00 1.2812912E+00
 5.0480013E+00 1.7679394E+00 1.2488321E+00
 5.0847333E+00 1.7999802E+00 1.2165723E+00
 5.1227629E+00 1.8284508E+00 1.1848019E+00
 5.1616500E+00 1.8533626E+00 1.1537816E+00
 5.2009854E+00 1.8748153E+00 1.1237274E+00
 5.2403936E+00 1.8929818E+00 1.0947341E+00
 5.2794129E+00 1.9080648E+00 1.0665281E+00
 4.8616583E+00 1.0991890E+00 1.6479735E+00
 4.8580716E+00 1.1467057E+00 1.6350744E+00
 4.8562459E+00 1.1949338E+00 1.6199969E+00
 4.8568339E+00 1.2442676E+00 1.6030219E+00
 4.8601466E+00 1.2945975E+00 1.5841178E+00
 4.8664155E+00 1.3456336E+00 1.5632299E+00
 4.8758367E+00 1.3969939E+00 1.5403454E+00
 4.8885631E+00 1.4482335E+00 1.5155033E+00
 4.9046872E+00 1.4988642E+00 1.4887954E+00
 4.9242285E+00 1.5483734E+00 1.4603660E+00
 4.9471242E+00 1.5962441E+00 1.4304106E+00
 4.9732248E+00 1.6419774E+00 1.3991723E+00
 5.0022953E+00 1.6851157E+00 1.3669342E+00
 5.0340227E+00 1.7252642E+00 1.3340096E+00
 5.0680290E+00 1.7621101E+00 1.3007290E+00
 5.1038902E+00 1.7954358E+00 1.2674251E+00
 5.1411608E+00 1.8251273E+00 1.2344182E+00
 5.1794038E+00 1.8511760E+00 1.2019998E+00
 5.2182232E+00 1.8736759E+00 1.1704001E+00
 5.2572654E+00 1.8928107E+00 1.1396870E+00
 5.2961239E+00 1.9088328E+00 1.1093302E+00
 4.8949223E+00 1.1283727E+00 1.6767553E+00
 4.8929064E+00 1.1773275E+00 1.6636818E+00
 4.8927520E+00 1.2268633E+00 1.6483349E+00
 4.8951341E+00 1.2773361E+00 1.6309565E+00
 4.9003634E+00 1.3286230E+00 1.6115058E+00
 4.9086526E+00 1.3803951E+00 1.5899275E+00
 4.9201706E+00 1.4322262E+00 1.5662174E+00
 4.9350329E+00 1.4836289E+00 1.5404310E+00
 4.9532865E+00 1.5340797E+00 1.5126833E+00
 4.9748970E+00 1.5830416E+00 1.4831477E+00
 4.9997430E+00 1.6299885E+00 1.4520530E+00
 5.0276149E+00 1.6744294E+00 1.4196774E+00
 5.0582205E+00 1.7159329E+00 1.3863383E+00
 5.0911976E+00 1.7541481E+00 1.3523799E+00
 5.1261314E+00 1.7888211E+00 1.3181573E+00
 5.1625809E+00 1.8198061E+00 1.2840197E+00
 5.2001098E+00 1.8470696E+00 1.2502902E+00
 5.2383216E+00 1.8706892E+00 1.2172324E+00
 5.2768687E+00 1.8908501E+00 1.1849253E+00
 5.3153288E+00 1.9078273E+00 1.1528767E+00
 4.9319036E+00 1.1580730E+00 1.7046798E+00
 4.9315588E+00 1.2082265E+00 1.6912763E+00
 4.9332074E+00 1.2588595E+00 1.6755260E+00
 4.9375139E+00 1.3102645E+00 1.6576134E+00
 4.9447659E+00 1.3622683E+00 1.6374820E+00
 4.9551485E+00 1.4144993E+00 1.6150812E+00
 4.9687940E+00 1.4664882E+00 1.5904212E+00
 4.9857728E+00 1.5177107E+00 1.5635802E+00
 5.0060786E+00 1.5676171E+00 1.5347024E+00
 5.0296191E+00 1.6156587E+00 1.5039956E+00
 5.0562125E+00 1.6613150E+00 1.4717258E+00
 5.0855917E+00 1.7041194E+00 1.4382082E+00
 5.1174143E+00 1.7436832E+00 1.4037947E+00
 5.1512809E+00 1.7797149E+00 1.3688575E+00
 5.1867591E+00 1.8120332E+00 1.3337710E+00
 5.2234171E+00 1.8405748E+00 1.2988899E+00
 5.2608612E+00 1.8653959E+00 1.2645113E+00
 5.2987461E+00 1.8866715E+00 1.2307607E+00
 5.3366504E+00 1.9046943E+00 1.1972239E+00
 4.9727151E+00 1.1881450E+00 1.7313368E+00
 4.9741591E+00 1.2392795E+00 1.7174550E+00
 4.9777401E+00 1.2907772E+00 1.7011640E+00