# TIME = 2.600000
variables = x, y, z
zone N=5762 E=11520 F=FEPOINT ET=TRIANGLE
 6.1227260E+00 1.4924702E+00 1.7967310E+00
 6.1227261E+00 1.4924707E+00 2.0326939E-01
 6.1227259E+00 5.0752996E-01 1.7967304E+00
 6.1227263E+00 5.0752880E-01 2.0326908E-01
 4.9336305E+00 9.9999988E-01 1.6010184E+00
 7.3305981E+00 9.9999988E-01 1.6151380E+00
 4.9336331E+00 9.9999988E-01 3.9898528E-01
 7.3305990E+00 9.9999988E-01 3.8486230E-01
 5.4226840E+00 1.9176052E+00 1.0000006E+00
 5.4226840E+00 8.2394312E-02 1.0000007E+00
 6.8087020E+00 1.8529368E+00 1.0000007E+00
 6.8087019E+00 1.4706321E-01 1.0000007E+00
 6.0794630E+00 1.4855092E+00 1.8053644E+00
 6.0317934E+00 1.4775085E+00 1.8146669E+00
 5.9816529E+00 1.4687483E+00 1.8241656E+00
 5.9293802E+00 1.4591349E+00 1.8336550E+00
 5.8751453E+00 1.4485255E+00 1.8428894E+00
 5.8191193E+00 1.4367387E+00 1.8515476E+00
 5.7614708E+00 1.4235647E+00 1.8592338E+00
 5.7024216E+00 1.4087923E+00 1.8654769E+00
 5.6422602E+00 1.3922295E+00 1.8697611E+00
 5.5813603E+00 1.3737314E+00 1.8715692E+00
 5.5201930E+00 1.3532264E+00 1.8704367E+00
 5.4593245E+00 1.3307343E+00 1.8660022E+00
 5.3993870E+00 1.3063734E+00 1.8580451E+00
 5.3410337E+00 1.2803526E+00 1.8465038E+00
 5.2848876E+00 1.2529553E+00 1.8314738E+00
 5.2314966E+00 1.2245142E+00 1.8131896E+00
 5.1813019E+00 1.1953859E+00 1.7919956E+00
 5.1346196E+00 1.1659253E+00 1.7683104E+00
 5.0916379E+00 1.1364647E+00 1.7425913E+00
 5.0524273E+00 1.1073010E+00 1.7153025E+00
 5.0169789E+00 1.0787049E+00 1.6869110E+00
 4.9852370E+00 1.0509356E+00 1.6578820E+00
 4.9571504E+00 1.0242925E+00 1.6287249E+00
 6.0746685E+00 5.4795571E-01 1.8250642E+00
 6.0253998E+00 5.5788727E-01 1.8349696E+00
 5.9741778E+00 5.6820490E-01 1.8447146E+00
 5.9210779E+00 5.7937077E-01 1.8543038E+00
 5.8661729E+00 5.9162101E-01 1.8635254E+00
 5.8095809E+00 6.0513670E-01 1.8720394E+00
 5.7514853E+00 6.2010156E-01 1.8794153E+00
 5.6921264E+00 6.3669229E-01 1.8851554E+00
 5.6318176E+00 6.5505432E-01 1.8887278E+00
 5.5709579E+00 6.7527682E-01 1.8896164E+00
 5.5100424E+00 6.9737082E-01 1.8873758E+00
 5.4496526E+00 7.2125687E-01 1.8816811E+00
 5.3904227E+00 7.4676498E-01 1.8723600E+00
 5.3329921E+00 7.7364657E-01 1.8594051E+00
 5.2779550E+00 8.0159521E-01 1.8429657E+00
 5.2258197E+00 8.3027184E-01 1.8233247E+00
 5.1769809E+00 8.5933102E-01 1.8008650E+00
 5.1317059E+00 8.8844625E-01 1.7760323E+00
 5.0901362E+00 9.1732879E-01 1.7492983E+00
 5.0522882E+00 9.4573638E-01 1.7211176E+00
 5.0180156E+00 9.7343057E-01 1.6918425E+00
 4.9868646E+00 9.9999988E-01 1.6615185E+00
 6.0729321E+00 5.8267730E-01 1.8433207E+00
 6.0221415E+00 5.9443572E-01 1.8536089E+00
 5.9698194E+00 6.0636533E-01 1.8635054E+00
 5.9157661E+00 6.1917917E-01 1.8731357E+00
 5.8600111E+00 6.3314522E-01 1.8822776E+00
 5.8026645E+00 6.4844438E-01 1.8905670E+00
 5.7439205E+00 6.6523799E-01 1.8975422E+00
 5.6840442E+00 6.8366700E-01 1.9026777E+00
 5.6233756E+00 7.0383045E-01 1.9054259E+00
 5.5623428E+00 7.2576250E-01 1.9052718E+00
 5.5014675E+00 7.4941555E-01 1.9017907E+00
 5.4413496E+00 7.7465386E-01 1.8946954E+00
 5.3826286E+00 8.0125939E-01 1.8838650E+00
 5.3259328E+00 8.2894875E-01 1.8693495E+00
 5.2718305E+00 8.5739695E-01 1.8513554E+00
 5.2207917E+00 8.8626444E-01 1.8302165E+00
 5.1731637E+00 9.1522483E-01 1.8063556E+00
 5.1291582E+00 9.4399032E-01 1.7802398E+00
 5.0888320E+00 9.7232591E-01 1.7523207E+00
 5.0520167E+00 9.9999988E-01 1.7229163E+00
 5.0180156E+00 1.0265692E+00 1.6918425E+00
 6.0717748E+00 6.1933500E-01 1.8606078E+00
 6.0199093E+00 6.3268490E-01 1.8709526E+00
 5.9665678E+00 6.4626518E-01 1.8808634E+00
 5.9116002E+00 6.6077666E-01 1.8904011E+00
 5.8550071E+00 6.7650607E-01 1.8993263E+00
 5.7969173E+00 6.9361589E-01 1.9072418E+00
 5.7375458E+00 7.1224039E-01 1.9136569E+00
 5.6771833E+00 7.3248102E-01 1.9180231E+00
 5.6161982E+00 7.5438745E-01 1.9197836E+00
 5.5550466E+00 7.7793795E-01 1.9184323E+00
 5.4942740E+00 8.0302790E-01 1.9135730E+00
 5.4344945E+00 8.2946927E-01 1.9049638E+00
 5.3763467E+00 8.5700259E-01 1.8925395E+00
 5.3204422E+00 8.8531815E-01 1.8764101E+00
 5.2673174E+00 9.1408291E-01 1.8568388E+00
 5.2173978E+00 9.4297019E-01 1.8342058E+00
 5.1709727E+00 9.7168837E-01 1.8089611E+00
 5.1281655E+00 9.9999987E-01 1.7815594E+00
 5.0888320E+00 1.0276738E+00 1.7523207E+00
 5.0522882E+00 1.0542634E+00 1.7211176E+00
 6.0707707E+00 6.5801640E-01 1.8768018E+00
 6.0179485E+00 6.7292929E-01 1.8870276E+00
 5.9637118E+00 6.8816332E-01 1.8967800E+00
 5.9079205E+00 7.0440302E-01 1.9060622E+00
 5.8505959E+00 7.2190750E-01 1.9145942E+00
 5.7918832E+00 7.4081782E-01 1.9219511E+00
 5.7320228E+00 7.6123297E-01 1.9276171E+00
 5.6713307E+00 7.8321024E-01 1.9310294E+00
 5.6102011E+00 8.0674667E-01 1.9316323E+00
 5.5491138E+00 8.3176429E-01 1.9289395E+00
 5.4886311E+00 8.5810407E-01 1.9225930E+00
 5.4293718E+00 8.8553210E-01 1.9124030E+00
 5.3719641E+00 9.1375686E-01 1.8983637E+00
 5.3169929E+00 9.4245474E-01 1.8806437E+00
 5.2649529E+00 9.7130069E-01 1.8595565E+00
 5.2162132E+00 9.9999987E-01 1.8355147E+00
 5.1709727E+00 1.0283114E+00 1.8089611E+00
 5.1291582E+00 1.0560094E+00 1.7802399E+00
 5.0901362E+00 1.0826710E+00 1.7492984E+00
 6.0698319E+00 6.9872264E-01 1.8917053E+00
 6.0161511E+00 7.1518325E-01 1.9016451E+00
 5.9611305E+00 7.3208312E-01 1.9110695E+00
 5.9046467E+00 7.5004954E-01 1.9199135E+00
 5.8467369E+00 7.6931071E-01 1.9278623E+00
 5.7875689E+00 7.8997414E-01 1.9344653E+00
 5.7274057E+00 8.1209956E-01 1.9391905E+00
 5.6665870E+00 8.3569543E-01 1.9414710E+00
 5.6055281E+00 8.6070461E-01 1.9407640E+00
 5.5447255E+00 8.8699426E-01 1.9366140E+00
 5.4847492E+00 9.1435640E-01 1.9287098E+00
 5.4262119E+00 9.4252024E-01 1.9169186E+00
 5.3697201E+00 9.7117490E-01 1.9012938E+00
 5.3158205E+00 9.9999987E-01 1.8820566E+00
 5.2649529E+00 1.0286991E+00 1.8595566E+00
 5.2173978E+00 1.0570296E+00 1.8342058E+00
 5.1731637E+00 1.0847749E+00 1.8063557E+00
 5.1317058E+00 1.1115535E+00 1.7760324E+00
 6.0689751E+00 7.4135276E-01 1.9050784E+00
 6.0145435E+00 7.5934569E-01 1.9145666E+00
 5.9588690E+00 7.7789622E-01 1.9234837E+00
 5.9018416E+00 7.9755871E-01 1.9317007E+00
 5.8435162E+00 8.1851952E-01 1.9388713E+00
 5.7840809E+00 8.4084886E-01 1.9445276E+00
 5.7238198E+00 8.6456186E-01 1.9481306E+00
 5.6630919E+00 8.8961633E-01 1.9491209E+00
 5.6023279E+00 9.1590147E-01 1.9469799E+00
 5.5420326E+00 9.4323400E-01 1.9412931E+00
 5.4827732E+00 9.7136525E-01 1.9318026E+00
 5.4251449E+00 9.9999987E-01 1.9184336E+00
 5.3697200E+00 1.0288248E+00 1.9012938E+00
 5.3169929E+00 1.0575450E+00 1.8806438E+00
 5.2673174E+00 1.0859168E+00 1.8568389E+00
 5.2207917E+00 1.1137353E+00 1.8302166E+00
 5.1769809E+00 1.1406687E+00 1.8008651E+00
 6.0682240E+00 7.8573704E-01 1.9166775E+00
 6.0131679E+00 8.0522489E-01 1.9255456E+00
 5.9569851E+00 8.2537932E-01 1.9337726E+00
 5.8995792E+00 8.4666915E-01 1.9411722E+00
 5.8410211E+00 8.6923272E-01 1.9473748E+00
 5.7815175E+00 8.9309810E-01 1.9519032E+00
 5.7213703E+00 9.1823409E-01 1.9542225E+00
 5.6609523E+00 9.4454776E-01 1.9537921E+00
 5.6007026E+00 9.7187843E-01 1.9501285E+00
 5.5411251E+00 9.9999988E-01 1.9428660E+00
 5.4827732E+00 1.0286345E+00 1.9318026E+00
 5.4262119E+00 1.0574795E+00 1.9169187E+00
 5.3719641E+00 1.0862429E+00 1.8983638E+00
 5.3204422E+00 1.1146816E+00 1.8764102E+00
 5.2718304E+00 1.1426028E+00 1.8513555E+00
 5.2258197E+00 1.1697279E+00 1.8233248E+00
 6.0675993E+00 8.3165041E-01 1.9262737E+00
 6.0120602E+00 8.5256320E-01 1.9343537E+00
 5.9555283E+00 8.7423774E-01 1.9417099E+00
 5.8979195E+00 8.9704614E-01 1.9481092E+00
 5.8393195E+00 9.2107353E-01 1.9531669E+00
 5.7799507E+00 9.4630388E-01 1.9564071E+00
 5.7201279E+00 9.7265942E-01 1.9573094E+00
 5.6602321E+00 9.9999988E-01 1.9553631E+00
 5.6007026E+00 1.0281213E+00 1.9501285E+00
 5.5420326E+00 1.0567657E+00 1.9412932E+00
 5.4847492E+00 1.0856433E+00 1.9287099E+00
 5.4293718E+00 1.1144677E+00 1.9124031E+00
 5.3763467E+00 1.1429972E+00 1.8925396E+00
 5.3259327E+00 1.1710510E+00 1.8693496E+00
 5.2779549E+00 1.1984046E+00 1.8429659E+00
 6.0671166E+00 8.7881476E-01 1.9336653E+00
 6.0112485E+00 9.0104774E-01 1.9407959E+00
 5.9545359E+00 9.2412065E-01 1.9471110E+00
 5.8969060E+00 9.4829913E-01 1.9523425E+00
 5.8384572E+00 9.7361235E-01 1.9561012E+00
 5.7794236E+00 9.9999988E-01 1.9579219E+00
 5.7201279E+00 1.0273403E+00 1.9573095E+00
 5.6609523E+00 1.0554520E+00 1.9537921E+00
 5.6023279E+00 1.0840983E+00 1.9469799E+00
 5.5447255E+00 1.1130055E+00 1.9366140E+00
 5.4886311E+00 1.1418957E+00 1.9225931E+00
 5.4344945E+00 1.1705305E+00 1.9049639E+00
 5.3826285E+00 1.1987404E+00 1.8838652E+00
 5.3329920E+00 1.2263532E+00 1.8594053E+00
 6.0667880E+00 9.2690734E-01 1.9386891E+00
 6.0107531E+00 9.5032231E-01 1.9447236E+00
 5.9540332E+00 9.7463557E-01 1.9498453E+00
 5.8965652E+00 9.9999987E-01 1.9537658E+00
 5.8384572E+00 1.0263874E+00 1.9561012E+00
 5.7799507E+00 1.0536959E+00 1.9564072E+00
 5.7213703E+00 1.0817657E+00 1.9542225E+00
 5.6630919E+00 1.1103834E+00 1.9491210E+00
 5.6055281E+00 1.1392952E+00 1.9407641E+00
 5.5491138E+00 1.1682355E+00 1.9289396E+00
 5.4942740E+00 1.1969719E+00 1.9135732E+00
 5.4413495E+00 1.2253459E+00 1.8946956E+00
 5.3904226E+00 1.2532348E+00 1.8723602E+00
 6.0666216E+00 9.7557139E-01 1.9412307E+00
 6.0105866E+00 9.9999986E-01 1.9460435E+00
 5.9540332E+00 1.0253642E+00 1.9498453E+00
 5.8969060E+00 1.0517006E+00 1.9523426E+00
 5.8393196E+00 1.0789262E+00 1.9531670E+00
 5.7815176E+00 1.1069017E+00 1.9519033E+00
 5.7238198E+00 1.1354379E+00 1.9481307E+00
 5.6665870E+00 1.1643043E+00 1.9414711E+00
 5.6102011E+00 1.1932531E+00 1.9316324E+00
 5.5550466E+00 1.2220618E+00 1.9184325E+00
 5.5014675E+00 1.2505843E+00 1.9017909E+00
 5.4496525E+00 1.2787429E+00 1.8816814E+00
 6.0666216E+00 1.0244283E+00 1.9412307E+00
 6.0107531E+00 1.0496774E+00 1.9447237E+00
 5.9545359E+00 1.0758791E+00 1.9471110E+00
 5.8979196E+00 1.1029536E+00 1.9481092E+00
 5.8410211E+00 1.1307670E+00 1.9473748E+00
 5.7840809E+00 1.1591509E+00 1.9445277E+00
 5.7274057E+00 1.1879002E+00 1.9391906E+00
 5.6713307E+00 1.2167896E+00 1.9310295E+00
 5.6161982E+00 1.2456124E+00 1.9197838E+00
 5.5623428E+00 1.2742373E+00 1.9052721E+00
 5.5100424E+00 1.3026290E+00 1.8873761E+00
 6.0667880E+00 1.0730924E+00 1.9386892E+00
 6.0112485E+00 1.0989520E+00 1.9407960E+00
 5.9555284E+00 1.1257620E+00 1.9417100E+00
 5.8995793E+00 1.1533306E+00 1.9411723E+00
 5.8435162E+00 1.1814803E+00 1.9388714E+00
 5.7875689E+00 1.2100257E+00 1.9344655E+00
 5.7320228E+00 1.2387668E+00 1.9276173E+00
 5.6771833E+00 1.2675188E+00 1.9180233E+00
 5.6233756E+00 1.2961694E+00 1.9054262E+00
 5.5709579E+00 1.3247230E+00 1.8896166E+00
 6.0671166E+00 1.1211850E+00 1.9336653E+00
 6.0120603E+00 1.1474365E+00 1.9343538E+00
 5.9569851E+00 1.1746204E+00 1.9337727E+00
 5.9018416E+00 1.2024411E+00 1.9317008E+00
 5.8467369E+00 1.2306891E+00 1.9278625E+00
 5.7918833E+00 1.2591820E+00 1.9219513E+00
 5.7375458E+00 1.2877594E+00 1.9136571E+00
 5.6840442E+00 1.3163328E+00 1.9026780E+00
 5.6318176E+00 1.3449456E+00 1.8887281E+00
 6.0675993E+00 1.1683493E+00 1.9262738E+00
 6.0131680E+00 1.1947749E+00 1.9255457E+00
 5.9588690E+00 1.2221036E+00 1.9234839E+00
 5.9046467E+00 1.2499503E+00 1.9199137E+00
 5.8505959E+00 1.2780923E+00 1.9145944E+00
 5.7969173E+00 1.3063839E+00 1.9072421E+00
 5.7439206E+00 1.3347619E+00 1.8975425E+00
 5.6921265E+00 1.3633076E+00 1.8851557E+00
 6.0682240E+00 1.2142627E+00 1.9166776E+00
 6.0145436E+00 1.2406541E+00 1.9145668E+00
 5.9611305E+00 1.2679167E+00 1.9110696E+00
 5.9079205E+00 1.2955968E+00 1.9060624E+00
 5.8550072E+00 1.3234938E+00 1.8993265E+00
 5.8026646E+00 1.3515555E+00 1.8905673E+00
 5.7514854E+00 1.3798983E+00 1.8794156E+00
 6.0689752E+00 1.2586470E+00 1.9050786E+00
 6.0161512E+00 1.2848166E+00 1.9016453E+00
 5.9637119E+00 1.3118365E+00 1.8967802E+00
 5.9116002E+00 1.3392232E+00 1.8904014E+00
 5.8600112E+00 1.3668547E+00 1.8822780E+00
 5.8095810E+00 1.3948632E+00 1.8720397E+00
 6.0698319E+00 1.3012772E+00 1.8917056E+00
 6.0179486E+00 1.3270706E+00 1.8870279E+00
 5.9665678E+00 1.3537347E+00 1.8808637E+00
 5.9157662E+00 1.3808208E+00 1.8731360E+00
 5.8661730E+00 1.4083789E+00 1.8635258E+00
 6.0707707E+00 1.3419835E+00 1.8768021E+00
 6.0199094E+00 1.3673150E+00 1.8709529E+00
 5.9698194E+00 1.3936346E+00 1.8635057E+00
 5.9210780E+00 1.4206292E+00 1.8543042E+00
 6.0717749E+00 1.3806649E+00 1.8606082E+00
 6.0221416E+00 1.4055642E+00 1.8536093E+00
 5.9741779E+00 1.4317951E+00 1.8447151E+00
 6.0729321E+00 1.4173227E+00 1.8433212E+00
 6.0253999E+00 1.4421128E+00 1.8349700E+00
 6.0746685E+00 1.4520444E+00 1.8250647E+00
 6.1226273E+00 1.4634256E+00 1.8140200E+00
 6.1225369E+00 1.4305273E+00 1.8319224E+00
 6.1224879E+00 1.3954120E+00 1.8491986E+00
 6.1224524E+00 1.3581063E+00 1.8656091E+00
 6.1224230E+00 1.3187220E+00 1.8808895E+00
 6.1223964E+00 1.2773841E+00 1.8947837E+00
 6.1223727E+00 1.2342402E+00 1.9070498E+00
 6.1223521E+00 1.1894868E+00 1.9174573E+00
 6.1223355E+00 1.1433737E+00 1.9257961E+00
 6.1223233E+00 1.0961952E+00 1.9318890E+00
 6.1223158E+00 1.0482842E+00 1.9356010E+00
 6.1223133E+00 9.9999984E-01 1.9368479E+00
 6.1223158E+00 9.5171550E-01 1.9356010E+00
 6.1223233E+00 9.0380449E-01 1.9318889E+00
 6.1223355E+00 8.5662607E-01 1.9257960E+00
 6.1223521E+00 8.1051292E-01 1.9174571E+00
 6.1223726E+00 7.6575957E-01 1.9070496E+00
 6.1223963E+00 7.2261574E-01 1.8947835E+00
 6.1224229E+00 6.8127784E-01 1.8808892E+00
 6.1224523E+00 6.4189359E-01 1.8656088E+00
 6.1224878E+00 6.0458799E-01 1.8491982E+00
 6.1225368E+00 5.6947278E-01 1.8319220E+00
 6.1226272E+00 5.3657451E-01 1.8140195E+00
 6.1658708E+00 5.1832631E-01 1.7990419E+00
 6.2133133E+00 5.3032975E-01 1.8013486E+00
 6.2631150E+00 5.4300030E-01 1.8035538E+00
 6.3149098E+00 5.5631137E-01 1.8056328E+00
 6.3684896E+00 5.7028782E-01 1.8075338E+00
 6.4236461E+00 5.8498388E-01 1.8091703E+00
 6.4801748E+00 6.0047973E-01 1.8104196E+00
 6.5378284E+00 6.1686233E-01 1.8111176E+00
 6.5963190E+00 6.3422205E-01 1.8110652E+00
 6.6553211E+00 6.5264301E-01 1.8100350E+00
 6.7144784E+00 6.7219452E-01 1.8077846E+00
 6.7734089E+00 6.9292137E-01 1.8040716E+00
 6.8317134E+00 7.1483537E-01 1.7986707E+00
 6.8889843E+00 7.3790917E-01 1.7913902E+00
 6.9448174E+00 7.6207298E-01 1.7820871E+00
 6.9988246E+00 7.8721535E-01 1.7706776E+00
 7.0506481E+00 8.1318742E-01 1.7571429E+00
 7.0999740E+00 8.3981101E-01 1.7415299E+00
 7.1465434E+00 8.6688858E-01 1.7239464E+00
 7.1901565E+00 8.9421370E-01 1.7045524E+00
 7.2306476E+00 9.2156325E-01 1.6835672E+00
 7.2678674E+00 9.4869548E-01 1.6612679E+00
 7.3016260E+00 9.7529189E-01 1.6380380E+00
 6.1704678E+00 1.4480361E+00 1.8179129E+00
 6.2195245E+00 1.4342937E+00 1.8204269E+00
 6.2704014E+00 1.4203644E+00 1.8225670E+00
 6.3230063E+00 1.4058669E+00 1.8244987E+00
 6.3772327E+00 1.3906657E+00 1.8262053E+00
 6.4329278E+00 1.3746938E+00 1.8275875E+00
 6.4898736E+00 1.3578824E+00 1.8285036E+00
 6.5478068E+00 1.3401569E+00 1.8287732E+00
 6.6064200E+00 1.3214446E+00 1.8281831E+00
 6.6653713E+00 1.3016830E+00 1.8264966E+00
 6.7242911E+00 1.2808297E+00 1.8234680E+00
 6.7827893E+00 1.2588708E+00 1.8188587E+00
 6.8404636E+00 1.2358276E+00 1.8124547E+00
 6.8969105E+00 1.2117608E+00 1.8040835E+00
 6.9517364E+00 1.1867710E+00 1.7936271E+00
 7.0045718E+00 1.1609949E+00 1.7810310E+00
 7.0550840E+00 1.1345980E+00 1.7663079E+00
 7.1029912E+00 1.1077621E+00 1.7495351E+00
 7.1480709E+00 1.0806719E+00 1.7308464E+00
 7.1901771E+00 1.0535070E+00 1.7104117E+00
 7.2293093E+00 1.0264750E+00 1.6883726E+00
 7.2658194E+00 9.9999988E-01 1.6646692E+00
 6.1720508E+00 1.4134637E+00 1.8357674E+00
 6.2226335E+00 1.3981160E+00 1.8382765E+00
 6.2746070E+00 1.3828794E+00 1.8402559E+00
 6.3281524E+00 1.3670931E+00 1.8419639E+00
 6.3832106E+00 1.3505790E+00 1.8433814E+00
 6.4396377E+00 1.3332580E+00 1.8443999E+00
 6.4972058E+00 1.3150675E+00 1.8448620E+00
 6.5556286E+00 1.2959459E+00 1.8445721E+00
 6.6145773E+00 1.2758377E+00 1.8433037E+00
 6.6736900E+00 1.2547039E+00 1.8408115E+00
 6.7325806E+00 1.2325297E+00 1.8368471E+00
 6.7908475E+00 1.2093328E+00 1.8311770E+00
 6.8480832E+00 1.1851675E+00 1.8236010E+00
 6.9038856E+00 1.1601267E+00 1.8139676E+00
 6.9578711E+00 1.1343393E+00 1.8021870E+00
 7.0096883E+00 1.1079627E+00 1.7882365E+00
 7.0590328E+00 1.0811706E+00 1.7721612E+00
 7.1056643E+00 1.0541351E+00 1.7540641E+00
 7.1494420E+00 1.0270153E+00 1.7340773E+00
 7.1904342E+00 9.9999988E-01 1.7122739E+00
 7.2293093E+00 9.7352481E-01 1.6883726E+00
 6.1731122E+00 1.3770554E+00 1.8527233E+00
 6.2247670E+00 1.3604077E+00 1.8549702E+00
 6.2777517E+00 1.3438589E+00 1.8566689E+00
 6.3321974E+00 1.3267587E+00 1.8580333E+00
 6.3880752E+00 1.3089001E+00 1.8590368E+00
 6.4452226E+00 1.2902104E+00 1.8595559E+00
 6.5033916E+00 1.2706355E+00 1.8594194E+00
 6.5622730E+00 1.2501289E+00 1.8584182E+00
 6.6215153E+00 1.2286557E+00 1.8563154E+00
 6.6807372E+00 1.2062022E+00 1.8528606E+00
 6.7395377E+00 1.1827832E+00 1.8478072E+00
 6.7975062E+00 1.1584480E+00 1.8409321E+00
 6.8542328E+00 1.1332830E+00 1.8320535E+00
 6.9093215E+00 1.1074100E+00 1.8210462E+00
 6.9624036E+00 1.0809799E+00 1.8078513E+00
 7.0131534E+00 1.0541603E+00 1.7924788E+00
 7.0613088E+00 1.0271169E+00 1.7749998E+00
 7.1067107E+00 9.9999988E-01 1.7555189E+00
 7.1494420E+00 9.7298446E-01 1.7340773E+00
 7.1901770E+00 9.4649279E-01 1.7104116E+00
 6.1740472E+00 1.3386738E+00 1.8686082E+00
 6.2266532E+00 1.3208007E+00 1.8704405E+00
 6.2805237E+00 1.3029763E+00 1.8717150E+00
 6.3357793E+00 1.2845630E+00 1.8726003E+00
 6.3923708E+00 1.2653732E+00 1.8730455E+00
 6.4501199E+00 1.2453407E+00 1.8729141E+00
 6.5087545E+00 1.2244261E+00 1.8720223E+00
 6.5679430E+00 1.2026008E+00 1.8701510E+00
 6.6273135E+00 1.1798534E+00 1.8670574E+00
 6.6864690E+00 1.1561977E+00 1.8624913E+00
 6.7449981E+00 1.1316787E+00 1.8562146E+00
 6.8024865E+00 1.1063767E+00 1.8480206E+00
 6.8585287E+00 1.0804068E+00 1.8377518E+00
 6.9127422E+00 1.0539131E+00 1.8253130E+00
 6.9647828E+00 1.0270575E+00 1.8106772E+00
 7.0143655E+00 9.9999988E-01 1.7938812E+00
 7.0613088E+00 9.7288284E-01 1.7749998E+00
 7.1056643E+00 9.4586469E-01 1.7540641E+00
 7.1480708E+00 9.1932789E-01 1.7308463E+00
 6.1749272E+00 1.2983084E+00 1.8832175E+00
 6.2283871E+00 1.2792645E+00 1.8844939E+00
 6.2830330E+00 1.2601883E+00 1.8852060E+00
 6.3389692E+00 1.2404945E+00 1.8854668E+00
 6.3961310E+00 1.2200157E+00 1.8852033E+00
 6.4543186E+00 1.1987020E+00 1.8842663E+00
 6.5132386E+00 1.1765304E+00 1.8824630E+00
 6.5725391E+00 1.1534938E+00 1.8795683E+00
 6.6318322E+00 1.1296061E+00 1.8753394E+00
 6.6907097E+00 1.1049096E+00 1.8695328E+00
 6.7487561E+00 1.0794791E+00 1.8619251E+00
 6.8055606E+00 1.0534229E+00 1.8523322E+00
 6.8607302E+00 1.0268780E+00 1.8406253E+00
 6.9139057E+00 9.9999987E-01 1.8267404E+00
 6.9647828E+00 9.7294227E-01 1.8106772E+00
 7.0131534E+00 9.4583947E-01 1.7924787E+00
 7.0590328E+00 9.1882918E-01 1.7721611E+00
 7.1029911E+00 8.9223765E-01 1.7495350E+00
 6.1757310E+00 1.2560567E+00 1.8963197E+00
 6.2299381E+00 1.2358937E+00 1.8969058E+00
 6.2852314E+00 1.2156128E+00 1.8969143E+00
 6.3417020E+00 1.1946957E+00 1.8964037E+00
 6.3992689E+00 1.1730037E+00 1.8952809E+00
 6.4577126E+00 1.1505049E+00 1.8933872E+00
 6.5167208E+00 1.1271960E+00 1.8905246E+00
 6.5759252E+00 1.1030930E+00 1.8864677E+00
 6.6349267E+00 1.0782363E+00 1.8809793E+00
 6.6933124E+00 1.0526961E+00 1.8738293E+00
 6.7506697E+00 1.0265740E+00 1.8648152E+00
 6.8065991E+00 9.9999987E-01 1.8537801E+00
 6.8607302E+00 9.7312171E-01 1.8406253E+00
 6.9127422E+00 9.4608662E-01 1.8253130E+00
 6.9624036E+00 9.1901991E-01 1.8078512E+00
 7.0096883E+00 8.9203710E-01 1.7882364E+00
 7.0550840E+00 8.6540183E-01 1.7663078E+00
 6.1764356E+00 1.2120868E+00 1.9076787E+00
 6.2312651E+00 1.1908741E+00 1.9074444E+00
 6.2870623E+00 1.1694624E+00 1.9066099E+00
 6.3439057E+00 1.1474112E+00 1.9051847E+00
 6.4016994E+00 1.1246147E+00 1.9030592E+00
 6.4602066E+00 1.1010621E+00 1.9000693E+00
 6.5190992E+00 1.0767709E+00 1.8960165E+00
 6.5779979E+00 1.0517812E+00 1.8906808E+00
 6.6364983E+00 1.0261591E+00 1.8838369E+00
 6.6941896E+00 9.9999986E-01 1.8752741E+00
 6.7506697E+00 9.7342570E-01 1.8648152E+00
 6.8055605E+00 9.4657688E-01 1.8523321E+00
 6.8585287E+00 9.1959295E-01 1.8377518E+00
 6.9093215E+00 8.9258976E-01 1.8210461E+00
 6.9578711E+00 8.6566046E-01 1.8021869E+00
 7.0045717E+00 8.3900487E-01 1.7810308E+00
 6.1770211E+00 1.1666199E+00 1.9170734E+00
 6.2323331E+00 1.1444545E+00 1.9158947E+00
 6.2884778E+00 1.1220165E+00 1.9140849E+00
 6.3455221E+00 1.0989528E+00 1.9116120E+00
 6.4033566E+00 1.0751946E+00 1.9083549E+00
 6.4617308E+00 1.0507529E+00 1.9041485E+00
 6.5203055E+00 1.0256670E+00 1.8987992E+00
 6.5786956E+00 9.9999985E-01 1.8920978E+00
 6.6364983E+00 9.7384063E-01 1.8838369E+00
 6.6933124E+00 9.4730362E-01 1.8738292E+00
 6.7487561E+00 9.2052065E-01 1.8619250E+00
 6.8024864E+00 8.9362304E-01 1.8480205E+00
 6.8542328E+00 8.6671675E-01 1.8320534E+00
 6.9038855E+00 8.3987306E-01 1.8139675E+00
 6.9517364E+00 8.1322878E-01 1.7936269E+00
 6.1774734E+00 1.1199290E+00 1.9243078E+00
 6.2331157E+00 1.0969361E+00 1.9220728E+00
 6.2894419E+00 1.0736065E+00 1.9191691E+00
 6.3465090E+00 1.0496835E+00 1.9155328E+00
 6.4041964E+00 1.0251367E+00 1.9110368E+00
 6.4622435E+00 9.9999984E-01 1.9055201E+00
 6.5203054E+00 9.7433271E-01 1.8987991E+00
 6.5779979E+00 9.4821852E-01 1.8906807E+00
 6.6349266E+00 9.2176342E-01 1.8809792E+00
 6.6907096E+00 8.9509016E-01 1.8695326E+00
 6.7449981E+00 8.6832108E-01 1.8562145E+00
 6.7975061E+00 8.4155173E-01 1.8409319E+00
 6.8480831E+00 8.1483231E-01 1.8236008E+00
 6.8969104E+00 7.8823896E-01 1.8040833E+00
 6.1777812E+00 1.0723302E+00 1.9292240E+00
 6.2335932E+00 1.0486609E+00 1.9258384E+00
 6.2899302E+00 1.0246023E+00 1.9217423E+00
 6.3468408E+00 9.9999983E-01 1.9168507E+00
 6.4041964E+00 9.7486299E-01 1.9110368E+00
 6.4617307E+00 9.4924682E-01 1.9041484E+00
 6.5190992E+00 9.2322878E-01 1.8960165E+00
 6.5759251E+00 8.9690673E-01 1.8864676E+00
 6.6318321E+00 8.7039368E-01 1.8753392E+00
 6.6864690E+00 8.4380209E-01 1.8624911E+00
 6.7395377E+00 8.1721657E-01 1.8478070E+00
 6.7908474E+00 7.9066703E-01 1.8311768E+00
 6.8404635E+00 7.6417223E-01 1.8124545E+00
 6.1779370E+00 1.0241728E+00 1.9317107E+00
 6.2337537E+00 9.9999983E-01 1.9271036E+00
 6.2899302E+00 9.7539733E-01 1.9217423E+00
 6.3465090E+00 9.5031620E-01 1.9155327E+00
 6.4033566E+00 9.2480510E-01 1.9083548E+00
 6.4602065E+00 8.9893760E-01 1.9000692E+00
 6.5167208E+00 8.7280369E-01 1.8905245E+00
 6.5725390E+00 8.4650599E-01 1.8795682E+00
 6.6273135E+00 8.2014633E-01 1.8670572E+00
 6.6807371E+00 7.9379757E-01 1.8528604E+00
 6.7325806E+00 7.6747009E-01 1.8368469E+00
 6.7827892E+00 7.4112905E-01 1.8188584E+00
 6.1779370E+00 9.7582684E-01 1.9317107E+00
 6.2335932E+00 9.5133881E-01 1.9258383E+00
 6.2894419E+00 9.2639314E-01 1.9191690E+00
 6.3455220E+00 9.0104684E-01 1.9116119E+00
 6.4016994E+00 8.7538497E-01 1.9030591E+00
 6.4577126E+00 8.4949482E-01 1.8933871E+00
 6.5132386E+00 8.2346933E-01 1.8824628E+00
 6.5679429E+00 7.9739899E-01 1.8701507E+00
 6.6215152E+00 7.7134410E-01 1.8563152E+00
 6.6736899E+00 7.4529596E-01 1.8408112E+00
 6.7242911E+00 7.1917013E-01 1.8234677E+00
 6.1777811E+00 9.2766944E-01 1.9292239E+00
 6.2331156E+00 9.0306363E-01 1.9220727E+00
 6.2884777E+00 8.7798324E-01 1.9140848E+00
 6.3439057E+00 8.5258850E-01 1.9051846E+00
 6.3992688E+00 8.2699604E-01 1.8952807E+00
 6.4543185E+00 8.0129773E-01 1.8842661E+00
 6.5087545E+00 7.7557370E-01 1.8720221E+00
 6.5622729E+00 7.4987096E-01 1.8584179E+00
 6.6145772E+00 7.2416212E-01 1.8433034E+00
 6.6653712E+00 6.9831687E-01 1.8264963E+00
 6.1774733E+00 8.8007070E-01 1.9243077E+00
 6.2323330E+00 8.5554526E-01 1.9158945E+00
 6.2870623E+00 8.3053731E-01 1.9066097E+00
 6.3417019E+00 8.0530405E-01 1.8964035E+00
 6.3961309E+00 7.7998409E-01 1.8852030E+00
 6.4501198E+00 7.5465908E-01 1.8729138E+00
 6.5033915E+00 7.2936432E-01 1.8594192E+00
 6.5556285E+00 7.0405401E-01 1.8445718E+00
 6.6064199E+00 6.7855532E-01 1.8281827E+00
 6.1770211E+00 8.3337984E-01 1.9170732E+00
 6.2312650E+00 8.0912565E-01 1.9074442E+00
 6.2852313E+00 7.8438701E-01 1.8969141E+00
 6.3389691E+00 7.5950526E-01 1.8854665E+00
 6.3923707E+00 7.3462658E-01 1.8730452E+00
 6.4452225E+00 7.0978948E-01 1.8595556E+00
 6.4972057E+00 6.8493234E-01 1.8448617E+00
 6.5478067E+00 6.5984302E-01 1.8287729E+00
 6.1764355E+00 7.8791293E-01 1.9076786E+00
 6.2299380E+00 7.6410611E-01 1.8969056E+00
 6.2830329E+00 7.3981153E-01 1.8852058E+00
 6.3357792E+00 7.1543680E-01 1.8726000E+00
 6.3880751E+00 6.9109975E-01 1.8590365E+00
 6.4396376E+00 6.6674194E-01 1.8443995E+00
 6.4898735E+00 6.4211757E-01 1.8285033E+00
 6.1757310E+00 7.4394313E-01 1.8963195E+00
 6.2283870E+00 7.2073532E-01 1.8844936E+00
 6.2805236E+00 6.9702358E-01 1.8717147E+00
 6.3321973E+00 6.7324116E-01 1.8580329E+00
 6.3832105E+00 6.4942096E-01 1.8433810E+00
 6.4329277E+00 6.2530622E-01 1.8275871E+00
 6.1749271E+00 7.0169148E-01 1.8832172E+00
 6.2266531E+00 6.7919923E-01 1.8704402E+00
 6.2777516E+00 6.5614098E-01 1.8566686E+00
 6.3281523E+00 6.3290686E-01 1.8419635E+00
 6.3772326E+00 6.0933426E-01 1.8262048E+00
 6.1740471E+00 6.6132609E-01 1.8686078E+00
 6.2247669E+00 6.3959229E-01 1.8549699E+00
 6.2746069E+00 6.1712053E-01 1.8402555E+00
 6.3230061E+00 5.9413309E-01 1.8244983E+00
 6.1731121E+00 6.2294455E-01 1.8527229E+00
 6.2226334E+00 6.0188400E-01 1.8382761E+00
 6.2704013E+00 5.7963562E-01 1.8225665E+00
 6.1720506E+00 5.8653628E-01 1.8357670E+00
 6.2195243E+00 5.6570641E-01 1.8204264E+00
 6.1704677E+00 5.5196397E-01 1.8179125E+00
 6.0959239E+00 1.5167081E+00 1.7840356E+00
 6.0663655E+00 1.5431791E+00 1.7689968E+00
 6.0354749E+00 1.5704809E+00 1.7521516E+00
 6.0033855E+00 1.5983893E+00 1.7334129E+00
 5.9702537E+00 1.6267008E+00 1.7126690E+00
 5.9362390E+00 1.6552024E+00 1.6897969E+00
 5.9015132E+00 1.6836648E+00 1.6646744E+00
 5.8662753E+00 1.7118173E+00 1.6372067E+00
 5.8307548E+00 1.7393546E+00 1.6073376E+00
 5.7952027E+00 1.7659456E+00 1.5750614E+00
 5.7598855E+00 1.7912484E+00 1.5404333E+00
 5.7250768E+00 1.8149270E+00 1.5035758E+00
 5.6910488E+00 1.8366701E+00 1.4646817E+00
 5.6580636E+00 1.8562096E+00 1.4240107E+00
 5.6263637E+00 1.8733357E+00 1.3818807E+00
 5.5961641E+00 1.8879075E+00 1.3386531E+00
 5.5676436E+00 1.8998580E+00 1.2947145E+00
 5.5409394E+00 1.9091930E+00 1.2504564E+00
 5.5161438E+00 1.9159842E+00 1.2062558E+00
 5.4933075E+00 1.9203586E+00 1.1624618E+00
 5.4724604E+00 1.9224859E+00 1.1194136E+00
 5.4536215E+00 1.9225667E+00 1.0774433E+00
 5.4368637E+00 1.9208440E+00 1.0370505E+00
 4.9517440E+00 1.0703867E+00 1.6191031E+00
 4.9466453E+00 1.1160557E+00 1.6062038E+00
 4.9432797E+00 1.1628744E+00 1.5912789E+00
 4.9421970E+00 1.2109919E+00 1.5745701E+00
 4.9437035E+00 1.2602661E+00 1.5560630E+00
 4.9480418E+00 1.3104291E+00 1.5357124E+00
 4.9554270E+00 1.3611400E+00 1.5135020E+00
 4.9660397E+00 1.4120002E+00 1.4894591E+00
 4.9800103E+00 1.4625637E+00 1.4636565E+00
 4.9974054E+00 1.5123507E+00 1.4362143E+00
 5.0182169E+00 1.5608656E+00 1.4072991E+00
 5.0423548E+00 1.6076152E+00 1.3771220E+00
 5.0696449E+00 1.6521306E+00 1.3459335E+00
 5.0998315E+00 1.6939882E+00 1.3140156E+00
 5.1325862E+00 1.7328290E+00 1.2816713E+00
 5.1675215E+00 1.7683755E+00 1.2492122E+00
 5.2042101E+00 1.8004421E+00 1.2169454E+00
 5.2422086E+00 1.8289421E+00 1.1851601E+00
 5.2810819E+00 1.8538845E+00 1.1541168E+00
 5.3204227E+00 1.8753662E+00 1.1240294E+00
 5.3598502E+00 1.8935550E+00 1.0949805E+00
 5.3988960E+00 1.9086503E+00 1.0666752E+00
 4.9814072E+00 1.0994276E+00 1.6483254E+00
 4.9778968E+00 1.1471185E+00 1.6354503E+00
 4.9761093E+00 1.1954348E+00 1.6203618E+00
 4.9767180E+00 1.2448055E+00 1.6033688E+00
 4.9800472E+00 1.2951450E+00 1.5844565E+00
 4.9863280E+00 1.3461745E+00 1.5635719E+00
 4.9957529E+00 1.3975180E+00 1.5406994E+00
 5.0084719E+00 1.4487344E+00 1.5158758E+00
 5.0245759E+00 1.4993389E+00 1.4891912E+00
 5.0440841E+00 1.5488218E+00 1.4607884E+00
 5.0669341E+00 1.5966686E+00 1.4308612E+00
 5.0929782E+00 1.6423829E+00 1.3996508E+00
 5.1219840E+00 1.6855089E+00 1.3674386E+00
 5.1536420E+00 1.7256531E+00 1.3345356E+00
 5.1875784E+00 1.7625030E+00 1.3012703E+00
 5.2233744E+00 1.7958407E+00 1.2679737E+00
 5.2605911E+00 1.8255518E+00 1.2349647E+00
 5.2987998E+00 1.8516268E+00 1.2025323E+00
 5.3376114E+00 1.8741585E+00 1.1708992E+00
 5.3766708E+00 1.8933274E+00 1.1401071E+00
 5.4155646E+00 1.9093813E+00 1.1095867E+00
 5.0146755E+00 1.1286659E+00 1.6771590E+00
 5.0127527E+00 1.1778176E+00 1.6641078E+00
 5.0126436E+00 1.2274500E+00 1.6487468E+00
 5.0150488E+00 1.2779567E+00 1.6313495E+00
 5.0202951E+00 1.3292441E+00 1.6118923E+00
 5.0285950E+00 1.3809977E+00 1.5903206E+00
 5.0401134E+00 1.4327991E+00 1.5666270E+00
 5.0549632E+00 1.4841660E+00 1.5408643E+00
 5.0731897E+00 1.5345786E+00 1.5131454E+00
 5.0947587E+00 1.5835034E+00 1.4836421E+00
 5.1195499E+00 1.6304172E+00 1.4525810E+00
 5.1473558E+00 1.6748316E+00 1.4202380E+00
 5.1778879E+00 1.7163169E+00 1.3869283E+00
 5.2107880E+00 1.7545232E+00 1.3529937E+00
 5.2456474E+00 1.7891973E+00 1.3187869E+00
 5.2820321E+00 1.8201930E+00 1.2846549E+00
 5.3195157E+00 1.8474767E+00 1.2509172E+00
 5.3577109E+00 1.8711262E+00 1.2178271E+00
 5.3962702E+00 1.8913249E+00 1.1854330E+00
 5.4347610E+00 1.9083431E+00 1.1531980E+00
 5.0516561E+00 1.1583965E+00 1.7051280E+00
 5.0514064E+00 1.2087454E+00 1.6917360E+00
 5.0530983E+00 1.2594735E+00 1.6759653E+00
 5.0574246E+00 1.3109084E+00 1.6580315E+00
 5.0646894E+00 1.3629066E+00 1.6378934E+00
 5.0750776E+00 1.4151119E+00 1.6155000E+00
 5.0887173E+00 1.4670639E+00 1.5908581E+00
 5.1056764E+00 1.5182439E+00 1.5640427E+00
 5.1259476E+00 1.5681067E+00 1.5351959E+00
 5.1494392E+00 1.6161072E+00 1.5045231E+00
 5.1759712E+00 1.6617278E+00 1.4722881E+00
 5.2052794E+00 1.7045043E+00 1.4388036E+00
 5.2370258E+00 1.7440498E+00 1.4044186E+00
 5.2708165E+00 1.7800733E+00 1.3695028E+00
 5.3062272E+00 1.8123943E+00 1.3344276E+00
 5.3428363E+00 1.8409498E+00 1.2995435E+00
 5.3802607E+00 1.8657965E+00 1.2651366E+00
 5.4181559E+00 1.8871095E+00 1.2313020E+00
 5.4560867E+00 1.9051768E+00 1.1975824E+00
 5.0924566E+00 1.1884889E+00 1.7318169E+00
 5.0939867E+00 1.2398088E+00 1.7179304E+00
 5.0976026E+00 1.2913958E+00 1.7016103E+00