# TIME = 1.300000
variables = x, y, z
zone N=5762 E=11520 F=FEPOINT ET=TRIANGLE
 5.5967528E+00 1.4947022E+00 1.8003743E+00
 5.5967528E+00 1.4947023E+00 1.9962656E-01
 5.5967527E+00 5.0529795E-01 1.8003739E+00
 5.5967530E+00 5.0529729E-01 1.9962621E-01
 4.4054507E+00 9.9999992E-01 1.6016231E+00
 6.8021019E+00 9.9999992E-01 1.6137495E+00
 4.4054520E+00 9.9999992E-01 3.9837907E-01
 6.8021026E+00 9.9999992E-01 3.8625068E-01
 4.8982758E+00 1.9111051E+00 1.0000005E+00
 4.8982758E+00 8.8894679E-02 1.0000006E+00
 6.2817643E+00 1.8551434E+00 1.0000006E+00
 6.2817643E+00 1.4485647E-01 1.0000005E+00
 5.5534719E+00 1.4873829E+00 1.8085847E+00
 5.5059323E+00 1.4789626E+00 1.8172860E+00
 5.4560432E+00 1.4697357E+00 1.8260312E+00
 5.4040817E+00 1.4596327E+00 1.8346230E+00
 5.3501381E+00 1.4485080E+00 1.8428539E+00
 5.2943465E+00 1.4362022E+00 1.8504413E+00
 5.2368706E+00 1.4225332E+00 1.8570393E+00
 5.1779429E+00 1.4073221E+00 1.8622373E+00
 5.1178697E+00 1.3904062E+00 1.8655855E+00
 5.0570435E+00 1.3716636E+00 1.8666295E+00
 4.9959460E+00 1.3510349E+00 1.8649542E+00
 4.9351383E+00 1.3285392E+00 1.8602263E+00
 4.8752350E+00 1.3042822E+00 1.8522300E+00
 4.8168661E+00 1.2784519E+00 1.8408857E+00
 4.7606343E+00 1.2513060E+00 1.8262552E+00
 4.7070755E+00 1.2231515E+00 1.8085296E+00
 4.6566285E+00 1.1943220E+00 1.7880076E+00
 4.6096170E+00 1.1651552E+00 1.7650649E+00
 4.5662432E+00 1.1359719E+00 1.7401228E+00
 4.5265924E+00 1.1070614E+00 1.7136158E+00
 4.4906517E+00 1.0786730E+00 1.6859720E+00
 4.4583566E+00 1.0510404E+00 1.6576153E+00
 4.4296337E+00 1.0244020E+00 1.6289852E+00
 5.5493378E+00 5.4593422E-01 1.8280750E+00
 5.5004624E+00 5.5600932E-01 1.8371799E+00
 5.4495950E+00 5.6669163E-01 1.8460932E+00
 5.3967630E+00 5.7831351E-01 1.8547646E+00
 5.3420318E+00 5.9103610E-01 1.8629728E+00
 5.2855193E+00 6.0501537E-01 1.8704131E+00
 5.2274211E+00 6.2041136E-01 1.8767067E+00
 5.1679967E+00 6.3737744E-01 1.8814178E+00
 5.1075842E+00 6.5603808E-01 1.8840792E+00
 5.0466067E+00 6.7646812E-01 1.8842328E+00
 4.9855732E+00 6.9867366E-01 1.8814760E+00
 4.9250643E+00 7.2258034E-01 1.8755049E+00
 4.8657012E+00 7.4803198E-01 1.8661455E+00
 4.8081056E+00 7.7479922E-01 1.8533689E+00
 4.7528570E+00 8.0259649E-01 1.8372898E+00
 4.7004560E+00 8.3110364E-01 1.8181490E+00
 4.6512981E+00 8.5998879E-01 1.7962878E+00
 4.6056594E+00 8.8893094E-01 1.7721141E+00
 4.5636953E+00 9.1763782E-01 1.7460699E+00
 4.5254440E+00 9.4586710E-01 1.7185967E+00
 4.4908172E+00 9.7341870E-01 1.6900826E+00
 4.4594677E+00 9.9999992E-01 1.6606848E+00
 5.5479805E+00 5.8055805E-01 1.8462475E+00
 5.4978590E+00 5.9223360E-01 1.8555969E+00
 5.4459527E+00 6.0444955E-01 1.8646113E+00
 5.3921284E+00 6.1767300E-01 1.8732966E+00
 5.3364450E+00 6.3206974E-01 1.8814101E+00
 5.2790455E+00 6.4778490E-01 1.8886169E+00
 5.2201494E+00 6.6496025E-01 1.8945088E+00
 5.1600494E+00 6.8371868E-01 1.8986225E+00
 5.0991172E+00 7.0414484E-01 1.9004736E+00
 5.0378104E+00 7.2626482E-01 1.8996011E+00
 4.9766686E+00 7.5003086E-01 1.8956175E+00
 4.9162940E+00 7.7531498E-01 1.8882510E+00
 4.8573169E+00 8.0191292E-01 1.8773742E+00
 4.8003523E+00 8.2955777E-01 1.8630130E+00
 4.7459577E+00 8.5794008E-01 1.8453392E+00
 4.6945992E+00 8.8673106E-01 1.8246470E+00
 4.6466283E+00 9.1560623E-01 1.8013225E+00
 4.6022724E+00 9.4426666E-01 1.7758063E+00
 4.5616275E+00 9.7246432E-01 1.7485520E+00
 4.5246348E+00 9.9999992E-01 1.7199611E+00
 4.4908172E+00 1.0265811E+00 1.6900827E+00
 5.5469256E+00 6.1720861E-01 1.8635379E+00
 5.4958022E+00 6.3039173E-01 1.8729095E+00
 5.4429062E+00 6.4420895E-01 1.8819038E+00
 5.3881418E+00 6.5909525E-01 1.8904684E+00
 5.3315686E+00 6.7521674E-01 1.8983397E+00
 5.2733570E+00 6.9270077E-01 1.9051532E+00
 5.2137564E+00 7.1166323E-01 1.9104727E+00
 5.1530917E+00 7.3219167E-01 1.9138132E+00
 5.0917680E+00 7.5432583E-01 1.9146803E+00
 5.0302746E+00 7.7804022E-01 1.9126195E+00
 4.9691770E+00 8.0323331E-01 1.9072677E+00
 4.9090927E+00 8.2972637E-01 1.8983941E+00
 4.8506525E+00 8.5727303E-01 1.8859241E+00
 4.7944565E+00 8.8557703E-01 1.8699416E+00
 4.7410331E+00 9.1431473E-01 1.8506754E+00
 4.6908077E+00 9.4315990E-01 1.8284699E+00
 4.6440831E+00 9.7180704E-01 1.8037492E+00
 4.6010261E+00 9.9999992E-01 1.7769712E+00
 4.5616275E+00 1.0275355E+00 1.7485520E+00
 4.5254440E+00 1.0541327E+00 1.7185967E+00
 5.5459583E+00 6.5597636E-01 1.8797868E+00
 5.4938984E+00 6.7071400E-01 1.8890442E+00
 5.4401137E+00 6.8616527E-01 1.8978597E+00
 5.3845102E+00 7.0275063E-01 1.9061407E+00
 5.3271729E+00 7.2061335E-01 1.9135927E+00
 5.2682971E+00 7.3985985E-01 1.9198263E+00
 5.2081628E+00 7.6057382E-01 1.9243830E+00
 5.1471257E+00 7.8280151E-01 1.9267639E+00
 5.0856210E+00 8.0653354E-01 1.9264750E+00
 5.0241640E+00 8.3169117E-01 1.9230790E+00
 4.9633375E+00 8.5812048E-01 1.9162479E+00
 4.9037641E+00 8.8559728E-01 1.9057994E+00
 4.8460648E+00 9.1384132E-01 1.8917158E+00
 4.7908150E+00 9.4253737E-01 1.8741395E+00
 4.7385055E+00 9.7136028E-01 1.8533522E+00
 4.6895144E+00 9.9999992E-01 1.8297405E+00
 4.6440831E+00 1.0281928E+00 1.8037492E+00
 4.6022724E+00 1.0557332E+00 1.7758063E+00
 4.5636953E+00 1.0823620E+00 1.7460700E+00
 5.5450525E+00 6.9683142E-01 1.8947664E+00
 5.4921507E+00 7.1314300E-01 1.9037532E+00
 5.4375855E+00 7.3025512E-01 1.9122257E+00
 5.3812760E+00 7.4854518E-01 1.9200439E+00
 5.3233285E+00 7.6813491E-01 1.9268888E+00
 5.2639660E+00 7.8910112E-01 1.9323499E+00
 5.2034970E+00 8.1149039E-01 1.9359538E+00
 5.1423050E+00 8.3530303E-01 1.9371978E+00
 5.0808502E+00 8.6047818E-01 1.9355993E+00
 5.0196658E+00 8.8688452E-01 1.9307496E+00
 4.9593428E+00 9.1432029E-01 1.9223643E+00
 4.9004980E+00 9.4252352E-01 1.9103157E+00
 4.8437319E+00 9.7119045E-01 1.8946443E+00
 4.7895860E+00 9.9999992E-01 1.8755475E+00
 4.7385055E+00 1.0286396E+00 1.8533522E+00
 4.6908077E+00 1.0568399E+00 1.8284699E+00
 4.6466283E+00 1.0843936E+00 1.8013225E+00
 4.6056594E+00 1.1110689E+00 1.7721141E+00
 5.5442367E+00 7.3966167E-01 1.9082239E+00
 5.4905990E+00 7.5755001E-01 1.9167759E+00
 5.4353819E+00 7.7631317E-01 1.9247272E+00
 5.3785160E+00 7.9627920E-01 1.9318955E+00
 5.3201308E+00 8.1754011E-01 1.9379408E+00
 5.2604754E+00 8.4013956E-01 1.9424385E+00
 5.1998840E+00 8.6408206E-01 1.9449093E+00
 5.1387640E+00 8.8931963E-01 1.9448576E+00
 5.0775931E+00 9.1574006E-01 1.9418235E+00
 5.0169143E+00 9.4316315E-01 1.9354367E+00
 4.9573158E+00 9.7134637E-01 1.9254639E+00
 4.8993984E+00 9.9999992E-01 1.9118342E+00
 4.8437320E+00 1.0288094E+00 1.8946443E+00
 4.7908150E+00 1.0574625E+00 1.8741395E+00
 4.7410331E+00 1.0856851E+00 1.8506754E+00
 4.6945992E+00 1.1132688E+00 1.8246470E+00
 4.6512981E+00 1.1400111E+00 1.7962878E+00
 5.5435256E+00 7.8428915E-01 1.9199068E+00
 5.4892768E+00 8.0372459E-01 1.9278523E+00
 5.4335516E+00 8.2409391E-01 1.9350994E+00
 5.3762950E+00 8.4566627E-01 1.9414290E+00
 5.3176581E+00 8.6849994E-01 1.9464867E+00
 5.2579142E+00 8.9260094E-01 1.9498414E+00
 5.1974198E+00 9.1792974E-01 1.9510182E+00
 5.1365995E+00 9.4438978E-01 1.9495399E+00
 5.0759414E+00 9.7182073E-01 1.9449795E+00
 5.0159882E+00 9.9999993E-01 1.9370137E+00
 4.9573158E+00 1.0286535E+00 1.9254638E+00
 4.9004980E+00 1.0574763E+00 1.9103157E+00
 4.8460648E+00 1.0861585E+00 1.8917158E+00
 4.7944565E+00 1.1144228E+00 1.8699415E+00
 4.7459577E+00 1.1420597E+00 1.8453391E+00
 4.7004560E+00 1.1688962E+00 1.8181491E+00
 5.5429362E+00 8.3048255E-01 1.9295796E+00
 5.4882143E+00 8.5139971E-01 1.9367455E+00
 5.4321383E+00 8.7329015E-01 1.9431070E+00
 5.3746672E+00 8.9635700E-01 1.9484164E+00
 5.3159731E+00 9.2062084E-01 1.9523117E+00
 5.2563498E+00 9.4604827E-01 1.9543649E+00
 5.1961707E+00 9.7255539E-01 1.9541156E+00
 5.1358713E+00 9.9999993E-01 1.9511153E+00
 5.0759414E+00 1.0281791E+00 1.9449795E+00
 5.0169143E+00 1.0568367E+00 1.9354366E+00
 4.9593429E+00 1.0856795E+00 1.9223641E+00
 4.9037642E+00 1.1144025E+00 1.9057993E+00
 4.8506525E+00 1.1427268E+00 1.8859239E+00
 4.8003523E+00 1.1704421E+00 1.8630130E+00
 4.7528570E+00 1.1974033E+00 1.8372897E+00
 5.5424813E+00 8.7795715E-01 1.9370344E+00
 5.4874362E+00 9.0025319E-01 1.9432538E+00
 5.4311758E+00 9.2354004E-01 1.9485588E+00
 5.3736734E+00 9.4794834E-01 1.9526824E+00
 5.3151193E+00 9.7345930E-01 1.9552637E+00
 5.2558235E+00 9.9999993E-01 1.9558866E+00
 5.1961707E+00 1.0274445E+00 1.9541156E+00
 5.1365995E+00 1.0556101E+00 1.9495398E+00
 5.0775932E+00 1.0842598E+00 1.9418233E+00
 5.0196659E+00 1.1131153E+00 1.9307494E+00
 4.9633375E+00 1.1418793E+00 1.9162476E+00
 4.9090928E+00 1.1702734E+00 1.8983940E+00
 4.8573170E+00 1.1980869E+00 1.8773741E+00
 4.8081056E+00 1.2252006E+00 1.8533689E+00
 5.5421718E+00 9.2638311E-01 1.9421034E+00
 5.4869614E+00 9.4991924E-01 1.9472233E+00
 5.4306883E+00 9.7444002E-01 1.9513197E+00
 5.3733392E+00 9.9999992E-01 1.9541169E+00
 5.3151193E+00 1.0265406E+00 1.9552637E+00
 5.2563498E+00 1.0539516E+00 1.9543648E+00
 5.1974198E+00 1.0820701E+00 1.9510182E+00
 5.1387640E+00 1.1106802E+00 1.9448575E+00
 5.0808502E+00 1.1395216E+00 1.9355991E+00
 5.0241640E+00 1.1683086E+00 1.9230787E+00
 4.9691771E+00 1.1967665E+00 1.9072674E+00
 4.9162941E+00 1.2246848E+00 1.8882507E+00
 4.8657012E+00 1.2519678E+00 1.8661453E+00
 5.5420151E+00 9.7539501E-01 1.9446685E+00
 5.4868018E+00 9.9999990E-01 1.9485574E+00
 5.4306883E+00 1.0255598E+00 1.9513197E+00
 5.3736734E+00 1.0520515E+00 1.9526824E+00
 5.3159731E+00 1.0793790E+00 1.9523117E+00
 5.2579142E+00 1.1073989E+00 1.9498414E+00
 5.1998841E+00 1.1359178E+00 1.9449092E+00
 5.1423051E+00 1.1646968E+00 1.9371976E+00
 5.0856211E+00 1.1934662E+00 1.9264747E+00
 5.0302747E+00 1.2219595E+00 1.9126191E+00
 4.9766686E+00 1.2499689E+00 1.8956172E+00
 4.9250644E+00 1.2774194E+00 1.8755047E+00
 5.5420151E+00 1.0246048E+00 1.9446685E+00
 5.4869614E+00 1.0500806E+00 1.9472233E+00
 5.4311758E+00 1.0764598E+00 1.9485589E+00
 5.3746672E+00 1.1036428E+00 1.9484164E+00
 5.3176581E+00 1.1314999E+00 1.9464867E+00
 5.2604754E+00 1.1598603E+00 1.9424385E+00
 5.2034970E+00 1.1885094E+00 1.9359536E+00
 5.1471257E+00 1.2171983E+00 1.9267637E+00
 5.0917680E+00 1.2456739E+00 1.9146800E+00
 5.0378104E+00 1.2737349E+00 1.8996008E+00
 4.9855733E+00 1.3013261E+00 1.8814758E+00
 5.5421718E+00 1.0736167E+00 1.9421035E+00
 5.4874362E+00 1.0997466E+00 1.9432538E+00
 5.4321383E+00 1.1267097E+00 1.9431071E+00
 5.3762950E+00 1.1543336E+00 1.9414290E+00
 5.3201308E+00 1.1824597E+00 1.9379409E+00
 5.2639660E+00 1.2108987E+00 1.9323499E+00
 5.2081628E+00 1.2394260E+00 1.9243828E+00
 5.1530917E+00 1.2678081E+00 1.9138130E+00
 5.0991173E+00 1.2958549E+00 1.9004733E+00
 5.0466067E+00 1.3235316E+00 1.8842325E+00
 5.5424813E+00 1.1220426E+00 1.9370345E+00
 5.4882143E+00 1.1486001E+00 1.9367456E+00
 5.4335516E+00 1.1759059E+00 1.9350995E+00
 5.3785160E+00 1.2037207E+00 1.9318956E+00
 5.3233285E+00 1.2318650E+00 1.9268889E+00
 5.2682971E+00 1.2601400E+00 1.9198263E+00
 5.2137564E+00 1.2883366E+00 1.9104726E+00
 5.1600495E+00 1.3162811E+00 1.8986224E+00
 5.1075842E+00 1.3439617E+00 1.8840790E+00
 5.5429362E+00 1.1695173E+00 1.9295797E+00
 5.4892768E+00 1.1962753E+00 1.9278524E+00
 5.4353819E+00 1.2236867E+00 1.9247273E+00
 5.3812760E+00 1.2514547E+00 1.9200440E+00
 5.3271729E+00 1.2793865E+00 1.9135928E+00
 5.2733570E+00 1.3072991E+00 1.9051532E+00
 5.2201495E+00 1.3350396E+00 1.8945088E+00
 5.1679968E+00 1.3626224E+00 1.8814177E+00
 5.5435256E+00 1.2157107E+00 1.9199070E+00
 5.4905991E+00 1.2424499E+00 1.9167761E+00
 5.4375855E+00 1.2697448E+00 1.9122258E+00
 5.3845102E+00 1.2972493E+00 1.9061408E+00
 5.3315686E+00 1.3247832E+00 1.8983399E+00
 5.2790456E+00 1.3522150E+00 1.8886170E+00
 5.2274211E+00 1.3795885E+00 1.8767068E+00
 5.5442367E+00 1.2603382E+00 1.9082241E+00
 5.4921508E+00 1.2868569E+00 1.9037534E+00
 5.4401137E+00 1.3138347E+00 1.8978599E+00
 5.3881418E+00 1.3409047E+00 1.8904687E+00
 5.3364450E+00 1.3679302E+00 1.8814103E+00
 5.2855193E+00 1.3949845E+00 1.8704133E+00
 5.5450526E+00 1.3031685E+00 1.8947667E+00
 5.4938984E+00 1.3292859E+00 1.8890444E+00
 5.4429062E+00 1.3557910E+00 1.8819041E+00
 5.3921284E+00 1.3823270E+00 1.8732969E+00
 5.3420318E+00 1.4089639E+00 1.8629731E+00
 5.5459583E+00 1.3440236E+00 1.8797871E+00
 5.4958023E+00 1.3696082E+00 1.8729098E+00
 5.4459528E+00 1.3955504E+00 1.8646116E+00
 5.3967631E+00 1.4216865E+00 1.8547649E+00
 5.5469257E+00 1.3827914E+00 1.8635382E+00
 5.4978591E+00 1.4077664E+00 1.8555972E+00
 5.4495950E+00 1.4333084E+00 1.8460936E+00
 5.5479806E+00 1.4194420E+00 1.8462478E+00
 5.5004624E+00 1.4439907E+00 1.8371803E+00
 5.5493379E+00 1.4540659E+00 1.8280754E+00
 5.5967086E+00 1.4653817E+00 1.8178204E+00
 5.5966792E+00 1.4323269E+00 1.8357936E+00
 5.5966677E+00 1.3971205E+00 1.8531013E+00
 5.5966572E+00 1.3597161E+00 1.8695488E+00
 5.5966480E+00 1.3202282E+00 1.8848669E+00
 5.5966391E+00 1.2787514E+00 1.8988089E+00
 5.5966313E+00 1.2354370E+00 1.9111267E+00
 5.5966244E+00 1.1904837E+00 1.9215849E+00
 5.5966189E+00 1.1441456E+00 1.9299687E+00
 5.5966149E+00 1.0967220E+00 1.9360970E+00
 5.5966124E+00 1.0485513E+00 1.9398317E+00
 5.5966116E+00 9.9999988E-01 1.9410864E+00
 5.5966124E+00 9.5144842E-01 1.9398316E+00
 5.5966149E+00 9.0327779E-01 1.9360969E+00
 5.5966189E+00 8.5585415E-01 1.9299686E+00
 5.5966244E+00 8.0951609E-01 1.9215847E+00
 5.5966312E+00 7.6456281E-01 1.9111265E+00
 5.5966391E+00 7.2124849E-01 1.8988087E+00
 5.5966479E+00 6.7977170E-01 1.8848667E+00
 5.5966572E+00 6.4028385E-01 1.8695486E+00
 5.5966677E+00 6.0287947E-01 1.8531010E+00
 5.5966791E+00 5.6767317E-01 1.8357933E+00
 5.5967085E+00 5.3461844E-01 1.8178200E+00
 5.6399603E+00 5.1593240E-01 1.8031004E+00
 5.6873168E+00 5.2779873E-01 1.8057556E+00
 5.7369024E+00 5.4038825E-01 1.8082226E+00
 5.7884054E+00 5.5366747E-01 1.8104513E+00
 5.8417008E+00 5.6768501E-01 1.8123892E+00
 5.8966191E+00 5.8249293E-01 1.8139475E+00
 5.9529658E+00 5.9816368E-01 1.8150090E+00
 6.0104922E+00 6.1477120E-01 1.8154198E+00
 6.0689061E+00 6.3239204E-01 1.8149961E+00
 6.1278734E+00 6.5109621E-01 1.8135285E+00
 6.1870262E+00 6.7093930E-01 1.8107942E+00
 6.2459686E+00 6.9195353E-01 1.8065700E+00
 6.3042871E+00 7.1413957E-01 1.8006492E+00
 6.3615610E+00 7.3746066E-01 1.7928566E+00
 6.4173748E+00 7.6183935E-01 1.7830637E+00
 6.4713321E+00 7.8715816E-01 1.7711989E+00
 6.5230696E+00 8.1326342E-01 1.7572542E+00
 6.5722696E+00 8.3997268E-01 1.7412856E+00
 6.6186718E+00 8.6708409E-01 1.7234086E+00
 6.6620813E+00 8.9438872E-01 1.7037888E+00
 6.7023651E+00 9.2167604E-01 1.6826345E+00
 6.7394180E+00 9.4872518E-01 1.6602010E+00
 6.7731147E+00 9.7527519E-01 1.6368167E+00
 5.6440051E+00 1.4506596E+00 1.8219435E+00
 5.6926955E+00 1.4373188E+00 1.8246956E+00
 5.7432404E+00 1.4235260E+00 1.8270774E+00
 5.7955875E+00 1.4090242E+00 1.8291683E+00
 5.8496375E+00 1.3937445E+00 1.8309112E+00
 5.9052383E+00 1.3776302E+00 1.8322063E+00
 5.9621650E+00 1.3606213E+00 1.8329196E+00
 6.0201467E+00 1.3426526E+00 1.8328840E+00
 6.0788662E+00 1.3236626E+00 1.8319026E+00
 6.1379685E+00 1.3036009E+00 1.8297571E+00
 6.1970673E+00 1.2824366E+00 1.8262202E+00
 6.2557542E+00 1.2601667E+00 1.8210716E+00
 6.3136088E+00 1.2368225E+00 1.8141145E+00
 6.3702105E+00 1.2124735E+00 1.8051917E+00
 6.4251520E+00 1.1872282E+00 1.7941991E+00
 6.4780531E+00 1.1612307E+00 1.7810947E+00
 6.5285737E+00 1.1346550E+00 1.7659022E+00
 6.5764263E+00 1.1076951E+00 1.7487095E+00
 6.6213860E+00 1.0805515E+00 1.7296610E+00
 6.6632989E+00 1.0534154E+00 1.7089443E+00
 6.7021188E+00 1.0264604E+00 1.6867498E+00
 6.7380728E+00 9.9999992E-01 1.6631274E+00
 5.6453125E+00 1.4161914E+00 1.8398102E+00
 5.6952411E+00 1.4014567E+00 1.8425090E+00
 5.7468102E+00 1.3863881E+00 1.8447310E+00
 5.8001280E+00 1.3705816E+00 1.8466014E+00
 5.8551019E+00 1.3539588E+00 1.8480540E+00
 5.9115549E+00 1.3364675E+00 1.8489767E+00
 5.9692402E+00 1.3180538E+00 1.8492224E+00
 6.0278572E+00 1.2986652E+00 1.8486096E+00
 6.0870622E+00 1.2782567E+00 1.8469290E+00
 6.1464749E+00 1.2568001E+00 1.8439533E+00
 6.2056883E+00 1.2342912E+00 1.8394526E+00
 6.2642782E+00 1.2107578E+00 1.8332110E+00
 6.3218155E+00 1.1862639E+00 1.8250449E+00
 6.3778786E+00 1.1609113E+00 1.8148180E+00
 6.4320679E+00 1.1348382E+00 1.8024547E+00
 6.4840190E+00 1.1082132E+00 1.7879458E+00
 6.5334166E+00 1.0812263E+00 1.7713502E+00
 6.5800064E+00 1.0540750E+00 1.7527886E+00
 6.6236115E+00 1.0269454E+00 1.7324288E+00
 6.6641837E+00 9.9999992E-01 1.7104387E+00
 6.7021188E+00 9.7353940E-01 1.6867498E+00
 5.6463408E+00 1.3797599E+00 1.8568250E+00
 5.6972644E+00 1.3637712E+00 1.8592817E+00
 5.7498102E+00 1.3473910E+00 1.8612328E+00
 5.8040481E+00 1.3302470E+00 1.8627616E+00
 5.8598852E+00 1.3122547E+00 1.8637941E+00
 5.9171175E+00 1.2933705E+00 1.8642056E+00
 5.9754702E+00 1.2735516E+00 1.8638359E+00
 6.0346149E+00 1.2527608E+00 1.8624917E+00
 6.0941813E+00 1.2309737E+00 1.8599540E+00
 6.1537664E+00 1.2081872E+00 1.8559913E+00
 6.2129453E+00 1.1844264E+00 1.8503760E+00
 6.2712825E+00 1.1597508E+00 1.8429029E+00
 6.3283451E+00 1.1342563E+00 1.8334074E+00
 6.3837166E+00 1.1080750E+00 1.8217803E+00
 6.4370108E+00 1.0813702E+00 1.8079781E+00
 6.4878860E+00 1.0543279E+00 1.7920272E+00
 6.5360594E+00 1.0271432E+00 1.7740206E+00
 6.5813235E+00 9.9999992E-01 1.7541046E+00
 6.6236115E+00 9.7305448E-01 1.7324288E+00
 6.6632989E+00 9.4658445E-01 1.7089442E+00
 5.6472855E+00 1.3412450E+00 1.8728129E+00
 5.6991381E+00 1.3239886E+00 1.8749050E+00
 5.7525598E+00 1.3062971E+00 1.8764489E+00
 5.8076184E+00 1.2878099E+00 1.8774977E+00
 5.8641957E+00 1.2684583E+00 1.8779623E+00
 5.9220635E+00 1.2482074E+00 1.8777076E+00
 5.9809189E+00 1.2270291E+00 1.8765629E+00
 6.0404073E+00 1.2049053E+00 1.8743259E+00
 6.1001347E+00 1.1818350E+00 1.8707732E+00
 6.1596795E+00 1.1578427E+00 1.8656744E+00
 6.2186045E+00 1.1329844E+00 1.8588113E+00
 6.2764695E+00 1.1073505E+00 1.8499959E+00
 6.3328453E+00 1.0810671E+00 1.8390890E+00
 6.3873276E+00 1.0542916E+00 1.8260128E+00
 6.4395519E+00 1.0272053E+00 1.8107591E+00
 6.4892078E+00 9.9999992E-01 1.7933886E+00
 6.5360594E+00 9.7285662E-01 1.7740206E+00
 6.5800064E+00 9.4592479E-01 1.7527886E+00
 6.6213860E+00 9.1944837E-01 1.7296610E+00
 5.6481706E+00 1.3006763E+00 1.8875448E+00
 5.7008585E+00 1.2821656E+00 1.8891376E+00
 5.7550494E+00 1.2631677E+00 1.8901359E+00
 5.8107979E+00 1.2433606E+00 1.8905572E+00
 5.8679650E+00 1.2226875E+00 1.8903008E+00
 5.9262964E+00 1.2011283E+00 1.8892226E+00
 5.9854631E+00 1.1786720E+00 1.8871446E+00
 6.0450870E+00 1.1553222E+00 1.8838602E+00
 6.1047551E+00 1.1311042E+00 1.8791471E+00
 6.1640326E+00 1.1060713E+00 1.8727828E+00
 6.2224769E+00 1.0803097E+00 1.8645648E+00
 6.2796503E+00 1.0539390E+00 1.8543293E+00
 6.3351349E+00 1.0271105E+00 1.8419670E+00
 6.3885468E+00 9.9999991E-01 1.8274349E+00
 6.4395519E+00 9.7279452E-01 1.8107591E+00
 6.4878860E+00 9.4567190E-01 1.7920272E+00
 6.5334166E+00 9.1877350E-01 1.7713501E+00
 6.5764263E+00 8.9230478E-01 1.7487095E+00
 5.6489672E+00 1.2581638E+00 1.9007758E+00
 5.7023851E+00 1.2384268E+00 1.9017316E+00
 5.7572183E+00 1.2181610E+00 1.9020384E+00
 5.8135099E+00 1.1970874E+00 1.9016813E+00
 5.8710990E+00 1.1751669E+00 1.9005498E+00
 5.9297065E+00 1.1523954E+00 1.8984940E+00
 5.9889806E+00 1.1287821E+00 1.8953327E+00
 6.0485237E+00 1.1043544E+00 1.8908604E+00
 6.1079090E+00 1.0791645E+00 1.8848619E+00
 6.1666957E+00 1.0532944E+00 1.8771296E+00
 6.2244423E+00 1.0268581E+00 1.8674831E+00
 6.2807216E+00 9.9999991E-01 1.8557874E+00
 6.3351349E+00 9.7288932E-01 1.8419670E+00
 6.3873276E+00 9.4570824E-01 1.8260128E+00
 6.4370108E+00 9.1862967E-01 1.8079781E+00
 6.4840190E+00 8.9178664E-01 1.7879458E+00
 6.5285737E+00 8.6534479E-01 1.7659022E+00
 5.6496613E+00 1.2138844E+00 1.9122588E+00
 5.7036858E+00 1.1929785E+00 1.9124380E+00
 5.7590194E+00 1.1715139E+00 1.9119076E+00
 5.8156920E+00 1.1492624E+00 1.9106239E+00
 5.8735219E+00 1.1262047E+00 1.9084702E+00
 5.9322081E+00 1.1023550E+00 1.9052945E+00
 5.9913793E+00 1.0777441E+00 1.9009172E+00
 6.0506241E+00 1.0524239E+00 1.8951398E+00
 6.1095085E+00 1.0264731E+00 1.8877606E+00
 6.1675920E+00 9.9999990E-01 1.8785926E+00
 6.2244423E+00 9.7314175E-01 1.8674831E+00
 6.2796503E+00 9.4606081E-01 1.8543292E+00
 6.3328453E+00 9.1893269E-01 1.8390890E+00
 6.3837166E+00 8.9192482E-01 1.8217803E+00
 6.4320679E+00 8.6516160E-01 1.8024547E+00
 6.4780531E+00 8.3876912E-01 1.7810946E+00
 5.6502364E+00 1.1680659E+00 1.9217638E+00
 5.7047308E+00 1.1460798E+00 1.9210309E+00
 5.7604100E+00 1.1235199E+00 1.9195234E+00
 5.8172909E+00 1.1002146E+00 1.9171752E+00
 5.8751726E+00 1.0761664E+00 1.9138669E+00
 5.9337358E+00 1.0514089E+00 1.9094490E+00
 5.9925951E+00 1.0259948E+00 1.9037485E+00
 6.0513307E+00 9.9999989E-01 1.8965799E+00
 6.1095085E+00 9.7352667E-01 1.8877606E+00
 6.1666957E+00 9.4670538E-01 1.8771296E+00
 6.2224769E+00 9.1969015E-01 1.8645648E+00
 6.2764694E+00 8.9264928E-01 1.8499959E+00
 6.3283451E+00 8.6574354E-01 1.8334074E+00
 6.3778786E+00 8.3908854E-01 1.8148180E+00
 6.4251520E+00 8.1277166E-01 1.7941991E+00
 5.6506803E+00 1.1209887E+00 1.9290880E+00
 5.7054960E+00 1.0980428E+00 1.9273175E+00
 5.7613569E+00 1.0745243E+00 1.9247065E+00
 5.8182670E+00 1.0503228E+00 1.9211737E+00
 5.8760090E+00 1.0254637E+00 1.9166012E+00
 5.9342497E+00 9.9999988E-01 1.9108464E+00
 5.9925951E+00 9.7400492E-01 1.9037485E+00
 6.0506241E+00 9.4757587E-01 1.8951398E+00
 6.1079090E+00 9.2083529E-01 1.8848619E+00
 6.1640326E+00 8.9392848E-01 1.8727827E+00
 6.2186045E+00 8.6701545E-01 1.8588113E+00
 6.2712825E+00 8.4024907E-01 1.8429029E+00
 6.3218155E+00 8.1373597E-01 1.8250448E+00
 6.3702104E+00 7.8752630E-01 1.8051917E+00
 5.6509823E+00 1.0729772E+00 1.9340675E+00
 5.7059628E+00 1.0492214E+00 1.9311510E+00
 5.7618364E+00 1.0249109E+00 1.9273308E+00
 5.8185951E+00 9.9999987E-01 1.9225181E+00
 5.8760090E+00 9.7453609E-01 1.9166012E+00
 5.9337358E+00 9.4859081E-01 1.9094489E+00
 5.9913793E+00 9.2225570E-01 1.9009172E+00
 6.0485236E+00 8.9564540E-01 1.8908604E+00
 6.1047550E+00 8.6889564E-01 1.8791470E+00
 6.1596795E+00 8.4215707E-01 1.8656744E+00
 6.2129453E+00 8.1557342E-01 1.8503759E+00
 6.2642782E+00 7.8924200E-01 1.8332110E+00
 6.3136088E+00 7.6317735E-01 1.8141145E+00
 5.6511352E+00 1.0243904E+00 1.9365870E+00
 5.7061197E+00 9.9999987E-01 1.9324393E+00
 5.7618364E+00 9.7508881E-01 1.9273308E+00
 5.8182669E+00 9.4967694E-01 1.9211737E+00
 5.8751726E+00 9.2383335E-01 1.9138669E+00
 5.9322080E+00 8.9764475E-01 1.9052945E+00
 5.9889806E+00 8.7121768E-01 1.8953326E+00
 6.0450870E+00 8.4467762E-01 1.8838602E+00
 6.1001346E+00 8.1816484E-01 1.8707731E+00
 6.1537664E+00 7.9181264E-01 1.8559912E+00
 6.2056882E+00 7.6570861E-01 1.8394525E+00
 6.2557542E+00 7.3983315E-01 1.8210716E+00
 5.6511352E+00 9.7560933E-01 1.9365870E+00
 5.7059628E+00 9.5077833E-01 1.9311510E+00
 5.7613568E+00 9.2547545E-01 1.9247065E+00
 5.8172909E+00 8.9978514E-01 1.9171752E+00
 5.8735219E+00 8.7379507E-01 1.9084702E+00
 5.9297064E+00 8.4760437E-01 1.8984940E+00
 5.9854631E+00 8.2132784E-01 1.8871445E+00
 6.0404073E+00 7.9509456E-01 1.8743258E+00
 6.0941813E+00 7.6902610E-01 1.8599539E+00
 6.1464748E+00 7.4319976E-01 1.8439532E+00
 6.1970673E+00 7.1756328E-01 1.8262201E+00
 5.6509823E+00 9.2702253E-01 1.9340674E+00
 5.7054959E+00 9.0195692E-01 1.9273174E+00
 5.7604099E+00 8.7647983E-01 1.9195233E+00
 5.8156920E+00 8.5073735E-01 1.9106239E+00
 5.8710989E+00 8.2483286E-01 1.9005497E+00
 5.9262963E+00 7.9887153E-01 1.8892226E+00
 5.9809189E+00 7.7297068E-01 1.8765628E+00
 6.0346148E+00 7.4723904E-01 1.8624916E+00
 6.0870621E+00 7.2174310E-01 1.8469289E+00
 6.1379684E+00 6.9639900E-01 1.8297570E+00
 5.6506803E+00 8.7901105E-01 1.9290879E+00
 5.7047307E+00 8.5392002E-01 1.9210308E+00
 5.7590194E+00 8.2848585E-01 1.9119075E+00
 5.8135099E+00 8.0291241E-01 1.9016812E+00
 5.8679649E+00 7.7731231E-01 1.8903007E+00
 5.9220634E+00 7.5179247E-01 1.8777075E+00
 5.9754701E+00 7.2644822E-01 1.8638358E+00
 6.0278572E+00 7.0133468E-01 1.8486095E+00
 6.0788661E+00 6.7633728E-01 1.8319025E+00
 5.6502364E+00 8.3193393E-01 1.9217637E+00
 5.7036857E+00 8.0702127E-01 1.9124379E+00
 5.7572182E+00 7.8183879E-01 1.9020383E+00
 5.8107978E+00 7.5663923E-01 1.8905571E+00
 5.8641956E+00 7.3154159E-01 1.8779622E+00
 5.9171174E+00 7.0662933E-01 1.8642054E+00
 5.9692401E+00 6.8194605E-01 1.8492223E+00
 6.0201466E+00 6.5734731E-01 1.8328839E+00
 5.6496613E+00 7.8611544E-01 1.9122586E+00
 5.7023850E+00 7.6157301E-01 1.9017314E+00
 5.7550493E+00 7.3683213E-01 1.8901358E+00
 5.8076183E+00 7.1219000E-01 1.8774976E+00
 5.8598851E+00 6.8774514E-01 1.8637940E+00
 5.9115548E+00 6.6353237E-01 1.8489766E+00
 5.9621649E+00 6.3937857E-01 1.8329194E+00
 5.6489671E+00 7.4183608E-01 1.9007757E+00
 5.7008584E+00 7.1783432E-01 1.8891374E+00
 5.7525597E+00 6.9370279E-01 1.8764487E+00
 5.8040480E+00 6.6975287E-01 1.8627614E+00
 5.8551018E+00 6.4604115E-01 1.8480538E+00
 5.9052382E+00 6.2236974E-01 1.8322061E+00
 5.6481705E+00 6.9932364E-01 1.8875446E+00
 5.6991380E+00 6.7601132E-01 1.8749048E+00
 5.7498101E+00 6.5260895E-01 1.8612326E+00
 5.8001279E+00 6.2941836E-01 1.8466012E+00
 5.8496374E+00 6.0625550E-01 1.8309110E+00
 5.6472854E+00 6.5875490E-01 1.8728126E+00
 5.6972643E+00 6.3622871E-01 1.8592814E+00
 5.7468101E+00 6.1361184E-01 1.8447308E+00
 5.7955874E+00 5.9097574E-01 1.8291681E+00
 5.6463407E+00 6.2024008E-01 1.8568248E+00
 5.6952411E+00 5.9854327E-01 1.8425088E+00
 5.7432403E+00 5.7647402E-01 1.8270771E+00
 5.6453124E+00 5.8380858E-01 1.8398098E+00
 5.6926954E+00 5.6268120E-01 1.8246953E+00
 5.6440050E+00 5.4934042E-01 1.8219431E+00
 5.5699446E+00 1.5189909E+00 1.7872601E+00
 5.5405207E+00 1.5453540E+00 1.7717852E+00
 5.5098449E+00 1.5724231E+00 1.7544984E+00
 5.4779719E+00 1.6000069E+00 1.7353077E+00
 5.4450594E+00 1.6279245E+00 1.7140901E+00
 5.4112336E+00 1.6559777E+00 1.6907224E+00
 5.3766637E+00 1.6839390E+00 1.6650938E+00
 5.3415459E+00 1.7115408E+00 1.6371262E+00
 5.3061092E+00 1.7384857E+00 1.6067805E+00
 5.2706067E+00 1.7644545E+00 1.5740682E+00
 5.2353101E+00 1.7891201E+00 1.5390603E+00
 5.2005011E+00 1.8121627E+00 1.5018928E+00
 5.1664619E+00 1.8332876E+00 1.4627692E+00
 5.1334647E+00 1.8522421E+00 1.4219559E+00
 5.1017611E+00 1.8688301E+00 1.3797736E+00
 5.0715722E+00 1.8829215E+00 1.3365824E+00
 5.0430803E+00 1.8944566E+00 1.2927650E+00
 5.0164238E+00 1.9034451E+00 1.2487077E+00
 4.9916939E+00 1.9099599E+00 1.2047826E+00
 4.9689347E+00 1.9141267E+00 1.1613304E+00
 4.9481530E+00 1.9161125E+00 1.1186571E+00
 4.9293355E+00 1.9161100E+00 1.0770494E+00
 4.9125206E+00 1.9143447E+00 1.0368893E+00
 4.4238061E+00 1.0698932E+00 1.6191860E+00
 4.4183656E+00 1.1151837E+00 1.6062223E+00
 4.4148344E+00 1.1618581E+00 1.5913563E+00
 4.4136692E+00 1.2099391E+00 1.5746897E+00
 4.4151476E+00 1.2592304E+00 1.5561522E+00
 4.4195255E+00 1.3094328E+00 1.5356984E+00
 4.4270331E+00 1.3601807E+00 1.5133226E+00
 4.4378591E+00 1.4110521E+00 1.4890633E+00
 4.4521347E+00 1.4615801E+00 1.4630052E+00
 4.4699200E+00 1.5112669E+00 1.4352816E+00
 4.4911937E+00 1.5596022E+00 1.4060747E+00
 4.5158459E+00 1.6060836E+00 1.3756129E+00
 4.5436776E+00 1.6502396E+00 1.3441646E+00
 4.5744047E+00 1.6916521E+00 1.3120289E+00
 4.6076691E+00 1.7299760E+00 1.2795237E+00
 4.6430549E+00 1.7649546E+00 1.2469716E+00
 4.6801086E+00 1.7964288E+00 1.2146859E+00
 4.7183627E+00 1.8243396E+00 1.1829572E+00
 4.7573593E+00 1.8487239E+00 1.1520424E+00
 4.7966792E+00 1.8697065E+00 1.1221553E+00
 4.8359628E+00 1.8874863E+00 1.0934260E+00
 4.8748208E+00 1.9022984E+00 1.0657047E+00
 4.4539848E+00 1.0984278E+00 1.6478161E+00
 4.4500142E+00 1.1453725E+00 1.6348321E+00
 4.4480271E+00 1.1934206E+00 1.6198021E+00
 4.4485430E+00 1.2427419E+00 1.6028416E+00
 4.4518390E+00 1.2931272E+00 1.5838719E+00
 4.4581583E+00 1.3442381E+00 1.5628452E+00
 4.4677099E+00 1.3956629E+00 1.5397621E+00
 4.4806518E+00 1.4469337E+00 1.5146739E+00
 4.4970741E+00 1.4975434E+00 1.4876850E+00
 4.5169877E+00 1.5469635E+00 1.4589540E+00
 4.5403143E+00 1.5946659E+00 1.4286932E+00
 4.5668839E+00 1.6401466E+00 1.3971634E+00
 4.5964371E+00 1.6829503E+00 1.3646658E+00
 4.6286347E+00 1.7226924E+00 1.3315299E+00
 4.6630726E+00 1.7590775E+00 1.2980990E+00
 4.6993025E+00 1.7919108E+00 1.2647148E+00
 4.7368551E+00 1.8211033E+00 1.2317017E+00
 4.7752668E+00 1.8466691E+00 1.1993535E+00
 4.8141135E+00 1.8687207E+00 1.1679150E+00
 4.8530364E+00 1.8874584E+00 1.1375355E+00
 4.8916857E+00 1.9031557E+00 1.1079269E+00
 4.4877510E+00 1.1273902E+00 1.6759768E+00
 4.4853324E+00 1.1756746E+00 1.6628231E+00
 4.4850274E+00 1.2249681E+00 1.6475216E+00
 4.4873561E+00 1.2753952E+00 1.6301473E+00
 4.4925867E+00 1.3267123E+00 1.6106159E+00
 4.5009423E+00 1.3785345E+00 1.5888829E+00
 4.5126031E+00 1.4304028E+00 1.5649598E+00
 4.5276878E+00 1.4818065E+00 1.5389166E+00
 4.5462387E+00 1.5322041E+00 1.5108828E+00
 4.5682101E+00 1.5810454E+00 1.4810482E+00
 4.5934634E+00 1.6277965E+00 1.4496596E+00
 4.6217672E+00 1.6719656E+00 1.4170139E+00
 4.6528051E+00 1.7131284E+00 1.3834464E+00
 4.6861893E+00 1.7509485E+00 1.3493168E+00
 4.7214805E+00 1.7851922E+00 1.3149915E+00
 4.7582121E+00 1.8157365E+00 1.2808271E+00
 4.7959171E+00 1.8425682E+00 1.2471531E+00
 4.8341645E+00 1.8657807E+00 1.2142532E+00
 4.8725917E+00 1.8855676E+00 1.1823058E+00
 4.9108426E+00 1.9022184E+00 1.1510733E+00
 4.5252335E+00 1.1569014E+00 1.7032477E+00
 4.5245169E+00 1.2063550E+00 1.6898002E+00
 4.5260499E+00 1.2567063E+00 1.6741057E+00
 4.5303328E+00 1.3080260E+00 1.6561947E+00
 4.5376109E+00 1.3600217E+00 1.6359785E+00
 4.5480786E+00 1.4122628E+00 1.6134206E+00
 4.5618775E+00 1.4642466E+00 1.5885498E+00
 4.5790789E+00 1.5154265E+00 1.5614601E+00
 4.5996693E+00 1.5652372E+00 1.5323123E+00
 4.6235432E+00 1.6131203E+00 1.5013316E+00
 4.6505003E+00 1.6585522E+00 1.4688029E+00
 4.6802519E+00 1.7010704E+00 1.4350600E+00
 4.7124324E+00 1.7402980E+00 1.4004717E+00
 4.7466183E+00 1.7759605E+00 1.3654240E+00
 4.7823517E+00 1.8078973E+00 1.3303011E+00
 4.8191681E+00 1.8360631E+00 1.2954669E+00
 4.8566352E+00 1.8605271E+00 1.2612419E+00
 4.8943872E+00 1.8814679E+00 1.2278475E+00
 4.9320745E+00 1.8991843E+00 1.1951106E+00
 4.5665373E+00 1.1867625E+00 1.7292417E+00
 4.5676682E+00 1.2371878E+00 1.7153684E+00
 4.5711770E+00 1.2883701E+00 1.6991498E+00