# TIME = 1.000000
VARIABLES = X, Y, Z, FX, FY, FZ
ZONE N=29232 E=58212 F=FEPOINT ET=TRIANGLE
  0.000E+00  9.502E-01  1.243E-03 6.2459215E+00 2.5442075E-01 5.1338495E+00
  0.000E+00  1.000E+00  0.000E+00 6.2347104E+00 -1.8061137E-05 5.1404824E+00
  4.318E-02  9.751E-01  3.108E-04 6.2360484E+00 1.2454614E-01 5.0327701E+00
  0.000E+00  1.050E+00  1.243E-03 6.2459202E+00 -2.5445754E-01 5.1338474E+00
  4.318E-02  1.025E+00  3.108E-04 6.2360478E+00 -1.2458336E-01 5.0327690E+00
  0.000E+00  1.100E+00  4.969E-03 6.2831996E+00 -5.0953730E-01 5.1146135E+00
  4.318E-02  1.075E+00  2.796E-03 6.2614974E+00 -3.7399161E-01 5.0199785E+00
  0.000E+00  1.149E+00  1.117E-02 6.3533723E+00 -7.6598585E-01 5.0839827E+00
  4.318E-02  1.124E+00  7.761E-03 6.3156069E+00 -6.2440938E-01 4.9954031E+00
  0.000E+00  1.198E+00  1.983E-02 6.4544707E+00 -1.0223584E+00 5.0418744E+00
  4.318E-02  1.174E+00  1.519E-02 6.4006526E+00 -8.7598714E-01 4.9599685E+00
  0.000E+00  1.247E+00  3.092E-02 6.5656006E+00 -1.2735549E+00 4.9856396E+00
  4.318E-02  1.223E+00  2.507E-02 6.5096667E+00 -1.1252795E+00 4.9122829E+00
  0.000E+00  1.295E+00  4.443E-02 6.6586649E+00 -1.5156597E+00 4.9128513E+00
  4.318E-02  1.271E+00  3.738E-02 6.6162390E+00 -1.3668267E+00 4.8490115E+00
  0.000E+00  1.342E+00  6.031E-02 6.7399973E+00 -1.7545259E+00 4.8285735E+00
  4.318E-02  1.318E+00  5.207E-02 6.6980315E+00 -1.6011230E+00 4.7711160E+00
  0.000E+00  1.388E+00  7.852E-02 6.9015852E+00 -1.9960539E+00 4.7374957E+00
  4.318E-02  1.365E+00  6.913E-02 6.8085686E+00 -1.8364735E+00 4.6853265E+00
  0.000E+00  1.434E+00  9.903E-02 7.0376355E+00 -2.2326187E+00 4.6339392E+00
  4.318E-02  1.411E+00  8.849E-02 6.9834725E+00 -2.0719788E+00 4.5910193E+00
  0.000E+00  1.478E+00  1.218E-01 7.0970427E+00 -2.4588781E+00 4.5151315E+00
  4.318E-02  1.456E+00  1.101E-01 7.0773021E+00 -2.2983348E+00 4.4816799E+00
  0.000E+00  1.521E+00  1.467E-01 7.2589577E+00 -2.6805222E+00 4.3868863E+00
  4.318E-02  1.500E+00  1.340E-01 7.1592298E+00 -2.5170019E+00 4.3601176E+00
  0.000E+00  1.563E+00  1.738E-01 7.3077330E+00 -2.8967063E+00 4.2484928E+00
  4.318E-02  1.543E+00  1.600E-01 7.3072399E+00 -2.7320789E+00 4.2300913E+00
  0.000E+00  1.604E+00  2.029E-01 7.3982526E+00 -3.1044798E+00 4.0984455E+00
  4.318E-02  1.584E+00  1.881E-01 7.3345540E+00 -2.9396360E+00 4.0886355E+00
  0.000E+00  1.643E+00  2.340E-01 7.4538180E+00 -3.3049769E+00 3.9386918E+00
  4.318E-02  1.623E+00  2.182E-01 7.4300021E+00 -3.1395106E+00 3.9368198E+00
  0.000E+00  1.680E+00  2.669E-01 7.4576759E+00 -3.4972103E+00 3.7690514E+00
  4.318E-02  1.662E+00  2.502E-01 7.4442863E+00 -3.3320051E+00 3.7755708E+00
  0.000E+00  1.716E+00  3.018E-01 7.4906423E+00 -3.6806700E+00 3.5900036E+00
  4.318E-02  1.698E+00  2.841E-01 7.4906620E+00 -3.5159570E+00 3.6046990E+00
  0.000E+00  1.750E+00  3.383E-01 7.4442667E+00 -3.8551393E+00 3.4021723E+00
  4.318E-02  1.733E+00  3.198E-01 7.4576957E+00 -3.6913125E+00 3.4250246E+00
  0.000E+00  1.782E+00  3.765E-01 7.4299825E+00 -4.0197826E+00 3.2056225E+00
  4.318E-02  1.766E+00  3.572E-01 7.4538376E+00 -3.8574456E+00 3.2367551E+00
  0.000E+00  1.812E+00  4.163E-01 7.3345345E+00 -4.1748019E+00 3.0015366E+00
  4.318E-02  1.797E+00  3.962E-01 7.3982721E+00 -4.0139079E+00 3.0403956E+00
  0.000E+00  1.840E+00  4.575E-01 7.3072200E+00 -4.3192255E+00 2.7896067E+00
  4.318E-02  1.826E+00  4.367E-01 7.3077521E+00 -4.1608540E+00 2.8369086E+00
  0.000E+00  1.866E+00  5.000E-01 7.1592089E+00 -4.4520025E+00 2.5699969E+00
  4.318E-02  1.853E+00  4.786E-01 7.2589752E+00 -4.2963871E+00 2.6251839E+00
  0.000E+00  1.890E+00  5.438E-01 7.0772818E+00 -4.5761236E+00 2.3467231E+00
  4.318E-02  1.878E+00  5.217E-01 7.0970593E+00 -4.4219991E+00 2.4081119E+00
  0.000E+00  1.912E+00  5.887E-01 6.9834523E+00 -4.6877520E+00 2.1155976E+00
  4.318E-02  1.901E+00  5.661E-01 7.0376520E+00 -4.5383378E+00 2.1865215E+00
  0.000E+00  1.931E+00  6.347E-01 6.8085472E+00 -4.7840583E+00 1.8751290E+00
  4.318E-02  1.921E+00  6.116E-01 6.9016016E+00 -4.6397580E+00 1.9548371E+00
  0.000E+00  1.948E+00  6.815E-01 6.6980098E+00 -4.8716545E+00 1.6348190E+00
  4.318E-02  1.940E+00  6.580E-01 6.7400132E+00 -4.7289681E+00 1.7182922E+00
  0.000E+00  1.963E+00  7.292E-01 6.6162192E+00 -4.9511809E+00 1.3955874E+00
  4.318E-02  1.956E+00  7.052E-01 6.6586802E+00 -4.8114954E+00 1.4843530E+00
  0.000E+00  1.975E+00  7.775E-01 6.5096480E+00 -5.0157850E+00 1.1489525E+00
  4.318E-02  1.969E+00  7.532E-01 6.5656162E+00 -4.8827755E+00 1.2472436E+00
  0.000E+00  1.985E+00  8.264E-01 6.4006332E+00 -5.0644765E+00 8.9440793E-01
  4.318E-02  1.980E+00  8.019E-01 6.4544856E+00 -4.9378517E+00 1.0012302E+00
  0.000E+00  1.992E+00  8.757E-01 6.3155861E+00 -5.1006542E+00 6.3752907E-01
  4.318E-02  1.989E+00  8.510E-01 6.3533860E+00 -4.9790904E+00 7.5014682E-01
  0.000E+00  1.997E+00  9.253E-01 6.2614773E+00 -5.1257464E+00 3.8183425E-01
  4.318E-02  1.995E+00  9.004E-01 6.2832133E+00 -5.0090867E+00 4.9898859E-01
  0.000E+00  2.000E+00  9.751E-01 6.2360291E+00 -5.1388065E+00 1.2717219E-01
  4.318E-02  1.999E+00  9.502E-01 6.2459360E+00 -5.0279241E+00 2.4917140E-01
  0.000E+00  2.000E+00  1.025E+00 6.2360301E+00 -5.1388040E+00 -1.2720511E-01
  4.318E-02  2.000E+00  1.000E+00 6.2347267E+00 -5.0344206E+00 -1.6928446E-05
  0.000E+00  1.997E+00  1.075E+00 6.2614801E+00 -5.1257386E+00 -3.8186710E-01
  4.318E-02  1.999E+00  1.050E+00 6.2459375E+00 -5.0279193E+00 -2.4920528E-01
  0.000E+00  1.992E+00  1.124E+00 6.3155904E+00 -5.1006421E+00 -6.3756186E-01
  4.318E-02  1.995E+00  1.100E+00 6.2832164E+00 -5.0090763E+00 -4.9902251E-01
  0.000E+00  1.985E+00  1.174E+00 6.4006387E+00 -5.0644665E+00 -8.9444070E-01
  4.318E-02  1.989E+00  1.149E+00 6.3533908E+00 -4.9790781E+00 -7.5018073E-01
  0.000E+00  1.975E+00  1.223E+00 6.5096549E+00 -5.0157857E+00 -1.1489852E+00
  4.318E-02  1.980E+00  1.198E+00 6.4544921E+00 -4.9378466E+00 -1.0012641E+00
  0.000E+00  1.963E+00  1.271E+00 6.6162276E+00 -4.9511797E+00 -1.3956200E+00
  4.318E-02  1.969E+00  1.247E+00 6.5656243E+00 -4.8827779E+00 -1.2472773E+00
  0.000E+00  1.948E+00  1.318E+00 6.6980197E+00 -4.8716265E+00 -1.6348514E+00
  4.318E-02  1.956E+00  1.295E+00 6.6586896E+00 -4.8114821E+00 -1.4843866E+00
  0.000E+00  1.931E+00  1.365E+00 6.8085586E+00 -4.7840317E+00 -1.8751613E+00
  4.318E-02  1.940E+00  1.342E+00 6.7400241E+00 -4.7289329E+00 -1.7183255E+00
  0.000E+00  1.912E+00  1.411E+00 6.9834642E+00 -4.6877563E+00 -2.1156296E+00
  4.318E-02  1.921E+00  1.388E+00 6.9016139E+00 -4.6397506E+00 -1.9548706E+00
  0.000E+00  1.890E+00  1.456E+00 7.0772955E+00 -4.5760999E+00 -2.3467549E+00
  4.318E-02  1.901E+00  1.434E+00 7.0376654E+00 -4.5383345E+00 -2.1865545E+00
  0.000E+00  1.866E+00  1.500E+00 7.1592237E+00 -4.4519711E+00 -2.5700281E+00
  4.318E-02  1.878E+00  1.478E+00 7.0970738E+00 -4.4219604E+00 -2.4081443E+00
  0.000E+00  1.840E+00  1.543E+00 7.3072357E+00 -4.3192202E+00 -2.7896381E+00
  4.318E-02  1.853E+00  1.521E+00 7.2589907E+00 -4.2963747E+00 -2.6252164E+00
  0.000E+00  1.812E+00  1.584E+00 7.3345511E+00 -4.1747727E+00 -3.0015668E+00
  4.318E-02  1.826E+00  1.563E+00 7.3077684E+00 -4.1608360E+00 -2.8369402E+00
  0.000E+00  1.782E+00  1.623E+00 7.4299998E+00 -4.0197643E+00 -3.2056526E+00
  4.318E-02  1.797E+00  1.604E+00 7.3982893E+00 -4.0138805E+00 -3.0404268E+00
  0.000E+00  1.750E+00  1.662E+00 7.4442845E+00 -3.8551162E+00 -3.4022015E+00
  4.318E-02  1.766E+00  1.643E+00 7.4538553E+00 -3.8574285E+00 -3.2367858E+00
  0.000E+00  1.716E+00  1.698E+00 7.4906606E+00 -3.6806449E+00 -3.5900322E+00
  4.318E-02  1.733E+00  1.680E+00 7.4577139E+00 -3.6912839E+00 -3.4250541E+00
  0.000E+00  1.680E+00  1.733E+00 7.4576945E+00 -3.4971858E+00 -3.7690790E+00
  4.318E-02  1.698E+00  1.716E+00 7.4906806E+00 -3.5159344E+00 -3.6047281E+00
  0.000E+00  1.643E+00  1.766E+00 7.4538368E+00 -3.3049491E+00 -3.9387185E+00
  4.318E-02  1.662E+00  1.750E+00 7.4443052E+00 -3.3319763E+00 -3.7755987E+00
  0.000E+00  1.604E+00  1.797E+00 7.3982715E+00 -3.1044524E+00 -4.0984712E+00
  4.318E-02  1.623E+00  1.782E+00 7.4300211E+00 -3.1394827E+00 -3.9368468E+00
  0.000E+00  1.563E+00  1.826E+00 7.3077520E+00 -2.8966762E+00 -4.2485173E+00
  4.318E-02  1.584E+00  1.812E+00 7.3345730E+00 -2.9396055E+00 -4.0886612E+00
  0.000E+00  1.521E+00  1.853E+00 7.2589762E+00 -2.6804917E+00 -4.3869094E+00
  4.318E-02  1.543E+00  1.840E+00 7.3072589E+00 -2.7320487E+00 -4.2301160E+00
  0.000E+00  1.478E+00  1.878E+00 7.0970607E+00 -2.4588458E+00 -4.5151531E+00
  4.318E-02  1.500E+00  1.866E+00 7.1592490E+00 -2.5169702E+00 -4.3601410E+00
  0.000E+00  1.434E+00  1.901E+00 7.0376533E+00 -2.2325880E+00 -4.6339596E+00
  4.318E-02  1.456E+00  1.890E+00 7.0773211E+00 -2.2983033E+00 -4.4817019E+00
  0.000E+00  1.388E+00  1.921E+00 6.9016037E+00 -1.9960219E+00 -4.7375149E+00
  4.318E-02  1.411E+00  1.912E+00 6.9834908E+00 -2.0719456E+00 -4.5910395E+00
  0.000E+00  1.342E+00  1.940E+00 6.7400162E+00 -1.7544947E+00 -4.8285915E+00
  4.318E-02  1.365E+00  1.931E+00 6.8085856E+00 -1.8364386E+00 -4.6853449E+00
  0.000E+00  1.295E+00  1.956E+00 6.6586829E+00 -1.5156272E+00 -4.9128676E+00
  4.318E-02  1.318E+00  1.948E+00 6.6980477E+00 -1.6010881E+00 -4.7711327E+00
  0.000E+00  1.247E+00  1.969E+00 6.5656169E+00 -1.2735213E+00 -4.9856541E+00
  4.318E-02  1.271E+00  1.963E+00 6.6162551E+00 -1.3667915E+00 -4.8490264E+00
  0.000E+00  1.198E+00  1.980E+00 6.4544856E+00 -1.0223234E+00 -5.0418869E+00
  4.318E-02  1.223E+00  1.975E+00 6.5096829E+00 -1.1252446E+00 -4.9122961E+00
  0.000E+00  1.149E+00  1.989E+00 6.3533865E+00 -7.6595053E-01 -5.0839931E+00
  4.318E-02  1.174E+00  1.985E+00 6.4006686E+00 -8.7595186E-01 -4.9599800E+00
  0.000E+00  1.100E+00  1.995E+00 6.2832136E+00 -5.0950175E-01 -5.1146219E+00
  4.318E-02  1.124E+00  1.992E+00 6.3156221E+00 -6.2437456E-01 -4.9954127E+00
  0.000E+00  1.050E+00  1.999E+00 6.2459341E+00 -2.5442166E-01 -5.1338537E+00
  4.318E-02  1.075E+00  1.997E+00 6.2615117E+00 -3.7395576E-01 -5.0199863E+00
  0.000E+00  1.000E+00  2.000E+00 6.2347238E+00 1.6829144E-05 -5.1404867E+00
  4.318E-02  1.025E+00  2.000E+00 6.2360612E+00 -1.2454746E-01 -5.0327748E+00
  0.000E+00  9.502E-01  1.999E+00 6.2459340E+00 2.5445600E-01 -5.1338519E+00
  4.318E-02  9.751E-01  2.000E+00 6.2360611E+00 1.2458254E-01 -5.0327738E+00
  0.000E+00  9.004E-01  1.995E+00 6.2832134E+00 5.0953562E-01 -5.1146181E+00
  4.318E-02  9.253E-01  1.997E+00 6.2615116E+00 3.7399123E-01 -5.0199834E+00
  0.000E+00  8.510E-01  1.989E+00 6.3533863E+00 7.6598433E-01 -5.0839875E+00
  4.318E-02  8.757E-01  1.992E+00 6.3156220E+00 6.2440929E-01 -4.9954079E+00
  0.000E+00  8.019E-01  1.980E+00 6.4544853E+00 1.0223574E+00 -5.0418795E+00
  4.318E-02  8.264E-01  1.985E+00 6.4006683E+00 8.7598710E-01 -4.9599733E+00
  0.000E+00  7.532E-01  1.969E+00 6.5656166E+00 1.2735548E+00 -4.9856449E+00
  4.318E-02  7.775E-01  1.975E+00 6.5096826E+00 1.1252793E+00 -4.9122875E+00
  0.000E+00  7.052E-01  1.956E+00 6.6586824E+00 1.5156607E+00 -4.9128567E+00
  4.318E-02  7.292E-01  1.963E+00 6.6162548E+00 1.3668262E+00 -4.8490160E+00
  0.000E+00  6.580E-01  1.940E+00 6.7400158E+00 1.7545277E+00 -4.8285788E+00
  4.318E-02  6.815E-01  1.948E+00 6.6980473E+00 1.6011223E+00 -4.7711205E+00
  0.000E+00  6.116E-01  1.921E+00 6.9016033E+00 1.9960555E+00 -4.7375008E+00
  4.318E-02  6.347E-01  1.931E+00 6.8085851E+00 1.8364731E+00 -4.6853310E+00
  0.000E+00  5.661E-01  1.901E+00 7.0376528E+00 2.2326195E+00 -4.6339437E+00
  4.318E-02  5.887E-01  1.912E+00 6.9834901E+00 2.0719791E+00 -4.5910236E+00
  0.000E+00  5.217E-01  1.878E+00 7.0970602E+00 2.4588783E+00 -4.5151357E+00
  4.318E-02  5.438E-01  1.890E+00 7.0773207E+00 2.2983360E+00 -4.4816846E+00
  0.000E+00  4.786E-01  1.853E+00 7.2589758E+00 2.6805227E+00 -4.3868904E+00
  4.318E-02  5.000E-01  1.866E+00 7.1592486E+00 2.5170035E+00 -4.3601222E+00
  0.000E+00  4.367E-01  1.826E+00 7.3077516E+00 2.8967077E+00 -4.2484970E+00
  4.318E-02  4.575E-01  1.840E+00 7.3072585E+00 2.7320804E+00 -4.2300956E+00
  0.000E+00  3.962E-01  1.797E+00 7.3982712E+00 3.1044817E+00 -4.0984495E+00
  4.318E-02  4.163E-01  1.812E+00 7.3345727E+00 2.9396375E+00 -4.0886395E+00
  0.000E+00  3.572E-01  1.766E+00 7.4538367E+00 3.3049790E+00 -3.9386956E+00
  4.318E-02  3.765E-01  1.782E+00 7.4300210E+00 3.1395123E+00 -3.9368236E+00
  0.000E+00  3.198E-01  1.733E+00 7.4576945E+00 3.4972123E+00 -3.7690549E+00
  4.318E-02  3.383E-01  1.750E+00 7.4443052E+00 3.3320071E+00 -3.7755745E+00
  0.000E+00  2.841E-01  1.698E+00 7.4906609E+00 3.6806721E+00 -3.5900069E+00
  4.318E-02  3.018E-01  1.716E+00 7.4906808E+00 3.5159593E+00 -3.6047024E+00
  0.000E+00  2.502E-01  1.662E+00 7.4442850E+00 3.8551418E+00 -3.4021753E+00
  4.318E-02  2.669E-01  1.680E+00 7.4577144E+00 3.6913150E+00 -3.4250277E+00
  0.000E+00  2.182E-01  1.623E+00 7.4300005E+00 4.0197853E+00 -3.2056253E+00
  4.318E-02  2.340E-01  1.643E+00 7.4538561E+00 3.8574482E+00 -3.2367580E+00
  0.000E+00  1.881E-01  1.584E+00 7.3345522E+00 4.1748048E+00 -3.0015391E+00
  4.318E-02  2.029E-01  1.604E+00 7.3982903E+00 4.0139106E+00 -3.0403983E+00
  0.000E+00  1.600E-01  1.543E+00 7.3072372E+00 4.3192284E+00 -2.7896090E+00
  4.318E-02  1.738E-01  1.563E+00 7.3077699E+00 4.1608568E+00 -2.8369110E+00
  0.000E+00  1.340E-01  1.500E+00 7.1592256E+00 4.4520054E+00 -2.5699988E+00
  4.318E-02  1.467E-01  1.521E+00 7.2589924E+00 4.2963901E+00 -2.6251860E+00
  0.000E+00  1.101E-01  1.456E+00 7.0772979E+00 4.5761266E+00 -2.3467249E+00
  4.318E-02  1.218E-01  1.478E+00 7.0970760E+00 4.4220021E+00 -2.4081138E+00
  0.000E+00  8.849E-02  1.411E+00 6.9834675E+00 4.6877547E+00 -2.1155989E+00
  4.318E-02  9.903E-02  1.434E+00 7.0376680E+00 4.5383409E+00 -2.1865231E+00
  0.000E+00  6.913E-02  1.365E+00 6.8085619E+00 4.7840614E+00 -1.8751302E+00
  4.318E-02  7.852E-02  1.388E+00 6.9016169E+00 4.6397611E+00 -1.9548386E+00
  0.000E+00  5.207E-02  1.318E+00 6.6980237E+00 4.8716575E+00 -1.6348200E+00
  4.318E-02  6.031E-02  1.342E+00 6.7400278E+00 4.7289711E+00 -1.7182934E+00
  0.000E+00  3.738E-02  1.271E+00 6.6162321E+00 4.9511838E+00 -1.3955882E+00
  4.318E-02  4.443E-02  1.295E+00 6.6586939E+00 4.8114983E+00 -1.4843540E+00
  0.000E+00  2.507E-02  1.223E+00 6.5096599E+00 5.0157879E+00 -1.1489531E+00
  4.318E-02  3.092E-02  1.247E+00 6.5656291E+00 4.8827783E+00 -1.2472444E+00
  0.000E+00  1.519E-02  1.174E+00 6.4006443E+00 5.0644792E+00 -8.9440840E-01
  4.318E-02  1.983E-02  1.198E+00 6.4544975E+00 4.9378544E+00 -1.0012309E+00
  0.000E+00  7.761E-03  1.124E+00 6.3155965E+00 5.1006567E+00 -6.3752937E-01
  4.318E-02  1.117E-02  1.149E+00 6.3533968E+00 4.9790929E+00 -7.5014735E-01
  0.000E+00  2.796E-03  1.075E+00 6.2614869E+00 5.1257487E+00 -3.8183447E-01
  4.318E-02  4.969E-03  1.100E+00 6.2832230E+00 5.0090890E+00 -4.9898897E-01
  0.000E+00  3.108E-04  1.025E+00 6.2360375E+00 5.1388086E+00 -1.2717237E-01
  4.318E-02  1.243E-03  1.050E+00 6.2459447E+00 5.0279263E+00 -2.4917161E-01
  0.000E+00  3.108E-04  9.751E-01 6.2360371E+00 5.1388059E+00 1.2720499E-01
  4.318E-02  0.000E+00  1.000E+00 6.2347346E+00 5.0344225E+00 1.6829182E-05
  0.000E+00  2.796E-03  9.253E-01 6.2614860E+00 5.1257403E+00 3.8186708E-01
  4.318E-02  1.243E-03  9.502E-01 6.2459445E+00 5.0279209E+00 2.4920520E-01
  0.000E+00  7.761E-03  8.757E-01 6.3155954E+00 5.1006435E+00 6.3756189E-01
  4.318E-02  4.969E-03  9.004E-01 6.2832224E+00 5.0090776E+00 4.9902240E-01
  0.000E+00  1.519E-02  8.264E-01 6.4006430E+00 5.0644677E+00 8.9444071E-01
  4.318E-02  1.117E-02  8.510E-01 6.3533957E+00 4.9790792E+00 7.5018060E-01
  0.000E+00  2.507E-02  7.775E-01 6.5096584E+00 5.0157866E+00 1.1489852E+00
  4.318E-02  1.983E-02  8.019E-01 6.4544959E+00 4.9378475E+00 1.0012640E+00
  0.000E+00  3.738E-02  7.292E-01 6.6162301E+00 4.9511804E+00 1.3956199E+00
  4.318E-02  3.092E-02  7.532E-01 6.5656271E+00 4.8827785E+00 1.2472771E+00
  0.000E+00  5.207E-02  6.815E-01 6.6980213E+00 4.8716269E+00 1.6348513E+00
  4.318E-02  4.443E-02  7.052E-01 6.6586916E+00 4.8114824E+00 1.4843864E+00
  0.000E+00  6.913E-02  6.347E-01 6.8085593E+00 4.7840319E+00 1.8751610E+00
  4.318E-02  6.031E-02  6.580E-01 6.7400252E+00 4.7289330E+00 1.7183252E+00
  0.000E+00  8.849E-02  5.887E-01 6.9834643E+00 4.6877565E+00 2.1156294E+00
  4.318E-02  7.852E-02  6.116E-01 6.9016143E+00 4.6397504E+00 1.9548701E+00
  0.000E+00  1.101E-01  5.438E-01 7.0772946E+00 4.5760996E+00 2.3467545E+00
  4.318E-02  9.903E-02  5.661E-01 7.0376649E+00 4.5383341E+00 2.1865540E+00
  0.000E+00  1.340E-01  5.000E-01 7.1592221E+00 4.4519707E+00 2.5700275E+00
  4.318E-02  1.218E-01  5.217E-01 7.0970726E+00 4.4219598E+00 2.4081436E+00
  0.000E+00  1.600E-01  4.575E-01 7.3072334E+00 4.3192196E+00 2.7896373E+00
  4.318E-02  1.467E-01  4.786E-01 7.2589889E+00 4.2963740E+00 2.6252156E+00
  0.000E+00  1.881E-01  4.163E-01 7.3345482E+00 4.1747718E+00 3.0015658E+00
  4.318E-02  1.738E-01  4.367E-01 7.3077659E+00 4.1608352E+00 2.8369393E+00
  0.000E+00  2.182E-01  3.765E-01 7.4299963E+00 4.0197632E+00 3.2056515E+00
  4.318E-02  2.029E-01  3.962E-01 7.3982861E+00 4.0138795E+00 3.0404256E+00
  0.000E+00  2.502E-01  3.383E-01 7.4442804E+00 3.8551151E+00 3.4022002E+00
  4.318E-02  2.340E-01  3.572E-01 7.4538516E+00 3.8574273E+00 3.2367845E+00
  0.000E+00  2.841E-01  3.018E-01 7.4906560E+00 3.6806437E+00 3.5900307E+00
  4.318E-02  2.669E-01  3.198E-01 7.4577096E+00 3.6912826E+00 3.4250526E+00
  0.000E+00  3.198E-01  2.669E-01 7.4576893E+00 3.4971845E+00 3.7690773E+00
  4.318E-02  3.018E-01  2.841E-01 7.4906757E+00 3.5159330E+00 3.6047263E+00
  0.000E+00  3.572E-01  2.340E-01 7.4538311E+00 3.3049474E+00 3.9387166E+00
  4.318E-02  3.383E-01  2.502E-01 7.4442997E+00 3.3319749E+00 3.7755967E+00
  0.000E+00  3.962E-01  2.029E-01 7.3982653E+00 3.1044505E+00 4.0984690E+00
  4.318E-02  3.765E-01  2.182E-01 7.4300152E+00 3.1394813E+00 3.9368447E+00
  0.000E+00  4.367E-01  1.738E-01 7.3077452E+00 2.8966746E+00 4.2485149E+00
  4.318E-02  4.163E-01  1.881E-01 7.3345666E+00 2.9396040E+00 4.0886589E+00
  0.000E+00  4.786E-01  1.467E-01 7.2589693E+00 2.6804906E+00 4.3869070E+00
  4.318E-02  4.575E-01  1.600E-01 7.3072520E+00 2.7320469E+00 4.2301134E+00
  0.000E+00  5.217E-01  1.218E-01 7.0970536E+00 2.4588447E+00 4.5151506E+00
  4.318E-02  5.000E-01  1.340E-01 7.1592412E+00 2.5169681E+00 4.3601381E+00
  0.000E+00  5.661E-01  9.903E-02 7.0376455E+00 2.2325862E+00 4.6339566E+00
  4.318E-02  5.438E-01  1.101E-01 7.0773127E+00 2.2983014E+00 4.4816988E+00
  0.000E+00  6.116E-01  7.852E-02 6.9015944E+00 1.9960190E+00 4.7375114E+00
  4.318E-02  5.887E-01  8.849E-02 6.9834821E+00 2.0719441E+00 4.5910362E+00
  0.000E+00  6.580E-01  6.031E-02 6.7400056E+00 1.7544913E+00 4.8285875E+00
  4.318E-02  6.347E-01  6.913E-02 6.8085774E+00 1.8364379E+00 4.6853419E+00
  0.000E+00  7.052E-01  4.443E-02 6.6586721E+00 1.5156244E+00 4.9128634E+00
  4.318E-02  6.815E-01  5.207E-02 6.6980393E+00 1.6010874E+00 4.7711295E+00
  0.000E+00  7.532E-01  3.092E-02 6.5656067E+00 1.2735194E+00 4.9856498E+00
  4.318E-02  7.292E-01  3.738E-02 6.6162457E+00 1.3667904E+00 4.8490230E+00
  0.000E+00  8.019E-01  1.983E-02 6.4544756E+00 1.0223222E+00 5.0418826E+00
  4.318E-02  7.775E-01  2.507E-02 6.5096722E+00 1.1252430E+00 4.9122924E+00
  0.000E+00  8.510E-01  1.117E-02 6.3533761E+00 7.6594975E-01 5.0839889E+00
  4.318E-02  8.264E-01  1.519E-02 6.4006570E+00 8.7594996E-01 4.9599760E+00
  0.000E+00  9.004E-01  4.969E-03 6.2832021E+00 5.0950104E-01 5.1146176E+00
  4.318E-02  8.757E-01  7.761E-03 6.3156101E+00 6.2437261E-01 4.9954084E+00
  4.318E-02  9.253E-01  2.796E-03 6.2614993E+00 3.7395403E-01 5.0199818E+00
  1.000E+01  1.050E+00  1.243E-03 6.2459202E+00 -2.5445754E-01 5.1338474E+00
  1.000E+01  1.000E+00  5.551E-16 6.2347104E+00 -1.8061137E-05 5.1404824E+00
  9.957E+00  1.025E+00  3.108E-04 6.2360435E+00 -1.2983965E-01 5.2452259E+00
  1.000E+01  9.502E-01  1.243E-03 6.2459215E+00 2.5442075E-01 5.1338495E+00
  9.957E+00  9.751E-01  3.108E-04 6.2360442E+00 1.2980433E-01 5.2452269E+00
  1.000E+01  9.004E-01  4.969E-03 6.2832021E+00 5.0950104E-01 5.1146176E+00
  9.957E+00  9.253E-01  2.796E-03 6.2614950E+00 3.8973977E-01 5.2318985E+00
  1.000E+01  8.510E-01  1.117E-02 6.3533761E+00 7.6594975E-01 5.0839889E+00
  9.957E+00  8.757E-01  7.761E-03 6.3156056E+00 6.5073119E-01 5.2062872E+00
  1.000E+01  8.019E-01  1.983E-02 6.4544756E+00 1.0223222E+00 5.0418826E+00
  9.957E+00  8.264E-01  1.519E-02 6.4006526E+00 9.1292977E-01 5.1693586E+00
  1.000E+01  7.532E-01  3.092E-02 6.5656067E+00 1.2735194E+00 4.9856498E+00
  9.957E+00  7.775E-01  2.507E-02 6.5096676E+00 1.1727449E+00 5.1196618E+00
  1.000E+01  7.052E-01  4.443E-02 6.6586721E+00 1.5156244E+00 4.9128634E+00
  9.957E+00  7.292E-01  3.738E-02 6.6162409E+00 1.4244873E+00 5.0537211E+00
  1.000E+01  6.580E-01  6.031E-02 6.7400056E+00 1.7544913E+00 4.8285875E+00
  9.957E+00  6.815E-01  5.207E-02 6.6980347E+00 1.6686749E+00 4.9725387E+00
  1.000E+01  6.116E-01  7.852E-02 6.9015944E+00 1.9960190E+00 4.7375114E+00
  9.957E+00  6.347E-01  6.913E-02 6.8085732E+00 1.9139622E+00 4.8831290E+00
  1.000E+01  5.661E-01  9.903E-02 7.0376455E+00 2.2325862E+00 4.6339566E+00
  9.957E+00  5.887E-01  8.849E-02 6.9834777E+00 2.1594096E+00 4.7848416E+00
  1.000E+01  5.217E-01  1.218E-01 7.0970536E+00 2.4588447E+00 4.5151506E+00
  9.957E+00  5.438E-01  1.101E-01 7.0773087E+00 2.3953219E+00 4.6708885E+00
  1.000E+01  4.786E-01  1.467E-01 7.2589693E+00 2.6804906E+00 4.3869070E+00
  9.957E+00  5.000E-01  1.340E-01 7.1592372E+00 2.6232200E+00 4.5441950E+00
  1.000E+01  4.367E-01  1.738E-01 7.3077452E+00 2.8966746E+00 4.2485149E+00
  9.957E+00  4.575E-01  1.600E-01 7.3072480E+00 2.8473787E+00 4.4086811E+00
  1.000E+01  3.962E-01  2.029E-01 7.3982653E+00 3.1044505E+00 4.0984690E+00
  9.957E+00  4.163E-01  1.881E-01 7.3345626E+00 3.0636969E+00 4.2612552E+00
  1.000E+01  3.572E-01  2.340E-01 7.4538311E+00 3.3049474E+00 3.9387166E+00
  9.957E+00  3.765E-01  2.182E-01 7.4300111E+00 3.2720107E+00 4.1030325E+00
  1.000E+01  3.198E-01  2.669E-01 7.4576893E+00 3.4971845E+00 3.7690773E+00
  9.957E+00  3.383E-01  2.502E-01 7.4442958E+00 3.4726300E+00 3.9349780E+00
  1.000E+01  2.841E-01  3.018E-01 7.4906560E+00 3.6806437E+00 3.5900307E+00
  9.957E+00  3.018E-01  2.841E-01 7.4906718E+00 3.6643534E+00 3.7568945E+00
  1.000E+01  2.502E-01  3.383E-01 7.4442804E+00 3.8551151E+00 3.4022002E+00
  9.957E+00  2.669E-01  3.198E-01 7.4577054E+00 3.8471053E+00 3.5696356E+00
  1.000E+01  2.182E-01  3.765E-01 7.4299963E+00 4.0197632E+00 3.2056515E+00
  9.957E+00  2.340E-01  3.572E-01 7.4538475E+00 4.0202643E+00 3.3734196E+00
  1.000E+01  1.881E-01  4.163E-01 7.3345482E+00 4.1747718E+00 3.0015658E+00
  9.957E+00  2.029E-01  3.962E-01 7.3982819E+00 4.1833217E+00 3.1687708E+00
  1.000E+01  1.600E-01  4.575E-01 7.3072334E+00 4.3192196E+00 2.7896373E+00
  9.957E+00  1.738E-01  4.367E-01 7.3077617E+00 4.3364818E+00 2.9566933E+00
  1.000E+01  1.340E-01  5.000E-01 7.1592221E+00 4.4519707E+00 2.5700275E+00
  9.957E+00  1.467E-01  4.786E-01 7.2589844E+00 4.4777425E+00 2.7360318E+00
  1.000E+01  1.101E-01  5.438E-01 7.0772946E+00 4.5760996E+00 2.3467545E+00
  9.957E+00  1.218E-01  5.217E-01 7.0970683E+00 4.6086299E+00 2.5097972E+00
  1.000E+01  8.849E-02  5.887E-01 6.9834643E+00 4.6877565E+00 2.1156294E+00
  9.957E+00  9.903E-02  5.661E-01 7.0376606E+00 4.7299168E+00 2.2788540E+00
  1.000E+01  6.913E-02  6.347E-01 6.8085593E+00 4.7840319E+00 1.8751610E+00
  9.957E+00  7.852E-02  6.116E-01 6.9016095E+00 4.8356145E+00 2.0373887E+00
  1.000E+01  5.207E-02  6.815E-01 6.6980213E+00 4.8716269E+00 1.6348513E+00
  9.957E+00  6.031E-02  6.580E-01 6.7400207E+00 4.9285623E+00 1.7908595E+00
  1.000E+01  3.738E-02  7.292E-01 6.6162301E+00 4.9511804E+00 1.3956199E+00
  9.957E+00  4.443E-02  7.052E-01 6.6586873E+00 5.0145968E+00 1.5470466E+00
  1.000E+01  2.507E-02  7.775E-01 6.5096584E+00 5.0157866E+00 1.1489852E+00
  9.957E+00  3.092E-02  7.532E-01 6.5656224E+00 5.0889027E+00 1.2999277E+00
  1.000E+01  1.519E-02  8.264E-01 6.4006430E+00 5.0644677E+00 8.9444071E-01
  9.957E+00  1.983E-02  8.019E-01 6.4544908E+00 5.1462966E+00 1.0435273E+00
  1.000E+01  7.761E-03  8.757E-01 6.3155954E+00 5.1006435E+00 6.3756189E-01
  9.957E+00  1.117E-02  8.510E-01 6.3533906E+00 5.1892693E+00 7.8184522E-01
  1.000E+01  2.796E-03  9.253E-01 6.2614860E+00 5.1257403E+00 3.8186708E-01
  9.957E+00  4.969E-03  9.004E-01 6.2832176E+00 5.2205345E+00 5.2008666E-01
  1.000E+01  3.108E-04  9.751E-01 6.2360371E+00 5.1388059E+00 1.2720499E-01
  9.957E+00  1.243E-03  9.502E-01 6.2459386E+00 5.2401719E+00 2.5972505E-01
  1.000E+01  3.108E-04  1.025E+00 6.2360375E+00 5.1388086E+00 -1.2717237E-01
  9.957E+00  0.000E+00  1.000E+00 6.2347298E+00 5.2469494E+00 1.5780351E-05
  1.000E+01  2.796E-03  1.075E+00 6.2614869E+00 5.1257487E+00 -3.8183447E-01
  9.957E+00  1.243E-03  1.050E+00 6.2459388E+00 5.2401773E+00 -2.5969353E-01
  1.000E+01  7.761E-03  1.124E+00 6.3155965E+00 5.1006567E+00 -6.3752937E-01
  9.957E+00  4.969E-03  1.100E+00 6.2832181E+00 5.2205459E+00 -5.2005524E-01
  1.000E+01  1.519E-02  1.174E+00 6.4006443E+00 5.0644792E+00 -8.9440840E-01
  9.957E+00  1.117E-02  1.149E+00 6.3533917E+00 5.1892828E+00 -7.8181395E-01
  1.000E+01  2.507E-02  1.223E+00 6.5096599E+00 5.0157879E+00 -1.1489531E+00
  9.957E+00  1.983E-02  1.198E+00 6.4544924E+00 5.1463030E+00 -1.0434962E+00
  1.000E+01  3.738E-02  1.271E+00 6.6162321E+00 4.9511838E+00 -1.3955882E+00
  9.957E+00  3.092E-02  1.247E+00 6.5656244E+00 5.0889014E+00 -1.2998970E+00
  1.000E+01  5.207E-02  1.318E+00 6.6980237E+00 4.8716575E+00 -1.6348200E+00
  9.957E+00  4.443E-02  1.295E+00 6.6586895E+00 5.0146120E+00 -1.5470163E+00
  1.000E+01  6.913E-02  1.365E+00 6.8085619E+00 4.7840614E+00 -1.8751302E+00
  9.957E+00  6.031E-02  1.342E+00 6.7400231E+00 4.9286005E+00 -1.7908297E+00
  1.000E+01  8.849E-02  1.411E+00 6.9834675E+00 4.6877547E+00 -2.1155989E+00
  9.957E+00  7.852E-02  1.388E+00 6.9016123E+00 4.8356241E+00 -2.0373594E+00
  1.000E+01  1.101E-01  1.456E+00 7.0772979E+00 4.5761266E+00 -2.3467249E+00
  9.957E+00  9.903E-02  1.434E+00 7.0376637E+00 4.7299221E+00 -2.2788250E+00
  1.000E+01  1.340E-01  1.500E+00 7.1592256E+00 4.4520054E+00 -2.5699988E+00
  9.957E+00  1.218E-01  1.478E+00 7.0970716E+00 4.6086719E+00 -2.5097694E+00
  1.000E+01  1.600E-01  1.543E+00 7.3072372E+00 4.3192284E+00 -2.7896090E+00
  9.957E+00  1.467E-01  1.521E+00 7.2589878E+00 4.4777570E+00 -2.7360042E+00
  1.000E+01  1.881E-01  1.584E+00 7.3345522E+00 4.1748048E+00 -3.0015391E+00
  9.957E+00  1.738E-01  1.563E+00 7.3077654E+00 4.3365019E+00 -2.9566670E+00
  1.000E+01  2.182E-01  1.623E+00 7.4300005E+00 4.0197853E+00 -3.2056253E+00
  9.957E+00  2.029E-01  1.604E+00 7.3982859E+00 4.1833515E+00 -3.1687453E+00
  1.000E+01  2.502E-01  1.662E+00 7.4442850E+00 3.8551418E+00 -3.4021753E+00
  9.957E+00  2.340E-01  1.643E+00 7.4538518E+00 4.0202833E+00 -3.3733950E+00
  1.000E+01  2.841E-01  1.698E+00 7.4906609E+00 3.6806721E+00 -3.5900069E+00
  9.957E+00  2.669E-01  1.680E+00 7.4577099E+00 3.8471361E+00 -3.5696125E+00
  1.000E+01  3.198E-01  1.733E+00 7.4576945E+00 3.4972123E+00 -3.7690549E+00
  9.957E+00  3.018E-01  1.716E+00 7.4906765E+00 3.6643779E+00 -3.7568723E+00
  1.000E+01  3.572E-01  1.766E+00 7.4538367E+00 3.3049790E+00 -3.9386956E+00
  9.957E+00  3.383E-01  1.750E+00 7.4443009E+00 3.4726604E+00 -3.9349574E+00
  1.000E+01  3.962E-01  1.797E+00 7.3982712E+00 3.1044817E+00 -4.0984495E+00
  9.957E+00  3.765E-01  1.782E+00 7.4300165E+00 3.2720397E+00 -4.1030131E+00
  1.000E+01  4.367E-01  1.826E+00 7.3077516E+00 2.8967077E+00 -4.2484970E+00
  9.957E+00  4.163E-01  1.812E+00 7.3345684E+00 3.0637285E+00 -4.2612374E+00
  1.000E+01  4.786E-01  1.853E+00 7.2589758E+00 2.6805227E+00 -4.3868904E+00
  9.957E+00  4.575E-01  1.840E+00 7.3072542E+00 2.8474103E+00 -4.4086648E+00
  1.000E+01  5.217E-01  1.878E+00 7.0970602E+00 2.4588783E+00 -4.5151357E+00
  9.957E+00  5.000E-01  1.866E+00 7.1592441E+00 2.6232535E+00 -4.5441805E+00
  1.000E+01  5.661E-01  1.901E+00 7.0376528E+00 2.2326195E+00 -4.6339437E+00
  9.957E+00  5.438E-01  1.890E+00 7.0773160E+00 2.3953544E+00 -4.6708757E+00
  1.000E+01  6.116E-01  1.921E+00 6.9016033E+00 1.9960555E+00 -4.7375008E+00
  9.957E+00  5.887E-01  1.912E+00 6.9834848E+00 2.1594421E+00 -4.7848300E+00
  1.000E+01  6.580E-01  1.940E+00 6.7400158E+00 1.7545277E+00 -4.8285788E+00
  9.957E+00  6.347E-01  1.931E+00 6.8085805E+00 1.9139951E+00 -4.8831193E+00
  1.000E+01  7.052E-01  1.956E+00 6.6586824E+00 1.5156607E+00 -4.9128567E+00
  9.957E+00  6.815E-01  1.948E+00 6.6980425E+00 1.6687078E+00 -4.9725307E+00
  1.000E+01  7.532E-01  1.969E+00 6.5656166E+00 1.2735548E+00 -4.9856449E+00
  9.957E+00  7.292E-01  1.963E+00 6.6162498E+00 1.4245211E+00 -5.0537149E+00
  1.000E+01  8.019E-01  1.980E+00 6.4544853E+00 1.0223574E+00 -5.0418795E+00
  9.957E+00  7.775E-01  1.975E+00 6.5096778E+00 1.1727792E+00 -5.1196577E+00
  1.000E+01  8.510E-01  1.989E+00 6.3533863E+00 7.6598433E-01 -5.0839875E+00
  9.957E+00  8.264E-01  1.985E+00 6.4006636E+00 9.1296474E-01 -5.1693566E+00
  1.000E+01  9.004E-01  1.995E+00 6.2832134E+00 5.0953562E-01 -5.1146181E+00
  9.957E+00  8.757E-01  1.992E+00 6.3156170E+00 6.5076557E-01 -5.2062872E+00
  1.000E+01  9.502E-01  1.999E+00 6.2459340E+00 2.5445600E-01 -5.1338519E+00
  9.957E+00  9.253E-01  1.997E+00 6.2615067E+00 3.8977466E-01 -5.2319005E+00
  1.000E+01  1.000E+00  2.000E+00 6.2347238E+00 1.6829144E-05 -5.1404867E+00
  9.957E+00  9.751E-01  2.000E+00 6.2360562E+00 1.2983847E-01 -5.2452309E+00
  1.000E+01  1.050E+00  1.999E+00 6.2459341E+00 -2.5442166E-01 -5.1338537E+00
  9.957E+00  1.025E+00  2.000E+00 6.2360563E+00 -1.2980592E-01 -5.2452318E+00
  1.000E+01  1.100E+00  1.995E+00 6.2832136E+00 -5.0950175E-01 -5.1146219E+00
  9.957E+00  1.075E+00  1.997E+00 6.2615068E+00 -3.8974171E-01 -5.2319032E+00
  1.000E+01  1.149E+00  1.989E+00 6.3533865E+00 -7.6595053E-01 -5.0839931E+00
  9.957E+00  1.124E+00  1.992E+00 6.3156172E+00 -6.5073337E-01 -5.2062917E+00
  1.000E+01  1.198E+00  1.980E+00 6.4544856E+00 -1.0223234E+00 -5.0418869E+00
  9.957E+00  1.174E+00  1.985E+00 6.4006639E+00 -9.1293200E-01 -5.1693628E+00