# TIME = 3.000000
VARIABLES = X, Y, Z, FX, FY, FZ
ZONE N=29232 E=58212 F=FEPOINT ET=TRIANGLE
  0.000E+00  9.502E-01  1.243E-03 6.1959792E+00 4.1409939E-01 8.3553678E+00
  0.000E+00  1.000E+00  0.000E+00 6.1846336E+00 9.7325328E-06 8.3661660E+00
  4.318E-02  9.751E-01  3.108E-04 6.1860239E+00 2.0412287E-01 8.2469980E+00
  0.000E+00  1.050E+00  1.243E-03 6.1959833E+00 -4.1408109E-01 8.3553686E+00
  4.318E-02  1.025E+00  3.108E-04 6.1860260E+00 -2.0410547E-01 8.2469983E+00
  0.000E+00  1.100E+00  4.969E-03 6.2336402E+00 -8.2921486E-01 8.3240648E+00
  4.318E-02  1.075E+00  2.796E-03 6.2117278E+00 -6.1279141E-01 8.2260390E+00
  0.000E+00  1.149E+00  1.117E-02 6.3043508E+00 -1.2465792E+00 8.2742121E+00
  4.318E-02  1.124E+00  7.761E-03 6.2662965E+00 -1.0231331E+00 8.1857667E+00
  0.000E+00  1.198E+00  1.983E-02 6.4061137E+00 -1.6638233E+00 8.2056799E+00
  4.318E-02  1.174E+00  1.519E-02 6.3519549E+00 -1.4353774E+00 8.1277000E+00
  0.000E+00  1.247E+00  3.092E-02 6.5181162E+00 -2.0726438E+00 8.1141553E+00
  4.318E-02  1.223E+00  2.507E-02 6.4617289E+00 -1.8438767E+00 8.0495577E+00
  0.000E+00  1.295E+00  4.443E-02 6.6123867E+00 -2.4666634E+00 7.9956850E+00
  4.318E-02  1.271E+00  3.738E-02 6.5693197E+00 -2.2396817E+00 7.9458725E+00
  0.000E+00  1.342E+00  6.031E-02 6.6951703E+00 -2.8554122E+00 7.8585150E+00
  4.318E-02  1.318E+00  5.207E-02 6.6524747E+00 -2.6236040E+00 7.8182203E+00
  0.000E+00  1.388E+00  7.852E-02 6.8577215E+00 -3.2484981E+00 7.7102832E+00
  4.318E-02  1.365E+00  6.913E-02 6.7643113E+00 -3.0092605E+00 7.6776362E+00
  0.000E+00  1.434E+00  9.903E-02 6.9947810E+00 -3.6335071E+00 7.5417412E+00
  4.318E-02  1.411E+00  8.849E-02 6.9400587E+00 -3.3951749E+00 7.5230980E+00
  0.000E+00  1.478E+00  1.218E-01 7.0556456E+00 -4.0017414E+00 7.3483741E+00
  4.318E-02  1.456E+00  1.101E-01 7.0351300E+00 -3.7660935E+00 7.3439225E+00
  0.000E+00  1.521E+00  1.467E-01 7.2182610E+00 -4.3624675E+00 7.1396516E+00
  4.318E-02  1.500E+00  1.340E-01 7.1183268E+00 -4.1244112E+00 7.1447172E+00
  0.000E+00  1.563E+00  1.738E-01 7.2680225E+00 -4.7143102E+00 6.9144132E+00
  4.318E-02  1.543E+00  1.600E-01 7.2669488E+00 -4.4768492E+00 6.9316467E+00
  0.000E+00  1.604E+00  2.029E-01 7.3592184E+00 -5.0524625E+00 6.6702072E+00
  4.318E-02  1.584E+00  1.881E-01 7.2953318E+00 -4.8169648E+00 6.6998452E+00
  0.000E+00  1.643E+00  2.340E-01 7.4151649E+00 -5.3787738E+00 6.4102054E+00
  4.318E-02  1.623E+00  2.182E-01 7.3911687E+00 -5.1444910E+00 6.4510689E+00
  0.000E+00  1.680E+00  2.669E-01 7.4194843E+00 -5.6916364E+00 6.1341133E+00
  4.318E-02  1.662E+00  2.502E-01 7.4059863E+00 -5.4599261E+00 6.1868354E+00
  0.000E+00  1.716E+00  3.018E-01 7.4523239E+00 -5.9902203E+00 5.8427110E+00
  4.318E-02  1.698E+00  2.841E-01 7.4523518E+00 -5.7613624E+00 5.9068334E+00
  0.000E+00  1.750E+00  3.383E-01 7.4059570E+00 -6.2741735E+00 5.5370145E+00
  4.318E-02  1.733E+00  3.198E-01 7.4195109E+00 -6.0487133E+00 5.6124077E+00
  0.000E+00  1.782E+00  3.765E-01 7.3911379E+00 -6.5421350E+00 5.2171282E+00
  4.318E-02  1.766E+00  3.572E-01 7.4151898E+00 -6.3209526E+00 5.3038979E+00
  0.000E+00  1.812E+00  4.163E-01 7.2952997E+00 -6.7944345E+00 4.8849786E+00
  4.318E-02  1.797E+00  3.962E-01 7.3592419E+00 -6.5773452E+00 4.9821316E+00
  0.000E+00  1.840E+00  4.575E-01 7.2669146E+00 -7.0294905E+00 4.5400622E+00
  4.318E-02  1.826E+00  4.367E-01 7.2680441E+00 -6.8181456E+00 4.6486868E+00
  0.000E+00  1.866E+00  5.000E-01 7.1182900E+00 -7.2455899E+00 4.1826468E+00
  4.318E-02  1.853E+00  4.786E-01 7.2182798E+00 -7.0402434E+00 4.3017423E+00
  0.000E+00  1.890E+00  5.438E-01 7.0350923E+00 -7.4476061E+00 3.8192718E+00
  4.318E-02  1.878E+00  5.217E-01 7.0556618E+00 -7.2460844E+00 3.9460381E+00
  0.000E+00  1.912E+00  5.887E-01 6.9400197E+00 -7.6292904E+00 3.4431169E+00
  4.318E-02  1.901E+00  5.661E-01 6.9947955E+00 -7.4367336E+00 3.5829316E+00
  0.000E+00  1.931E+00  6.347E-01 6.7642698E+00 -7.7860335E+00 3.0517531E+00
  4.318E-02  1.921E+00  6.116E-01 6.8577342E+00 -7.6029327E+00 3.2032808E+00
  0.000E+00  1.948E+00  6.815E-01 6.6524311E+00 -7.9286045E+00 2.6606518E+00
  4.318E-02  1.940E+00  6.580E-01 6.6951811E+00 -7.7491227E+00 2.8156661E+00
  0.000E+00  1.963E+00  7.292E-01 6.5692763E+00 -8.0580454E+00 2.2713107E+00
  4.318E-02  1.956E+00  7.052E-01 6.6123960E+00 -7.8843673E+00 2.4323280E+00
  0.000E+00  1.975E+00  7.775E-01 6.4616852E+00 -8.1631971E+00 1.8699184E+00
  4.318E-02  1.969E+00  7.532E-01 6.5181249E+00 -8.0011815E+00 2.0437956E+00
  0.000E+00  1.985E+00  8.264E-01 6.3519094E+00 -8.2424477E+00 1.4556506E+00
  4.318E-02  1.980E+00  8.019E-01 6.4061202E+00 -8.0914389E+00 1.6406685E+00
  0.000E+00  1.992E+00  8.757E-01 6.2662482E+00 -8.3013320E+00 1.0375850E+00
  4.318E-02  1.989E+00  8.510E-01 6.3043542E+00 -8.1590199E+00 1.2292340E+00
  0.000E+00  1.997E+00  9.253E-01 6.2116789E+00 -8.3421745E+00 6.2144920E-01
  4.318E-02  1.995E+00  9.004E-01 6.2336419E+00 -8.2081787E+00 8.1767957E-01
  0.000E+00  2.000E+00  9.751E-01 6.1859771E+00 -8.3634336E+00 2.0699512E-01
  4.318E-02  1.999E+00  9.502E-01 6.1959856E+00 -8.2390516E+00 4.0832432E-01
  0.000E+00  2.000E+00  1.025E+00 6.1859740E+00 -8.3634314E+00 -2.0699490E-01
  4.318E-02  2.000E+00  1.000E+00 6.1846353E+00 -8.2496999E+00 -8.2400652E-07
  0.000E+00  1.997E+00  1.075E+00 6.2116697E+00 -8.3421673E+00 -6.2144887E-01
  4.318E-02  1.999E+00  1.050E+00 6.1959793E+00 -8.2390472E+00 -4.0832592E-01
  0.000E+00  1.992E+00  1.124E+00 6.2662328E+00 -8.3013212E+00 -1.0375845E+00
  4.318E-02  1.995E+00  1.100E+00 6.2336294E+00 -8.2081689E+00 -8.1768101E-01
  0.000E+00  1.985E+00  1.174E+00 6.3518879E+00 -8.2424441E+00 -1.4556498E+00
  4.318E-02  1.989E+00  1.149E+00 6.3043356E+00 -8.1590107E+00 -1.2292352E+00
  0.000E+00  1.975E+00  1.223E+00 6.4616579E+00 -8.1632144E+00 -1.8699172E+00
  4.318E-02  1.980E+00  1.198E+00 6.4060956E+00 -8.0914450E+00 -1.6406695E+00
  0.000E+00  1.963E+00  1.271E+00 6.5692434E+00 -8.0580633E+00 -2.2713090E+00
  4.318E-02  1.969E+00  1.247E+00 6.5180945E+00 -8.0012035E+00 -2.0437960E+00
  0.000E+00  1.948E+00  1.318E+00 6.6523929E+00 -7.9285821E+00 -2.6606495E+00
  4.318E-02  1.956E+00  1.295E+00 6.6123602E+00 -7.8843670E+00 -2.4323279E+00
  0.000E+00  1.931E+00  1.365E+00 6.7642267E+00 -7.7860170E+00 -3.0517503E+00
  4.318E-02  1.940E+00  1.342E+00 6.6951401E+00 -7.7490900E+00 -2.8156654E+00
  0.000E+00  1.912E+00  1.411E+00 6.9399714E+00 -7.6293276E+00 -3.4431134E+00
  4.318E-02  1.921E+00  1.388E+00 6.8576886E+00 -7.6029491E+00 -3.2032799E+00
  0.000E+00  1.890E+00  1.456E+00 7.0350405E+00 -7.4476012E+00 -3.8192678E+00
  4.318E-02  1.901E+00  1.434E+00 6.9947453E+00 -7.4367600E+00 -3.5829299E+00
  0.000E+00  1.866E+00  1.500E+00 7.1182345E+00 -7.2455756E+00 -4.1826419E+00
  4.318E-02  1.878E+00  1.478E+00 7.0556075E+00 -7.2460561E+00 -3.9460351E+00
  0.000E+00  1.840E+00  1.543E+00 7.2668558E+00 -7.0295219E+00 -4.5400575E+00
  4.318E-02  1.853E+00  1.521E+00 7.2182220E+00 -7.0402615E+00 -4.3017395E+00
  0.000E+00  1.812E+00  1.584E+00 7.2952381E+00 -6.7944299E+00 -4.8849722E+00
  4.318E-02  1.826E+00  1.563E+00 7.2679833E+00 -6.8181578E+00 -4.6486828E+00
  0.000E+00  1.782E+00  1.623E+00 7.3910742E+00 -6.5421514E+00 -5.2171220E+00
  4.318E-02  1.797E+00  1.604E+00 7.3591785E+00 -6.5773451E+00 -4.9821270E+00
  0.000E+00  1.750E+00  1.662E+00 7.4058916E+00 -6.2741851E+00 -5.5370073E+00
  4.318E-02  1.766E+00  1.643E+00 7.4151244E+00 -6.3209724E+00 -5.3038930E+00
  0.000E+00  1.716E+00  1.698E+00 7.4522575E+00 -5.9902316E+00 -5.8427036E+00
  4.318E-02  1.733E+00  1.680E+00 7.4194442E+00 -6.0487172E+00 -5.6124016E+00
  0.000E+00  1.680E+00  1.733E+00 7.4194173E+00 -5.6916514E+00 -6.1341052E+00
  4.318E-02  1.698E+00  1.716E+00 7.4522842E+00 -5.7613788E+00 -5.9068275E+00
  0.000E+00  1.643E+00  1.766E+00 7.4150978E+00 -5.3787855E+00 -6.4101970E+00
  4.318E-02  1.662E+00  1.750E+00 7.4059184E+00 -5.4599352E+00 -6.1868285E+00
  0.000E+00  1.604E+00  1.797E+00 7.3591520E+00 -5.0524770E+00 -6.6701985E+00
  4.318E-02  1.623E+00  1.782E+00 7.3911010E+00 -5.1445043E+00 -6.4510619E+00
  0.000E+00  1.563E+00  1.826E+00 7.2679572E+00 -4.7143227E+00 -6.9144039E+00
  4.318E-02  1.584E+00  1.812E+00 7.2952648E+00 -4.8169764E+00 -6.6998377E+00
  0.000E+00  1.521E+00  1.853E+00 7.2181972E+00 -4.3624828E+00 -7.1396422E+00
  4.318E-02  1.543E+00  1.840E+00 7.2668830E+00 -4.4768630E+00 -6.9316391E+00
  0.000E+00  1.478E+00  1.878E+00 7.0555832E+00 -4.0017566E+00 -7.3483647E+00
  4.318E-02  1.500E+00  1.866E+00 7.1182629E+00 -4.1244237E+00 -7.1447094E+00
  0.000E+00  1.434E+00  1.901E+00 6.9947205E+00 -3.6335258E+00 -7.5417320E+00
  4.318E-02  1.456E+00  1.890E+00 7.0350685E+00 -3.7661080E+00 -7.3439145E+00
  0.000E+00  1.388E+00  1.921E+00 6.8576640E+00 -3.2485134E+00 -7.7102738E+00
  4.318E-02  1.411E+00  1.912E+00 6.9399997E+00 -3.3951896E+00 -7.5230899E+00
  0.000E+00  1.342E+00  1.940E+00 6.6951170E+00 -2.8554273E+00 -7.8585053E+00
  4.318E-02  1.365E+00  1.931E+00 6.7642544E+00 -3.0092762E+00 -7.6776283E+00
  0.000E+00  1.295E+00  1.956E+00 6.6123373E+00 -2.4666776E+00 -7.9956748E+00
  4.318E-02  1.318E+00  1.948E+00 6.6524204E+00 -2.6236222E+00 -7.8182130E+00
  0.000E+00  1.247E+00  1.969E+00 6.5180699E+00 -2.0726600E+00 -8.1141453E+00
  4.318E-02  1.271E+00  1.963E+00 6.5692691E+00 -2.2396997E+00 -7.9458658E+00
  0.000E+00  1.198E+00  1.980E+00 6.4060699E+00 -1.6638418E+00 -8.2056706E+00
  4.318E-02  1.223E+00  1.975E+00 6.4616827E+00 -1.8438937E+00 -8.0495512E+00
  0.000E+00  1.149E+00  1.989E+00 6.3043100E+00 -1.2466003E+00 -8.2742039E+00
  4.318E-02  1.174E+00  1.985E+00 6.3519130E+00 -1.4353928E+00 -8.1276935E+00
  0.000E+00  1.100E+00  1.995E+00 6.2336032E+00 -8.2923637E-01 -8.3240577E+00
  4.318E-02  1.124E+00  1.992E+00 6.2662584E+00 -1.0231492E+00 -8.1857602E+00
  0.000E+00  1.050E+00  1.999E+00 6.1959505E+00 -4.1410109E-01 -8.3553624E+00
  4.318E-02  1.075E+00  1.997E+00 6.2116933E+00 -6.1280691E-01 -8.2260328E+00
  0.000E+00  1.000E+00  2.000E+00 6.1846049E+00 -1.0001528E-05 -8.3661606E+00
  4.318E-02  1.025E+00  2.000E+00 6.1859951E+00 -2.0412262E-01 -8.2469925E+00
  0.000E+00  9.502E-01  1.999E+00 6.1959542E+00 4.1408227E-01 -8.3553631E+00
  4.318E-02  9.751E-01  2.000E+00 6.1859970E+00 2.0410466E-01 -8.2469928E+00
  0.000E+00  9.004E-01  1.995E+00 6.2336107E+00 8.2921695E-01 -8.3240591E+00
  4.318E-02  9.253E-01  1.997E+00 6.2116990E+00 6.1278970E-01 -8.2260337E+00
  0.000E+00  8.510E-01  1.989E+00 6.3043211E+00 1.2465811E+00 -8.2742061E+00
  4.318E-02  8.757E-01  1.992E+00 6.2662678E+00 1.0231310E+00 -8.1857617E+00
  0.000E+00  8.019E-01  1.980E+00 6.4060846E+00 1.6638233E+00 -8.2056734E+00
  4.318E-02  8.264E-01  1.985E+00 6.3519261E+00 1.4353758E+00 -8.1276956E+00
  0.000E+00  7.532E-01  1.969E+00 6.5180880E+00 2.0726412E+00 -8.1141488E+00
  4.318E-02  7.775E-01  1.975E+00 6.4616993E+00 1.8438764E+00 -8.0495538E+00
  0.000E+00  7.052E-01  1.956E+00 6.6123587E+00 2.4666594E+00 -7.9956789E+00
  4.318E-02  7.292E-01  1.963E+00 6.5692891E+00 2.2396829E+00 -7.9458689E+00
  0.000E+00  6.580E-01  1.940E+00 6.6951415E+00 2.8554091E+00 -7.8585099E+00
  4.318E-02  6.815E-01  1.948E+00 6.6524437E+00 2.6236054E+00 -7.8182167E+00
  0.000E+00  6.116E-01  1.921E+00 6.8576915E+00 3.2484971E+00 -7.7102792E+00
  4.318E-02  6.347E-01  1.931E+00 6.7642808E+00 3.0092607E+00 -7.6776324E+00
  0.000E+00  5.661E-01  1.901E+00 6.9947506E+00 3.6335073E+00 -7.5417375E+00
  4.318E-02  5.887E-01  1.912E+00 6.9400286E+00 3.3951736E+00 -7.5230939E+00
  0.000E+00  5.217E-01  1.878E+00 7.0556156E+00 4.0017412E+00 -7.3483708E+00
  4.318E-02  5.438E-01  1.890E+00 7.0351002E+00 3.7660919E+00 -7.3439193E+00
  0.000E+00  4.786E-01  1.853E+00 7.2182316E+00 4.3624665E+00 -7.1396485E+00
  4.318E-02  5.000E-01  1.866E+00 7.1182968E+00 4.1244101E+00 -7.1447145E+00
  0.000E+00  4.367E-01  1.826E+00 7.2679934E+00 4.7143088E+00 -6.9144106E+00
  4.318E-02  4.575E-01  1.840E+00 7.2669188E+00 4.4768485E+00 -6.9316443E+00
  0.000E+00  3.962E-01  1.797E+00 7.3591894E+00 5.0524613E+00 -6.6702052E+00
  4.318E-02  4.163E-01  1.812E+00 7.2953021E+00 4.8169641E+00 -6.6998432E+00
  0.000E+00  3.572E-01  1.766E+00 7.4151362E+00 5.3787729E+00 -6.4102040E+00
  4.318E-02  3.765E-01  1.782E+00 7.3911395E+00 5.1444900E+00 -6.4510673E+00
  0.000E+00  3.198E-01  1.733E+00 7.4194562E+00 5.6916355E+00 -6.1341123E+00
  4.318E-02  3.383E-01  1.750E+00 7.4059576E+00 5.4599250E+00 -6.1868342E+00
  0.000E+00  2.841E-01  1.698E+00 7.4522964E+00 5.9902193E+00 -5.8427105E+00
  4.318E-02  3.018E-01  1.716E+00 7.4523237E+00 5.7613614E+00 -5.9068327E+00
  0.000E+00  2.502E-01  1.662E+00 7.4059303E+00 6.2741725E+00 -5.5370145E+00
  4.318E-02  2.669E-01  1.680E+00 7.4194835E+00 6.0487123E+00 -5.6124075E+00
  0.000E+00  2.182E-01  1.623E+00 7.3911120E+00 6.5421340E+00 -5.2171287E+00
  4.318E-02  2.340E-01  1.643E+00 7.4151632E+00 6.3209516E+00 -5.3038982E+00
  0.000E+00  1.881E-01  1.584E+00 7.2952748E+00 6.7944335E+00 -4.8849796E+00
  4.318E-02  2.029E-01  1.604E+00 7.3592163E+00 6.5773443E+00 -4.9821323E+00
  0.000E+00  1.600E-01  1.543E+00 7.2668908E+00 7.0294896E+00 -4.5400637E+00
  4.318E-02  1.738E-01  1.563E+00 7.2680197E+00 6.8181447E+00 -4.6486881E+00
  0.000E+00  1.340E-01  1.500E+00 7.1182675E+00 7.2455891E+00 -4.1826487E+00
  4.318E-02  1.467E-01  1.521E+00 7.2182566E+00 7.0402426E+00 -4.3017439E+00
  0.000E+00  1.101E-01  1.456E+00 7.0350713E+00 7.4476055E+00 -3.8192742E+00
  4.318E-02  1.218E-01  1.478E+00 7.0556400E+00 7.2460837E+00 -3.9460402E+00
  0.000E+00  8.849E-02  1.411E+00 6.9400000E+00 7.6292893E+00 -3.4431195E+00
  4.318E-02  9.903E-02  1.434E+00 6.9947752E+00 7.4367331E+00 -3.5829342E+00
  0.000E+00  6.913E-02  1.365E+00 6.7642519E+00 7.7860330E+00 -3.0517563E+00
  4.318E-02  7.852E-02  1.388E+00 6.8577155E+00 7.6029322E+00 -3.2032838E+00
  0.000E+00  5.207E-02  1.318E+00 6.6524150E+00 7.9286041E+00 -2.6606553E+00
  4.318E-02  6.031E-02  1.342E+00 6.6951641E+00 7.7491223E+00 -2.8156694E+00
  0.000E+00  3.738E-02  1.271E+00 6.5692621E+00 8.0580451E+00 -2.2713145E+00
  4.318E-02  4.443E-02  1.295E+00 6.6123809E+00 7.8843670E+00 -2.4323316E+00
  0.000E+00  2.507E-02  1.223E+00 6.4616730E+00 8.1631970E+00 -1.8699225E+00
  4.318E-02  3.092E-02  1.247E+00 6.5181117E+00 8.0011813E+00 -2.0437995E+00
  0.000E+00  1.519E-02  1.174E+00 6.3518992E+00 8.2424477E+00 -1.4556549E+00
  4.318E-02  1.983E-02  1.198E+00 6.4061091E+00 8.0914389E+00 -1.6406727E+00
  0.000E+00  7.761E-03  1.124E+00 6.2662403E+00 8.3013321E+00 -1.0375896E+00
  4.318E-02  1.117E-02  1.149E+00 6.3043451E+00 8.1590201E+00 -1.2292383E+00
  0.000E+00  2.796E-03  1.075E+00 6.2116732E+00 8.3421748E+00 -6.2145385E-01
  4.318E-02  4.969E-03  1.100E+00 6.2336350E+00 8.2081791E+00 -8.1768401E-01
  0.000E+00  3.108E-04  1.025E+00 6.1859735E+00 8.3634340E+00 -2.0699983E-01
  4.318E-02  1.243E-03  1.050E+00 6.1959809E+00 8.2390520E+00 -4.0832884E-01
  0.000E+00  3.108E-04  9.751E-01 6.1859726E+00 8.3634320E+00 2.0699020E-01
  4.318E-02  0.000E+00  1.000E+00 6.1846328E+00 8.2497005E+00 -3.7239090E-06
  0.000E+00  2.796E-03  9.253E-01 6.2116704E+00 8.3421681E+00 6.2144422E-01
  4.318E-02  1.243E-03  9.502E-01 6.1959791E+00 8.2390479E+00 4.0832140E-01
  0.000E+00  7.761E-03  8.757E-01 6.2662358E+00 8.3013222E+00 1.0375800E+00
  4.318E-02  4.969E-03  9.004E-01 6.2336314E+00 8.2081698E+00 8.1767658E-01
  0.000E+00  1.519E-02  8.264E-01 6.3518930E+00 8.2424452E+00 1.4556454E+00
  4.318E-02  1.117E-02  8.510E-01 6.3043397E+00 8.1590117E+00 1.2292309E+00
  0.000E+00  2.507E-02  7.775E-01 6.4616651E+00 8.1632156E+00 1.8699131E+00
  4.318E-02  1.983E-02  8.019E-01 6.4061018E+00 8.0914460E+00 1.6406654E+00
  0.000E+00  3.738E-02  7.292E-01 6.5692526E+00 8.0580645E+00 2.2713052E+00
  4.318E-02  3.092E-02  7.532E-01 6.5181028E+00 8.0012047E+00 2.0437921E+00
  0.000E+00  5.207E-02  6.815E-01 6.6524040E+00 7.9285834E+00 2.6606460E+00
  4.318E-02  4.443E-02  7.052E-01 6.6123704E+00 7.8843683E+00 2.4323243E+00
  0.000E+00  6.913E-02  6.347E-01 6.7642396E+00 7.7860183E+00 3.0517471E+00
  4.318E-02  6.031E-02  6.580E-01 6.6951521E+00 7.7490914E+00 2.8156621E+00
  0.000E+00  8.849E-02  5.887E-01 6.9399861E+00 7.6293295E+00 3.4431108E+00
  4.318E-02  7.852E-02  6.116E-01 6.8577023E+00 7.6029504E+00 3.2032770E+00
  0.000E+00  1.101E-01  5.438E-01 7.0350566E+00 7.4476026E+00 3.8192654E+00
  4.318E-02  9.903E-02  5.661E-01 6.9947607E+00 7.4367614E+00 3.5829274E+00
  0.000E+00  1.340E-01  5.000E-01 7.1182520E+00 7.2455771E+00 4.1826400E+00
  4.318E-02  1.218E-01  5.217E-01 7.0556245E+00 7.2460576E+00 3.9460331E+00
  0.000E+00  1.600E-01  4.575E-01 7.2668747E+00 7.0295234E+00 4.5400560E+00
  4.318E-02  1.467E-01  4.786E-01 7.2182404E+00 7.0402630E+00 4.3017379E+00
  0.000E+00  1.881E-01  4.163E-01 7.2952582E+00 6.7944314E+00 4.8849713E+00
  4.318E-02  1.738E-01  4.367E-01 7.2680030E+00 6.8181593E+00 4.6486817E+00
  0.000E+00  2.182E-01  3.765E-01 7.3910954E+00 6.5421529E+00 5.2171216E+00
  4.318E-02  2.029E-01  3.962E-01 7.3591994E+00 6.5773466E+00 4.9821264E+00
  0.000E+00  2.502E-01  3.383E-01 7.4059137E+00 6.2741866E+00 5.5370074E+00
  4.318E-02  2.340E-01  3.572E-01 7.4151464E+00 6.3209738E+00 5.3038929E+00
  0.000E+00  2.841E-01  3.018E-01 7.4522805E+00 5.9902330E+00 5.8427042E+00
  4.318E-02  2.669E-01  3.198E-01 7.4194671E+00 6.0487186E+00 5.6124019E+00
  0.000E+00  3.198E-01  2.669E-01 7.4194411E+00 5.6916527E+00 6.1341063E+00
  4.318E-02  3.018E-01  2.841E-01 7.4523080E+00 5.7613801E+00 5.9068282E+00
  0.000E+00  3.572E-01  2.340E-01 7.4151223E+00 5.3787866E+00 6.4101986E+00
  4.318E-02  3.383E-01  2.502E-01 7.4059428E+00 5.4599365E+00 6.1868298E+00
  0.000E+00  3.962E-01  2.029E-01 7.3591770E+00 5.0524782E+00 6.6702006E+00
  4.318E-02  3.765E-01  2.182E-01 7.3911262E+00 5.1445054E+00 6.4510637E+00
  0.000E+00  4.367E-01  1.738E-01 7.2679825E+00 4.7143241E+00 6.9144066E+00
  4.318E-02  4.163E-01  1.881E-01 7.2952906E+00 4.8169773E+00 6.6998399E+00
  0.000E+00  4.786E-01  1.467E-01 7.2182229E+00 4.3624838E+00 7.1396454E+00
  4.318E-02  4.575E-01  1.600E-01 7.2669093E+00 4.4768637E+00 6.9316416E+00
  0.000E+00  5.217E-01  1.218E-01 7.0556098E+00 4.0017567E+00 7.3483682E+00
  4.318E-02  5.000E-01  1.340E-01 7.1182894E+00 4.1244247E+00 7.1447123E+00
  0.000E+00  5.661E-01  9.903E-02 6.9947478E+00 3.6335254E+00 7.5417356E+00
  4.318E-02  5.438E-01  1.101E-01 7.0350951E+00 3.7661094E+00 7.3439180E+00
  0.000E+00  6.116E-01  7.852E-02 6.8576913E+00 3.2485142E+00 7.7102781E+00
  4.318E-02  5.887E-01  8.849E-02 6.9400264E+00 3.3951903E+00 7.5230934E+00
  0.000E+00  6.580E-01  6.031E-02 6.6951432E+00 2.8554300E+00 7.8585105E+00
  4.318E-02  6.347E-01  6.913E-02 6.7642823E+00 3.0092757E+00 7.6776323E+00
  0.000E+00  7.052E-01  4.443E-02 6.6123631E+00 2.4666812E+00 7.9956810E+00
  4.318E-02  6.815E-01  5.207E-02 6.6524490E+00 2.6236204E+00 7.8182168E+00
  0.000E+00  7.532E-01  3.092E-02 6.5180963E+00 2.0726622E+00 8.1141519E+00
  4.318E-02  7.292E-01  3.738E-02 6.5692977E+00 2.2396981E+00 7.9458694E+00
  0.000E+00  8.019E-01  1.983E-02 6.4060976E+00 1.6638413E+00 8.2056771E+00
  4.318E-02  7.775E-01  2.507E-02 6.4617106E+00 1.8438935E+00 8.0495551E+00
  0.000E+00  8.510E-01  1.117E-02 6.3043385E+00 1.2465980E+00 8.2742100E+00
  4.318E-02  8.264E-01  1.519E-02 6.3519406E+00 1.4353939E+00 8.1276979E+00
  0.000E+00  9.004E-01  4.969E-03 6.2336320E+00 8.2923375E-01 8.3240633E+00
  4.318E-02  8.757E-01  7.761E-03 6.2662861E+00 1.0231508E+00 8.1857652E+00
  4.318E-02  9.253E-01  2.796E-03 6.2117216E+00 6.1280807E-01 8.2260381E+00
  1.000E+01  1.050E+00  1.243E-03 6.1959833E+00 -4.1408109E-01 8.3553686E+00
  1.000E+01  1.000E+00  5.551E-16 6.1846336E+00 9.7325328E-06 8.3661660E+00
  9.957E+00  1.025E+00  3.108E-04 6.1860024E+00 -2.0988225E-01 8.4805064E+00
  1.000E+01  9.502E-01  1.243E-03 6.1959792E+00 4.1409939E-01 8.3553678E+00
  9.957E+00  9.751E-01  3.108E-04 6.1860004E+00 2.0990279E-01 8.4805060E+00
  1.000E+01  9.004E-01  4.969E-03 6.2336320E+00 8.2923375E-01 8.3240633E+00
  9.957E+00  9.253E-01  2.796E-03 6.2116983E+00 6.3015891E-01 8.4589524E+00
  1.000E+01  8.510E-01  1.117E-02 6.3043385E+00 1.2465980E+00 8.2742100E+00
  9.957E+00  8.757E-01  7.761E-03 6.2662631E+00 1.0521220E+00 8.4175387E+00
  1.000E+01  8.019E-01  1.983E-02 6.4060976E+00 1.6638413E+00 8.2056771E+00
  9.957E+00  8.264E-01  1.519E-02 6.3519183E+00 1.4760389E+00 8.3578271E+00
  1.000E+01  7.532E-01  3.092E-02 6.5180963E+00 2.0726622E+00 8.1141519E+00
  9.957E+00  7.775E-01  2.507E-02 6.4616882E+00 1.8961035E+00 8.2774716E+00
  1.000E+01  7.052E-01  4.443E-02 6.6123631E+00 2.4666812E+00 7.9956810E+00
  9.957E+00  7.292E-01  3.738E-02 6.5692750E+00 2.3031136E+00 8.1708499E+00
  1.000E+01  6.580E-01  6.031E-02 6.6951432E+00 2.8554300E+00 7.8585105E+00
  9.957E+00  6.815E-01  5.207E-02 6.6524265E+00 2.6979068E+00 8.0395826E+00
  1.000E+01  6.116E-01  7.852E-02 6.8576913E+00 3.2485142E+00 7.7102781E+00
  9.957E+00  6.347E-01  6.913E-02 6.7642603E+00 3.0944833E+00 7.8950172E+00
  1.000E+01  5.661E-01  9.903E-02 6.9947478E+00 3.6335254E+00 7.5417356E+00
  9.957E+00  5.887E-01  8.849E-02 6.9400043E+00 3.4913241E+00 7.7361019E+00
  1.000E+01  5.217E-01  1.218E-01 7.0556098E+00 4.0017567E+00 7.3483682E+00
  9.957E+00  5.438E-01  1.101E-01 7.0350738E+00 3.8727452E+00 7.5518538E+00
  1.000E+01  4.786E-01  1.467E-01 7.2182229E+00 4.3624838E+00 7.1396454E+00
  9.957E+00  5.000E-01  1.340E-01 7.1182686E+00 4.2412066E+00 7.3470069E+00
  1.000E+01  4.367E-01  1.738E-01 7.2679825E+00 4.7143241E+00 6.9144066E+00
  9.957E+00  4.575E-01  1.600E-01 7.2668887E+00 4.6036251E+00 7.1279032E+00
  1.000E+01  3.962E-01  2.029E-01 7.3591770E+00 5.0524782E+00 6.6702006E+00
  9.957E+00  4.163E-01  1.881E-01 7.2952701E+00 4.9533679E+00 6.8895385E+00
  1.000E+01  3.572E-01  2.340E-01 7.4151223E+00 5.3787866E+00 6.4101986E+00
  9.957E+00  3.765E-01  2.182E-01 7.3911056E+00 5.2901685E+00 6.6337188E+00
  1.000E+01  3.198E-01  2.669E-01 7.4194411E+00 5.6916527E+00 6.1341063E+00
  9.957E+00  3.383E-01  2.502E-01 7.4059227E+00 5.6145303E+00 6.3620040E+00
  1.000E+01  2.841E-01  3.018E-01 7.4522805E+00 5.9902330E+00 5.8427042E+00
  9.957E+00  3.018E-01  2.841E-01 7.4522878E+00 5.9245087E+00 6.0740747E+00
  1.000E+01  2.502E-01  3.383E-01 7.4059137E+00 6.2741866E+00 5.5370074E+00
  9.957E+00  2.669E-01  3.198E-01 7.4194468E+00 6.2199827E+00 5.7713117E+00
  1.000E+01  2.182E-01  3.765E-01 7.3910954E+00 6.5421529E+00 5.2171216E+00
  9.957E+00  2.340E-01  3.572E-01 7.4151262E+00 6.4999470E+00 5.4540673E+00
  1.000E+01  1.881E-01  4.163E-01 7.2952582E+00 6.7944314E+00 4.8849713E+00
  9.957E+00  2.029E-01  3.962E-01 7.3591791E+00 6.7635793E+00 5.1231895E+00
  1.000E+01  1.600E-01  4.575E-01 7.2668747E+00 7.0295234E+00 4.5400560E+00
  9.957E+00  1.738E-01  4.367E-01 7.2679825E+00 7.0112110E+00 4.7803025E+00
  1.000E+01  1.340E-01  5.000E-01 7.1182520E+00 7.2455771E+00 4.1826400E+00
  9.957E+00  1.467E-01  4.786E-01 7.2182195E+00 7.2396033E+00 4.4235352E+00
  1.000E+01  1.101E-01  5.438E-01 7.0350566E+00 7.4476026E+00 3.8192654E+00
  9.957E+00  1.218E-01  5.217E-01 7.0556039E+00 7.4512246E+00 4.0577598E+00
  1.000E+01  8.849E-02  5.887E-01 6.9399861E+00 7.6293295E+00 3.4431108E+00
  9.957E+00  9.903E-02  5.661E-01 6.9947397E+00 7.6473277E+00 3.6843737E+00
  1.000E+01  6.913E-02  6.347E-01 6.7642396E+00 7.7860183E+00 3.0517471E+00
  9.957E+00  7.852E-02  6.116E-01 6.8576807E+00 7.8182220E+00 3.2939724E+00
  1.000E+01  5.207E-02  6.815E-01 6.6524040E+00 7.9285834E+00 2.6606460E+00
  9.957E+00  6.031E-02  6.580E-01 6.6951309E+00 7.9685011E+00 2.8953837E+00
  1.000E+01  3.738E-02  7.292E-01 6.5692526E+00 8.0580645E+00 2.2713052E+00
  9.957E+00  4.443E-02  7.052E-01 6.6123493E+00 8.1076083E+00 2.5011932E+00
  1.000E+01  2.507E-02  7.775E-01 6.4616651E+00 8.1632156E+00 1.8699131E+00
  9.957E+00  3.092E-02  7.532E-01 6.5180811E+00 8.2277526E+00 2.1016595E+00
  1.000E+01  1.519E-02  8.264E-01 6.3518930E+00 8.2424452E+00 1.4556454E+00
  9.957E+00  1.983E-02  8.019E-01 6.4060794E+00 8.3205491E+00 1.6871163E+00
  1.000E+01  7.761E-03  8.757E-01 6.2662358E+00 8.3013222E+00 1.0375800E+00
  9.957E+00  1.117E-02  8.510E-01 6.3043172E+00 8.3900280E+00 1.2640327E+00
  1.000E+01  2.796E-03  9.253E-01 6.2116704E+00 8.3421681E+00 6.2144422E-01
  9.957E+00  4.969E-03  9.004E-01 6.2336092E+00 8.4405784E+00 8.4082725E-01
  1.000E+01  3.108E-04  9.751E-01 6.1859726E+00 8.3634320E+00 2.0699020E-01
  9.957E+00  1.243E-03  9.502E-01 6.1959558E+00 8.4723286E+00 4.1988266E-01
  1.000E+01  3.108E-04  1.025E+00 6.1859735E+00 8.3634340E+00 -2.0699983E-01
  9.957E+00  0.000E+00  1.000E+00 6.1846106E+00 8.4832852E+00 -5.8703886E-06
  1.000E+01  2.796E-03  1.075E+00 6.2116732E+00 8.3421748E+00 -6.2145385E-01
  9.957E+00  1.243E-03  1.050E+00 6.1959577E+00 8.4723327E+00 -4.1989439E-01
  1.000E+01  7.761E-03  1.124E+00 6.2662403E+00 8.3013321E+00 -1.0375896E+00
  9.957E+00  4.969E-03  1.100E+00 6.2336129E+00 8.4405877E+00 -8.4083895E-01
  1.000E+01  1.519E-02  1.174E+00 6.3518992E+00 8.2424477E+00 -1.4556549E+00
  9.957E+00  1.117E-02  1.149E+00 6.3043226E+00 8.3900362E+00 -1.2640443E+00
  1.000E+01  2.507E-02  1.223E+00 6.4616730E+00 8.1631970E+00 -1.8699225E+00
  9.957E+00  1.983E-02  1.198E+00 6.4060865E+00 8.3205411E+00 -1.6871278E+00
  1.000E+01  3.738E-02  1.271E+00 6.5692621E+00 8.0580451E+00 -2.2713145E+00
  9.957E+00  3.092E-02  1.247E+00 6.5180900E+00 8.2277277E+00 -2.1016710E+00
  1.000E+01  5.207E-02  1.318E+00 6.6524150E+00 7.9286041E+00 -2.6606553E+00
  9.957E+00  4.443E-02  1.295E+00 6.6123598E+00 8.1076059E+00 -2.5012046E+00
  1.000E+01  6.913E-02  1.365E+00 6.7642519E+00 7.7860330E+00 -3.0517563E+00
  9.957E+00  6.031E-02  1.342E+00 6.6951428E+00 7.9685318E+00 -2.8953951E+00
  1.000E+01  8.849E-02  1.411E+00 6.9400000E+00 7.6292893E+00 -3.4431195E+00
  9.957E+00  7.852E-02  1.388E+00 6.8576941E+00 7.8182024E+00 -3.2939835E+00
  1.000E+01  1.101E-01  1.456E+00 7.0350713E+00 7.4476055E+00 -3.8192742E+00
  9.957E+00  9.903E-02  1.434E+00 6.9947544E+00 7.6472972E+00 -3.6843842E+00
  1.000E+01  1.340E-01  1.500E+00 7.1182675E+00 7.2455891E+00 -4.1826487E+00
  9.957E+00  1.218E-01  1.478E+00 7.0556194E+00 7.4512499E+00 -4.0577707E+00
  1.000E+01  1.600E-01  1.543E+00 7.2668908E+00 7.0294896E+00 -4.5400637E+00
  9.957E+00  1.467E-01  1.521E+00 7.2182356E+00 7.2395805E+00 -4.4235449E+00
  1.000E+01  1.881E-01  1.584E+00 7.2952748E+00 6.7944335E+00 -4.8849796E+00
  9.957E+00  1.738E-01  1.563E+00 7.2679991E+00 7.0111941E+00 -4.7803124E+00
  1.000E+01  2.182E-01  1.623E+00 7.3911120E+00 6.5421340E+00 -5.2171287E+00
  9.957E+00  2.029E-01  1.604E+00 7.3591959E+00 6.7635750E+00 -5.1231988E+00
  1.000E+01  2.502E-01  1.662E+00 7.4059303E+00 6.2741725E+00 -5.5370145E+00
  9.957E+00  2.340E-01  1.643E+00 7.4151430E+00 6.4999222E+00 -5.4540758E+00
  1.000E+01  2.841E-01  1.698E+00 7.4522964E+00 5.9902193E+00 -5.8427105E+00
  9.957E+00  2.669E-01  1.680E+00 7.4194632E+00 6.2199741E+00 -5.7713203E+00
  1.000E+01  3.198E-01  1.733E+00 7.4194562E+00 5.6916355E+00 -6.1341123E+00
  9.957E+00  3.018E-01  1.716E+00 7.4523035E+00 5.9244872E+00 -6.0740820E+00
  1.000E+01  3.572E-01  1.766E+00 7.4151362E+00 5.3787729E+00 -6.4102040E+00
  9.957E+00  3.383E-01  1.750E+00 7.4059375E+00 5.6145162E+00 -6.3620113E+00
  1.000E+01  3.962E-01  1.797E+00 7.3591894E+00 5.0524613E+00 -6.6702052E+00
  9.957E+00  3.765E-01  1.782E+00 7.3911191E+00 5.2901502E+00 -6.6337250E+00
  1.000E+01  4.367E-01  1.826E+00 7.2679934E+00 4.7143088E+00 -6.9144106E+00
  9.957E+00  4.163E-01  1.812E+00 7.2952819E+00 4.9533519E+00 -6.8895442E+00
  1.000E+01  4.786E-01  1.853E+00 7.2182316E+00 4.3624665E+00 -7.1396485E+00
  9.957E+00  4.575E-01  1.840E+00 7.2668983E+00 4.6036069E+00 -7.1279080E+00
  1.000E+01  5.217E-01  1.878E+00 7.0556156E+00 4.0017412E+00 -7.3483708E+00
  9.957E+00  5.000E-01  1.866E+00 7.1182761E+00 4.2411892E+00 -7.3470111E+00
  1.000E+01  5.661E-01  1.901E+00 6.9947506E+00 3.6335073E+00 -7.5417375E+00
  9.957E+00  5.438E-01  1.890E+00 7.0350793E+00 3.8727248E+00 -7.5518570E+00
  1.000E+01  6.116E-01  1.921E+00 6.8576915E+00 3.2484971E+00 -7.7102792E+00
  9.957E+00  5.887E-01  1.912E+00 6.9400071E+00 3.4913042E+00 -7.7361037E+00
  1.000E+01  6.580E-01  1.940E+00 6.6951415E+00 2.8554091E+00 -7.8585099E+00
  9.957E+00  6.347E-01  1.931E+00 6.7642598E+00 3.0944650E+00 -7.8950188E+00
  1.000E+01  7.052E-01  1.956E+00 6.6123587E+00 2.4666594E+00 -7.9956789E+00
  9.957E+00  6.815E-01  1.948E+00 6.6524220E+00 2.6978885E+00 -8.0395836E+00
  1.000E+01  7.532E-01  1.969E+00 6.5180880E+00 2.0726412E+00 -8.1141488E+00
  9.957E+00  7.292E-01  1.963E+00 6.5692667E+00 2.3030954E+00 -8.1708503E+00
  1.000E+01  8.019E-01  1.980E+00 6.4060846E+00 1.6638233E+00 -8.2056734E+00
  9.957E+00  7.775E-01  1.975E+00 6.4616768E+00 1.8960836E+00 -8.2774709E+00
  1.000E+01  8.510E-01  1.989E+00 6.3043211E+00 1.2465811E+00 -8.2742061E+00
  9.957E+00  8.264E-01  1.985E+00 6.3519039E+00 1.4760178E+00 -8.3578251E+00
  1.000E+01  9.004E-01  1.995E+00 6.2336107E+00 8.2921695E-01 -8.3240591E+00
  9.957E+00  8.757E-01  1.992E+00 6.2662456E+00 1.0520992E+00 -8.4175354E+00
  1.000E+01  9.502E-01  1.999E+00 6.1959542E+00 4.1408227E-01 -8.3553631E+00
  9.957E+00  9.253E-01  1.997E+00 6.2116770E+00 6.3013738E-01 -8.4589480E+00
  1.000E+01  1.000E+00  2.000E+00 6.1846049E+00 -1.0001528E-05 -8.3661606E+00
  9.957E+00  9.751E-01  2.000E+00 6.1859752E+00 2.0988143E-01 -8.4805005E+00
  1.000E+01  1.050E+00  1.999E+00 6.1959505E+00 -4.1410109E-01 -8.3553624E+00
  9.957E+00  1.025E+00  2.000E+00 6.1859734E+00 -2.0990249E-01 -8.4805001E+00
  1.000E+01  1.100E+00  1.995E+00 6.2336032E+00 -8.2923637E-01 -8.3240577E+00
  9.957E+00  1.075E+00  1.997E+00 6.2116715E+00 -6.3015767E-01 -8.4589468E+00
  1.000E+01  1.149E+00  1.989E+00 6.3043100E+00 -1.2466003E+00 -8.2742039E+00
  9.957E+00  1.124E+00  1.992E+00 6.2662364E+00 -1.0521204E+00 -8.4175334E+00
  1.000E+01  1.198E+00  1.980E+00 6.4060699E+00 -1.6638418E+00 -8.2056706E+00
  9.957E+00  1.174E+00  1.985E+00 6.3518912E+00 -1.4760379E+00 -8.3578223E+00