# TIME = 4.000000
VARIABLES = X, Y, Z, FX, FY, FZ
ZONE N=29232 E=58212 F=FEPOINT ET=TRIANGLE
  0.000E+00  9.502E-01  1.243E-03 6.1979497E+00 4.6662564E-01 9.4153792E+00
  0.000E+00  1.000E+00  0.000E+00 6.1866062E+00 1.3509482E-06 9.4275471E+00
  4.318E-02  9.751E-01  3.108E-04 6.1880038E+00 2.3038541E-01 9.3084480E+00
  0.000E+00  1.050E+00  1.243E-03 6.1979463E+00 -4.6662422E-01 9.4153794E+00
  4.318E-02  1.025E+00  3.108E-04 6.1880021E+00 -2.3038341E-01 9.3084481E+00
  0.000E+00  1.100E+00  4.969E-03 6.2355837E+00 -9.3442436E-01 9.3801036E+00
  4.318E-02  1.075E+00  2.796E-03 6.2136898E+00 -6.9166906E-01 9.2847911E+00
  0.000E+00  1.149E+00  1.117E-02 6.3062684E+00 -1.4047370E+00 9.3239257E+00
  4.318E-02  1.124E+00  7.761E-03 6.2682356E+00 -1.1548244E+00 9.2393354E+00
  0.000E+00  1.198E+00  1.983E-02 6.4080006E+00 -1.8749128E+00 9.2466986E+00
  4.318E-02  1.174E+00  1.519E-02 6.3538644E+00 -1.6201284E+00 9.1737952E+00
  0.000E+00  1.247E+00  3.092E-02 6.5199637E+00 -2.3355963E+00 9.1435625E+00
  4.318E-02  1.223E+00  2.507E-02 6.4636020E+00 -2.0812057E+00 9.0855954E+00
  0.000E+00  1.295E+00  4.443E-02 6.6141804E+00 -2.7796027E+00 9.0100625E+00
  4.318E-02  1.271E+00  3.738E-02 6.5711460E+00 -2.5279542E+00 8.9685649E+00
  0.000E+00  1.342E+00  6.031E-02 6.6968997E+00 -3.2176716E+00 8.8554912E+00
  4.318E-02  1.318E+00  5.207E-02 6.6542410E+00 -2.9612889E+00 8.8244822E+00
  0.000E+00  1.388E+00  7.852E-02 6.8594061E+00 -3.6606288E+00 8.6884546E+00
  4.318E-02  1.365E+00  6.913E-02 6.7660212E+00 -3.3965804E+00 8.6658036E+00
  0.000E+00  1.434E+00  9.903E-02 6.9964200E+00 -4.0944829E+00 8.4985307E+00
  4.318E-02  1.411E+00  8.849E-02 6.9417303E+00 -3.8321637E+00 8.4913754E+00
  0.000E+00  1.478E+00  1.218E-01 7.0572224E+00 -4.5094324E+00 8.2806321E+00
  4.318E-02  1.456E+00  1.101E-01 7.0367470E+00 -4.2508218E+00 8.2891392E+00
  0.000E+00  1.521E+00  1.467E-01 7.2198062E+00 -4.9159209E+00 8.0454301E+00
  4.318E-02  1.500E+00  1.340E-01 7.1198888E+00 -4.6552578E+00 8.0642952E+00
  0.000E+00  1.563E+00  1.738E-01 7.2695247E+00 -5.3124001E+00 7.7916174E+00
  4.318E-02  1.543E+00  1.600E-01 7.2684822E+00 -5.0530571E+00 7.8238014E+00
  0.000E+00  1.604E+00  2.029E-01 7.3606913E+00 -5.6934523E+00 7.5164308E+00
  4.318E-02  1.584E+00  1.881E-01 7.2968195E+00 -5.4369476E+00 7.5621662E+00
  0.000E+00  1.643E+00  2.340E-01 7.4166200E+00 -6.0611611E+00 7.2234443E+00
  4.318E-02  1.623E+00  2.182E-01 7.3926385E+00 -5.8066279E+00 7.2813711E+00
  0.000E+00  1.680E+00  2.669E-01 7.4209202E+00 -6.4137149E+00 6.9123263E+00
  4.318E-02  1.662E+00  2.502E-01 7.4074334E+00 -6.1626613E+00 6.9831297E+00
  0.000E+00  1.716E+00  3.018E-01 7.4537641E+00 -6.7501783E+00 6.5839556E+00
  4.318E-02  1.698E+00  2.841E-01 7.4537984E+00 -6.5028942E+00 6.6670901E+00
  0.000E+00  1.750E+00  3.383E-01 7.4073976E+00 -7.0701552E+00 6.2394775E+00
  4.318E-02  1.733E+00  3.198E-01 7.4209529E+00 -6.8272288E+00 6.3347704E+00
  0.000E+00  1.782E+00  3.765E-01 7.3926010E+00 -7.3721114E+00 5.8790090E+00
  4.318E-02  1.766E+00  3.572E-01 7.4166508E+00 -7.1345069E+00 5.9865538E+00
  0.000E+00  1.812E+00  4.163E-01 7.2967806E+00 -7.6564188E+00 5.5047216E+00
  4.318E-02  1.797E+00  3.962E-01 7.3607204E+00 -7.4238988E+00 5.6233743E+00
  0.000E+00  1.840E+00  4.575E-01 7.2684410E+00 -7.9212950E+00 5.1160474E+00
  4.318E-02  1.826E+00  4.367E-01 7.2695521E+00 -7.6956917E+00 5.2470134E+00
  0.000E+00  1.866E+00  5.000E-01 7.1198448E+00 -8.1648099E+00 4.7132884E+00
  4.318E-02  1.853E+00  4.786E-01 7.2198308E+00 -7.9463748E+00 4.8554147E+00
  0.000E+00  1.890E+00  5.438E-01 7.0367019E+00 -8.3924550E+00 4.3038138E+00
  4.318E-02  1.878E+00  5.217E-01 7.0572450E+00 -8.1787091E+00 4.4539294E+00
  0.000E+00  1.912E+00  5.887E-01 6.9416842E+00 -8.5971888E+00 3.8799377E+00
  4.318E-02  1.901E+00  5.661E-01 6.9964415E+00 -8.3938962E+00 4.0440887E+00
  0.000E+00  1.931E+00  6.347E-01 6.7659735E+00 -8.7738172E+00 3.4389229E+00
  4.318E-02  1.921E+00  6.116E-01 6.8594262E+00 -8.5814863E+00 3.6155738E+00
  0.000E+00  1.948E+00  6.815E-01 6.6541925E+00 -8.9344756E+00 2.9982041E+00
  4.318E-02  1.940E+00  6.580E-01 6.6969173E+00 -8.7464922E+00 3.1780701E+00
  0.000E+00  1.963E+00  7.292E-01 6.5710984E+00 -9.0803384E+00 2.5594690E+00
  4.318E-02  1.956E+00  7.052E-01 6.6141963E+00 -8.8991439E+00 2.7453937E+00
  0.000E+00  1.975E+00  7.775E-01 6.4635544E+00 -9.1988306E+00 2.1071535E+00
  4.318E-02  1.969E+00  7.532E-01 6.5199798E+00 -9.0309933E+00 2.3068544E+00
  0.000E+00  1.985E+00  8.264E-01 6.3538152E+00 -9.2881355E+00 1.6403286E+00
  4.318E-02  1.980E+00  8.019E-01 6.4080165E+00 -9.1328677E+00 1.8518413E+00
  0.000E+00  1.992E+00  8.757E-01 6.2681849E+00 -9.3544902E+00 1.1692242E+00
  4.318E-02  1.989E+00  8.510E-01 6.3062835E+00 -9.2091470E+00 1.3874515E+00
  0.000E+00  1.997E+00  9.253E-01 6.2136401E+00 -9.4005142E+00 7.0029437E-01
  4.318E-02  1.995E+00  9.004E-01 6.2355989E+00 -9.2646330E+00 9.2292659E-01
  0.000E+00  2.000E+00  9.751E-01 6.1879541E+00 -9.4244703E+00 2.3325967E-01
  4.318E-02  1.999E+00  9.502E-01 6.1979637E+00 -9.2994795E+00 4.6088392E-01
  0.000E+00  2.000E+00  1.025E+00 6.1879566E+00 -9.4244677E+00 -2.3325208E-01
  4.318E-02  2.000E+00  1.000E+00 6.1866247E+00 -9.3114983E+00 3.6974004E-06
  0.000E+00  1.997E+00  1.075E+00 6.2136475E+00 -9.4005055E+00 -7.0028679E-01
  4.318E-02  1.999E+00  1.050E+00 6.1979687E+00 -9.2994742E+00 -4.6087655E-01
  0.000E+00  1.992E+00  1.124E+00 6.2681972E+00 -9.3544770E+00 -1.1692167E+00
  4.318E-02  1.995E+00  1.100E+00 6.2356088E+00 -9.2646213E+00 -9.2291931E-01
  0.000E+00  1.985E+00  1.174E+00 6.3538324E+00 -9.2881300E+00 -1.6403213E+00
  4.318E-02  1.989E+00  1.149E+00 6.3062983E+00 -9.2091356E+00 -1.3874444E+00
  0.000E+00  1.975E+00  1.223E+00 6.4635761E+00 -9.1988482E+00 -2.1071464E+00
  4.318E-02  1.980E+00  1.198E+00 6.4080361E+00 -9.1328732E+00 -1.8518344E+00
  0.000E+00  1.963E+00  1.271E+00 6.5711245E+00 -9.0803562E+00 -2.5594621E+00
  4.318E-02  1.969E+00  1.247E+00 6.5200039E+00 -9.0310165E+00 -2.3068476E+00
  0.000E+00  1.948E+00  1.318E+00 6.6542228E+00 -8.9344474E+00 -2.9981974E+00
  4.318E-02  1.956E+00  1.295E+00 6.6142248E+00 -8.8991415E+00 -2.7453872E+00
  0.000E+00  1.931E+00  1.365E+00 6.7660080E+00 -8.7737952E+00 -3.4389166E+00
  4.318E-02  1.940E+00  1.342E+00 6.6969500E+00 -8.7464526E+00 -3.1780637E+00
  0.000E+00  1.912E+00  1.411E+00 6.9417217E+00 -8.5972267E+00 -3.8799317E+00
  4.318E-02  1.921E+00  1.388E+00 6.8594629E+00 -8.5815017E+00 -3.6155682E+00
  0.000E+00  1.890E+00  1.456E+00 7.0367434E+00 -8.3924448E+00 -4.3038083E+00
  4.318E-02  1.901E+00  1.434E+00 6.9964816E+00 -8.3939225E+00 -4.0440833E+00
  0.000E+00  1.866E+00  1.500E+00 7.1198894E+00 -8.1647885E+00 -4.7132830E+00
  4.318E-02  1.878E+00  1.478E+00 7.0572882E+00 -8.1786731E+00 -4.4539237E+00
  0.000E+00  1.840E+00  1.543E+00 7.2684882E+00 -7.9213244E+00 -5.1160433E+00
  4.318E-02  1.853E+00  1.521E+00 7.2198769E+00 -7.9463906E+00 -4.8554106E+00
  0.000E+00  1.812E+00  1.584E+00 7.2968298E+00 -7.6564070E+00 -5.5047169E+00
  4.318E-02  1.826E+00  1.563E+00 7.2696005E+00 -7.6957002E+00 -5.2470090E+00
  0.000E+00  1.782E+00  1.623E+00 7.3926520E+00 -7.3721223E+00 -5.8790057E+00
  4.318E-02  1.797E+00  1.604E+00 7.3607709E+00 -7.4238927E+00 -5.6233706E+00
  0.000E+00  1.750E+00  1.662E+00 7.4074498E+00 -7.0701600E+00 -6.2394743E+00
  4.318E-02  1.766E+00  1.643E+00 7.4167028E+00 -7.1345224E+00 -5.9865509E+00
  0.000E+00  1.716E+00  1.698E+00 7.4538172E+00 -6.7501820E+00 -6.5839532E+00
  4.318E-02  1.733E+00  1.680E+00 7.4210059E+00 -6.8272257E+00 -6.3347674E+00
  0.000E+00  1.680E+00  1.733E+00 7.4209736E+00 -6.4137218E+00 -6.9123243E+00
  4.318E-02  1.698E+00  1.716E+00 7.4538520E+00 -6.5029044E+00 -6.6670883E+00
  0.000E+00  1.643E+00  1.766E+00 7.4166733E+00 -6.0611633E+00 -7.2234429E+00
  4.318E-02  1.662E+00  1.750E+00 7.4074871E+00 -6.1626626E+00 -6.9831280E+00
  0.000E+00  1.604E+00  1.797E+00 7.3607440E+00 -5.6934572E+00 -7.5164300E+00
  4.318E-02  1.623E+00  1.782E+00 7.3926919E+00 -5.8066330E+00 -7.2813702E+00
  0.000E+00  1.563E+00  1.826E+00 7.2695766E+00 -5.3124025E+00 -7.7916171E+00
  4.318E-02  1.584E+00  1.812E+00 7.2968721E+00 -5.4369496E+00 -7.5621656E+00
  0.000E+00  1.521E+00  1.853E+00 7.2198566E+00 -4.9159254E+00 -8.0454307E+00
  4.318E-02  1.543E+00  1.840E+00 7.2685336E+00 -5.0530606E+00 -7.8238014E+00
  0.000E+00  1.478E+00  1.878E+00 7.0572712E+00 -4.5094343E+00 -8.2806330E+00
  4.318E-02  1.500E+00  1.866E+00 7.1199385E+00 -4.6552598E+00 -8.0642955E+00
  0.000E+00  1.434E+00  1.901E+00 6.9964671E+00 -4.0944866E+00 -8.4985317E+00
  4.318E-02  1.456E+00  1.890E+00 7.0367946E+00 -4.2508265E+00 -8.2891402E+00
  0.000E+00  1.388E+00  1.921E+00 6.8594511E+00 -3.6606295E+00 -8.6884558E+00
  4.318E-02  1.411E+00  1.912E+00 6.9417754E+00 -3.8321678E+00 -8.4913772E+00
  0.000E+00  1.342E+00  1.940E+00 6.6969411E+00 -3.2176759E+00 -8.8554934E+00
  4.318E-02  1.365E+00  1.931E+00 6.7660642E+00 -3.3965828E+00 -8.6658057E+00
  0.000E+00  1.295E+00  1.956E+00 6.6142175E+00 -2.7796089E+00 -9.0100659E+00
  4.318E-02  1.318E+00  1.948E+00 6.6542821E+00 -2.9612904E+00 -8.8244844E+00
  0.000E+00  1.247E+00  1.969E+00 6.5199972E+00 -2.3356037E+00 -9.1435671E+00
  4.318E-02  1.271E+00  1.963E+00 6.5711844E+00 -2.5279541E+00 -8.9685668E+00
  0.000E+00  1.198E+00  1.980E+00 6.4080315E+00 -1.8749179E+00 -9.2467039E+00
  4.318E-02  1.223E+00  1.975E+00 6.4636368E+00 -2.0812061E+00 -9.0855973E+00
  0.000E+00  1.149E+00  1.989E+00 6.3062971E+00 -1.4047404E+00 -9.3239313E+00
  4.318E-02  1.174E+00  1.985E+00 6.3538950E+00 -1.6201294E+00 -9.1737973E+00
  0.000E+00  1.100E+00  1.995E+00 6.2356096E+00 -9.3442641E-01 -9.3801093E+00
  4.318E-02  1.124E+00  1.992E+00 6.2682623E+00 -1.1548277E+00 -9.2393379E+00
  0.000E+00  1.050E+00  1.999E+00 6.1979689E+00 -4.6662537E-01 -9.4153852E+00
  4.318E-02  1.075E+00  1.997E+00 6.2137129E+00 -6.9167140E-01 -9.2847940E+00
  0.000E+00  1.000E+00  2.000E+00 6.1866253E+00 -1.7702739E-06 -9.4275530E+00
  4.318E-02  1.025E+00  2.000E+00 6.1880216E+00 -2.3038615E-01 -9.3084514E+00
  0.000E+00  9.502E-01  1.999E+00 6.1979652E+00 4.6662312E-01 -9.4153854E+00
  4.318E-02  9.751E-01  2.000E+00 6.1880198E+00 2.3038331E-01 -9.3084515E+00
  0.000E+00  9.004E-01  1.995E+00 6.2356022E+00 9.3442338E-01 -9.3801097E+00
  4.318E-02  9.253E-01  1.997E+00 6.2137073E+00 6.9166935E-01 -9.2847943E+00
  0.000E+00  8.510E-01  1.989E+00 6.3062860E+00 1.4047374E+00 -9.3239319E+00
  4.318E-02  8.757E-01  1.992E+00 6.2682530E+00 1.1548244E+00 -9.2393384E+00
  0.000E+00  8.019E-01  1.980E+00 6.4080170E+00 1.8749155E+00 -9.2467047E+00
  4.318E-02  8.264E-01  1.985E+00 6.3538822E+00 1.6201273E+00 -9.1737979E+00
  0.000E+00  7.532E-01  1.969E+00 6.5199792E+00 2.3356006E+00 -9.1435681E+00
  4.318E-02  7.775E-01  1.975E+00 6.4636204E+00 2.0812033E+00 -9.0855981E+00
  0.000E+00  7.052E-01  1.956E+00 6.6141962E+00 2.7796062E+00 -9.0100671E+00
  4.318E-02  7.292E-01  1.963E+00 6.5711647E+00 2.5279515E+00 -8.9685678E+00
  0.000E+00  6.580E-01  1.940E+00 6.6969167E+00 3.2176727E+00 -8.8554947E+00
  4.318E-02  6.815E-01  1.948E+00 6.6542592E+00 2.9612874E+00 -8.8244855E+00
  0.000E+00  6.116E-01  1.921E+00 6.8594240E+00 3.6606279E+00 -8.6884576E+00
  4.318E-02  6.347E-01  1.931E+00 6.7660384E+00 3.3965808E+00 -8.6658071E+00
  0.000E+00  5.661E-01  1.901E+00 6.9964373E+00 4.0944820E+00 -8.4985333E+00
  4.318E-02  5.887E-01  1.912E+00 6.9417466E+00 3.8321648E+00 -8.4913782E+00
  0.000E+00  5.217E-01  1.878E+00 7.0572390E+00 4.5094325E+00 -8.2806350E+00
  4.318E-02  5.438E-01  1.890E+00 7.0367635E+00 4.2508228E+00 -8.2891419E+00
  0.000E+00  4.786E-01  1.853E+00 7.2198224E+00 4.9159219E+00 -8.0454326E+00
  4.318E-02  5.000E-01  1.866E+00 7.1199053E+00 4.6552583E+00 -8.0642974E+00
  0.000E+00  4.367E-01  1.826E+00 7.2695407E+00 5.3124011E+00 -7.7916194E+00
  4.318E-02  4.575E-01  1.840E+00 7.2684985E+00 5.0530574E+00 -7.8238033E+00
  0.000E+00  3.962E-01  1.797E+00 7.3607068E+00 5.6934531E+00 -7.5164323E+00
  4.318E-02  4.163E-01  1.812E+00 7.2968355E+00 5.4369482E+00 -7.5621678E+00
  0.000E+00  3.572E-01  1.766E+00 7.4166351E+00 6.0611619E+00 -7.2234454E+00
  4.318E-02  3.765E-01  1.782E+00 7.3926542E+00 5.8066287E+00 -7.2813725E+00
  0.000E+00  3.198E-01  1.733E+00 7.4209349E+00 6.4137158E+00 -6.9123270E+00
  4.318E-02  3.383E-01  1.750E+00 7.4074486E+00 6.1626622E+00 -6.9831307E+00
  0.000E+00  2.841E-01  1.698E+00 7.4537784E+00 6.7501793E+00 -6.5839559E+00
  4.318E-02  3.018E-01  1.716E+00 7.4538131E+00 6.5028951E+00 -6.6670906E+00
  0.000E+00  2.502E-01  1.662E+00 7.4074112E+00 7.0701562E+00 -6.2394774E+00
  4.318E-02  2.669E-01  1.680E+00 7.4209671E+00 6.8272298E+00 -6.3347706E+00
  0.000E+00  2.182E-01  1.623E+00 7.3926140E+00 7.3721124E+00 -5.8790084E+00
  4.318E-02  2.340E-01  1.643E+00 7.4166645E+00 7.1345079E+00 -5.9865535E+00
  0.000E+00  1.881E-01  1.584E+00 7.2967929E+00 7.6564199E+00 -5.5047207E+00
  4.318E-02  2.029E-01  1.604E+00 7.3607333E+00 7.4238999E+00 -5.6233737E+00
  0.000E+00  1.600E-01  1.543E+00 7.2684526E+00 7.9212961E+00 -5.1160460E+00
  4.318E-02  1.738E-01  1.563E+00 7.2695642E+00 7.6956928E+00 -5.2470123E+00
  0.000E+00  1.340E-01  1.500E+00 7.1198556E+00 8.1648110E+00 -4.7132867E+00
  4.318E-02  1.467E-01  1.521E+00 7.2198421E+00 7.9463759E+00 -4.8554133E+00
  0.000E+00  1.101E-01  1.456E+00 7.0367117E+00 8.3924561E+00 -4.3038118E+00
  4.318E-02  1.218E-01  1.478E+00 7.0572554E+00 8.1787102E+00 -4.4539276E+00
  0.000E+00  8.849E-02  1.411E+00 6.9416928E+00 8.5971893E+00 -3.8799352E+00
  4.318E-02  9.903E-02  1.434E+00 6.9964509E+00 8.3938973E+00 -4.0440865E+00
  0.000E+00  6.913E-02  1.365E+00 6.7659812E+00 8.7738182E+00 -3.4389202E+00
  4.318E-02  7.852E-02  1.388E+00 6.8594346E+00 8.5814873E+00 -3.6155714E+00
  0.000E+00  5.207E-02  1.318E+00 6.6541989E+00 8.9344764E+00 -2.9982011E+00
  4.318E-02  6.031E-02  1.342E+00 6.6969246E+00 8.7464930E+00 -3.1780674E+00
  0.000E+00  3.738E-02  1.271E+00 6.5711036E+00 9.0803392E+00 -2.5594658E+00
  4.318E-02  4.443E-02  1.295E+00 6.6142024E+00 8.8991447E+00 -2.7453907E+00
  0.000E+00  2.507E-02  1.223E+00 6.4635584E+00 9.1988313E+00 -2.1071500E+00
  4.318E-02  3.092E-02  1.247E+00 6.5199846E+00 9.0309940E+00 -2.3068511E+00
  0.000E+00  1.519E-02  1.174E+00 6.3538180E+00 9.2881360E+00 -1.6403250E+00
  4.318E-02  1.983E-02  1.198E+00 6.4080201E+00 9.1328683E+00 -1.8518379E+00
  0.000E+00  7.761E-03  1.124E+00 6.2681863E+00 9.3544906E+00 -1.1692204E+00
  4.318E-02  1.117E-02  1.149E+00 6.3062857E+00 9.2091475E+00 -1.3874480E+00
  0.000E+00  2.796E-03  1.075E+00 6.2136401E+00 9.4005145E+00 -7.0029050E-01
  4.318E-02  4.969E-03  1.100E+00 6.2355997E+00 9.2646334E+00 -9.2292289E-01
  0.000E+00  3.108E-04  1.025E+00 6.1879527E+00 9.4244705E+00 -2.3325578E-01
  4.318E-02  1.243E-03  1.050E+00 6.1979631E+00 9.2994797E+00 -4.6088013E-01
  0.000E+00  3.108E-04  9.751E-01 6.1879538E+00 9.4244677E+00 2.3325596E-01
  4.318E-02  0.000E+00  1.000E+00 6.1866227E+00 9.3114984E+00 1.1908083E-07
  0.000E+00  2.796E-03  9.253E-01 6.2136433E+00 9.4005054E+00 7.0029065E-01
  4.318E-02  1.243E-03  9.502E-01 6.1979652E+00 9.2994741E+00 4.6088033E-01
  0.000E+00  7.761E-03  8.757E-01 6.2681916E+00 9.3544768E+00 1.1692205E+00
  4.318E-02  4.969E-03  9.004E-01 6.2356040E+00 9.2646211E+00 9.2292300E-01
  0.000E+00  1.519E-02  8.264E-01 6.3538254E+00 9.2881296E+00 1.6403250E+00
  4.318E-02  1.117E-02  8.510E-01 6.3062920E+00 9.2091353E+00 1.3874480E+00
  0.000E+00  2.507E-02  7.775E-01 6.4635679E+00 9.1988477E+00 2.1071498E+00
  4.318E-02  1.983E-02  8.019E-01 6.4080285E+00 9.1328728E+00 1.8518378E+00
  0.000E+00  3.738E-02  7.292E-01 6.5711151E+00 9.0803556E+00 2.5594653E+00
  4.318E-02  3.092E-02  7.532E-01 6.5199950E+00 9.0310159E+00 2.3068508E+00
  0.000E+00  5.207E-02  6.815E-01 6.6542122E+00 8.9344466E+00 2.9982003E+00
  4.318E-02  4.443E-02  7.052E-01 6.6142146E+00 8.8991408E+00 2.7453902E+00
  0.000E+00  6.913E-02  6.347E-01 6.7659962E+00 8.7737942E+00 3.4389192E+00
  4.318E-02  6.031E-02  6.580E-01 6.6969386E+00 8.7464518E+00 3.1780664E+00
  0.000E+00  8.849E-02  5.887E-01 6.9417090E+00 8.5972262E+00 3.8799342E+00
  4.318E-02  7.852E-02  6.116E-01 6.8594504E+00 8.5815008E+00 3.6155706E+00
  0.000E+00  1.101E-01  5.438E-01 7.0367295E+00 8.3924437E+00 4.3038102E+00
  4.318E-02  9.903E-02  5.661E-01 6.9964681E+00 8.3939214E+00 4.0440854E+00
  0.000E+00  1.340E-01  5.000E-01 7.1198746E+00 8.1647874E+00 4.7132847E+00
  4.318E-02  1.218E-01  5.217E-01 7.0572738E+00 8.1786720E+00 4.4539255E+00
  0.000E+00  1.600E-01  4.575E-01 7.2684726E+00 7.9213232E+00 5.1160446E+00
  4.318E-02  1.467E-01  4.786E-01 7.2198616E+00 7.9463894E+00 4.8554120E+00
  0.000E+00  1.881E-01  4.163E-01 7.2968135E+00 7.6564057E+00 5.5047178E+00
  4.318E-02  1.738E-01  4.367E-01 7.2695845E+00 7.6956990E+00 5.2470100E+00
  0.000E+00  2.182E-01  3.765E-01 7.3926351E+00 7.3721210E+00 5.8790061E+00
  4.318E-02  2.029E-01  3.962E-01 7.3607541E+00 7.4238915E+00 5.6233713E+00
  0.000E+00  2.502E-01  3.383E-01 7.4074324E+00 7.0701587E+00 6.2394744E+00
  4.318E-02  2.340E-01  3.572E-01 7.4166854E+00 7.1345212E+00 5.9865512E+00
  0.000E+00  2.841E-01  3.018E-01 7.4537993E+00 6.7501807E+00 6.5839529E+00
  4.318E-02  2.669E-01  3.198E-01 7.4209880E+00 6.8272245E+00 6.3347672E+00
  0.000E+00  3.198E-01  2.669E-01 7.4209553E+00 6.4137205E+00 6.9123236E+00
  4.318E-02  3.018E-01  2.841E-01 7.4538336E+00 6.5029032E+00 6.6670878E+00
  0.000E+00  3.572E-01  2.340E-01 7.4166547E+00 6.0611621E+00 7.2234418E+00
  4.318E-02  3.383E-01  2.502E-01 7.4074684E+00 6.1626614E+00 6.9831270E+00
  0.000E+00  3.962E-01  2.029E-01 7.3607251E+00 5.6934559E+00 7.5164285E+00
  4.318E-02  3.765E-01  2.182E-01 7.3926729E+00 5.8066318E+00 7.2813689E+00
  0.000E+00  4.367E-01  1.738E-01 7.2695574E+00 5.3124010E+00 7.7916151E+00
  4.318E-02  4.163E-01  1.881E-01 7.2968529E+00 5.4369486E+00 7.5621639E+00
  0.000E+00  4.786E-01  1.467E-01 7.2198375E+00 4.9159239E+00 8.0454281E+00
  4.318E-02  4.575E-01  1.600E-01 7.2685143E+00 5.0530598E+00 7.8237995E+00
  0.000E+00  5.217E-01  1.218E-01 7.0572518E+00 4.5094336E+00 8.2806302E+00
  4.318E-02  5.000E-01  1.340E-01 7.1199192E+00 4.6552588E+00 8.0642933E+00
  0.000E+00  5.661E-01  9.903E-02 6.9964472E+00 4.0944869E+00 8.4985288E+00
  4.318E-02  5.438E-01  1.101E-01 7.0367755E+00 4.2508249E+00 8.2891376E+00
  0.000E+00  6.116E-01  7.852E-02 6.8594311E+00 3.6606298E+00 8.6884531E+00
  4.318E-02  5.887E-01  8.849E-02 6.9417563E+00 3.8321657E+00 8.4913735E+00
  0.000E+00  6.580E-01  6.031E-02 6.6969220E+00 3.2176741E+00 8.8554898E+00
  4.318E-02  6.347E-01  6.913E-02 6.7660449E+00 3.3965817E+00 8.6658023E+00
  0.000E+00  7.052E-01  4.443E-02 6.6141998E+00 2.7796046E+00 9.0100613E+00
  4.318E-02  6.815E-01  5.207E-02 6.6542620E+00 2.9612912E+00 8.8244811E+00
  0.000E+00  7.532E-01  3.092E-02 6.5199802E+00 2.3355987E+00 9.1435615E+00
  4.318E-02  7.292E-01  3.738E-02 6.5711640E+00 2.5279560E+00 8.9685639E+00
  0.000E+00  8.019E-01  1.983E-02 6.4080139E+00 1.8749144E+00 9.2466978E+00
  4.318E-02  7.775E-01  2.507E-02 6.4636170E+00 2.0812077E+00 9.0855946E+00
  0.000E+00  8.510E-01  1.117E-02 6.3062785E+00 1.4047392E+00 9.3239251E+00
  4.318E-02  8.264E-01  1.519E-02 6.3538762E+00 1.6201297E+00 9.1737945E+00
  0.000E+00  9.004E-01  4.969E-03 6.2355905E+00 9.3442656E-01 9.3801032E+00
  4.318E-02  8.757E-01  7.761E-03 6.2682441E+00 1.1548269E+00 9.2393349E+00
  4.318E-02  9.253E-01  2.796E-03 6.2136950E+00 6.9167029E-01 9.2847908E+00
  1.000E+01  1.050E+00  1.243E-03 6.1979463E+00 -4.6662422E-01 9.4153794E+00
  1.000E+01  1.000E+00  5.551E-16 6.1866062E+00 1.3509482E-06 9.4275471E+00
  9.957E+00  1.025E+00  3.108E-04 6.1879709E+00 -2.3614345E-01 9.5412240E+00
  1.000E+01  9.502E-01  1.243E-03 6.1979497E+00 4.6662564E-01 9.4153792E+00
  9.957E+00  9.751E-01  3.108E-04 6.1879726E+00 2.3614582E-01 9.5412239E+00
  1.000E+01  9.004E-01  4.969E-03 6.2355905E+00 9.3442656E-01 9.3801032E+00
  9.957E+00  9.253E-01  2.796E-03 6.2136636E+00 7.0896537E-01 9.5169750E+00
  1.000E+01  8.510E-01  1.117E-02 6.3062785E+00 1.4047392E+00 9.3239251E+00
  9.957E+00  8.757E-01  7.761E-03 6.2682126E+00 1.1837061E+00 9.4703819E+00
  1.000E+01  8.019E-01  1.983E-02 6.4080139E+00 1.8749144E+00 9.2466978E+00
  9.957E+00  8.264E-01  1.519E-02 6.3538449E+00 1.6606462E+00 9.4032024E+00
  1.000E+01  7.532E-01  3.092E-02 6.5199802E+00 2.3355987E+00 9.1435615E+00
  9.957E+00  7.775E-01  2.507E-02 6.4635856E+00 2.1332530E+00 9.3127969E+00
  1.000E+01  7.052E-01  4.443E-02 6.6141998E+00 2.7796046E+00 9.0100613E+00
  9.957E+00  7.292E-01  3.738E-02 6.5711328E+00 2.5911716E+00 9.1928395E+00
  1.000E+01  6.580E-01  6.031E-02 6.6969220E+00 3.2176741E+00 8.8554898E+00
  9.957E+00  6.815E-01  5.207E-02 6.6542314E+00 3.0353434E+00 9.0451535E+00
  1.000E+01  6.116E-01  7.852E-02 6.8594311E+00 3.6606298E+00 8.6884531E+00
  9.957E+00  6.347E-01  6.913E-02 6.7660151E+00 3.4815210E+00 8.8825067E+00
  1.000E+01  5.661E-01  9.903E-02 6.9964472E+00 4.0944869E+00 8.4985288E+00
  9.957E+00  5.887E-01  8.849E-02 6.9417260E+00 3.9279971E+00 8.7037152E+00
  1.000E+01  5.217E-01  1.218E-01 7.0572518E+00 4.5094336E+00 8.2806302E+00
  9.957E+00  5.438E-01  1.101E-01 7.0367454E+00 4.3571256E+00 8.4964226E+00
  1.000E+01  4.786E-01  1.467E-01 7.2198375E+00 4.9159239E+00 8.0454281E+00
  9.957E+00  5.000E-01  1.340E-01 7.1198896E+00 4.7716739E+00 8.2659550E+00
  1.000E+01  4.367E-01  1.738E-01 7.2695574E+00 5.3124010E+00 7.7916151E+00
  9.957E+00  4.575E-01  1.600E-01 7.2684850E+00 5.1794231E+00 8.0194470E+00
  1.000E+01  3.962E-01  2.029E-01 7.3607251E+00 5.6934559E+00 7.5164285E+00
  9.957E+00  4.163E-01  1.881E-01 7.2968238E+00 5.5729111E+00 7.7512693E+00
  1.000E+01  3.572E-01  2.340E-01 7.4166547E+00 6.0611621E+00 7.2234418E+00
  9.957E+00  3.765E-01  2.182E-01 7.3926436E+00 5.9518376E+00 7.4634530E+00
  1.000E+01  3.198E-01  2.669E-01 7.4209553E+00 6.4137205E+00 6.9123236E+00
  9.957E+00  3.383E-01  2.502E-01 7.4074394E+00 6.3167701E+00 7.1577537E+00
  1.000E+01  2.841E-01  3.018E-01 7.4537993E+00 6.7501807E+00 6.5839529E+00
  9.957E+00  3.018E-01  2.841E-01 7.4538044E+00 6.6655199E+00 6.8338115E+00
  1.000E+01  2.502E-01  3.383E-01 7.4074324E+00 7.0701587E+00 6.2394744E+00
  9.957E+00  2.669E-01  3.198E-01 7.4209586E+00 6.9979515E+00 6.4931806E+00
  1.000E+01  2.182E-01  3.765E-01 7.3926351E+00 7.3721210E+00 5.8790061E+00
  9.957E+00  2.340E-01  3.572E-01 7.4166558E+00 7.3129331E+00 6.1362565E+00
  1.000E+01  1.881E-01  4.163E-01 7.2968135E+00 7.6564057E+00 5.5047178E+00
  9.957E+00  2.029E-01  3.962E-01 7.3607244E+00 7.6095402E+00 5.7639940E+00
  1.000E+01  1.600E-01  4.575E-01 7.2684726E+00 7.9213232E+00 5.1160446E+00
  9.957E+00  1.738E-01  4.367E-01 7.2695542E+00 7.8881453E+00 5.3782200E+00
  1.000E+01  1.340E-01  5.000E-01 7.1198746E+00 8.1647874E+00 4.7132847E+00
  9.957E+00  1.467E-01  4.786E-01 7.2198309E+00 8.1451048E+00 4.9768293E+00
  1.000E+01  1.101E-01  5.438E-01 7.0367295E+00 8.3924437E+00 4.3038102E+00
  9.957E+00  1.218E-01  5.217E-01 7.0572432E+00 8.3831958E+00 4.5653039E+00
  1.000E+01  8.849E-02  5.887E-01 6.9417090E+00 8.5972262E+00 3.8799342E+00
  9.957E+00  9.903E-02  5.661E-01 6.9964369E+00 8.6038275E+00 4.1452155E+00
  1.000E+01  6.913E-02  6.347E-01 6.7659962E+00 8.7737942E+00 3.4389192E+00
  9.957E+00  7.852E-02  6.116E-01 6.8594185E+00 8.7960976E+00 3.7059837E+00
  1.000E+01  5.207E-02  6.815E-01 6.6542122E+00 8.9344466E+00 2.9982003E+00
  9.957E+00  6.031E-02  6.580E-01 6.6969068E+00 8.9651739E+00 3.2575401E+00
  1.000E+01  3.738E-02  7.292E-01 6.5711151E+00 9.0803556E+00 2.5594653E+00
  9.957E+00  4.443E-02  7.052E-01 6.6141828E+00 9.1216810E+00 2.8140452E+00
  1.000E+01  2.507E-02  7.775E-01 6.4635679E+00 9.1988477E+00 2.1071498E+00
  9.957E+00  3.092E-02  7.532E-01 6.5199625E+00 9.2568538E+00 2.3645388E+00
  1.000E+01  1.519E-02  8.264E-01 6.3538254E+00 9.2881296E+00 1.6403250E+00
  9.957E+00  1.983E-02  8.019E-01 6.4079950E+00 9.3612578E+00 1.8981451E+00
  1.000E+01  7.761E-03  8.757E-01 6.2681916E+00 9.3544768E+00 1.1692205E+00
  9.957E+00  1.117E-02  8.510E-01 6.3062585E+00 9.4394277E+00 1.4221426E+00
  1.000E+01  2.796E-03  9.253E-01 6.2136433E+00 9.4005054E+00 7.0029065E-01
  9.957E+00  4.969E-03  9.004E-01 6.2355707E+00 9.4963016E+00 9.4600311E-01
  1.000E+01  3.108E-04  9.751E-01 6.1879538E+00 9.4244677E+00 2.3325596E-01
  9.957E+00  1.243E-03  9.502E-01 6.1979309E+00 9.5320237E+00 4.7240746E-01
  1.000E+01  3.108E-04  1.025E+00 6.1879527E+00 9.4244705E+00 -2.3325578E-01
  9.957E+00  0.000E+00  1.000E+00 6.1865893E+00 9.5443514E+00 1.1821247E-07
  1.000E+01  2.796E-03  1.075E+00 6.2136401E+00 9.4005145E+00 -7.0029050E-01
  9.957E+00  1.243E-03  1.050E+00 6.1979287E+00 9.5320294E+00 -4.7240726E-01
  1.000E+01  7.761E-03  1.124E+00 6.2681863E+00 9.3544906E+00 -1.1692204E+00
  9.957E+00  4.969E-03  1.100E+00 6.2355663E+00 9.4963142E+00 -9.4600301E-01
  1.000E+01  1.519E-02  1.174E+00 6.3538180E+00 9.2881360E+00 -1.6403250E+00
  9.957E+00  1.117E-02  1.149E+00 6.3062519E+00 9.4394402E+00 -1.4221426E+00
  1.000E+01  2.507E-02  1.223E+00 6.4635584E+00 9.1988313E+00 -2.1071500E+00
  9.957E+00  1.983E-02  1.198E+00 6.4079864E+00 9.3612532E+00 -1.8981452E+00
  1.000E+01  3.738E-02  1.271E+00 6.5711036E+00 9.0803392E+00 -2.5594658E+00
  9.957E+00  3.092E-02  1.247E+00 6.5199519E+00 9.2568312E+00 -2.3645391E+00
  1.000E+01  5.207E-02  1.318E+00 6.6541989E+00 8.9344764E+00 -2.9982011E+00
  9.957E+00  4.443E-02  1.295E+00 6.6141703E+00 9.1216849E+00 -2.8140458E+00
  1.000E+01  6.913E-02  1.365E+00 6.7659812E+00 8.7738182E+00 -3.4389202E+00
  9.957E+00  6.031E-02  1.342E+00 6.6968924E+00 8.9652160E+00 -3.2575411E+00
  1.000E+01  8.849E-02  1.411E+00 6.9416928E+00 8.5971893E+00 -3.8799352E+00
  9.957E+00  7.852E-02  1.388E+00 6.8594025E+00 8.7960842E+00 -3.7059848E+00
  1.000E+01  1.101E-01  1.456E+00 7.0367117E+00 8.3924561E+00 -4.3038118E+00
  9.957E+00  9.903E-02  1.434E+00 6.9964195E+00 8.6038028E+00 -4.1452166E+00
  1.000E+01  1.340E-01  1.500E+00 7.1198556E+00 8.1648110E+00 -4.7132867E+00
  9.957E+00  1.218E-01  1.478E+00 7.0572243E+00 8.3832349E+00 -4.5653061E+00
  1.000E+01  1.600E-01  1.543E+00 7.2684526E+00 7.9212961E+00 -5.1160460E+00
  9.957E+00  1.467E-01  1.521E+00 7.2198108E+00 8.1450908E+00 -4.9768307E+00
  1.000E+01  1.881E-01  1.584E+00 7.2967929E+00 7.6564199E+00 -5.5047207E+00
  9.957E+00  1.738E-01  1.563E+00 7.2695334E+00 7.8881388E+00 -5.3782225E+00
  1.000E+01  2.182E-01  1.623E+00 7.3926140E+00 7.3721124E+00 -5.8790084E+00
  9.957E+00  2.029E-01  1.604E+00 7.3607031E+00 7.6095487E+00 -5.7639966E+00
  1.000E+01  2.502E-01  1.662E+00 7.4074112E+00 7.0701562E+00 -6.2394774E+00
  9.957E+00  2.340E-01  1.643E+00 7.4166342E+00 7.3129192E+00 -6.1362590E+00
  1.000E+01  2.841E-01  1.698E+00 7.4537784E+00 6.7501793E+00 -6.5839559E+00
  9.957E+00  2.669E-01  1.680E+00 7.4209370E+00 6.9979568E+00 -6.4931841E+00
  1.000E+01  3.198E-01  1.733E+00 7.4209349E+00 6.4137158E+00 -6.9123270E+00
  9.957E+00  3.018E-01  1.716E+00 7.4537832E+00 6.6655115E+00 -6.8338146E+00
  1.000E+01  3.572E-01  1.766E+00 7.4166351E+00 6.0611619E+00 -7.2234454E+00
  9.957E+00  3.383E-01  1.750E+00 7.4074189E+00 6.3167708E+00 -7.1577576E+00
  1.000E+01  3.962E-01  1.797E+00 7.3607068E+00 5.6934531E+00 -7.5164323E+00
  9.957E+00  3.765E-01  1.782E+00 7.3926241E+00 5.9518342E+00 -7.4634567E+00
  1.000E+01  4.367E-01  1.826E+00 7.2695407E+00 5.3124011E+00 -7.7916194E+00
  9.957E+00  4.163E-01  1.812E+00 7.2968056E+00 5.5729104E+00 -7.7512734E+00
  1.000E+01  4.786E-01  1.853E+00 7.2198224E+00 4.9159219E+00 -8.0454326E+00
  9.957E+00  4.575E-01  1.840E+00 7.2684685E+00 5.1794205E+00 -8.0194511E+00
  1.000E+01  5.217E-01  1.878E+00 7.0572390E+00 4.5094325E+00 -8.2806350E+00
  9.957E+00  5.000E-01  1.866E+00 7.1198751E+00 4.7716731E+00 -8.2659594E+00
  1.000E+01  5.661E-01  1.901E+00 6.9964373E+00 4.0944820E+00 -8.4985333E+00
  9.957E+00  5.438E-01  1.890E+00 7.0367329E+00 4.3571232E+00 -8.4964273E+00
  1.000E+01  6.116E-01  1.921E+00 6.8594240E+00 3.6606279E+00 -8.6884576E+00
  9.957E+00  5.887E-01  1.912E+00 6.9417152E+00 3.9279957E+00 -8.7037197E+00
  1.000E+01  6.580E-01  1.940E+00 6.6969167E+00 3.2176727E+00 -8.8554947E+00
  9.957E+00  6.347E-01  1.931E+00 6.7660071E+00 3.4815199E+00 -8.8825118E+00
  1.000E+01  7.052E-01  1.956E+00 6.6141962E+00 2.7796062E+00 -9.0100671E+00
  9.957E+00  6.815E-01  1.948E+00 6.6542270E+00 3.0353396E+00 -9.0451582E+00
  1.000E+01  7.532E-01  1.969E+00 6.5199792E+00 2.3356006E+00 -9.1435681E+00
  9.957E+00  7.292E-01  1.963E+00 6.5711324E+00 2.5911669E+00 -9.1928437E+00
  1.000E+01  8.019E-01  1.980E+00 6.4080170E+00 1.8749155E+00 -9.2467047E+00
  9.957E+00  7.775E-01  1.975E+00 6.4635887E+00 2.1332481E+00 -9.3128007E+00
  1.000E+01  8.510E-01  1.989E+00 6.3062860E+00 1.4047374E+00 -9.3239319E+00
  9.957E+00  8.264E-01  1.985E+00 6.3538507E+00 1.6606431E+00 -9.4032061E+00
  1.000E+01  9.004E-01  1.995E+00 6.2356022E+00 9.3442338E-01 -9.3801097E+00
  9.957E+00  8.757E-01  1.992E+00 6.2682211E+00 1.1837031E+00 -9.4703856E+00
  1.000E+01  9.502E-01  1.999E+00 6.1979652E+00 4.6662312E-01 -9.4153854E+00
  9.957E+00  9.253E-01  1.997E+00 6.2136752E+00 7.0896400E-01 -9.5169787E+00
  1.000E+01  1.000E+00  2.000E+00 6.1866253E+00 -1.7702739E-06 -9.4275530E+00
  9.957E+00  9.751E-01  2.000E+00 6.1879874E+00 2.3614333E-01 -9.5412275E+00
  1.000E+01  1.050E+00  1.999E+00 6.1979689E+00 -4.6662537E-01 -9.4153852E+00
  9.957E+00  1.025E+00  2.000E+00 6.1879893E+00 -2.3614655E-01 -9.5412274E+00
  1.000E+01  1.100E+00  1.995E+00 6.2356096E+00 -9.3442641E-01 -9.3801093E+00
  9.957E+00  1.075E+00  1.997E+00 6.2136807E+00 -7.0896642E-01 -9.5169784E+00
  1.000E+01  1.149E+00  1.989E+00 6.3062971E+00 -1.4047404E+00 -9.3239313E+00
  9.957E+00  1.124E+00  1.992E+00 6.2682304E+00 -1.1837067E+00 -9.4703851E+00
  1.000E+01  1.198E+00  1.980E+00 6.4080315E+00 -1.8749179E+00 -9.2467039E+00
  9.957E+00  1.174E+00  1.985E+00 6.3538636E+00 -1.6606456E+00 -9.4032054E+00