# TIME = 0.000000
VARIABLES = X, Y, Z, FX, FY, FZ
ZONE N=29232 E=58212 F=FEPOINT ET=TRIANGLE
  0.000E+00  9.502E-01  1.243E-03 6.7499155E+00 3.0364516E-01 6.1266299E+00
  0.000E+00  1.000E+00  0.000E+00 6.7400854E+00 -6.1886554E-06 6.1345465E+00
  4.318E-02  9.751E-01  3.108E-04 6.7409636E+00 1.5178892E-01 6.1327693E+00
  0.000E+00  1.050E+00  1.243E-03 6.7499156E+00 -3.0365831E-01 6.1266311E+00
  4.318E-02  1.025E+00  3.108E-04 6.7409636E+00 -1.5180207E-01 6.1327699E+00
  0.000E+00  1.100E+00  4.969E-03 6.7834141E+00 -6.0807318E-01 6.1036816E+00
  4.318E-02  1.075E+00  2.796E-03 6.7638978E+00 -4.5573159E-01 6.1171872E+00
  0.000E+00  1.149E+00  1.117E-02 6.8481883E+00 -9.1412151E-01 6.0671322E+00
  4.318E-02  1.124E+00  7.761E-03 6.8133985E+00 -7.6088999E-01 6.0872455E+00
  0.000E+00  1.198E+00  1.983E-02 6.9426127E+00 -1.2200782E+00 6.0168846E+00
  4.318E-02  1.174E+00  1.519E-02 6.8922911E+00 -1.0674619E+00 6.0440714E+00
  0.000E+00  1.247E+00  3.092E-02 7.0449654E+00 -1.5198525E+00 5.9497746E+00
  4.318E-02  1.223E+00  2.507E-02 6.9936670E+00 -1.3712458E+00 5.9859659E+00
  0.000E+00  1.295E+00  4.443E-02 7.1258929E+00 -1.8087685E+00 5.8629063E+00
  4.318E-02  1.271E+00  3.738E-02 7.0899852E+00 -1.6655843E+00 5.9088645E+00
  0.000E+00  1.342E+00  6.031E-02 7.1926284E+00 -2.0938138E+00 5.7623251E+00
  4.318E-02  1.318E+00  5.207E-02 7.1580575E+00 -1.9510797E+00 5.8139402E+00
  0.000E+00  1.388E+00  7.852E-02 7.3445201E+00 -2.3820333E+00 5.6536289E+00
  4.318E-02  1.365E+00  6.913E-02 7.2555019E+00 -2.2378585E+00 5.7093982E+00
  0.000E+00  1.434E+00  9.903E-02 7.4704046E+00 -2.6643269E+00 5.5300369E+00
  4.318E-02  1.411E+00  8.849E-02 7.4219186E+00 -2.5248266E+00 5.5944794E+00
  0.000E+00  1.478E+00  1.218E-01 7.5151344E+00 -2.9343197E+00 5.3882391E+00
  4.318E-02  1.456E+00  1.101E-01 7.5032399E+00 -2.8006449E+00 5.4612403E+00
  0.000E+00  1.521E+00  1.467E-01 7.6699850E+00 -3.1988099E+00 5.2351847E+00
  4.318E-02  1.500E+00  1.340E-01 7.5723926E+00 -3.0670935E+00 5.3131043E+00
  0.000E+00  1.563E+00  1.738E-01 7.7088327E+00 -3.4567925E+00 5.0700270E+00
  4.318E-02  1.543E+00  1.600E-01 7.7142268E+00 -3.3291668E+00 5.1546488E+00
  0.000E+00  1.604E+00  2.029E-01 7.7925304E+00 -3.7047401E+00 4.8909637E+00
  4.318E-02  1.584E+00  1.881E-01 7.7307864E+00 -3.5820755E+00 4.9822593E+00
  0.000E+00  1.643E+00  2.340E-01 7.8442394E+00 -3.9440054E+00 4.7003153E+00
  4.318E-02  1.623E+00  2.182E-01 7.8223091E+00 -3.8256218E+00 4.7972461E+00
  0.000E+00  1.680E+00  2.669E-01 7.8434423E+00 -4.1734093E+00 4.4978660E+00
  4.318E-02  1.662E+00  2.502E-01 7.8312245E+00 -4.0601795E+00 4.6007420E+00
  0.000E+00  1.716E+00  3.018E-01 7.8776795E+00 -4.3923471E+00 4.2841929E+00
  4.318E-02  1.698E+00  2.841E-01 7.8776994E+00 -4.2843331E+00 4.3925184E+00
  0.000E+00  1.750E+00  3.383E-01 7.8312072E+00 -4.6005614E+00 4.0600432E+00
  4.318E-02  1.733E+00  3.198E-01 7.8434596E+00 -4.4980183E+00 4.1735744E+00
  0.000E+00  1.782E+00  3.765E-01 7.8222977E+00 -4.7970536E+00 3.8254932E+00
  4.318E-02  1.766E+00  3.572E-01 7.8442485E+00 -4.7004708E+00 3.9441625E+00
  0.000E+00  1.812E+00  4.163E-01 7.7307802E+00 -4.9820617E+00 3.5819525E+00
  4.318E-02  1.797E+00  3.962E-01 7.7925297E+00 -4.8911414E+00 3.7048954E+00
  0.000E+00  1.840E+00  4.575E-01 7.7142206E+00 -5.1544258E+00 3.3290510E+00
  4.318E-02  1.826E+00  4.367E-01 7.7088267E+00 -5.0702173E+00 3.4569451E+00
  0.000E+00  1.866E+00  5.000E-01 7.5723830E+00 -5.3128894E+00 3.0669856E+00
  4.318E-02  1.853E+00  4.786E-01 7.6699799E+00 -5.2353841E+00 3.1989556E+00
  0.000E+00  1.890E+00  5.438E-01 7.5032313E+00 -5.4610228E+00 2.8005496E+00
  4.318E-02  1.878E+00  5.217E-01 7.5151310E+00 -5.3884607E+00 2.9344529E+00
  0.000E+00  1.912E+00  5.887E-01 7.4219116E+00 -5.5942470E+00 2.5247442E+00
  4.318E-02  1.901E+00  5.661E-01 7.4703997E+00 -5.5302378E+00 2.6644459E+00
  0.000E+00  1.931E+00  6.347E-01 7.2554928E+00 -5.7091821E+00 2.2377868E+00
  4.318E-02  1.921E+00  6.116E-01 7.3445148E+00 -5.6538308E+00 2.3821366E+00
  0.000E+00  1.948E+00  6.815E-01 7.1580452E+00 -5.8137226E+00 1.9510177E+00
  4.318E-02  1.940E+00  6.580E-01 7.1926256E+00 -5.7625443E+00 2.0939038E+00
  0.000E+00  1.963E+00  7.292E-01 7.0899751E+00 -5.9086329E+00 1.6655330E+00
  4.318E-02  1.956E+00  7.052E-01 7.1258931E+00 -5.8631169E+00 1.8088462E+00
  0.000E+00  1.975E+00  7.775E-01 6.9936610E+00 -5.9857346E+00 1.3712060E+00
  4.318E-02  1.969E+00  7.532E-01 7.0449671E+00 -5.9499829E+00 1.5199195E+00
  0.000E+00  1.985E+00  8.264E-01 6.8922836E+00 -6.0438451E+00 1.0674327E+00
  4.318E-02  1.980E+00  8.019E-01 6.9426140E+00 -6.0170986E+00 1.2201329E+00
  0.000E+00  1.992E+00  8.757E-01 6.8133818E+00 -6.0870188E+00 7.6086996E-01
  4.318E-02  1.989E+00  8.510E-01 6.8481926E+00 -6.0673471E+00 9.1416271E-01
  0.000E+00  1.997E+00  9.253E-01 6.7638739E+00 -6.1169590E+00 4.5571961E-01
  4.318E-02  1.995E+00  9.004E-01 6.7834253E+00 -6.1038967E+00 6.0810153E-01
  0.000E+00  2.000E+00  9.751E-01 6.7409419E+00 -6.1325406E+00 1.5180091E-01
  4.318E-02  1.999E+00  9.502E-01 6.7499326E+00 -6.1268515E+00 3.0367503E-01
  0.000E+00  2.000E+00  1.025E+00 6.7409484E+00 -6.1325380E+00 -1.5177881E-01
  4.318E-02  2.000E+00  1.000E+00 6.7401002E+00 -6.1347688E+00 1.2141704E-05
  0.000E+00  1.997E+00  1.075E+00 6.7638834E+00 -6.1169508E+00 -4.5569755E-01
  4.318E-02  1.999E+00  1.050E+00 6.7499260E+00 -6.1268463E+00 -3.0365181E-01
  0.000E+00  1.992E+00  1.124E+00 6.8133778E+00 -6.0870060E+00 -7.6084798E-01
  4.318E-02  1.995E+00  1.100E+00 6.7834232E+00 -6.1038853E+00 -6.0808009E-01
  0.000E+00  1.985E+00  1.174E+00 6.8922673E+00 -6.0438356E+00 -1.0674108E+00
  4.318E-02  1.989E+00  1.149E+00 6.8482005E+00 -6.0673341E+00 -9.1414117E-01
  0.000E+00  1.975E+00  1.223E+00 6.9936471E+00 -5.9857385E+00 -1.3711842E+00
  4.318E-02  1.980E+00  1.198E+00 6.9426257E+00 -6.0170953E+00 -1.2201099E+00
  0.000E+00  1.963E+00  1.271E+00 7.0899716E+00 -5.9086356E+00 -1.6655112E+00
  4.318E-02  1.969E+00  1.247E+00 7.0449735E+00 -5.9499901E+00 -1.5198957E+00
  0.000E+00  1.948E+00  1.318E+00 7.1580472E+00 -5.8136941E+00 -1.9509961E+00
  4.318E-02  1.956E+00  1.295E+00 7.1258939E+00 -5.8631058E+00 -1.8088231E+00
  0.000E+00  1.931E+00  1.365E+00 7.2554932E+00 -5.7091564E+00 -2.2377654E+00
  4.318E-02  1.940E+00  1.342E+00 7.1926255E+00 -5.7625073E+00 -2.0938817E+00
  0.000E+00  1.912E+00  1.411E+00 7.4219099E+00 -5.5942593E+00 -2.5247227E+00
  4.318E-02  1.921E+00  1.388E+00 7.3445166E+00 -5.6538289E+00 -2.3821149E+00
  0.000E+00  1.890E+00  1.456E+00 7.5032313E+00 -5.4610029E+00 -2.8005284E+00
  4.318E-02  1.901E+00  1.434E+00 7.4704015E+00 -5.5302422E+00 -2.6644238E+00
  0.000E+00  1.866E+00  1.500E+00 7.5723843E+00 -5.3128614E+00 -3.0669643E+00
  4.318E-02  1.878E+00  1.478E+00 7.5151319E+00 -5.3884232E+00 -2.9344307E+00
  0.000E+00  1.840E+00  1.543E+00 7.7142226E+00 -5.1544302E+00 -3.3290304E+00
  4.318E-02  1.853E+00  1.521E+00 7.6699802E+00 -5.2353800E+00 -3.1989343E+00
  0.000E+00  1.812E+00  1.584E+00 7.7307828E+00 -4.9820388E+00 -3.5819313E+00
  4.318E-02  1.826E+00  1.563E+00 7.7088265E+00 -5.0702078E+00 -3.4569235E+00
  0.000E+00  1.782E+00  1.623E+00 7.8223004E+00 -4.7970452E+00 -3.8254726E+00
  4.318E-02  1.797E+00  1.604E+00 7.7925292E+00 -4.8911218E+00 -3.7048741E+00
  0.000E+00  1.750E+00  1.662E+00 7.8312089E+00 -4.6005486E+00 -4.0600225E+00
  4.318E-02  1.766E+00  1.643E+00 7.8442482E+00 -4.7004651E+00 -3.9441416E+00
  0.000E+00  1.716E+00  1.698E+00 7.8776776E+00 -4.3923335E+00 -4.2841726E+00
  4.318E-02  1.733E+00  1.680E+00 7.8434605E+00 -4.4979998E+00 -4.1735535E+00
  0.000E+00  1.680E+00  1.733E+00 7.8434309E+00 -4.1733976E+00 -4.4978457E+00
  4.318E-02  1.698E+00  1.716E+00 7.8777040E+00 -4.2843226E+00 -4.3924985E+00
  0.000E+00  1.643E+00  1.766E+00 7.8442107E+00 -3.9439907E+00 -4.7002952E+00
  4.318E-02  1.662E+00  1.750E+00 7.8312377E+00 -4.0601622E+00 -4.6007224E+00
  0.000E+00  1.604E+00  1.797E+00 7.7924819E+00 -3.7047272E+00 -4.8909438E+00
  4.318E-02  1.623E+00  1.782E+00 7.8223347E+00 -3.8256068E+00 -4.7972269E+00
  0.000E+00  1.563E+00  1.826E+00 7.7087745E+00 -3.4567779E+00 -5.0700074E+00
  4.318E-02  1.584E+00  1.812E+00 7.7308224E+00 -3.5820593E+00 -4.9822393E+00
  0.000E+00  1.521E+00  1.853E+00 7.6699320E+00 -3.1987968E+00 -5.2351654E+00
  4.318E-02  1.543E+00  1.840E+00 7.7142634E+00 -3.3291532E+00 -5.1546282E+00
  0.000E+00  1.478E+00  1.878E+00 7.5150872E+00 -2.9343058E+00 -5.3882199E+00
  4.318E-02  1.500E+00  1.866E+00 7.5724239E+00 -3.0670791E+00 -5.3130838E+00
  0.000E+00  1.434E+00  1.901E+00 7.4703560E+00 -2.6643151E+00 -5.5300180E+00
  4.318E-02  1.456E+00  1.890E+00 7.5032696E+00 -2.8006314E+00 -5.4612205E+00
  0.000E+00  1.388E+00  1.921E+00 7.3444719E+00 -2.3820198E+00 -5.6536102E+00
  4.318E-02  1.411E+00  1.912E+00 7.4219487E+00 -2.5248131E+00 -5.5944599E+00
  0.000E+00  1.342E+00  1.940E+00 7.1925856E+00 -2.0938018E+00 -5.7623067E+00
  4.318E-02  1.365E+00  1.931E+00 7.2555296E+00 -2.2378453E+00 -5.7093789E+00
  0.000E+00  1.295E+00  1.956E+00 7.1258580E+00 -1.8087566E+00 -5.8628882E+00
  4.318E-02  1.318E+00  1.948E+00 7.1580800E+00 -1.9510680E+00 -5.8139212E+00
  0.000E+00  1.247E+00  1.969E+00 7.0449376E+00 -1.5198414E+00 -5.9497568E+00
  4.318E-02  1.271E+00  1.963E+00 7.0900021E+00 -1.6655728E+00 -5.9088459E+00
  0.000E+00  1.198E+00  1.980E+00 6.9425908E+00 -1.2200671E+00 -6.0168671E+00
  4.318E-02  1.223E+00  1.975E+00 6.9936791E+00 -1.3712349E+00 -5.9859479E+00
  0.000E+00  1.149E+00  1.989E+00 6.8481718E+00 -9.1411165E-01 -6.0671151E+00
  4.318E-02  1.174E+00  1.985E+00 6.8922990E+00 -1.0674511E+00 -6.0440538E+00
  0.000E+00  1.100E+00  1.995E+00 6.7834022E+00 -6.0806439E-01 -6.1036650E+00
  4.318E-02  1.124E+00  1.992E+00 6.8134023E+00 -7.6088036E-01 -6.0872284E+00
  0.000E+00  1.050E+00  1.999E+00 6.7499066E+00 -3.0364977E-01 -6.1266149E+00
  4.318E-02  1.075E+00  1.997E+00 6.7638983E+00 -4.5572150E-01 -6.1171705E+00
  0.000E+00  1.000E+00  2.000E+00 6.7400773E+00 1.2891588E-06 -6.1345306E+00
  4.318E-02  1.025E+00  2.000E+00 6.7409620E+00 -1.5179323E-01 -6.1327536E+00
  0.000E+00  9.502E-01  1.999E+00 6.7499058E+00 3.0365308E-01 -6.1266143E+00
  4.318E-02  9.751E-01  2.000E+00 6.7409615E+00 1.5179688E-01 -6.1327534E+00
  0.000E+00  9.004E-01  1.995E+00 6.7834004E+00 6.0806698E-01 -6.1036639E+00
  4.318E-02  9.253E-01  1.997E+00 6.7638969E+00 4.5572565E-01 -6.1171698E+00
  0.000E+00  8.510E-01  1.989E+00 6.8481692E+00 9.1411404E-01 -6.0671136E+00
  4.318E-02  8.757E-01  1.992E+00 6.8134000E+00 7.6088354E-01 -6.0872272E+00
  0.000E+00  8.019E-01  1.980E+00 6.9425874E+00 1.2200696E+00 -6.0168652E+00
  4.318E-02  8.264E-01  1.985E+00 6.8922957E+00 1.0674547E+00 -6.0440521E+00
  0.000E+00  7.532E-01  1.969E+00 7.0449334E+00 1.5198431E+00 -5.9497546E+00
  4.318E-02  7.775E-01  1.975E+00 6.9936749E+00 1.3712376E+00 -5.9859458E+00
  0.000E+00  7.052E-01  1.956E+00 7.1258531E+00 1.8087583E+00 -5.8628859E+00
  4.318E-02  7.292E-01  1.963E+00 7.0899971E+00 1.6655752E+00 -5.9088434E+00
  0.000E+00  6.580E-01  1.940E+00 7.1925800E+00 2.0938028E+00 -5.7623043E+00
  4.318E-02  6.815E-01  1.948E+00 7.1580741E+00 1.9510697E+00 -5.8139183E+00
  0.000E+00  6.116E-01  1.921E+00 7.3444658E+00 2.3820212E+00 -5.6536078E+00
  4.318E-02  6.347E-01  1.931E+00 7.2555229E+00 2.2378472E+00 -5.7093759E+00
  0.000E+00  5.661E-01  1.901E+00 7.4703491E+00 2.6643139E+00 -5.5300153E+00
  4.318E-02  5.887E-01  1.912E+00 7.4219410E+00 2.5248136E+00 -5.5944565E+00
  0.000E+00  5.217E-01  1.878E+00 7.5150796E+00 2.9343058E+00 -5.3882172E+00
  4.318E-02  5.438E-01  1.890E+00 7.5032616E+00 2.8006309E+00 -5.4612176E+00
  0.000E+00  4.786E-01  1.853E+00 7.6699238E+00 3.1987949E+00 -5.2351625E+00
  4.318E-02  5.000E-01  1.866E+00 7.5724153E+00 3.0670793E+00 -5.3130810E+00
  0.000E+00  4.367E-01  1.826E+00 7.7087658E+00 3.4567766E+00 -5.0700047E+00
  4.318E-02  4.575E-01  1.840E+00 7.7142543E+00 3.3291514E+00 -5.1546255E+00
  0.000E+00  3.962E-01  1.797E+00 7.7924728E+00 3.7047233E+00 -4.8909413E+00
  4.318E-02  4.163E-01  1.812E+00 7.7308130E+00 3.5820581E+00 -4.9822370E+00
  0.000E+00  3.572E-01  1.766E+00 7.8442012E+00 3.9439878E+00 -4.7002930E+00
  4.318E-02  3.765E-01  1.782E+00 7.8223249E+00 3.8256027E+00 -4.7972248E+00
  0.000E+00  3.198E-01  1.733E+00 7.8434212E+00 4.1733910E+00 -4.4978439E+00
  4.318E-02  3.383E-01  1.750E+00 7.8312275E+00 4.0601600E+00 -4.6007210E+00
  0.000E+00  2.841E-01  1.698E+00 7.8776677E+00 4.3923282E+00 -4.2841711E+00
  4.318E-02  3.018E-01  1.716E+00 7.8776935E+00 4.2843137E+00 -4.3924972E+00
  0.000E+00  2.502E-01  1.662E+00 7.8311988E+00 4.6005418E+00 -4.0600218E+00
  4.318E-02  2.669E-01  1.680E+00 7.8434499E+00 4.4979988E+00 -4.1735532E+00
  0.000E+00  2.182E-01  1.623E+00 7.8222902E+00 4.7970336E+00 -3.8254722E+00
  4.318E-02  2.340E-01  1.643E+00 7.8442375E+00 4.7004511E+00 -3.9441414E+00
  0.000E+00  1.881E-01  1.584E+00 7.7307727E+00 4.9820413E+00 -3.5819320E+00
  4.318E-02  2.029E-01  1.604E+00 7.7925185E+00 4.8911213E+00 -3.7048747E+00
  0.000E+00  1.600E-01  1.543E+00 7.7142125E+00 5.1544052E+00 -3.3290310E+00
  4.318E-02  1.738E-01  1.563E+00 7.7088158E+00 5.0701970E+00 -3.4569248E+00
  0.000E+00  1.340E-01  1.500E+00 7.5723744E+00 5.3128687E+00 -3.0669661E+00
  4.318E-02  1.467E-01  1.521E+00 7.6699695E+00 5.2353636E+00 -3.1989358E+00
  0.000E+00  1.101E-01  1.456E+00 7.5032215E+00 5.4610023E+00 -2.8005307E+00
  4.318E-02  1.218E-01  1.478E+00 7.5151214E+00 5.3884402E+00 -2.9344336E+00
  0.000E+00  8.849E-02  1.411E+00 7.4219008E+00 5.5942263E+00 -2.5247256E+00
  4.318E-02  9.903E-02  1.434E+00 7.4703912E+00 5.5302174E+00 -2.6644270E+00
  0.000E+00  6.913E-02  1.365E+00 7.2554839E+00 5.7091621E+00 -2.2377691E+00
  4.318E-02  7.852E-02  1.388E+00 7.3445064E+00 5.6538105E+00 -2.3821187E+00
  0.000E+00  5.207E-02  1.318E+00 7.1580383E+00 5.8137031E+00 -1.9510005E+00
  4.318E-02  6.031E-02  1.342E+00 7.1926158E+00 5.7625244E+00 -2.0938865E+00
  0.000E+00  3.738E-02  1.271E+00 7.0899630E+00 5.9086140E+00 -1.6655162E+00
  4.318E-02  4.443E-02  1.295E+00 7.1258845E+00 5.8630977E+00 -1.8088286E+00
  0.000E+00  2.507E-02  1.223E+00 6.9936388E+00 5.9857164E+00 -1.3711898E+00
  4.318E-02  3.092E-02  1.247E+00 7.0449645E+00 5.9499645E+00 -1.5199018E+00
  0.000E+00  1.519E-02  1.174E+00 6.8922595E+00 6.0438279E+00 -1.0674172E+00
  4.318E-02  1.983E-02  1.198E+00 6.9426172E+00 6.0170807E+00 -1.2201167E+00
  0.000E+00  7.761E-03  1.124E+00 6.8133703E+00 6.0870027E+00 -7.6085500E-01
  4.318E-02  1.117E-02  1.149E+00 6.8481924E+00 6.0673300E+00 -9.1414862E-01
  0.000E+00  2.796E-03  1.075E+00 6.7638764E+00 6.1169440E+00 -4.5570520E-01
  4.318E-02  4.969E-03  1.100E+00 6.7834156E+00 6.1038808E+00 -6.0808820E-01
  0.000E+00  3.108E-04  1.025E+00 6.7409418E+00 6.1325268E+00 -1.5178703E-01
  4.318E-02  1.243E-03  1.050E+00 6.7499188E+00 6.1268370E+00 -3.0366051E-01
  0.000E+00  3.108E-04  9.751E-01 6.7409358E+00 6.1325254E+00 1.5179215E-01
  4.318E-02  0.000E+00  1.000E+00 6.7400935E+00 6.1347554E+00 2.8780637E-06
  0.000E+00  2.796E-03  9.253E-01 6.7638683E+00 6.1169394E+00 4.5571033E-01
  4.318E-02  1.243E-03  9.502E-01 6.7499263E+00 6.1268342E+00 3.0366524E-01
  0.000E+00  7.761E-03  8.757E-01 6.8133766E+00 6.0869959E+00 7.6086021E-01
  4.318E-02  4.969E-03  9.004E-01 6.7834196E+00 6.1038746E+00 6.0809125E-01
  0.000E+00  1.519E-02  8.264E-01 6.8922789E+00 6.0438267E+00 1.0674226E+00
  4.318E-02  1.117E-02  8.510E-01 6.8481873E+00 6.0673248E+00 9.1415199E-01
  0.000E+00  2.507E-02  7.775E-01 6.9936567E+00 5.9857308E+00 1.3711955E+00
  4.318E-02  1.983E-02  8.019E-01 6.9426092E+00 6.0170870E+00 1.2201218E+00
  0.000E+00  3.738E-02  7.292E-01 7.0899712E+00 5.9086290E+00 1.6655220E+00
  4.318E-02  3.092E-02  7.532E-01 7.0449627E+00 5.9499826E+00 1.5199080E+00
  0.000E+00  5.207E-02  6.815E-01 7.1580417E+00 5.8136886E+00 1.9510064E+00
  4.318E-02  4.443E-02  7.052E-01 7.1258892E+00 5.8630994E+00 1.8088344E+00
  0.000E+00  6.913E-02  6.347E-01 7.2554897E+00 5.7091517E+00 2.2377752E+00
  4.318E-02  6.031E-02  6.580E-01 7.1926220E+00 5.7625022E+00 2.0938916E+00
  0.000E+00  8.849E-02  5.887E-01 7.4219083E+00 5.5942558E+00 2.5247324E+00
  4.318E-02  7.852E-02  6.116E-01 7.3445119E+00 5.6538245E+00 2.3821245E+00
  0.000E+00  1.101E-01  5.438E-01 7.5032289E+00 5.4609998E+00 2.8005376E+00
  4.318E-02  9.903E-02  5.661E-01 7.4703970E+00 5.5302386E+00 2.6644334E+00
  0.000E+00  1.340E-01  5.000E-01 7.5723810E+00 5.3128591E+00 3.0669733E+00
  4.318E-02  1.218E-01  5.217E-01 7.5151286E+00 5.3884203E+00 2.9344399E+00
  0.000E+00  1.600E-01  4.575E-01 7.7142188E+00 5.1544284E+00 3.3290392E+00
  4.318E-02  1.467E-01  4.786E-01 7.6699779E+00 5.2353778E+00 3.1989433E+00
  0.000E+00  1.881E-01  4.163E-01 7.7307787E+00 4.9820376E+00 3.5819399E+00
  4.318E-02  1.738E-01  4.367E-01 7.7088249E+00 5.0702062E+00 3.4569323E+00
  0.000E+00  2.182E-01  3.765E-01 7.8222964E+00 4.7970443E+00 3.8254812E+00
  4.318E-02  2.029E-01  3.962E-01 7.7925282E+00 4.8911206E+00 3.7048827E+00
  0.000E+00  2.502E-01  3.383E-01 7.8312062E+00 4.6005482E+00 4.0600310E+00
  4.318E-02  2.340E-01  3.572E-01 7.8442472E+00 4.7004644E+00 3.9441500E+00
  0.000E+00  2.841E-01  3.018E-01 7.8776787E+00 4.3923333E+00 4.2841810E+00
  4.318E-02  2.669E-01  3.198E-01 7.8434586E+00 4.4979997E+00 4.1735616E+00
  0.000E+00  3.198E-01  2.669E-01 7.8434416E+00 4.1733977E+00 4.4978542E+00
  4.318E-02  3.018E-01  2.841E-01 7.8776986E+00 4.2843233E+00 4.3925063E+00
  0.000E+00  3.572E-01  2.340E-01 7.8442389E+00 3.9439910E+00 4.7003038E+00
  4.318E-02  3.383E-01  2.502E-01 7.8312238E+00 4.0601639E+00 4.6007297E+00
  0.000E+00  3.962E-01  2.029E-01 7.7925300E+00 3.7047276E+00 4.8909526E+00
  4.318E-02  3.765E-01  2.182E-01 7.8223086E+00 3.8256089E+00 4.7972343E+00
  0.000E+00  4.367E-01  1.738E-01 7.7088323E+00 3.4567784E+00 5.0700164E+00
  4.318E-02  4.163E-01  1.881E-01 7.7307861E+00 3.5820608E+00 4.9822477E+00
  0.000E+00  4.786E-01  1.467E-01 7.6699846E+00 3.1987973E+00 5.2351749E+00
  4.318E-02  4.575E-01  1.600E-01 7.7142267E+00 3.3291532E+00 5.1546376E+00
  0.000E+00  5.217E-01  1.218E-01 7.5151339E+00 2.9343062E+00 5.3882299E+00
  4.318E-02  5.000E-01  1.340E-01 7.5723927E+00 3.0670789E+00 5.3130934E+00
  0.000E+00  5.661E-01  9.903E-02 7.4704040E+00 2.6643153E+00 5.5300284E+00
  4.318E-02  5.438E-01  1.101E-01 7.5032401E+00 2.8006318E+00 5.4612300E+00
  0.000E+00  6.116E-01  7.852E-02 7.3445197E+00 2.3820198E+00 5.6536211E+00
  4.318E-02  5.887E-01  8.849E-02 7.4219186E+00 2.5248129E+00 5.5944695E+00
  0.000E+00  6.580E-01  6.031E-02 7.1926282E+00 2.0938014E+00 5.7623178E+00
  4.318E-02  6.347E-01  6.913E-02 7.2555021E+00 2.2378445E+00 5.7093895E+00
  0.000E+00  7.052E-01  4.443E-02 7.1258928E+00 1.8087557E+00 5.8628996E+00
  4.318E-02  6.815E-01  5.207E-02 7.1580576E+00 1.9510664E+00 5.8139324E+00
  0.000E+00  7.532E-01  3.092E-02 7.0449654E+00 1.5198399E+00 5.9497688E+00
  4.318E-02  7.292E-01  3.738E-02 7.0899853E+00 1.6655708E+00 5.9088579E+00
  0.000E+00  8.019E-01  1.983E-02 6.9426127E+00 1.2200651E+00 6.0168798E+00
  4.318E-02  7.775E-01  2.507E-02 6.9936670E+00 1.3712324E+00 5.9859604E+00
  0.000E+00  8.510E-01  1.117E-02 6.8481883E+00 9.1410892E-01 6.0671286E+00
  4.318E-02  8.264E-01  1.519E-02 6.8922911E+00 1.0674482E+00 6.0440670E+00
  0.000E+00  9.004E-01  4.969E-03 6.7834141E+00 6.0806062E-01 6.1036792E+00
  4.318E-02  8.757E-01  7.761E-03 6.8133985E+00 7.6087703E-01 6.0872423E+00
  4.318E-02  9.253E-01  2.796E-03 6.7638978E+00 4.5571786E-01 6.1171853E+00
  1.000E+01  1.050E+00  1.243E-03 6.7499156E+00 -3.0365831E-01 6.1266311E+00
  1.000E+01  1.000E+00  5.551E-16 6.7400854E+00 -6.1886554E-06 6.1345465E+00
  9.957E+00  1.025E+00  3.108E-04 6.7409611E+00 -1.5180128E-01 6.1327984E+00
  1.000E+01  9.502E-01  1.243E-03 6.7499155E+00 3.0364516E-01 6.1266299E+00
  9.957E+00  9.751E-01  3.108E-04 6.7409611E+00 1.5178931E-01 6.1327978E+00
  1.000E+01  9.004E-01  4.969E-03 6.7834141E+00 6.0806062E-01 6.1036792E+00
  9.957E+00  9.253E-01  2.796E-03 6.7638952E+00 4.5571918E-01 6.1172137E+00
  1.000E+01  8.510E-01  1.117E-02 6.8481883E+00 9.1410892E-01 6.0671286E+00
  9.957E+00  8.757E-01  7.761E-03 6.8133954E+00 7.6088204E-01 6.0872704E+00
  1.000E+01  8.019E-01  1.983E-02 6.9426127E+00 1.2200651E+00 6.0168798E+00
  9.957E+00  8.264E-01  1.519E-02 6.8922878E+00 1.0674562E+00 6.0440947E+00
  1.000E+01  7.532E-01  3.092E-02 7.0449654E+00 1.5198399E+00 5.9497688E+00
  9.957E+00  7.775E-01  2.507E-02 6.9936629E+00 1.3712405E+00 5.9859878E+00
  1.000E+01  7.052E-01  4.443E-02 7.1258928E+00 1.8087557E+00 5.8628996E+00
  9.957E+00  7.292E-01  3.738E-02 7.0899802E+00 1.6655788E+00 5.9088849E+00
  1.000E+01  6.580E-01  6.031E-02 7.1926282E+00 2.0938014E+00 5.7623178E+00
  9.957E+00  6.815E-01  5.207E-02 7.1580518E+00 1.9510761E+00 5.8139588E+00
  1.000E+01  6.116E-01  7.852E-02 7.3445197E+00 2.3820198E+00 5.6536211E+00
  9.957E+00  6.347E-01  6.913E-02 7.2554956E+00 2.2378568E+00 5.7094152E+00
  1.000E+01  5.661E-01  9.903E-02 7.4704040E+00 2.6643153E+00 5.5300284E+00
  9.957E+00  5.887E-01  8.849E-02 7.4219110E+00 2.5248255E+00 5.5944946E+00
  1.000E+01  5.217E-01  1.218E-01 7.5151339E+00 2.9343062E+00 5.3882299E+00
  9.957E+00  5.438E-01  1.101E-01 7.5032318E+00 2.8006452E+00 5.4612549E+00
  1.000E+01  4.786E-01  1.467E-01 7.6699846E+00 3.1987973E+00 5.2351749E+00
  9.957E+00  5.000E-01  1.340E-01 7.5723834E+00 3.0670949E+00 5.3131165E+00
  1.000E+01  4.367E-01  1.738E-01 7.7088323E+00 3.4567784E+00 5.0700164E+00
  9.957E+00  4.575E-01  1.600E-01 7.7142175E+00 3.3291707E+00 5.1546601E+00
  1.000E+01  3.962E-01  2.029E-01 7.7925300E+00 3.7047276E+00 4.8909526E+00
  9.957E+00  4.163E-01  1.881E-01 7.7307772E+00 3.5820773E+00 4.9822706E+00
  1.000E+01  3.572E-01  2.340E-01 7.8442389E+00 3.9439910E+00 4.7003038E+00
  9.957E+00  3.765E-01  2.182E-01 7.8223001E+00 3.8256245E+00 4.7972579E+00
  1.000E+01  3.198E-01  2.669E-01 7.8434416E+00 4.1733977E+00 4.4978542E+00
  9.957E+00  3.383E-01  2.502E-01 7.8312156E+00 4.0601805E+00 4.6007532E+00
  1.000E+01  2.841E-01  3.018E-01 7.8776787E+00 4.3923333E+00 4.2841810E+00
  9.957E+00  3.018E-01  2.841E-01 7.8776903E+00 4.2843414E+00 4.3925286E+00
  1.000E+01  2.502E-01  3.383E-01 7.8312062E+00 4.6005482E+00 4.0600310E+00
  9.957E+00  2.669E-01  3.198E-01 7.8434501E+00 4.4980191E+00 4.1735824E+00
  1.000E+01  2.182E-01  3.765E-01 7.8222964E+00 4.7970443E+00 3.8254812E+00
  9.957E+00  2.340E-01  3.572E-01 7.8442390E+00 4.7004855E+00 3.9441694E+00
  1.000E+01  1.881E-01  4.163E-01 7.7307787E+00 4.9820376E+00 3.5819399E+00
  9.957E+00  2.029E-01  3.962E-01 7.7925200E+00 4.8911432E+00 3.7049002E+00
  1.000E+01  1.600E-01  4.575E-01 7.7142188E+00 5.1544284E+00 3.3290392E+00
  9.957E+00  1.738E-01  4.367E-01 7.7088166E+00 5.0702302E+00 3.4569475E+00
  1.000E+01  1.340E-01  5.000E-01 7.5723810E+00 5.3128591E+00 3.0669733E+00
  9.957E+00  1.467E-01  4.786E-01 7.6699694E+00 5.2354026E+00 3.1989573E+00
  1.000E+01  1.101E-01  5.438E-01 7.5032289E+00 5.4609998E+00 2.8005376E+00
  9.957E+00  1.218E-01  5.217E-01 7.5151208E+00 5.3884456E+00 2.9344536E+00
  1.000E+01  8.849E-02  5.887E-01 7.4219083E+00 5.5942558E+00 2.5247324E+00
  9.957E+00  9.903E-02  5.661E-01 7.4703898E+00 5.5302642E+00 2.6644466E+00
  1.000E+01  6.913E-02  6.347E-01 7.2554897E+00 5.7091517E+00 2.2377752E+00
  9.957E+00  7.852E-02  6.116E-01 7.3445045E+00 5.6538505E+00 2.3821354E+00
  1.000E+01  5.207E-02  6.815E-01 7.1580417E+00 5.8136886E+00 1.9510064E+00
  9.957E+00  6.031E-02  6.580E-01 7.1926154E+00 5.7625288E+00 2.0939024E+00
  1.000E+01  3.738E-02  7.292E-01 7.0899712E+00 5.9086290E+00 1.6655220E+00
  9.957E+00  4.443E-02  7.052E-01 7.1258833E+00 5.8631268E+00 1.8088444E+00
  1.000E+01  2.507E-02  7.775E-01 6.9936567E+00 5.9857308E+00 1.3711955E+00
  9.957E+00  3.092E-02  7.532E-01 7.0449571E+00 5.9500103E+00 1.5199156E+00
  1.000E+01  1.519E-02  8.264E-01 6.8922789E+00 6.0438267E+00 1.0674226E+00
  9.957E+00  1.983E-02  8.019E-01 6.9426040E+00 6.0171146E+00 1.2201266E+00
  1.000E+01  7.761E-03  8.757E-01 6.8133766E+00 6.0869959E+00 7.6086021E-01
  9.957E+00  1.117E-02  8.510E-01 6.8481828E+00 6.0673525E+00 9.1415721E-01
  1.000E+01  2.796E-03  9.253E-01 6.7638683E+00 6.1169394E+00 4.5571033E-01
  9.957E+00  4.969E-03  9.004E-01 6.7834157E+00 6.1039030E+00 6.0809709E-01
  1.000E+01  3.108E-04  9.751E-01 6.7409358E+00 6.1325254E+00 1.5179215E-01
  9.957E+00  1.243E-03  9.502E-01 6.7499213E+00 6.1268613E+00 3.0366909E-01
  1.000E+01  3.108E-04  1.025E+00 6.7409418E+00 6.1325268E+00 -1.5178703E-01
  9.957E+00  0.000E+00  1.000E+00 6.7400895E+00 6.1347843E+00 2.1813441E-06
  1.000E+01  2.796E-03  1.075E+00 6.7638764E+00 6.1169440E+00 -4.5570520E-01
  9.957E+00  1.243E-03  1.050E+00 6.7499139E+00 6.1268639E+00 -3.0366365E-01
  1.000E+01  7.761E-03  1.124E+00 6.8133703E+00 6.0870027E+00 -7.6085500E-01
  9.957E+00  4.969E-03  1.100E+00 6.7834118E+00 6.1039093E+00 -6.0808984E-01
  1.000E+01  1.519E-02  1.174E+00 6.8922595E+00 6.0438279E+00 -1.0674172E+00
  9.957E+00  1.117E-02  1.149E+00 6.8481880E+00 6.0673581E+00 -9.1414997E-01
  1.000E+01  2.507E-02  1.223E+00 6.9936388E+00 5.9857164E+00 -1.3711898E+00
  9.957E+00  1.983E-02  1.198E+00 6.9426122E+00 6.0171082E+00 -1.2201207E+00
  1.000E+01  3.738E-02  1.271E+00 7.0899630E+00 5.9086140E+00 -1.6655162E+00
  9.957E+00  3.092E-02  1.247E+00 7.0449592E+00 5.9499914E+00 -1.5199104E+00
  1.000E+01  5.207E-02  1.318E+00 7.1580383E+00 5.8137031E+00 -1.9510005E+00
  9.957E+00  4.443E-02  1.295E+00 7.1258790E+00 5.8631243E+00 -1.8088385E+00
  1.000E+01  6.913E-02  1.365E+00 7.2554839E+00 5.7091621E+00 -2.2377691E+00
  9.957E+00  6.031E-02  1.342E+00 7.1926095E+00 5.7625507E+00 -2.0938958E+00
  1.000E+01  8.849E-02  1.411E+00 7.4219008E+00 5.5942263E+00 -2.5247256E+00
  9.957E+00  7.852E-02  1.388E+00 7.3444998E+00 5.6538363E+00 -2.3821283E+00
  1.000E+01  1.101E-01  1.456E+00 7.5032215E+00 5.4610023E+00 -2.8005307E+00
  9.957E+00  9.903E-02  1.434E+00 7.4703846E+00 5.5302425E+00 -2.6644391E+00
  1.000E+01  1.340E-01  1.500E+00 7.5723744E+00 5.3128687E+00 -3.0669661E+00
  9.957E+00  1.218E-01  1.478E+00 7.5151141E+00 5.3884647E+00 -2.9344465E+00
  1.000E+01  1.600E-01  1.543E+00 7.7142125E+00 5.1544052E+00 -3.3290310E+00
  9.957E+00  1.467E-01  1.521E+00 7.6699616E+00 5.2353877E+00 -3.1989489E+00
  1.000E+01  1.881E-01  1.584E+00 7.7307727E+00 4.9820413E+00 -3.5819320E+00
  9.957E+00  1.738E-01  1.563E+00 7.7088080E+00 5.0702202E+00 -3.4569391E+00
  1.000E+01  2.182E-01  1.623E+00 7.8222902E+00 4.7970336E+00 -3.8254722E+00
  9.957E+00  2.029E-01  1.604E+00 7.7925108E+00 4.8911431E+00 -3.7048912E+00
  1.000E+01  2.502E-01  1.662E+00 7.8311988E+00 4.6005418E+00 -4.0600218E+00
  9.957E+00  2.340E-01  1.643E+00 7.8442298E+00 4.7004715E+00 -3.9441596E+00
  1.000E+01  2.841E-01  1.698E+00 7.8776677E+00 4.3923282E+00 -4.2841711E+00
  9.957E+00  2.669E-01  1.680E+00 7.8434419E+00 4.4980180E+00 -4.1735723E+00
  1.000E+01  3.198E-01  1.733E+00 7.8434212E+00 4.1733910E+00 -4.4978439E+00
  9.957E+00  3.018E-01  1.716E+00 7.8776858E+00 4.2843325E+00 -4.3925172E+00
  1.000E+01  3.572E-01  1.766E+00 7.8442012E+00 3.9439878E+00 -4.7002930E+00
  9.957E+00  3.383E-01  1.750E+00 7.8312198E+00 4.0601788E+00 -4.6007412E+00
  1.000E+01  3.962E-01  1.797E+00 7.7924728E+00 3.7047233E+00 -4.8909413E+00
  9.957E+00  3.765E-01  1.782E+00 7.8223168E+00 3.8256211E+00 -4.7972454E+00
  1.000E+01  4.367E-01  1.826E+00 7.7087658E+00 3.4567766E+00 -5.0700047E+00
  9.957E+00  4.163E-01  1.812E+00 7.7308046E+00 3.5820757E+00 -4.9822587E+00
  1.000E+01  4.786E-01  1.853E+00 7.6699238E+00 3.1987949E+00 -5.2351625E+00
  9.957E+00  4.575E-01  1.840E+00 7.7142456E+00 3.3291674E+00 -5.1546486E+00
  1.000E+01  5.217E-01  1.878E+00 7.5150796E+00 2.9343058E+00 -5.3882172E+00
  9.957E+00  5.000E-01  1.866E+00 7.5724065E+00 3.0670933E+00 -5.3131048E+00
  1.000E+01  5.661E-01  1.901E+00 7.4703491E+00 2.6643139E+00 -5.5300153E+00
  9.957E+00  5.438E-01  1.890E+00 7.5032537E+00 2.8006436E+00 -5.4612424E+00
  1.000E+01  6.116E-01  1.921E+00 7.3444658E+00 2.3820212E+00 -5.6536078E+00
  9.957E+00  5.887E-01  1.912E+00 7.4219336E+00 2.5248250E+00 -5.5944814E+00
  1.000E+01  6.580E-01  1.940E+00 7.1925800E+00 2.0938028E+00 -5.7623043E+00
  9.957E+00  6.347E-01  1.931E+00 7.2555169E+00 2.2378573E+00 -5.7094021E+00
  1.000E+01  7.052E-01  1.956E+00 7.1258531E+00 1.8087583E+00 -5.8628859E+00
  9.957E+00  6.815E-01  1.948E+00 7.1580686E+00 1.9510764E+00 -5.8139452E+00
  1.000E+01  7.532E-01  1.969E+00 7.0449334E+00 1.5198431E+00 -5.9497546E+00
  9.957E+00  7.292E-01  1.963E+00 7.0899923E+00 1.6655803E+00 -5.9088708E+00
  1.000E+01  8.019E-01  1.980E+00 6.9425874E+00 1.2200696E+00 -6.0168652E+00
  9.957E+00  7.775E-01  1.975E+00 6.9936711E+00 1.3712429E+00 -5.9859734E+00
  1.000E+01  8.510E-01  1.989E+00 6.8481692E+00 9.1411404E-01 -6.0671136E+00
  9.957E+00  8.264E-01  1.985E+00 6.8922925E+00 1.0674600E+00 -6.0440799E+00
  1.000E+01  9.004E-01  1.995E+00 6.7834004E+00 6.0806698E-01 -6.1036639E+00
  9.957E+00  8.757E-01  1.992E+00 6.8133969E+00 7.6088595E-01 -6.0872551E+00
  1.000E+01  9.502E-01  1.999E+00 6.7499058E+00 3.0365308E-01 -6.1266143E+00
  9.957E+00  9.253E-01  1.997E+00 6.7638943E+00 4.5572469E-01 -6.1171981E+00
  1.000E+01  1.000E+00  2.000E+00 6.7400773E+00 1.2891588E-06 -6.1345306E+00
  9.957E+00  9.751E-01  2.000E+00 6.7409593E+00 1.5179548E-01 -6.1327817E+00
  1.000E+01  1.050E+00  1.999E+00 6.7499066E+00 -3.0364977E-01 -6.1266149E+00
  9.957E+00  1.025E+00  2.000E+00 6.7409597E+00 -1.5179366E-01 -6.1327820E+00
  1.000E+01  1.100E+00  1.995E+00 6.7834022E+00 -6.0806439E-01 -6.1036650E+00
  9.957E+00  1.075E+00  1.997E+00 6.7638956E+00 -4.5572237E-01 -6.1171989E+00
  1.000E+01  1.149E+00  1.989E+00 6.8481718E+00 -9.1411165E-01 -6.0671151E+00
  9.957E+00  1.124E+00  1.992E+00 6.8133990E+00 -7.6088457E-01 -6.0872565E+00
  1.000E+01  1.198E+00  1.980E+00 6.9425908E+00 -1.2200671E+00 -6.0168671E+00
  9.957E+00  1.174E+00  1.985E+00 6.8922954E+00 -1.0674582E+00 -6.0440818E+00