# TIME = 9.200000
variables = x, y, z
zone N=5762 E=11520 F=FEPOINT ET=TRIANGLE
 9.9292774E+00 1.4627485E+00 1.7485779E+00
 9.9292774E+00 1.4627486E+00 2.5142236E-01
 9.9292774E+00 5.3725112E-01 1.7485776E+00
 9.9292775E+00 5.3725106E-01 2.5142272E-01
 8.8199733E+00 9.9999968E-01 1.5677998E+00
 1.1075349E+01 9.9999971E-01 1.5796397E+00
 8.8199735E+00 9.9999969E-01 4.3220068E-01
 1.1075349E+01 9.9999972E-01 4.2036067E-01
 9.2571456E+00 1.8914456E+00 1.0000002E+00
 9.2571452E+00 1.0855306E-01 1.0000002E+00
 1.0584353E+01 1.8081518E+00 1.0000002E+00
 1.0584353E+01 1.9184825E-01 1.0000002E+00
 9.8858155E+00 1.4561096E+00 1.7570399E+00
 9.8377482E+00 1.4486770E+00 1.7664625E+00
 9.7872311E+00 1.4408241E+00 1.7764230E+00
 9.7347455E+00 1.4324617E+00 1.7868184E+00
 9.6806649E+00 1.4234369E+00 1.7974712E+00
 9.6254318E+00 1.4135323E+00 1.8080786E+00
 9.5694622E+00 1.4024852E+00 1.8182044E+00
 9.5131155E+00 1.3900090E+00 1.8272871E+00
 9.4566668E+00 1.3758206E+00 1.8346752E+00
 9.4003331E+00 1.3596734E+00 1.8396754E+00
 9.3443330E+00 1.3413920E+00 1.8416141E+00
 9.2889502E+00 1.3209028E+00 1.8399076E+00
 9.2345744E+00 1.2982561E+00 1.8341324E+00
 9.1816963E+00 1.2736315E+00 1.8240788E+00
 9.1308603E+00 1.2473242E+00 1.8097754E+00
 9.0825992E+00 1.2197131E+00 1.7914766E+00
 9.0373704E+00 1.1912224E+00 1.7696195E+00
 8.9955120E+00 1.1622830E+00 1.7447622E+00
 8.9572246E+00 1.1333018E+00 1.7175200E+00
 8.9225735E+00 1.1046389E+00 1.6885087E+00
 8.8915233E+00 1.0766109E+00 1.6583217E+00
 8.8639708E+00 1.0494850E+00 1.6275147E+00
 8.8398529E+00 1.0235612E+00 1.5967252E+00
 9.8806756E+00 5.7627984E-01 1.7761397E+00
 9.8308555E+00 5.8575999E-01 1.7863159E+00
 9.7791659E+00 5.9524141E-01 1.7966740E+00
 9.7258711E+00 6.0511607E-01 1.8072749E+00
 9.6712616E+00 6.1570297E-01 1.8180049E+00
 9.6157287E+00 6.2727326E-01 1.8285572E+00
 9.5596689E+00 6.4009290E-01 1.8384660E+00
 9.5034105E+00 6.5441519E-01 1.8471384E+00
 9.4472026E+00 6.7046651E-01 1.8539005E+00
 9.3912468E+00 6.8842226E-01 1.8580539E+00
 9.3357596E+00 7.0838007E-01 1.8589402E+00
 9.2810307E+00 7.3033684E-01 1.8560125E+00
 9.2274547E+00 7.5417603E-01 1.8489006E+00
 9.1755177E+00 7.7967054E-01 1.8374588E+00
 9.1257455E+00 8.0650242E-01 1.8217790E+00
 9.0786384E+00 8.3429531E-01 1.8021706E+00
 9.0346125E+00 8.6265058E-01 1.7791101E+00
 8.9939566E+00 8.9117649E-01 1.7531712E+00
 8.9568103E+00 9.1950524E-01 1.7249511E+00
 8.9231561E+00 9.4730088E-01 1.6949945E+00
 8.8928164E+00 9.7425630E-01 1.6637143E+00
 8.8654447E+00 9.9999967E-01 1.6313079E+00
 9.8784838E+00 6.0981604E-01 1.7937414E+00
 9.8266914E+00 6.2129686E-01 1.8044595E+00
 9.7736644E+00 6.3245969E-01 1.8150884E+00
 9.7193761E+00 6.4396241E-01 1.8258204E+00
 9.6640891E+00 6.5621053E-01 1.8365440E+00
 9.6081408E+00 6.6952352E-01 1.8469430E+00
 9.5518837E+00 6.8415817E-01 1.8565234E+00
 9.4956102E+00 7.0033028E-01 1.8646657E+00
 9.4395414E+00 7.1820909E-01 1.8706802E+00
 9.3838649E+00 7.3790193E-01 1.8738693E+00
 9.3287940E+00 7.5943526E-01 1.8735956E+00
 9.2746227E+00 7.8273956E-01 1.8693522E+00
 9.2217476E+00 8.0764463E-01 1.8608243E+00
 9.1706467E+00 8.3389010E-01 1.8479280E+00
 9.1218236E+00 8.6114859E-01 1.8308144E+00
 9.0757392E+00 8.8905760E-01 1.8098364E+00
 9.0327514E+00 9.1724908E-01 1.7854865E+00
 8.9930657E+00 9.4536663E-01 1.7583088E+00
 8.9566949E+00 9.7306599E-01 1.7287942E+00
 8.9234397E+00 9.9999966E-01 1.6972711E+00
 8.8928165E+00 1.0257430E+00 1.6637142E+00
 9.8769541E+00 6.4497449E-01 1.8102350E+00
 9.8238437E+00 6.5813428E-01 1.8210814E+00
 9.7696434E+00 6.7097808E-01 1.8318011E+00
 9.7144542E+00 6.8414890E-01 1.8425145E+00
 9.6585058E+00 6.9811728E-01 1.8531004E+00
 9.6021278E+00 7.1320962E-01 1.8632097E+00
 9.5456427E+00 7.2966492E-01 1.8723197E+00
 9.4893151E+00 7.4765592E-01 1.8797875E+00
 9.4333454E+00 7.6729551E-01 1.8849144E+00
 9.3779099E+00 7.8862749E-01 1.8870107E+00
 9.3232200E+00 8.1161494E-01 1.8854662E+00
 9.2695715E+00 8.3613221E-01 1.8798183E+00
 9.2173582E+00 8.6196813E-01 1.8698084E+00
 9.1670432E+00 8.8884179E-01 1.8554111E+00
 9.1190976E+00 9.1642743E-01 1.8368254E+00
 9.0739248E+00 9.4438080E-01 1.8144259E+00
 9.0317915E+00 9.7235549E-01 1.7886797E+00
 8.9927710E+00 9.9999966E-01 1.7600362E+00
 8.9566949E+00 1.0269333E+00 1.7287941E+00
 8.9231562E+00 1.0526984E+00 1.6949944E+00
 9.8757717E+00 6.8176830E-01 1.8255035E+00
 9.8216327E+00 6.9646410E-01 1.8362359E+00
 9.7664985E+00 7.1091563E-01 1.8468339E+00
 9.7105345E+00 7.2575719E-01 1.8573596E+00
 9.6540123E+00 7.4145213E-01 1.8676423E+00
 9.5972588E+00 7.5831620E-01 1.8772970E+00
 9.5405849E+00 7.7655446E-01 1.8857701E+00
 9.4842360E+00 7.9629365E-01 1.8924021E+00
 9.4283971E+00 8.1759140E-01 1.8964926E+00
 9.3732361E+00 8.4043372E-01 1.8973686E+00
 9.3189617E+00 8.6472851E-01 1.8944539E+00
 9.2658670E+00 8.9030524E-01 1.8873342E+00
 9.2143347E+00 9.1692406E-01 1.8758053E+00
 9.1648007E+00 9.4429487E-01 1.8598912E+00
 9.1176841E+00 9.7209838E-01 1.8398193E+00
 9.0733018E+00 9.9999965E-01 1.8159512E+00
 9.0317915E+00 1.0276438E+00 1.7886796E+00
 8.9930657E+00 1.0546327E+00 1.7583086E+00
 8.9568104E+00 1.0804941E+00 1.7249510E+00
 9.8747828E+00 7.2020999E-01 1.8394147E+00
 9.8197927E+00 7.3632300E-01 1.8498340E+00
 9.7638883E+00 7.5231990E-01 1.8601231E+00
 9.7072938E+00 7.6879563E-01 1.8702791E+00
 9.6503154E+00 7.8618551E-01 1.8800792E+00
 9.5932910E+00 8.0477006E-01 1.8890982E+00
 9.5365233E+00 8.2471294E-01 1.8967580E+00
 9.4802443E+00 8.4609197E-01 1.9023897E+00
 9.4246262E+00 8.6891278E-01 1.9053012E+00
 9.3698287E+00 8.9310958E-01 1.9048451E+00
 9.3160546E+00 9.1854509E-01 1.9004853E+00
 9.2635868E+00 9.4501571E-01 1.8918566E+00
 9.2127841E+00 9.7226488E-01 1.8788031E+00
 9.1640365E+00 9.9999965E-01 1.8613816E+00
 9.1176841E+00 1.0279009E+00 1.8398192E+00
 9.0739248E+00 1.0556185E+00 1.8144258E+00
 9.0327516E+00 1.0827502E+00 1.7854863E+00
 8.9939567E+00 1.1088228E+00 1.7531709E+00
 9.8739191E+00 7.6022379E-01 1.8517971E+00
 9.8182082E+00 7.7766088E-01 1.8617338E+00
 9.7616768E+00 7.9513410E-01 1.8715386E+00
 9.7045977E+00 8.1318510E-01 1.8811441E+00
 9.6473056E+00 8.3220255E-01 1.8902771E+00
 9.5901465E+00 8.5242028E-01 1.8984779E+00
 9.5334165E+00 8.7395432E-01 1.9051512E+00
 9.4773344E+00 8.9683436E-01 1.9096294E+00
 9.4220602E+00 9.2101818E-01 1.9112384E+00
 9.3677433E+00 9.4639676E-01 1.9093636E+00
 9.3145744E+00 9.7279870E-01 1.9035126E+00
 9.2628152E+00 9.9999966E-01 1.8933657E+00
 9.2127841E+00 1.0277344E+00 1.8788030E+00
 9.1648007E+00 1.0557044E+00 1.8598911E+00
 9.1190977E+00 1.0835719E+00 1.8368252E+00
 9.0757394E+00 1.1109417E+00 1.8098362E+00
 9.0346127E+00 1.1373487E+00 1.7791098E+00
 9.8731656E+00 8.0166966E-01 1.8624664E+00
 9.8168548E+00 8.2034700E-01 1.8717694E+00
 9.7598412E+00 8.3921615E-01 1.8809231E+00
 9.7024325E+00 8.5875986E-01 1.8898021E+00
 9.6449840E+00 8.7930801E-01 1.8980887E+00
 9.5878441E+00 9.0104063E-01 1.9052974E+00
 9.5312995E+00 9.2402465E-01 1.9108264E+00
 9.4755552E+00 9.4824417E-01 1.9140189E+00
 9.4207571E+00 9.7361647E-01 1.9142275E+00
 9.3670400E+00 9.9999968E-01 1.9108753E+00
 9.3145744E+00 1.0272006E+00 1.9035125E+00
 9.2635868E+00 1.0549836E+00 1.8918565E+00
 9.2143348E+00 1.0830752E+00 1.8758052E+00
 9.1670433E+00 1.1111575E+00 1.8554109E+00
 9.1218238E+00 1.1388507E+00 1.8308142E+00
 9.0786386E+00 1.1657039E+00 1.8021703E+00
 9.8725308E+00 8.4436147E-01 1.8712472E+00
 9.8157529E+00 8.6418567E-01 1.8797758E+00
 9.7584107E+00 8.8435456E-01 1.8881212E+00
 9.7008365E+00 9.0528458E-01 1.8961069E+00
 9.6433960E+00 9.2723997E-01 1.9033803E+00
 9.5864340E+00 9.5034388E-01 1.9094405E+00
 9.5302243E+00 9.7461551E-01 1.9136893E+00
 9.4749557E+00 9.9999970E-01 1.9154900E+00
 9.4207571E+00 1.0263829E+00 1.9142274E+00
 9.3677433E+00 1.0536026E+00 1.9093635E+00
 9.3160547E+00 1.0814542E+00 1.9004852E+00
 9.2658671E+00 1.1096941E+00 1.8873340E+00
 9.2173583E+00 1.1380311E+00 1.8698081E+00
 9.1706469E+00 1.1661092E+00 1.8479277E+00
 9.1257457E+00 1.1934968E+00 1.8217786E+00
 9.8720328E+00 8.8807049E-01 1.8779833E+00
 9.8149355E+00 9.0893253E-01 1.8856084E+00
 9.7574279E+00 9.3028511E-01 1.8930003E+00
 9.6998564E+00 9.5247200E-01 1.8999408E+00
 9.6425884E+00 9.7568802E-01 1.9060526E+00
 9.5859587E+00 9.9999972E-01 1.9108304E+00
 9.5302243E+00 1.0253839E+00 1.9136893E+00
 9.4755552E+00 1.0517552E+00 1.9140189E+00
 9.4220602E+00 1.0789812E+00 1.9112383E+00
 9.3698288E+00 1.1068898E+00 1.9048450E+00
 9.3189618E+00 1.1352708E+00 1.8944538E+00
 9.2695717E+00 1.1638671E+00 1.8798181E+00
 9.2217478E+00 1.1923546E+00 1.8608240E+00
 9.1755179E+00 1.2203287E+00 1.8374584E+00
 9.8716896E+00 9.3253292E-01 1.8825485E+00
 9.8144321E+00 9.5430617E-01 1.8891551E+00
 9.7569271E+00 9.7670615E-01 1.8954649E+00
 9.6995257E+00 9.9999973E-01 1.9012274E+00
 9.6425884E+00 1.0243114E+00 1.9060526E+00
 9.5864340E+00 1.0496556E+00 1.9094405E+00
 9.5312995E+00 1.0759748E+00 1.9108264E+00
 9.4773344E+00 1.1031650E+00 1.9096294E+00
 9.4246263E+00 1.1310866E+00 1.9053012E+00
 9.3732362E+00 1.1595656E+00 1.8973684E+00
 9.3232201E+00 1.1883844E+00 1.8854660E+00
 9.2746229E+00 1.2172597E+00 1.8693519E+00
 9.2274549E+00 1.2458232E+00 1.8489003E+00
 9.8715145E+00 9.7745867E-01 1.8848540E+00
 9.8142622E+00 9.9999973E-01 1.8903454E+00
 9.7569271E+00 1.0232933E+00 1.8954649E+00
 9.6998564E+00 1.0475275E+00 1.8999408E+00
 9.6433960E+00 1.0727595E+00 1.9033804E+00
 9.5878441E+00 1.0989588E+00 1.9052974E+00
 9.5334165E+00 1.1260451E+00 1.9051512E+00
 9.4802444E+00 1.1539074E+00 1.9023896E+00
 9.4283972E+00 1.1824080E+00 1.8964925E+00
 9.3779101E+00 1.2113718E+00 1.8870106E+00
 9.3287942E+00 1.2405640E+00 1.8735954E+00
 9.2810309E+00 1.2696624E+00 1.8560121E+00
 9.8715145E+00 1.0225408E+00 1.8848540E+00
 9.8144321E+00 1.0456933E+00 1.8891552E+00
 9.7574279E+00 1.0697144E+00 1.8930004E+00
 9.7008365E+00 1.0947149E+00 1.8961070E+00
 9.6449840E+00 1.1206915E+00 1.8980887E+00
 9.5901466E+00 1.1475792E+00 1.8984779E+00
 9.5365234E+00 1.1752865E+00 1.8967580E+00
 9.4842361E+00 1.2037058E+00 1.8924020E+00
 9.4333455E+00 1.2327039E+00 1.8849143E+00
 9.3838650E+00 1.2620974E+00 1.8738691E+00
 9.3357598E+00 1.2916192E+00 1.8589399E+00
 9.8716896E+00 1.0674665E+00 1.8825485E+00
 9.8149355E+00 1.0910669E+00 1.8856085E+00
 9.7584107E+00 1.1156449E+00 1.8881213E+00
 9.7024325E+00 1.1412396E+00 1.8898022E+00
 9.6473056E+00 1.1677969E+00 1.8902772E+00
 9.5932910E+00 1.1952294E+00 1.8890983E+00
 9.5405850E+00 1.2234450E+00 1.8857701E+00
 9.4893153E+00 1.2523435E+00 1.8797875E+00
 9.4395416E+00 1.2817903E+00 1.8706800E+00
 9.3912470E+00 1.3115770E+00 1.8580536E+00
 9.8720328E+00 1.1119290E+00 1.8779834E+00
 9.8157529E+00 1.1358138E+00 1.8797760E+00
 9.7598412E+00 1.1607833E+00 1.8809232E+00
 9.7045977E+00 1.1868144E+00 1.8811443E+00
 9.6503154E+00 1.2138140E+00 1.8800793E+00
 9.5972589E+00 1.2416833E+00 1.8772970E+00
 9.5456428E+00 1.2703345E+00 1.8723197E+00
 9.4956103E+00 1.2996691E+00 1.8646656E+00
 9.4472027E+00 1.3295328E+00 1.8539004E+00
 9.8725308E+00 1.1556380E+00 1.8712473E+00
 9.8168548E+00 1.1796525E+00 1.8717695E+00
 9.7616768E+00 1.2048654E+00 1.8715388E+00
 9.7072938E+00 1.2312039E+00 1.8702793E+00
 9.6540124E+00 1.2585474E+00 1.8676424E+00
 9.6021279E+00 1.2867899E+00 1.8632098E+00
 9.5518838E+00 1.3158413E+00 1.8565234E+00
 9.5034107E+00 1.3455842E+00 1.8471383E+00
 9.8731656E+00 1.1983298E+00 1.8624666E+00
 9.8182082E+00 1.2223386E+00 1.8617340E+00
 9.7638883E+00 1.2476796E+00 1.8601233E+00
 9.7105346E+00 1.2742423E+00 1.8573597E+00
 9.6585058E+00 1.3018822E+00 1.8531006E+00
 9.6081409E+00 1.3304760E+00 1.8469431E+00
 9.5596690E+00 1.3599066E+00 1.8384660E+00
 9.8739191E+00 1.2397757E+00 1.8517973E+00
 9.8197927E+00 1.2636765E+00 1.8498342E+00
 9.7664985E+00 1.2890839E+00 1.8468341E+00
 9.7144543E+00 1.3158506E+00 1.8425147E+00
 9.6640892E+00 1.3437890E+00 1.8365441E+00
 9.6157288E+00 1.3727262E+00 1.8285573E+00
 9.8747828E+00 1.2797895E+00 1.8394149E+00
 9.8216327E+00 1.3035355E+00 1.8362362E+00
 9.7696434E+00 1.3290215E+00 1.8318014E+00
 9.7193761E+00 1.3560371E+00 1.8258206E+00
 9.6712617E+00 1.3842966E+00 1.8180051E+00
 9.8757717E+00 1.3182313E+00 1.8255038E+00
 9.8238437E+00 1.3418653E+00 1.8210817E+00
 9.7736644E+00 1.3675399E+00 1.8150886E+00
 9.7258711E+00 1.3948835E+00 1.8072751E+00
 9.8769541E+00 1.3550251E+00 1.8102353E+00
 9.8266914E+00 1.3787027E+00 1.8044598E+00
 9.7791659E+00 1.4047582E+00 1.7966743E+00
 9.8784838E+00 1.3901836E+00 1.7937417E+00
 9.8308555E+00 1.4142396E+00 1.7863162E+00
 9.8806756E+00 1.4237198E+00 1.7761400E+00
 9.9291862E+00 1.4347719E+00 1.7651978E+00
 9.9290535E+00 1.4030651E+00 1.7824012E+00
 9.9289206E+00 1.3694447E+00 1.7988582E+00
 9.9287997E+00 1.3339513E+00 1.8143581E+00
 9.9286956E+00 1.2966887E+00 1.8286824E+00
 9.9286084E+00 1.2577837E+00 1.8416162E+00
 9.9285363E+00 1.2173691E+00 1.8529640E+00
 9.9284774E+00 1.1756193E+00 1.8625411E+00
 9.9284308E+00 1.1327477E+00 1.8701813E+00
 9.9283966E+00 1.0890008E+00 1.8757452E+00
 9.9283757E+00 1.0446531E+00 1.8791275E+00
 9.9283686E+00 9.9999972E-01 1.8802624E+00
 9.9283757E+00 9.5534632E-01 1.8791274E+00
 9.9283966E+00 9.1099866E-01 1.8757451E+00
 9.9284308E+00 8.6725176E-01 1.8701811E+00
 9.9284774E+00 8.2438020E-01 1.8625410E+00
 9.9285363E+00 7.8263042E-01 1.8529638E+00
 9.9286085E+00 7.4221580E-01 1.8416160E+00
 9.9286956E+00 7.0331082E-01 1.8286822E+00
 9.9287997E+00 6.6604822E-01 1.8143579E+00
 9.9289206E+00 6.3055490E-01 1.7988579E+00
 9.9290535E+00 5.9693453E-01 1.7824009E+00
 9.9291862E+00 5.6522779E-01 1.7651975E+00
 9.9724232E+00 5.4762465E-01 1.7508773E+00
 1.0019561E+01 5.5902684E-01 1.7533992E+00
 1.0068547E+01 5.7087028E-01 1.7559729E+00
 1.0119001E+01 5.8318130E-01 1.7585451E+00
 1.0170749E+01 5.9602986E-01 1.7610225E+00
 1.0223608E+01 6.0950821E-01 1.7632788E+00
 1.0277405E+01 6.2371840E-01 1.7651530E+00
 1.0331941E+01 6.3876269E-01 1.7664529E+00
 1.0386989E+01 6.5473948E-01 1.7669632E+00
 1.0442295E+01 6.7173600E-01 1.7664542E+00
 1.0497574E+01 6.8982077E-01 1.7646923E+00
 1.0552519E+01 7.0903674E-01 1.7614525E+00
 1.0606803E+01 7.2939584E-01 1.7565315E+00
 1.0660095E+01 7.5087589E-01 1.7497589E+00
 1.0712065E+01 7.7341943E-01 1.7410087E+00
 1.0762394E+01 7.9693639E-01 1.7302052E+00
 1.0810787E+01 8.2130647E-01 1.7173282E+00
 1.0856974E+01 8.4638504E-01 1.7024123E+00
 1.0900721E+01 8.7201050E-01 1.6855465E+00
 1.0941835E+01 8.9801223E-01 1.6668672E+00
 1.0980145E+01 9.2419816E-01 1.6465629E+00
 1.1015507E+01 9.5034675E-01 1.6248630E+00
 1.1047695E+01 9.7609046E-01 1.6021261E+00
 9.9772798E+00 1.4197992E+00 1.7691215E+00
 1.0026054E+01 1.4065299E+00 1.7719647E+00
 1.0076093E+01 1.3933347E+00 1.7745676E+00
 1.0127263E+01 1.3798671E+00 1.7770201E+00
 1.0179499E+01 1.3658880E+00 1.7792976E+00
 1.0232681E+01 1.3512488E+00 1.7812857E+00
 1.0286644E+01 1.3358344E+00 1.7828182E+00
 1.0341196E+01 1.3195525E+00 1.7836915E+00
 1.0396109E+01 1.3023262E+00 1.7836791E+00
 1.0451127E+01 1.2840951E+00 1.7825447E+00
 1.0505960E+01 1.2648193E+00 1.7800542E+00
 1.0560302E+01 1.2444853E+00 1.7759888E+00
 1.0613828E+01 1.2231087E+00 1.7701573E+00
 1.0666214E+01 1.2007356E+00 1.7624076E+00
 1.0717141E+01 1.1774409E+00 1.7526357E+00
 1.0766310E+01 1.1533248E+00 1.7407905E+00
 1.0813446E+01 1.1285098E+00 1.7268750E+00
 1.0858314E+01 1.1031388E+00 1.7109388E+00
 1.0900740E+01 1.0773773E+00 1.6930664E+00
 1.0940635E+01 1.0514179E+00 1.6733491E+00
 1.0978043E+01 1.0254915E+00 1.6518359E+00
 1.1013223E+01 9.9999971E-01 1.6284515E+00
 9.9791633E+00 1.3863999E+00 1.7862644E+00
 1.0029824E+01 1.3713215E+00 1.7891899E+00
 1.0081104E+01 1.3567349E+00 1.7916830E+00
 1.0133193E+01 1.3420058E+00 1.7939309E+00
 1.0186080E+01 1.3268094E+00 1.7959228E+00
 1.0239704E+01 1.3109405E+00 1.7975505E+00
 1.0293937E+01 1.2942765E+00 1.7986380E+00
 1.0348597E+01 1.2767348E+00 1.7989709E+00
 1.0403465E+01 1.2582586E+00 1.7983145E+00
 1.0458280E+01 1.2388116E+00 1.7964289E+00
 1.0512754E+01 1.2183802E+00 1.7930826E+00
 1.0566578E+01 1.1969759E+00 1.7880655E+00
 1.0619434E+01 1.1746370E+00 1.7812009E+00
 1.0671008E+01 1.1514266E+00 1.7723554E+00
 1.0720999E+01 1.1274289E+00 1.7614449E+00
 1.0769134E+01 1.1027457E+00 1.7484361E+00
 1.0815187E+01 1.0774960E+00 1.7333377E+00
 1.0859012E+01 1.0518227E+00 1.7161781E+00
 1.0900590E+01 1.0259080E+00 1.6969645E+00
 1.0940094E+01 9.9999972E-01 1.6756201E+00
 1.0978043E+01 9.7450788E-01 1.6518359E+00
 9.9804037E+00 1.3514739E+00 1.8023895E+00
 1.0032318E+01 1.3349969E+00 1.8050820E+00
 1.0084692E+01 1.3190648E+00 1.8073200E+00
 1.0137622E+01 1.3030720E+00 1.8092433E+00
 1.0191151E+01 1.2866259E+00 1.8108421E+00
 1.0245232E+01 1.2695060E+00 1.8119953E+00
 1.0299756E+01 1.2515873E+00 1.8125167E+00
 1.0354552E+01 1.2328006E+00 1.8121819E+00
 1.0409399E+01 1.2131082E+00 1.8107510E+00
 1.0464037E+01 1.1924964E+00 1.8079839E+00
 1.0518176E+01 1.1709744E+00 1.8036548E+00
 1.0571511E+01 1.1485747E+00 1.7975648E+00
 1.0623731E+01 1.1253517E+00 1.7895529E+00
 1.0674540E+01 1.1013779E+00 1.7795028E+00
 1.0723665E+01 1.0767400E+00 1.7673448E+00
 1.0770886E+01 1.0515394E+00 1.7530477E+00
 1.0816071E+01 1.0259014E+00 1.7365959E+00
 1.0859230E+01 9.9999972E-01 1.7179471E+00
 1.0900590E+01 9.7409144E-01 1.6969645E+00
 1.0940635E+01 9.4858148E-01 1.6733490E+00
 9.9813336E+00 1.3149732E+00 1.8173410E+00
 1.0034226E+01 1.2972958E+00 1.8196086E+00
 1.0087470E+01 1.2801425E+00 1.8214271E+00
 1.0141125E+01 1.2629227E+00 1.8228943E+00
 1.0195214E+01 1.2452504E+00 1.8239717E+00
 1.0249697E+01 1.2269031E+00 1.8245217E+00
 1.0304466E+01 1.2077679E+00 1.8243447E+00
 1.0359351E+01 1.1877912E+00 1.8232090E+00
 1.0414132E+01 1.1669550E+00 1.8208725E+00
 1.0468546E+01 1.1452660E+00 1.8170985E+00
 1.0522309E+01 1.1227527E+00 1.8116699E+00
 1.0575120E+01 1.0994625E+00 1.8044009E+00
 1.0626685E+01 1.0754591E+00 1.7951458E+00
 1.0676733E+01 1.0508181E+00 1.7838007E+00
 1.0725044E+01 1.0256276E+00 1.7702983E+00
 1.0771485E+01 9.9999972E-01 1.7545875E+00
 1.0816071E+01 9.7409804E-01 1.7365959E+00
 1.0859012E+01 9.4817673E-01 1.7161781E+00
 1.0900740E+01 9.2262211E-01 1.6930664E+00
 9.9821086E+00 1.2768696E+00 1.8309688E+00
 1.0035811E+01 1.2581551E+00 1.8326502E+00
 1.0089774E+01 1.2398849E+00 1.8339034E+00
 1.0144021E+01 1.2215108E+00 1.8347768E+00
 1.0198559E+01 1.2026692E+00 1.8351991E+00
 1.0253338E+01 1.1831580E+00 1.8350115E+00
 1.0308250E+01 1.1628821E+00 1.8340028E+00
 1.0363123E+01 1.1418075E+00 1.8319366E+00
 1.0417736E+01 1.1199348E+00 1.8285723E+00
 1.0471830E+01 1.0972884E+00 1.8236799E+00
 1.0525126E+01 1.0739105E+00 1.8170535E+00
 1.0577338E+01 1.0498571E+00 1.8085209E+00
 1.0628198E+01 1.0251945E+00 1.7979478E+00
 1.0677480E+01 9.9999972E-01 1.7852341E+00
 1.0725044E+01 9.7437184E-01 1.7702983E+00
 1.0770886E+01 9.4846003E-01 1.7530476E+00
 1.0815187E+01 9.2250347E-01 1.7333376E+00
 1.0858314E+01 8.9686062E-01 1.7109387E+00
 9.9827939E+00 1.2372322E+00 1.8430952E+00
 1.0037184E+01 1.2176113E+00 1.8440559E+00
 1.0091733E+01 1.1983282E+00 1.8446107E+00
 1.0146437E+01 1.1788870E+00 1.8447583E+00
 1.0201288E+01 1.1589617E+00 1.8443938E+00
 1.0256229E+01 1.1383799E+00 1.8433388E+00
 1.0311149E+01 1.1170707E+00 1.8413728E+00
 1.0365874E+01 1.0950196E+00 1.8382586E+00
 1.0420188E+01 1.0722442E+00 1.8337605E+00
 1.0473838E+01 1.0487813E+00 1.8276580E+00
 1.0526559E+01 1.0246806E+00 1.8197572E+00
 1.0578089E+01 9.9999972E-01 1.8098969E+00
 1.0628198E+01 9.7480494E-01 1.7979478E+00
 1.0676733E+01 9.4918132E-01 1.7838007E+00
 1.0723665E+01 9.2325940E-01 1.7673447E+00
 1.0769134E+01 8.9725370E-01 1.7484360E+00
 1.0813446E+01 8.7148967E-01 1.7268749E+00
 9.9834004E+00 1.1961970E+00 1.8535378E+00
 1.0038365E+01 1.1757855E+00 1.8536646E+00
 1.0093365E+01 1.1555972E+00 1.8534010E+00
 1.0148383E+01 1.1351914E+00 1.8527002E+00
 1.0203398E+01 1.1142897E+00 1.8514267E+00
 1.0258350E+01 1.0927557E+00 1.8493855E+00
 1.0313126E+01 1.0705439E+00 1.8463513E+00
 1.0367558E+01 1.0476586E+00 1.8420893E+00
 1.0421433E+01 1.0241295E+00 1.8363719E+00
 1.0474515E+01 9.9999972E-01 1.8289890E+00
 1.0526559E+01 9.7531884E-01 1.8197572E+00
 1.0577338E+01 9.5014232E-01 1.8085208E+00
 1.0626685E+01 9.2454032E-01 1.7951458E+00
 1.0674540E+01 8.9862154E-01 1.7795027E+00
 1.0720999E+01 8.7257053E-01 1.7614448E+00
 1.0766310E+01 8.4667470E-01 1.7407904E+00
 9.9839164E+00 1.1539460E+00 1.8621266E+00
 1.0039330E+01 1.1328626E+00 1.8613221E+00
 1.0094641E+01 1.1118849E+00 1.8601345E+00
 1.0149821E+01 1.0906330E+00 1.8584759E+00
 1.0204844E+01 1.0688815E+00 1.8561850E+00
 1.0259651E+01 1.0465327E+00 1.8530555E+00
 1.0314131E+01 1.0235659E+00 1.8488610E+00
 1.0368125E+01 9.9999971E-01 1.8433727E+00
 1.0421433E+01 9.7586990E-01 1.8363718E+00
 1.0473838E+01 9.5121811E-01 1.8276579E+00
 1.0525126E+01 9.2608894E-01 1.8170535E+00
 1.0575120E+01 9.0053690E-01 1.8044009E+00
 1.0623731E+01 8.7464779E-01 1.7895528E+00
 1.0671008E+01 8.4857287E-01 1.7723553E+00
 1.0717141E+01 8.2255853E-01 1.7526356E+00
 9.9843233E+00 1.1107022E+00 1.8687120E+00
 1.0040047E+01 1.0890747E+00 1.8668958E+00
 1.0095519E+01 1.0674357E+00 1.8646942E+00
 1.0150705E+01 1.0454713E+00 1.8619846E+00
 1.0205580E+01 1.0230126E+00 1.8585860E+00
 1.0260089E+01 9.9999971E-01 1.8542860E+00
 1.0314131E+01 9.7643357E-01 1.8488610E+00
 1.0367558E+01 9.5234082E-01 1.8420893E+00
 1.0420188E+01 9.2775527E-01 1.8337604E+00
 1.0471830E+01 9.0271102E-01 1.8236798E+00
 1.0522309E+01 8.7724679E-01 1.8116698E+00
 1.0571510E+01 8.5142476E-01 1.7975647E+00
 1.0619434E+01 8.2536244E-01 1.7812008E+00
 1.0666213E+01 7.9926384E-01 1.7624075E+00
 9.9846043E+00 1.0667230E+00 1.8731734E+00
 1.0040489E+01 1.0446897E+00 1.8702831E+00
 1.0095966E+01 1.0225299E+00 1.8669959E+00
 1.0151003E+01 9.9999971E-01 1.8631615E+00
 1.0205580E+01 9.7698685E-01 1.8585860E+00
 1.0259650E+01 9.5346678E-01 1.8530554E+00
 1.0313126E+01 9.2945551E-01 1.8463512E+00
 1.0365874E+01 9.0497987E-01 1.8382586E+00
 1.0417736E+01 8.8006461E-01 1.8285722E+00
 1.0468546E+01 8.5473343E-01 1.8170984E+00
 1.0518176E+01 8.2902509E-01 1.8036547E+00
 1.0566578E+01 8.0302355E-01 1.7880654E+00
 1.0613828E+01 7.7689076E-01 1.7701571E+00
 9.9847477E+00 1.0222917E+00 1.8754260E+00
 1.0040639E+01 9.9999972E-01 1.8714195E+00
 1.0095966E+01 9.7746949E-01 1.8669959E+00
 1.0150705E+01 9.5452808E-01 1.8619845E+00
 1.0204844E+01 9.3111789E-01 1.8561849E+00
 1.0258350E+01 9.0724375E-01 1.8493854E+00
 1.0311149E+01 8.8292879E-01 1.8413727E+00
 1.0363123E+01 8.5819197E-01 1.8319365E+00
 1.0414132E+01 8.3304444E-01 1.8208724E+00
 1.0464037E+01 8.0750308E-01 1.8079837E+00
 1.0512754E+01 7.8161930E-01 1.7930825E+00
 1.0560301E+01 7.5551416E-01 1.7759886E+00
 9.9847477E+00 9.7770774E-01 1.8754259E+00
 1.0040489E+01 9.5530978E-01 1.8702830E+00
 1.0095519E+01 9.3256371E-01 1.8646941E+00
 1.0149821E+01 9.0936647E-01 1.8584758E+00
 1.0203398E+01 8.8570972E-01 1.8514266E+00
 1.0256229E+01 8.6161952E-01 1.8433387E+00
 1.0308250E+01 8.3711735E-01 1.8340026E+00
 1.0359351E+01 8.1220825E-01 1.8232089E+00
 1.0409399E+01 7.8689124E-01 1.8107508E+00
 1.0458280E+01 7.6118786E-01 1.7964287E+00
 1.0505960E+01 7.3518016E-01 1.7800541E+00
 9.9846043E+00 9.3327640E-01 1.8731734E+00
 1.0040047E+01 9.1092471E-01 1.8668957E+00
 1.0094641E+01 8.8811454E-01 1.8601344E+00
 1.0148383E+01 8.6480807E-01 1.8527001E+00
 1.0201288E+01 8.4103779E-01 1.8443937E+00
 1.0253338E+01 8.1684147E-01 1.8350113E+00
 1.0304466E+01 7.9223158E-01 1.8243445E+00
 1.0354552E+01 7.6719885E-01 1.8121817E+00
 1.0403465E+01 7.4174085E-01 1.7983143E+00
 1.0451127E+01 7.1590443E-01 1.7825445E+00
 9.9843233E+00 8.8929728E-01 1.8687119E+00
 1.0039330E+01 8.6713684E-01 1.8613220E+00
 1.0093365E+01 8.4440227E-01 1.8534008E+00
 1.0146437E+01 8.2111246E-01 1.8447581E+00
 1.0198559E+01 7.9733030E-01 1.8351989E+00
 1.0249697E+01 7.7309635E-01 1.8245215E+00
 1.0299756E+01 7.4841220E-01 1.8125165E+00
 1.0348597E+01 7.2326465E-01 1.7989707E+00
 1.0396109E+01 6.9767326E-01 1.7836789E+00
 9.9839164E+00 8.4605349E-01 1.8621265E+00
 1.0038365E+01 8.2421398E-01 1.8536644E+00
 1.0091733E+01 8.0167125E-01 1.8446106E+00
 1.0144021E+01 7.7848867E-01 1.8347766E+00
 1.0195214E+01 7.5474913E-01 1.8239715E+00
 1.0245232E+01 7.3049348E-01 1.8119951E+00
 1.0293937E+01 7.0572303E-01 1.7986378E+00
 1.0341196E+01 6.8044702E-01 1.7836912E+00
 9.9834004E+00 8.0380244E-01 1.8535377E+00
 1.0037184E+01 7.8238816E-01 1.8440557E+00
 1.0089774E+01 7.6011460E-01 1.8339032E+00
 1.0141125E+01 7.3707678E-01 1.8228941E+00
 1.0191151E+01 7.1337363E-01 1.8108418E+00
 1.0239704E+01 6.8905898E-01 1.7975502E+00
 1.0286644E+01 6.6416518E-01 1.7828180E+00
 9.9827939E+00 7.6276732E-01 1.8430950E+00
 1.0035811E+01 7.4184442E-01 1.8326500E+00
 1.0087470E+01 7.1985702E-01 1.8214268E+00
 1.0137622E+01 6.9692753E-01 1.8092431E+00
 1.0186080E+01 6.7319015E-01 1.7959226E+00
 1.0232681E+01 6.4875079E-01 1.7812854E+00
 9.9821086E+00 7.2312994E-01 1.8309685E+00
 1.0034226E+01 7.0270372E-01 1.8196084E+00
 1.0084692E+01 6.8093470E-01 1.8073197E+00
 1.0133193E+01 6.5799376E-01 1.7939307E+00
 1.0179499E+01 6.3411153E-01 1.7792973E+00
 9.9813336E+00 6.8502639E-01 1.8173407E+00
 1.0032318E+01 6.6500266E-01 1.8050817E+00
 1.0081104E+01 6.4326467E-01 1.7916827E+00
 1.0127263E+01 6.2013253E-01 1.7770198E+00
 9.9804037E+00 6.4852569E-01 1.8023892E+00
 1.0029824E+01 6.2867805E-01 1.7891896E+00
 1.0076093E+01 6.0666492E-01 1.7745673E+00
 9.9791633E+00 6.1359971E-01 1.7862641E+00
 1.0026054E+01 5.9346970E-01 1.7719644E+00
 9.9772798E+00 5.8020044E-01 1.7691211E+00
 9.9024170E+00 1.4860738E+00 1.7364021E+00
 9.8726263E+00 1.5116307E+00 1.7220762E+00
 9.8414741E+00 1.5379116E+00 1.7062434E+00
 9.8091681E+00 1.5647336E+00 1.6888473E+00
 9.7758888E+00 1.5919697E+00 1.6697829E+00
 9.7418704E+00 1.6194679E+00 1.6489284E+00
 9.7073540E+00 1.6470499E+00 1.6261563E+00
 9.6726079E+00 1.6744902E+00 1.6013526E+00
 9.6379148E+00 1.7015217E+00 1.5744253E+00
 9.6035554E+00 1.7278430E+00 1.5453173E+00
 9.5697953E+00 1.7531302E+00 1.5140196E+00
 9.5368746E+00 1.7770536E+00 1.4805808E+00
 9.5050028E+00 1.7992965E+00 1.4451127E+00
 9.4743576E+00 1.8195721E+00 1.4077902E+00
 9.4450859E+00 1.8376405E+00 1.3688464E+00
 9.4173073E+00 1.8533198E+00 1.3285605E+00
 9.3911182E+00 1.8664935E+00 1.2872450E+00
 9.3665955E+00 1.8771119E+00 1.2452325E+00
 9.3437997E+00 1.8851891E+00 1.2028644E+00
 9.3227745E+00 1.8907972E+00 1.1604771E+00
 9.3035491E+00 1.8940564E+00 1.1184164E+00
 9.2861155E+00 1.8951189E+00 1.0770269E+00
 9.2705018E+00 1.8941779E+00 1.0369270E+00
 8.8356378E+00 1.0685802E+00 1.5873539E+00
 8.8318931E+00 1.1131422E+00 1.5750081E+00
 8.8295895E+00 1.1584293E+00 1.5607881E+00
 8.8290951E+00 1.2045707E+00 1.5449239E+00
 8.8306707E+00 1.2515403E+00 1.5274873E+00
 8.8345370E+00 1.2992000E+00 1.5085093E+00
 8.8408775E+00 1.3473263E+00 1.4879998E+00
 8.8498430E+00 1.3956342E+00 1.4659689E+00
 8.8615522E+00 1.4437881E+00 1.4424435E+00
 8.8760889E+00 1.4914106E+00 1.4174791E+00
 8.8934948E+00 1.5380925E+00 1.3911653E+00
 8.9137626E+00 1.5834037E+00 1.3636281E+00
 8.9368297E+00 1.6269078E+00 1.3350291E+00
 8.9625755E+00 1.6681791E+00 1.3055627E+00
 8.9908213E+00 1.7068192E+00 1.2754522E+00
 9.0213342E+00 1.7424751E+00 1.2449432E+00
 9.0538325E+00 1.7748539E+00 1.2142963E+00
 9.0879958E+00 1.8037381E+00 1.1837735E+00
 9.1234712E+00 1.8289937E+00 1.1536212E+00
 9.1598897E+00 1.8505801E+00 1.1240341E+00
 9.1968893E+00 1.8685552E+00 1.0950909E+00
 9.2340156E+00 1.8830404E+00 1.0666188E+00
 8.8611095E+00 1.0973322E+00 1.6182452E+00
 8.8588411E+00 1.1444303E+00 1.6060094E+00
 8.8579599E+00 1.1915814E+00 1.5916329E+00
 8.8589283E+00 1.2391700E+00 1.5754468E+00
 8.8620660E+00 1.2872844E+00 1.5575838E+00
 8.8676124E+00 1.3358331E+00 1.5380905E+00
 8.8757442E+00 1.3845981E+00 1.5169747E+00
 8.8865906E+00 1.4332734E+00 1.4942414E+00
 8.9002399E+00 1.4814919E+00 1.4699186E+00
 8.9167388E+00 1.5288434E+00 1.4440698E+00
 8.9360858E+00 1.5748901E+00 1.4168002E+00
 8.9582260E+00 1.6191835E+00 1.3882570E+00
 8.9830481E+00 1.6612834E+00 1.3586274E+00
 9.0103834E+00 1.7007760E+00 1.3281335E+00
 9.0400121E+00 1.7372953E+00 1.2970251E+00
 9.0716697E+00 1.7705385E+00 1.2655683E+00
 9.1050588E+00 1.8002831E+00 1.2340256E+00
 9.1398567E+00 1.8263958E+00 1.2026241E+00
 9.1757293E+00 1.8488406E+00 1.1714975E+00
 9.2123438E+00 1.8676798E+00 1.1406036E+00
 9.2493406E+00 1.8830552E+00 1.1095183E+00
 8.8899480E+00 1.1262743E+00 1.6488176E+00
 8.8891366E+00 1.1751967E+00 1.6364167E+00
 8.8897619E+00 1.2239350E+00 1.6217460E+00
 8.8923043E+00 1.2728247E+00 1.6051278E+00
 8.8971169E+00 1.3219742E+00 1.5867154E+00
 8.9044442E+00 1.3712915E+00 1.5665594E+00
 8.9144482E+00 1.4205413E+00 1.5446660E+00
 8.9272307E+00 1.4693897E+00 1.5210425E+00
 8.9428440E+00 1.5174381E+00 1.4957255E+00
 8.9612919E+00 1.5642475E+00 1.4687954E+00
 8.9825261E+00 1.6093608E+00 1.4403807E+00
 9.0064426E+00 1.6523236E+00 1.4106569E+00
 9.0328821E+00 1.6927071E+00 1.3798417E+00
 9.0616356E+00 1.7301291E+00 1.3481867E+00
 9.0924528E+00 1.7642748E+00 1.3159631E+00
 9.1250535E+00 1.7949121E+00 1.2834390E+00
 9.1591370E+00 1.8219053E+00 1.2508382E+00
 9.1943841E+00 1.8452172E+00 1.2182807E+00
 9.2304680E+00 1.8649130E+00 1.1856861E+00
 9.2670307E+00 1.8811368E+00 1.1526711E+00
 8.9222967E+00 1.1556160E+00 1.6785430E+00
 8.9229703E+00 1.2059059E+00 1.6657598E+00
 8.9251721E+00 1.2558901E+00 1.6506257E+00
 8.9293851E+00 1.3058271E+00 1.6334312E+00
 8.9359659E+00 1.3557773E+00 1.6143200E+00
 8.9451485E+00 1.4056155E+00 1.5933388E+00
 8.9570688E+00 1.4550720E+00 1.5704947E+00
 8.9717930E+00 1.5037802E+00 1.5458038E+00
 8.9893311E+00 1.5513127E+00 1.5193207E+00
 9.0096403E+00 1.5972117E+00 1.4911506E+00
 9.0326231E+00 1.6410140E+00 1.4614528E+00
 9.0581298E+00 1.6822777E+00 1.4304359E+00
 9.0859612E+00 1.7206055E+00 1.3983503E+00
 9.1158806E+00 1.7556684E+00 1.3654717E+00
 9.1476220E+00 1.7872219E+00 1.3320780E+00
 9.1809009E+00 1.8151220E+00 1.2984046E+00
 9.2154097E+00 1.8393284E+00 1.2645852E+00
 9.2508177E+00 1.8599041E+00 1.2305694E+00
 9.2867582E+00 1.8769983E+00 1.1960559E+00
 8.9582879E+00 1.1852637E+00 1.7069039E+00
 8.9604770E+00 1.2365668E+00 1.6935255E+00
 8.9643144E+00 1.2874699E+00 1.6777440E+00