# TIME = 11.400000
variables = x, y, z
zone N=5762 E=11520 F=FEPOINT ET=TRIANGLE
 1.0955963E+00 1.4627630E+00 1.7485970E+00
 1.0955963E+00 1.4627628E+00 2.5140266E-01
 1.0955964E+00 5.3723755E-01 1.7485973E+00
 1.0955964E+00 5.3723780E-01 2.5140253E-01
 -1.2067436E-02 1.0000003E+00 1.5695413E+00
 2.2430717E+00 1.0000004E+00 1.5791341E+00
 -1.2067984E-02 1.0000003E+00 4.3045765E-01
 2.2430715E+00 1.0000004E+00 4.2086555E-01
 4.2257877E-01 1.8908611E+00 9.9999968E-01
 4.2257879E-01 1.0914038E-01 9.9999975E-01
 1.7527786E+00 1.8078797E+00 9.9999969E-01
 1.7527786E+00 1.9212057E-01 9.9999972E-01
 1.0513284E+00 1.4560896E+00 1.7571548E+00
 1.0023572E+00 1.4486272E+00 1.7666841E+00
 9.5096529E-01 1.4407560E+00 1.7767416E+00
 8.9771926E-01 1.4323843E+00 1.7872068E+00
 8.4306928E-01 1.4233513E+00 1.7978824E+00
 7.8750678E-01 1.4134295E+00 1.8084492E+00
 7.3146748E-01 1.4023507E+00 1.8184622E+00
 6.7530497E-01 1.3898320E+00 1.8273653E+00
 6.1926934E-01 1.3756028E+00 1.8345301E+00
 5.6354223E-01 1.3594347E+00 1.8393032E+00
 5.0829960E-01 1.3411710E+00 1.8410612E+00
 4.5377615E-01 1.3207515E+00 1.8392702E+00
 4.0030347E-01 1.2982295E+00 1.8335435E+00
 3.4830645E-01 1.2737751E+00 1.8236851E+00
 2.9826512E-01 1.2476623E+00 1.8097096E+00
 2.5065825E-01 1.2202427E+00 1.7918330E+00
 2.0590846E-01 1.1919126E+00 1.7704383E+00
 1.6434115E-01 1.1630802E+00 1.7460247E+00
 1.2616364E-01 1.1341367E+00 1.7191541E+00
 9.1463985E-02 1.1054342E+00 1.6904011E+00
 6.0242410E-02 1.0772885E+00 1.6603376E+00
 3.2442970E-02 1.0499755E+00 1.6295237E+00
 8.0542677E-03 1.0238137E+00 1.5986272E+00
 1.0460553E+00 5.7654935E-01 1.7763998E+00
 9.9531688E-01 5.8607048E-01 1.7866816E+00
 9.4276696E-01 5.9558281E-01 1.7971331E+00
 8.8875482E-01 6.0547314E-01 1.8077922E+00
 8.3363368E-01 6.1606392E-01 1.8185246E+00
 7.7783607E-01 6.2763552E-01 1.8290091E+00
 7.2177248E-01 6.4046127E-01 1.8387764E+00
 6.6575999E-01 6.5479319E-01 1.8472453E+00
 6.1001867E-01 6.7084751E-01 1.8537707E+00
 5.5471221E-01 6.8878487E-01 1.8576982E+00
 5.0001259E-01 7.0868908E-01 1.8584209E+00
 4.4615876E-01 7.3054988E-01 1.8554394E+00
 3.9348646E-01 7.5425411E-01 1.8484156E+00
 3.4241679E-01 7.7958911E-01 1.8372105E+00
 2.9341355E-01 8.0625962E-01 1.8218955E+00
 2.4692698E-01 8.3391445E-01 1.8027354E+00
 2.0334119E-01 8.6217630E-01 1.7801475E+00
 1.6293346E-01 8.9066692E-01 1.7546429E+00
 1.2585142E-01 9.1902457E-01 1.7267630E+00
 9.2104787E-02 9.4691567E-01 1.6970155E+00
 6.1561582E-02 9.7403414E-01 1.6658054E+00
 3.3929409E-02 1.0000003E+00 1.6333510E+00
 1.0437659E+00 6.1032480E-01 1.7941105E+00
 9.9101655E-01 6.2186029E-01 1.8049353E+00
 9.3712293E-01 6.3306636E-01 1.8156544E+00
 8.8213561E-01 6.4458864E-01 1.8264343E+00
 8.2637890E-01 6.5683196E-01 1.8371412E+00
 7.7022550E-01 6.7012662E-01 1.8474474E+00
 7.1403401E-01 6.8473891E-01 1.8568605E+00
 6.5807747E-01 7.0088526E-01 1.8647786E+00
 6.0254169E-01 7.1872693E-01 1.8705469E+00
 5.4757180E-01 7.3836036E-01 1.8735158E+00
 4.9333404E-01 7.5980368E-01 1.8731005E+00
 4.4006871E-01 7.8298678E-01 1.8688393E+00
 3.8811150E-01 8.0774914E-01 1.8604440E+00
 3.3787517E-01 8.3384897E-01 1.8478301E+00
 2.8980185E-01 8.6098214E-01 1.8311193E+00
 2.4430316E-01 8.8880742E-01 1.8106117E+00
 2.0170545E-01 9.1697022E-01 1.7867328E+00
 1.6220421E-01 9.4511882E-01 1.7599587E+00
 1.2582824E-01 9.7291006E-01 1.7307277E+00
 9.2421686E-02 1.0000003E+00 1.6993469E+00
 6.1561570E-02 1.0259665E+00 1.6658054E+00
 1.0421408E+00 6.4568970E-01 1.8106731E+00
 9.8804375E-01 6.5891145E-01 1.8216227E+00
 9.3296859E-01 6.7180656E-01 1.8324274E+00
 8.7709776E-01 6.8499586E-01 1.8431772E+00
 8.2072122E-01 6.9894725E-01 1.8537288E+00
 7.6419892E-01 7.1399927E-01 1.8637240E+00
 7.0785023E-01 7.3040218E-01 1.8726461E+00
 6.5191193E-01 7.4833101E-01 1.8798760E+00
 5.9654206E-01 7.6789359E-01 1.8847546E+00
 5.4187007E-01 7.8912738E-01 1.8866436E+00
 4.8805683E-01 8.1199344E-01 1.8849855E+00
 4.3534125E-01 8.3637239E-01 1.8793595E+00
 3.8405384E-01 8.6206828E-01 1.8695265E+00
 3.3459102E-01 8.8882134E-01 1.8554515E+00
 2.8736143E-01 9.1632685E-01 1.8372937E+00
 2.4271866E-01 9.4425479E-01 1.8153648E+00
 2.0090029E-01 9.7226327E-01 1.7900582E+00
 1.6198023E-01 1.0000003E+00 1.7617578E+00
 1.2582823E-01 1.0270905E+00 1.7307277E+00
 9.2104767E-02 1.0530849E+00 1.6970155E+00
 1.0408799E+00 6.8263330E-01 1.8259659E+00
 9.8574272E-01 6.9739042E-01 1.8367938E+00
 9.2973872E-01 7.1189275E-01 1.8474677E+00
 8.7311765E-01 7.2674465E-01 1.8580174E+00
 8.1621062E-01 7.4240585E-01 1.8682507E+00
 7.5936968E-01 7.5920538E-01 1.8777756E+00
 7.0289461E-01 7.7736084E-01 1.8860487E+00
 6.4699523E-01 7.9700326E-01 1.8924383E+00
 5.9180835E-01 8.1818886E-01 1.8962876E+00
 5.3745084E-01 8.4090271E-01 1.8969766E+00
 4.8407761E-01 8.6505746E-01 1.8939798E+00
 4.3192195E-01 8.9049501E-01 1.8869192E+00
 3.8130078E-01 9.1699445E-01 1.8756017E+00
 3.3258140E-01 9.4428585E-01 1.8600309E+00
 2.8611961E-01 9.7206449E-01 1.8403839E+00
 2.4218542E-01 1.0000003E+00 1.8169525E+00
 2.0090029E-01 1.0277373E+00 1.7900582E+00
 1.6220420E-01 1.0548818E+00 1.7599587E+00
 1.2585139E-01 1.0809760E+00 1.7267631E+00
 1.0398402E+00 7.2115518E-01 1.8398605E+00
 9.8386030E-01 7.3731969E-01 1.8503646E+00
 9.2710474E-01 7.5335596E-01 1.8607181E+00
 8.6988247E-01 7.6982523E-01 1.8708863E+00
 8.1255932E-01 7.8715957E-01 1.8806259E+00
 7.5549367E-01 8.0565375E-01 1.8895069E+00
 6.9897079E-01 8.2548506E-01 1.8969637E+00
 6.4318082E-01 8.4673799E-01 1.9023583E+00
 5.8824326E-01 8.6942106E-01 1.9050440E+00
 5.3426355E-01 8.9347349E-01 1.9044253E+00
 4.8138788E-01 9.1876889E-01 1.9000128E+00
 4.2983678E-01 9.4512042E-01 1.8914702E+00
 3.7990146E-01 9.7229040E-01 1.8786430E+00
 3.3190231E-01 1.0000003E+00 1.8615576E+00
 2.8611961E-01 1.0279361E+00 1.8403839E+00
 2.4271866E-01 1.0557458E+00 1.8153649E+00
 2.0170544E-01 1.0830304E+00 1.7867328E+00
 1.6293344E-01 1.1093337E+00 1.7546429E+00
 1.0389516E+00 7.6117680E-01 1.8521959E+00
 9.8227248E-01 7.7864581E-01 1.8622059E+00
 9.2491474E-01 7.9613592E-01 1.8720638E+00
 8.6723663E-01 8.1415541E-01 1.8816723E+00
 8.0963191E-01 8.3309148E-01 1.8907395E+00
 7.5246343E-01 8.5319320E-01 1.8988017E+00
 6.9600458E-01 8.7459130E-01 1.9052780E+00
 6.4042804E-01 8.9732483E-01 1.9095324E+00
 5.8583773E-01 9.2135911E-01 1.9109358E+00
 5.3232632E-01 9.4659568E-01 1.9089222E+00
 4.8002598E-01 9.7287840E-01 1.9030398E+00
 4.2913433E-01 1.0000003E+00 1.8929893E+00
 3.7990147E-01 1.0277102E+00 1.8786430E+00
 3.3258142E-01 1.0557147E+00 1.8600309E+00
 2.8736144E-01 1.0836737E+00 1.8372937E+00
 2.4430316E-01 1.1111932E+00 1.8106118E+00
 2.0334117E-01 1.1378243E+00 1.7801475E+00
 1.0381901E+00 8.0256130E-01 1.8628008E+00
 9.8093674E-01 8.2124246E-01 1.8721674E+00
 9.2312102E-01 8.4009699E-01 1.8813657E+00
 8.6513690E-01 8.5957824E-01 1.8902434E+00
 8.0739738E-01 8.8001772E-01 1.8984654E+00
 7.5026458E-01 9.0161186E-01 1.9055428E+00
 6.9399867E-01 9.2444342E-01 1.9108878E+00
 6.3875515E-01 9.4850872E-01 1.9138749E+00
 5.8462179E-01 9.7373683E-01 1.9138986E+00
 5.3167512E-01 1.0000003E+00 1.9104259E+00
 4.8002600E-01 1.0271222E+00 1.9030398E+00
 4.2983681E-01 1.0548802E+00 1.8914702E+00
 3.8130081E-01 1.0830061E+00 1.8756017E+00
 3.3459105E-01 1.1111793E+00 1.8554515E+00
 2.8980187E-01 1.1390185E+00 1.8311194E+00
 2.4692698E-01 1.1660862E+00 1.8027354E+00
 1.0375554E+00 8.4512905E-01 1.8715122E+00
 9.7985796E-01 8.6492335E-01 1.8800989E+00
 9.2173303E-01 8.8504072E-01 1.8884856E+00
 8.6359894E-01 9.0587526E-01 1.8964720E+00
 8.0587760E-01 9.2769713E-01 1.9036888E+00
 7.4892445E-01 9.5064721E-01 1.9096311E+00
 6.9298382E-01 9.7476181E-01 1.9137139E+00
 6.3819302E-01 1.0000003E+00 1.9153289E+00
 5.8462180E-01 1.0262638E+00 1.9138986E+00
 5.3232635E-01 1.0534050E+00 1.9089222E+00
 4.8138792E-01 1.0812317E+00 1.9000128E+00
 4.3192200E-01 1.1095056E+00 1.8869192E+00
 3.8405389E-01 1.1379323E+00 1.8695265E+00
 3.3787521E-01 1.1661516E+00 1.8478301E+00
 2.9341358E-01 1.1937410E+00 1.8218955E+00
 1.0370596E+00 8.8866063E-01 1.8781851E+00
 9.7906013E-01 9.0945719E-01 1.8858682E+00
 9.2078198E-01 9.3072052E-01 1.8933045E+00
 8.6265700E-01 9.5278150E-01 1.9002542E+00
 8.0510660E-01 9.7584613E-01 1.9063234E+00
 7.4847360E-01 1.0000004E+00 1.9110015E+00
 6.9298383E-01 1.0252389E+00 1.9137139E+00
 6.3875518E-01 1.0514920E+00 1.9138748E+00
 5.8583778E-01 1.0786416E+00 1.9109358E+00
 5.3426361E-01 1.1065272E+00 1.9044253E+00
 4.8407769E-01 1.1349432E+00 1.8939798E+00
 4.3534133E-01 1.1636282E+00 1.8793595E+00
 3.8811157E-01 1.1922515E+00 1.8604440E+00
 3.4241684E-01 1.2204115E+00 1.8372105E+00
 1.0367183E+00 9.3290460E-01 1.8827026E+00
 9.7856916E-01 9.5457889E-01 1.8893730E+00
 9.2029784E-01 9.7685570E-01 1.8957365E+00
 8.6233950E-01 1.0000004E+00 1.9015226E+00
 8.0510660E-01 1.0241546E+00 1.9063234E+00
 7.4892446E-01 1.0493535E+00 1.9096311E+00
 6.9399870E-01 1.0755573E+00 1.9108877E+00
 6.4042809E-01 1.1026759E+00 1.9095324E+00
 5.8824333E-01 1.1305796E+00 1.9050440E+00
 5.3745093E-01 1.1590979E+00 1.8969766E+00
 4.8805693E-01 1.1880072E+00 1.8849854E+00
 4.4006881E-01 1.2170138E+00 1.8688393E+00
 3.9348656E-01 1.2457465E+00 1.8484156E+00
 1.0365442E+00 9.7758595E-01 1.8849825E+00
 9.7840335E-01 1.0000004E+00 1.8905486E+00
 9.2029784E-01 1.0231451E+00 1.8957365E+00
 8.6265701E-01 1.0472192E+00 1.9002542E+00
 8.0587762E-01 1.0723036E+00 1.9036887E+00
 7.5026461E-01 1.0983889E+00 1.9055427E+00
 6.9600463E-01 1.1254094E+00 1.9052780E+00
 6.4318089E-01 1.1532627E+00 1.9023582E+00
 5.9180846E-01 1.1818118E+00 1.8962876E+00
 5.4187019E-01 1.2108733E+00 1.8866436E+00
 4.9333417E-01 1.2401969E+00 1.8731004E+00
 4.4615889E-01 1.2694507E+00 1.8554394E+00
 1.0365442E+00 1.0224148E+00 1.8849825E+00
 9.7856916E-01 1.0454219E+00 1.8893730E+00
 9.2078198E-01 1.0692802E+00 1.8933045E+00
 8.6359895E-01 1.0941255E+00 1.8964720E+00
 8.0739741E-01 1.1199830E+00 1.8984653E+00
 7.5246348E-01 1.1468075E+00 1.8988016E+00
 6.9897087E-01 1.1745156E+00 1.8969636E+00
 6.4699533E-01 1.2029974E+00 1.8924381E+00
 5.9654218E-01 1.2321071E+00 1.8847545E+00
 5.4757195E-01 1.2616403E+00 1.8735157E+00
 5.0001275E-01 1.2913115E+00 1.8584208E+00
 1.0367183E+00 1.0670961E+00 1.8827026E+00
 9.7906012E-01 1.0905436E+00 1.8858682E+00
 9.2173303E-01 1.1149600E+00 1.8884855E+00
 8.6513691E-01 1.1404225E+00 1.8902433E+00
 8.0963195E-01 1.1669092E+00 1.8907394E+00
 7.5549373E-01 1.1943470E+00 1.8895067E+00
 7.0289471E-01 1.2226398E+00 1.8860486E+00
 6.5191205E-01 1.2516696E+00 1.8798759E+00
 6.0254185E-01 1.2812737E+00 1.8705467E+00
 5.5471238E-01 1.3112158E+00 1.8576981E+00
 1.0370595E+00 1.1113401E+00 1.8781850E+00
 9.7985794E-01 1.1350774E+00 1.8800988E+00
 9.2312101E-01 1.1599037E+00 1.8813656E+00
 8.6723664E-01 1.1858453E+00 1.8816722E+00
 8.1255935E-01 1.2128411E+00 1.8806257E+00
 7.5936975E-01 1.2407953E+00 1.8777754E+00
 7.0785033E-01 1.2695985E+00 1.8726460E+00
 6.5807762E-01 1.2991154E+00 1.8647784E+00
 6.1001885E-01 1.3291531E+00 1.8537705E+00
 1.0375553E+00 1.1548717E+00 1.8715120E+00
 9.8093672E-01 1.1787583E+00 1.8721673E+00
 9.2491474E-01 1.2038648E+00 1.8720636E+00
 8.6988249E-01 1.2301755E+00 1.8708861E+00
 8.1621067E-01 1.2575948E+00 1.8682505E+00
 7.6419900E-01 1.2860014E+00 1.8637238E+00
 7.1403414E-01 1.3152617E+00 1.8568603E+00
 6.6576015E-01 1.3452074E+00 1.8472451E+00
 1.0381901E+00 1.1974394E+00 1.8628007E+00
 9.8227246E-01 1.2213549E+00 1.8622057E+00
 9.2710473E-01 1.2466447E+00 1.8607179E+00
 8.7311767E-01 1.2732560E+00 1.8580172E+00
 8.2072126E-01 1.3010534E+00 1.8537286E+00
 7.7022558E-01 1.3298740E+00 1.8474472E+00
 7.2177262E-01 1.3595394E+00 1.8387762E+00
 1.0389516E+00 1.2388239E+00 1.8521958E+00
 9.8386027E-01 1.2626810E+00 1.8503644E+00
 9.2973871E-01 1.2881079E+00 1.8474675E+00
 8.7709777E-01 1.3150048E+00 1.8431770E+00
 8.2637895E-01 1.3431687E+00 1.8371409E+00
 7.7783616E-01 1.3723651E+00 1.8290089E+00
 1.0398401E+00 1.2788455E+00 1.8398603E+00
 9.8574268E-01 1.3026103E+00 1.8367936E+00
 9.3296857E-01 1.3281941E+00 1.8324272E+00
 8.8213561E-01 1.3554120E+00 1.8264340E+00
 8.3363372E-01 1.3839367E+00 1.8185244E+00
 1.0408799E+00 1.3173674E+00 1.8259657E+00
 9.8804370E-01 1.3410892E+00 1.8216225E+00
 9.3712291E-01 1.3669343E+00 1.8156541E+00
 8.8875483E-01 1.3945275E+00 1.8077919E+00
 1.0421407E+00 1.3543109E+00 1.8106729E+00
 9.9101650E-01 1.3781403E+00 1.8049351E+00
 9.4276693E-01 1.4044178E+00 1.7971328E+00
 1.0437658E+00 1.3896758E+00 1.7941103E+00
 9.9531682E-01 1.4139301E+00 1.7866814E+00
 1.0460552E+00 1.4234512E+00 1.7763996E+00
 1.0954750E+00 1.4345643E+00 1.7653454E+00
 1.0952935E+00 1.4026194E+00 1.7826639E+00
 1.0951083E+00 1.3687860E+00 1.7991995E+00
 1.0949370E+00 1.3331284E+00 1.8147352E+00
 1.0947873E+00 1.2957658E+00 1.8290551E+00
 1.0946607E+00 1.2568297E+00 1.8419529E+00
 1.0945557E+00 1.2164509E+00 1.8532444E+00
 1.0944703E+00 1.1747986E+00 1.8627561E+00
 1.0944034E+00 1.1320789E+00 1.8703324E+00
 1.0943549E+00 1.0885285E+00 1.8758431E+00
 1.0943253E+00 1.0444090E+00 1.8791903E+00
 1.0943154E+00 1.0000004E+00 1.8803130E+00
 1.0943254E+00 9.5559173E-01 1.8791904E+00
 1.0943549E+00 9.1147227E-01 1.8758432E+00
 1.0944034E+00 8.6792179E-01 1.8703325E+00
 1.0944704E+00 8.2520211E-01 1.8627563E+00
 1.0945558E+00 7.8354982E-01 1.8532445E+00
 1.0946608E+00 7.4317101E-01 1.8419531E+00
 1.0947873E+00 7.0423491E-01 1.8290553E+00
 1.0949371E+00 6.6687221E-01 1.8147355E+00
 1.0951084E+00 6.3121464E-01 1.7991997E+00
 1.0952936E+00 5.9738121E-01 1.7826641E+00
 1.0954750E+00 5.6543630E-01 1.7653457E+00
 1.1394793E+00 5.4770879E-01 1.7508941E+00
 1.1873548E+00 5.5920946E-01 1.7534165E+00
 1.2369838E+00 5.7113226E-01 1.7559872E+00
 1.2879542E+00 5.8349815E-01 1.7585485E+00
 1.3400757E+00 5.9637631E-01 1.7610045E+00
 1.3931670E+00 6.0986276E-01 1.7632289E+00
 1.4470657E+00 6.2406256E-01 1.7650615E+00
 1.5015843E+00 6.3907911E-01 1.7663122E+00
 1.5565111E+00 6.5501034E-01 1.7667697E+00
 1.6116083E+00 6.7194267E-01 1.7662090E+00
 1.6666131E+00 6.8994452E-01 1.7644027E+00
 1.7212408E+00 7.0906032E-01 1.7611317E+00
 1.7751912E+00 7.2930542E-01 1.7561973E+00
 1.8281559E+00 7.5066337E-01 1.7494319E+00
 1.8798267E+00 7.7308468E-01 1.7407087E+00
 1.9299040E+00 7.9648883E-01 1.7299486E+00
 1.9781042E+00 8.2076645E-01 1.7171241E+00
 2.0241680E+00 8.4578497E-01 1.7022605E+00
 2.0678662E+00 8.7139501E-01 1.6854337E+00
 2.1090052E+00 8.9743614E-01 1.6667653E+00
 2.1474082E+00 9.2371932E-01 1.6464291E+00
 2.1829122E+00 9.5001300E-01 1.6246465E+00
 2.2152649E+00 9.7592714E-01 1.6017793E+00
 1.1443870E+00 1.4194540E+00 1.7692727E+00
 1.1939024E+00 1.4060769E+00 1.7721119E+00
 1.2445711E+00 1.3927979E+00 1.7747065E+00
 1.2962286E+00 1.3792815E+00 1.7771390E+00
 1.3488061E+00 1.3652902E+00 1.7793818E+00
 1.4021861E+00 1.3506698E+00 1.7813222E+00
 1.4562147E+00 1.3352977E+00 1.7827981E+00
 1.5107119E+00 1.3190762E+00 1.7836106E+00
 1.5654676E+00 1.3019262E+00 1.7835390E+00
 1.6202436E+00 1.2837862E+00 1.7823524E+00
 1.6747767E+00 1.2646153E+00 1.7798229E+00
 1.7287827E+00 1.2443966E+00 1.7757371E+00
 1.7819648E+00 1.2231401E+00 1.7699079E+00
 1.8340215E+00 1.2008837E+00 1.7621844E+00
 1.8846558E+00 1.1776925E+00 1.7524602E+00
 1.9335837E+00 1.1536568E+00 1.7406783E+00
 1.9805445E+00 1.1288908E+00 1.7268308E+00
 2.0253164E+00 1.1035314E+00 1.7109523E+00
 2.0677313E+00 1.0777392E+00 1.6931093E+00
 2.1076985E+00 1.0517028E+00 1.6733760E+00
 2.1452453E+00 1.0256521E+00 1.6517922E+00
 2.1806000E+00 1.0000004E+00 1.6282833E+00
 1.1462648E+00 1.3858138E+00 1.7865161E+00
 1.1977038E+00 1.3706157E+00 1.7894301E+00
 1.2496279E+00 1.3559398E+00 1.7919067E+00
 1.3022037E+00 1.3411671E+00 1.7941243E+00
 1.3554153E+00 1.3259768E+00 1.7960686E+00
 1.4092082E+00 1.3101542E+00 1.7976353E+00
 1.4634641E+00 1.2935640E+00 1.7986554E+00
 1.5180210E+00 1.2761153E+00 1.7989211E+00
 1.5726785E+00 1.2577464E+00 1.7982043E+00
 1.6272027E+00 1.2384187E+00 1.7962715E+00
 1.6813324E+00 1.2181151E+00 1.7928973E+00
 1.7347868E+00 1.1968414E+00 1.7878765E+00
 1.7872751E+00 1.1746273E+00 1.7810354E+00
 1.8385068E+00 1.1515249E+00 1.7722395E+00
 1.8882041E+00 1.1276076E+00 1.7613996E+00
 1.9361134E+00 1.1029690E+00 1.7484708E+00
 1.9820268E+00 1.0777240E+00 1.7334449E+00
 2.0258119E+00 1.0520162E+00 1.7163287E+00
 2.0674538E+00 1.0260269E+00 1.6971093E+00
 2.1071050E+00 1.0000004E+00 1.6756993E+00
 2.1452453E+00 9.7434857E-01 1.6517922E+00
 1.1474954E+00 1.3506845E+00 1.8026999E+00
 1.2002214E+00 1.3340857E+00 1.8053687E+00
 1.2532572E+00 1.3180631E+00 1.8075803E+00
 1.3066733E+00 1.3020356E+00 1.8094626E+00
 1.3605092E+00 1.2856149E+00 1.8110034E+00
 1.4147251E+00 1.2685678E+00 1.8120873E+00
 1.4692264E+00 1.2507527E+00 1.8125362E+00
 1.5238645E+00 1.2320893E+00 1.8121340E+00
 1.5784464E+00 1.2125331E+00 1.8106477E+00
 1.6327422E+00 1.1920655E+00 1.8078441E+00
 1.6864944E+00 1.1706895E+00 1.8035034E+00
 1.7394283E+00 1.1484286E+00 1.7974304E+00
 1.7912632E+00 1.1253255E+00 1.7894649E+00
 1.8417278E+00 1.1014405E+00 1.7794860E+00
 1.8905771E+00 1.0768508E+00 1.7674132E+00
 1.9376154E+00 1.0516540E+00 1.7531971E+00
 1.9827315E+00 1.0259782E+00 1.7367985E+00
 2.0259427E+00 1.0000004E+00 1.7181521E+00
 2.0674538E+00 9.7397377E-01 1.6971093E+00
 2.1076985E+00 9.4829793E-01 1.6733761E+00
 1.1484064E+00 1.3140408E+00 1.8176665E+00
 1.2021268E+00 1.2962498E+00 1.8198969E+00
 1.2560371E+00 1.2790140E+00 1.8216779E+00
 1.3101708E+00 1.2617746E+00 1.8230947E+00
 1.3645449E+00 1.2441494E+00 1.8241073E+00
 1.4191284E+00 1.2259002E+00 1.8245848E+00
 1.4738321E+00 1.2068953E+00 1.8243365E+00
 1.5285145E+00 1.1870674E+00 1.8231391E+00
 1.5829870E+00 1.1663895E+00 1.8207580E+00
 1.6370241E+00 1.1448605E+00 1.8169628E+00
 1.6903746E+00 1.1224992E+00 1.8115415E+00
 1.7427738E+00 1.0993411E+00 1.8043099E+00
 1.7939587E+00 1.0754364E+00 1.7951191E+00
 1.8436898E+00 1.0508500E+00 1.7838555E+00
 1.8917774E+00 1.0256661E+00 1.7704343E+00
 1.9381166E+00 1.0000004E+00 1.7547808E+00
 1.9827315E+00 9.7402250E-01 1.7367986E+00
 2.0258119E+00 9.4798452E-01 1.7163288E+00
 2.0677313E+00 9.2226153E-01 1.6931094E+00
 1.1491465E+00 1.2758661E+00 1.8312723E+00
 1.2036752E+00 1.2570569E+00 1.8329035E+00
 1.2582952E+00 1.2387235E+00 1.8341086E+00
 1.3130067E+00 1.2203523E+00 1.8349241E+00
 1.3678078E+00 1.2015822E+00 1.8352786E+00
 1.4226606E+00 1.1821932E+00 1.8350206E+00
 1.4774774E+00 1.1620695E+00 1.8339474E+00
 1.5321192E+00 1.1411615E+00 1.8318306E+00
 1.5864018E+00 1.1194585E+00 1.8284363E+00
 1.6401062E+00 1.0969735E+00 1.8235401E+00
 1.6929911E+00 1.0737362E+00 1.8169386E+00
 1.7448090E+00 1.0497889E+00 1.8084575E+00
 1.7953257E+00 1.0251862E+00 1.7979549E+00
 1.8443513E+00 1.0000004E+00 1.7853150E+00
 1.8917774E+00 9.7433464E-01 1.7704343E+00
 1.9376154E+00 9.4834675E-01 1.7531972E+00
 1.9820268E+00 9.2227667E-01 1.7334450E+00
 2.0253164E+00 8.9646934E-01 1.7109524E+00
 1.1497841E+00 1.2362311E+00 1.8433500E+00
 1.2049861E+00 1.2165444E+00 1.8442497E+00
 1.2601772E+00 1.1972279E+00 1.8447475E+00
 1.3153305E+00 1.1778192E+00 1.8448328E+00
 1.3704283E+00 1.1579919E+00 1.8444021E+00
 1.4254258E+00 1.1375538E+00 1.8432836E+00
 1.4802352E+00 1.1164121E+00 1.8412645E+00
 1.5347207E+00 1.0945354E+00 1.8381143E+00
 1.5887042E+00 1.0719269E+00 1.8336026E+00
 1.6419770E+00 1.0486096E+00 1.8275121E+00
 1.6943140E+00 1.0246190E+00 1.8196482E+00
 1.7454938E+00 1.0000004E+00 1.8098432E+00
 1.7953257E+00 9.7481452E-01 1.7979549E+00
 1.8436898E+00 9.4915068E-01 1.7838555E+00
 1.8905771E+00 9.2314994E-01 1.7674133E+00
 1.9361135E+00 8.9703175E-01 1.7484709E+00
 1.9805445E+00 8.7110986E-01 1.7268309E+00
 1.1503393E+00 1.1952675E+00 1.8537290E+00
 1.2060970E+00 1.1748271E+00 1.8537868E+00
 1.2617256E+00 1.1546434E+00 1.8534608E+00
 1.3171808E+00 1.1343044E+00 1.8526977E+00
 1.3724336E+00 1.1135271E+00 1.8513641E+00
 1.4274361E+00 1.0921536E+00 1.8492707E+00
 1.4821022E+00 1.0701160E+00 1.8461980E+00
 1.5363020E+00 1.0473998E+00 1.8419162E+00
 1.5898676E+00 1.0240186E+00 1.8362004E+00
 1.6426054E+00 1.0000004E+00 1.8288405E+00
 1.6943140E+00 9.7538177E-01 1.8196482E+00
 1.7448090E+00 9.5021180E-01 1.8084576E+00
 1.7939588E+00 9.2456433E-01 1.7951191E+00
 1.8417278E+00 8.9856019E-01 1.7794861E+00
 1.8882041E+00 8.7239305E-01 1.7613997E+00
 1.9335838E+00 8.4634385E-01 1.7406785E+00
 1.1508088E+00 1.1531502E+00 1.8622501E+00
 1.2069999E+00 1.1320797E+00 1.8613732E+00
 1.2629286E+00 1.1111492E+00 1.8601224E+00
 1.3185400E+00 1.0899993E+00 1.8584064E+00
 1.3738005E+00 1.0683952E+00 1.8560661E+00
 1.4286631E+00 1.0462159E+00 1.8528990E+00
 1.4830474E+00 1.0234179E+00 1.8486822E+00
 1.5368335E+00 1.0000004E+00 1.8431890E+00
 1.5898676E+00 9.7598209E-01 1.8362004E+00
 1.6419770E+00 9.5139108E-01 1.8275122E+00
 1.6929911E+00 9.2626448E-01 1.8169386E+00
 1.7427738E+00 9.0065962E-01 1.8043099E+00
 1.7912632E+00 8.7467519E-01 1.7894650E+00
 1.8385069E+00 8.4847579E-01 1.7722396E+00
 1.8846559E+00 8.2230819E-01 1.7524604E+00
 1.1511792E+00 1.1100928E+00 1.8687741E+00
 1.2076706E+00 1.0885213E+00 1.8668871E+00
 1.2637552E+00 1.0669721E+00 1.8646270E+00
 1.3193742E+00 1.0451418E+00 1.8618699E+00
 1.3744949E+00 1.0228460E+00 1.8584361E+00
 1.4290762E+00 1.0000004E+00 1.8541146E+00
 1.4830474E+00 9.7658277E-01 1.8486822E+00
 1.5363020E+00 9.5260093E-01 1.8419163E+00
 1.5887042E+00 9.2807385E-01 1.8336027E+00
 1.6401062E+00 9.0302718E-01 1.8235401E+00
 1.6903747E+00 8.7750148E-01 1.8115416E+00
 1.7394283E+00 8.5157206E-01 1.7974306E+00
 1.7872751E+00 8.2537343E-01 1.7810355E+00
 1.8340215E+00 7.9911697E-01 1.7621845E+00
 1.1514356E+00 1.0663406E+00 1.8731891E+00
 1.2080844E+00 1.0444035E+00 1.8702347E+00
 1.2641767E+00 1.0223720E+00 1.8668990E+00
 1.3196556E+00 1.0000004E+00 1.8630310E+00
 1.3744949E+00 9.7715475E-01 1.8584361E+00
 1.4286631E+00 9.5378478E-01 1.8528990E+00
 1.4821022E+00 9.2988473E-01 1.8461981E+00
 1.5347207E+00 9.0546534E-01 1.8381144E+00
 1.5864018E+00 8.8054222E-01 1.8284364E+00
 1.6370241E+00 8.5514018E-01 1.8169629E+00
 1.6864945E+00 8.2931116E-01 1.8035035E+00
 1.7347868E+00 8.0315926E-01 1.7878767E+00
 1.7819649E+00 7.7686060E-01 1.7699080E+00
 1.1515668E+00 1.0221617E+00 1.8754167E+00
 1.2082243E+00 1.0000004E+00 1.8713572E+00
 1.2641767E+00 9.7762871E-01 1.8668990E+00
 1.3193742E+00 9.5485894E-01 1.8618699E+00
 1.3738005E+00 9.3160549E-01 1.8560662E+00
 1.4274361E+00 9.0784711E-01 1.8492708E+00
 1.4802352E+00 8.8358856E-01 1.8412646E+00
 1.5321192E+00 8.5883917E-01 1.8318307E+00
 1.5829870E+00 8.3361117E-01 1.8207581E+00
 1.6327422E+00 8.0793516E-01 1.8078443E+00
 1.6813324E+00 7.8188559E-01 1.7928974E+00
 1.7287827E+00 7.5560404E-01 1.7757373E+00
 1.1515668E+00 9.7783899E-01 1.8754168E+00
 1.2080844E+00 9.5559726E-01 1.8702347E+00
 1.2637552E+00 9.3302862E-01 1.8646271E+00
 1.3185401E+00 9.1000140E-01 1.8584065E+00
 1.3724336E+00 8.8647362E-01 1.8513642E+00
 1.4254258E+00 8.6244690E-01 1.8432837E+00
 1.4774774E+00 8.3793122E-01 1.8339475E+00
 1.5285145E+00 8.1293328E-01 1.8231393E+00
 1.5784464E+00 7.8746755E-01 1.8106479E+00
 1.6272028E+00 7.6158196E-01 1.7962716E+00
 1.6747767E+00 7.3538534E-01 1.7798231E+00
 1.1514356E+00 9.3366011E-01 1.8731891E+00
 1.2076706E+00 9.1147945E-01 1.8668871E+00
 1.2629286E+00 8.8885148E-01 1.8601225E+00
 1.3171808E+00 8.6569632E-01 1.8526978E+00
 1.3704283E+00 8.4200884E-01 1.8444023E+00
 1.4226606E+00 8.1780753E-01 1.8350208E+00
 1.4738322E+00 7.9310539E-01 1.8243366E+00
 1.5238645E+00 7.6791134E-01 1.8121341E+00
 1.5726785E+00 7.4225422E-01 1.7982045E+00
 1.6202437E+00 7.1621445E-01 1.7823526E+00
 1.1511792E+00 8.8990788E-01 1.8687742E+00
 1.2069999E+00 8.6792097E-01 1.8613733E+00
 1.2617256E+00 8.4535728E-01 1.8534609E+00
 1.3153305E+00 8.2218149E-01 1.8448329E+00
 1.3678078E+00 7.9841849E-01 1.8352788E+00
 1.4191284E+00 7.7410043E-01 1.8245849E+00
 1.4692265E+00 7.4924792E-01 1.8125364E+00
 1.5180210E+00 7.2388538E-01 1.7989213E+00
 1.5654676E+00 6.9807446E-01 1.7835392E+00
 1.1508088E+00 8.4685051E-01 1.8622502E+00
 1.2060970E+00 8.2517364E-01 1.8537869E+00
 1.2601772E+00 8.0277279E-01 1.8447476E+00
 1.3130067E+00 7.7964837E-01 1.8349242E+00
 1.3645449E+00 7.5585132E-01 1.8241074E+00
 1.4147251E+00 7.3143289E-01 1.8120875E+00
 1.4634641E+00 7.0643659E-01 1.7986556E+00
 1.5107119E+00 6.8092441E-01 1.7836109E+00
 1.1503393E+00 8.0473317E-01 1.8537291E+00
 1.2049862E+00 7.8345631E-01 1.8442498E+00
 1.2582952E+00 7.6127722E-01 1.8341088E+00
 1.3101708E+00 7.3822606E-01 1.8230949E+00
 1.3605092E+00 7.1438572E-01 1.8110035E+00
 1.4092082E+00 6.8984646E-01 1.7976355E+00
 1.4562148E+00 6.6470291E-01 1.7827983E+00
 1.1497842E+00 7.6376960E-01 1.8433502E+00
 1.2036752E+00 7.4294379E-01 1.8329037E+00
 1.2560372E+00 7.2098663E-01 1.8216781E+00
 1.3066733E+00 6.9796508E-01 1.8094628E+00
 1.3554153E+00 6.7402382E-01 1.7960688E+00
 1.4021861E+00 6.4933079E-01 1.7813224E+00
 1.1491465E+00 7.2413454E-01 1.8312725E+00
 1.2021268E+00 7.0375082E-01 1.8198971E+00
 1.2532572E+00 6.8193757E-01 1.8075805E+00
 1.3022037E+00 6.5883350E-01 1.7941245E+00
 1.3488061E+00 6.3471042E-01 1.7793821E+00
 1.1484065E+00 6.8595988E-01 1.8176667E+00
 1.2002214E+00 6.6591490E-01 1.8053689E+00
 1.2496280E+00 6.4406086E-01 1.7919070E+00
 1.2962286E+00 6.2071915E-01 1.7771392E+00
 1.1474955E+00 6.4931612E-01 1.8027001E+00
 1.1977039E+00 6.2938490E-01 1.7894303E+00
 1.2445711E+00 6.0720274E-01 1.7747067E+00
 1.1462649E+00 6.1418682E-01 1.7865163E+00
 1.1939025E+00 5.9392373E-01 1.7721122E+00
 1.1443871E+00 5.8054663E-01 1.7692730E+00
 1.0682306E+00 1.4862773E+00 1.7363437E+00
 1.0378625E+00 1.5120258E+00 1.7219329E+00
 1.0061309E+00 1.5384671E+00 1.7060239E+00
 9.7327821E-01 1.5654014E+00 1.6885722E+00
 9.3951402E-01 1.5926950E+00 1.6694788E+00
 9.0509536E-01 1.6201976E+00 1.6486224E+00
 8.7027838E-01 1.6477348E+00 1.6258738E+00
 8.3533968E-01 1.6750853E+00 1.6011176E+00
 8.0056307E-01 1.7019870E+00 1.5742623E+00
 7.6622231E-01 1.7281460E+00 1.5452509E+00
 7.3256956E-01 1.7532489E+00 1.5140744E+00
 6.9982696E-01 1.7769795E+00 1.4807784E+00
 6.6818444E-01 1.7990353E+00 1.4454691E+00
 6.3780034E-01 1.8191436E+00 1.4083123E+00
 6.0880472E-01 1.8370756E+00 1.3695287E+00
 5.8130378E-01 1.8526568E+00 1.3293833E+00
 5.5538433E-01 1.8657735E+00 1.2881733E+00
 5.3111710E-01 1.8763740E+00 1.2462167E+00
 5.0855730E-01 1.8844663E+00 1.2038406E+00
 4.8774252E-01 1.8901125E+00 1.1613708E+00
 4.6869415E-01 1.8934185E+00 1.1191505E+00
 4.5139768E-01 1.8945205E+00 1.0775380E+00
 4.3587750E-01 1.8935982E+00 1.0371751E+00
 3.8111377E-03 1.0693120E+00 1.5891939E+00
 8.0648771E-05 1.1143296E+00 1.5767818E+00
 -2.1633657E-03 1.1600245E+00 1.5624981E+00
 -2.5723265E-03 1.2064897E+00 1.5465627E+00
 -9.0553223E-04 1.2536797E+00 1.5290404E+00
 3.0448051E-03 1.3014535E+00 1.5099655E+00
 9.4542980E-03 1.3495927E+00 1.4893577E+00
 1.8466160E-02 1.3978202E+00 1.4672371E+00
 3.0189842E-02 1.4458093E+00 1.4436373E+00
 4.4698557E-02 1.4931942E+00 1.4186159E+00
 6.2024862E-02 1.5395804E+00 1.3922621E+00
 8.2155091E-02 1.5845561E+00 1.3646993E+00
 1.0502462E-01 1.6277052E+00 1.3360850E+00
 1.3051586E-01 1.6686232E+00 1.3066089E+00
 1.5845811E-01 1.7069323E+00 1.2764889E+00
 1.8863068E-01 1.7422977E+00 1.2459645E+00
 2.2076772E-01 1.7744406E+00 1.2152891E+00
 2.5456773E-01 1.8031532E+00 1.1847161E+00
 2.8969994E-01 1.8283060E+00 1.1544837E+00
 3.2581902E-01 1.8498559E+00 1.1247824E+00
 3.6258027E-01 1.8678499E+00 1.0956957E+00
 3.9952842E-01 1.8823899E+00 1.0670600E+00
 2.9577982E-02 1.0983030E+00 1.6201815E+00
 2.7352979E-02 1.1458584E+00 1.6078701E+00
 2.6554586E-02 1.1934028E+00 1.5934148E+00
 2.7616711E-02 1.2412795E+00 1.5771327E+00
 3.0835591E-02 1.2895566E+00 1.5591528E+00
 3.6439456E-02 1.3381433E+00 1.5395325E+00
 4.4600002E-02 1.3868323E+00 1.5182963E+00
 5.5440263E-02 1.4353319E+00 1.4954628E+00
 6.9039730E-02 1.4832908E+00 1.4710668E+00
 8.5435314E-02 1.5303170E+00 1.4451736E+00
 1.0461835E-01 1.5759941E+00 1.4178861E+00
 1.2653140E-01 1.6198971E+00 1.3893474E+00
 1.5106617E-01 1.6616108E+00 1.3597387E+00
 1.7806359E-01 1.7007457E+00 1.3292752E+00
 2.0731824E-01 1.7369569E+00 1.2981974E+00
 2.3858353E-01 1.7699580E+00 1.2667596E+00
 2.7158104E-01 1.7995363E+00 1.2352090E+00
 3.0600900E-01 1.8255618E+00 1.2037566E+00
 3.4155651E-01 1.8479941E+00 1.1725268E+00
 3.7791441E-01 1.8668827E+00 1.1414838E+00
 4.1473533E-01 1.8823489E+00 1.1102220E+00
 5.8667771E-02 1.1274161E+00 1.6507298E+00
 5.7913548E-02 1.1767820E+00 1.6382281E+00
 5.8631265E-02 1.2258870E+00 1.6234515E+00
 6.1262231E-02 1.2750176E+00 1.6067069E+00
 6.6133076E-02 1.3242624E+00 1.5881485E+00
 7.3478582E-02 1.3735341E+00 1.5678445E+00
 8.3457824E-02 1.4226148E+00 1.5458222E+00
 9.6167569E-02 1.4711921E+00 1.5221035E+00
 1.1165241E-01 1.5188910E+00 1.4967315E+00
 1.2990888E-01 1.5652985E+00 1.4697867E+00
 1.5088544E-01 1.6099854E+00 1.4413935E+00
 1.7448138E-01 1.6525267E+00 1.4117203E+00
 2.0054783E-01 1.6925219E+00 1.3809757E+00
 2.2889234E-01 1.7296140E+00 1.3493990E+00
 2.5928496E-01 1.7635073E+00 1.3172455E+00
 2.9146629E-01 1.7939811E+00 1.2847623E+00
 3.2515610E-01 1.8209022E+00 1.2521501E+00
 3.6005800E-01 1.8442273E+00 1.2195132E+00
 3.9587109E-01 1.8640054E+00 1.1867768E+00
 4.3225945E-01 1.8803559E+00 1.1535865E+00
 9.1175993E-02 1.1568399E+00 1.6802941E+00
 9.1905363E-02 1.2075352E+00 1.6673807E+00
 9.4192468E-02 1.2578363E+00 1.6521123E+00
 9.8471293E-02 1.3079503E+00 1.6347638E+00
 1.0507067E-01 1.3579198E+00 1.6154860E+00
 1.1421672E-01 1.4076286E+00 1.5943481E+00
 1.2604429E-01 1.4568308E+00 1.5713807E+00
 1.4061667E-01 1.5051883E+00 1.5466143E+00
 1.5793892E-01 1.5523050E+00 1.5201087E+00
 1.7796543E-01 1.5977559E+00 1.4919667E+00
 2.0060196E-01 1.6411119E+00 1.4623404E+00
 2.2570924E-01 1.6819637E+00 1.4314273E+00
 2.5310597E-01 1.7199430E+00 1.3994632E+00
 2.8257740E-01 1.7547432E+00 1.3667038E+00
 3.1387977E-01 1.7861329E+00 1.3334020E+00
 3.4674903E-01 1.8139715E+00 1.2997647E+00
 3.8089860E-01 1.8382108E+00 1.2659042E+00
 4.1602365E-01 1.8588948E+00 1.2317729E+00
 4.5178727E-01 1.8761438E+00 1.1971034E+00
 1.2719309E-01 1.1864706E+00 1.7083654E+00
 1.2942032E-01 1.2381166E+00 1.6948313E+00
 1.3331508E-01 1.2892666E+00 1.6788905E+00