# TIME = 2.200000
variables = x, y, z
zone N=5762 E=11520 F=FEPOINT ET=TRIANGLE
 6.2315905E+00 1.4648673E+00 1.7520559E+00
 6.2315905E+00 1.4648673E+00 2.4794428E-01
 6.2315904E+00 5.3513222E-01 1.7520556E+00
 6.2315905E+00 5.3513215E-01 2.4794452E-01
 5.1217281E+00 9.9999963E-01 1.5596382E+00
 7.3721255E+00 9.9999964E-01 1.5787691E+00
 5.1217284E+00 9.9999964E-01 4.4036218E-01
 7.3721256E+00 9.9999964E-01 4.2123106E-01
 5.5630098E+00 1.8926323E+00 1.0000001E+00
 5.5630096E+00 1.0736615E-01 1.0000001E+00
 6.8813100E+00 1.8105435E+00 1.0000001E+00
 6.8813098E+00 1.8945648E-01 1.0000001E+00
 6.1906745E+00 1.4582952E+00 1.7601798E+00
 6.1455768E+00 1.4508779E+00 1.7691915E+00
 6.0980905E+00 1.4429362E+00 1.7787403E+00
 6.0485402E+00 1.4344244E+00 1.7887336E+00
 5.9970672E+00 1.4252268E+00 1.7990407E+00
 5.9438166E+00 1.4151698E+00 1.8094276E+00
 5.8889273E+00 1.4040172E+00 1.8195272E+00
 5.8325695E+00 1.3914849E+00 1.8288018E+00
 5.7749538E+00 1.3772531E+00 1.8365414E+00
 5.7163690E+00 1.3610030E+00 1.8418952E+00
 5.6572426E+00 1.3424727E+00 1.8439610E+00
 5.5981923E+00 1.3215258E+00 1.8419266E+00
 5.5400241E+00 1.2982086E+00 1.8352304E+00
 5.4836514E+00 1.2727673E+00 1.8236763E+00
 5.4299606E+00 1.2456137E+00 1.8074545E+00
 5.3796847E+00 1.2172571E+00 1.7870715E+00
 5.3333293E+00 1.1882294E+00 1.7632294E+00
 5.2911577E+00 1.1590270E+00 1.7367047E+00
 5.2532210E+00 1.1300734E+00 1.7082570E+00
 5.2194084E+00 1.1017072E+00 1.6785701E+00
 5.1895114E+00 1.0741957E+00 1.6482411E+00
 5.1632850E+00 1.0477715E+00 1.6177943E+00
 5.1404925E+00 1.0226750E+00 1.5877241E+00
 6.1862906E+00 5.7324820E-01 1.7787481E+00
 6.1397180E+00 5.8240712E-01 1.7883402E+00
 6.0912103E+00 5.9177946E-01 1.7981880E+00
 6.0408425E+00 6.0174932E-01 1.8083886E+00
 5.9886793E+00 6.1251564E-01 1.8188327E+00
 5.9348266E+00 6.2426082E-01 1.8292579E+00
 5.8794440E+00 6.3721023E-01 1.8392461E+00
 5.8227201E+00 6.5162700E-01 1.8482060E+00
 5.7648885E+00 6.6778809E-01 1.8553770E+00
 5.7062661E+00 6.8594496E-01 1.8598759E+00
 5.6473140E+00 7.0626909E-01 1.8608007E+00
 5.5886816E+00 7.2879444E-01 1.8573832E+00
 5.5311904E+00 7.5337925E-01 1.8491449E+00
 5.4757395E+00 7.7970852E-01 1.8359921E+00
 5.4231706E+00 8.0733929E-01 1.8182120E+00
 5.3741526E+00 8.3576911E-01 1.7963847E+00
 5.3291227E+00 8.6450274E-01 1.7712577E+00
 5.2882826E+00 8.9310136E-01 1.7436265E+00
 5.2516341E+00 9.2120818E-01 1.7142490E+00
 5.2190230E+00 9.4855976E-01 1.6837859E+00
 5.1901505E+00 9.7493733E-01 1.6527245E+00
 5.1644828E+00 9.9999964E-01 1.6211884E+00
 6.1848112E+00 6.0597469E-01 1.7959501E+00
 6.1368259E+00 6.1680856E-01 1.8059137E+00
 6.0872785E+00 6.2768569E-01 1.8159559E+00
 6.0359737E+00 6.3922627E-01 1.8262894E+00
 5.9829500E+00 6.5165693E-01 1.8367885E+00
 5.9283178E+00 6.6516966E-01 1.8471592E+00
 5.8722523E+00 6.7997968E-01 1.8569361E+00
 5.8149663E+00 6.9632302E-01 1.8654735E+00
 5.7567182E+00 7.1442863E-01 1.8719605E+00
 5.6978564E+00 7.3447702E-01 1.8754822E+00
 5.6388789E+00 7.5655002E-01 1.8751397E+00
 5.5804693E+00 7.8058547E-01 1.8702118E+00
 5.5234667E+00 8.0635663E-01 1.8603061E+00
 5.4687588E+00 8.3349114E-01 1.8454331E+00
 5.4171459E+00 8.6152487E-01 1.8259786E+00
 5.3692361E+00 8.8996902E-01 1.8025968E+00
 5.3253988E+00 9.1837103E-01 1.7760802E+00
 5.2857720E+00 9.4635405E-01 1.7472403E+00
 5.2502834E+00 9.7363914E-01 1.7168070E+00
 5.2186492E+00 9.9999964E-01 1.6853149E+00
 5.1901505E+00 1.0250619E+00 1.6527244E+00
 6.1837702E+00 6.4053063E-01 1.8122523E+00
 6.1347832E+00 6.5284714E-01 1.8222886E+00
 6.0842614E+00 6.6529299E-01 1.8323984E+00
 6.0320652E+00 6.7847353E-01 1.8427319E+00
 5.9782097E+00 6.9263991E-01 1.8531463E+00
 5.9228297E+00 7.0797561E-01 1.8633074E+00
 5.8661230E+00 7.2467785E-01 1.8727032E+00
 5.8083268E+00 7.4294621E-01 1.8806383E+00
 5.7497268E+00 7.6295321E-01 1.8862601E+00
 5.6907027E+00 7.8480331E-01 1.8886350E+00
 5.6317866E+00 8.0848921E-01 1.8868830E+00
 5.5736898E+00 8.3385914E-01 1.8803438E+00
 5.5172586E+00 8.6061350E-01 1.8687188E+00
 5.4633592E+00 8.8833822E-01 1.8521226E+00
 5.4127437E+00 9.1656363E-01 1.8310315E+00
 5.3659545E+00 9.4483066E-01 1.8061627E+00
 5.3232904E+00 9.7274273E-01 1.7783372E+00
 5.2848074E+00 9.9999963E-01 1.7483501E+00
 5.2502835E+00 1.0263601E+00 1.7168069E+00
 5.2190231E+00 1.0514395E+00 1.6837858E+00
 6.1828465E+00 6.7701345E-01 1.8275343E+00
 6.1329503E+00 6.9081576E-01 1.8374902E+00
 6.0815707E+00 7.0485019E-01 1.8475047E+00
 6.0285724E+00 7.1971700E-01 1.8576795E+00
 5.9739951E+00 7.3565059E-01 1.8678322E+00
 5.9179930E+00 7.5282281E-01 1.8775919E+00
 5.8607899E+00 7.7140190E-01 1.8864034E+00
 5.8026474E+00 7.9154241E-01 1.8935307E+00
 5.7438766E+00 8.1335287E-01 1.8980943E+00
 5.6848846E+00 8.3685781E-01 1.8991612E+00
 5.6262296E+00 8.6196201E-01 1.8958889E+00
 5.5686378E+00 8.8843249E-01 1.8876923E+00
 5.5129468E+00 9.1591147E-01 1.8743699E+00
 5.4599875E+00 9.4396145E-01 1.8561334E+00
 5.4104542E+00 9.7212781E-01 1.8335344E+00
 5.3648184E+00 9.9999963E-01 1.8073312E+00
 5.3232905E+00 1.0272565E+00 1.7783372E+00
 5.2857720E+00 1.0536452E+00 1.7472402E+00
 5.2516343E+00 1.0787911E+00 1.7142489E+00
 6.1819809E+00 7.1542572E-01 1.8416057E+00
 6.1312672E+00 7.3071371E-01 1.8513258E+00
 6.0791336E+00 7.4636281E-01 1.8610834E+00
 6.0254601E+00 7.6292973E-01 1.8709201E+00
 5.9703042E+00 7.8063094E-01 1.8806179E+00
 5.9138456E+00 7.9961417E-01 1.8897702E+00
 5.8563314E+00 8.2001228E-01 1.8977868E+00
 5.7980457E+00 8.4192688E-01 1.9039039E+00
 5.7393211E+00 8.6539724E-01 1.9072330E+00
 5.6805859E+00 8.9036622E-01 1.9068615E+00
 5.6224133E+00 9.1665554E-01 1.9020026E+00
 5.5655288E+00 9.4396311E-01 1.8921556E+00
 5.5107453E+00 9.7189092E-01 1.8772137E+00
 5.4588448E+00 9.9999962E-01 1.8574720E+00
 5.4104542E+00 1.0278714E+00 1.8335344E+00
 5.3659545E+00 1.0551686E+00 1.8061626E+00
 5.3253989E+00 1.0816282E+00 1.7760801E+00
 5.2882827E+00 1.1068979E+00 1.7436263E+00
 6.1811950E+00 7.5567030E-01 1.8542369E+00
 6.1297659E+00 7.7243958E-01 1.8635633E+00
 6.0770016E+00 7.8969911E-01 1.8728899E+00
 6.0227958E+00 8.0794903E-01 1.8821993E+00
 5.9672261E+00 8.2737782E-01 1.8912401E+00
 5.9104949E+00 8.4810415E-01 1.8995765E+00
 5.8528712E+00 8.7021827E-01 1.9065934E+00
 5.7946577E+00 8.9376378E-01 1.9115145E+00
 5.7362039E+00 9.1870758E-01 1.9134611E+00
 5.6779504E+00 9.4491340E-01 1.9115604E+00
 5.6204728E+00 9.7212913E-01 1.9050954E+00
 5.5644802E+00 9.9999961E-01 1.8936534E+00
 5.5107454E+00 1.0281083E+00 1.8772136E+00
 5.4599875E+00 1.0560378E+00 1.8561333E+00
 5.4127437E+00 1.0834356E+00 1.8310314E+00
 5.3692362E+00 1.1100302E+00 1.8025966E+00
 5.3291228E+00 1.1354965E+00 1.7712575E+00
 6.1805075E+00 7.9758324E-01 1.8651952E+00
 6.1284829E+00 8.1580513E-01 1.8739653E+00
 6.0752271E+00 8.3463842E-01 1.8826803E+00
 6.0206481E+00 8.5451554E-01 1.8912692E+00
 5.9648425E+00 8.7559079E-01 1.8994519E+00
 5.9080337E+00 8.9794796E-01 1.9067714E+00
 5.8505085E+00 9.2163011E-01 1.9126000E+00
 5.7925846E+00 9.4661954E-01 1.9161655E+00
 5.7346214E+00 9.7281217E-01 1.9166178E+00
 5.6770626E+00 9.9999962E-01 1.9131405E+00
 5.6204728E+00 1.0278701E+00 1.9050954E+00
 5.5655288E+00 1.0560361E+00 1.8921555E+00
 5.5129469E+00 1.0840878E+00 1.8743697E+00
 5.4633593E+00 1.1116610E+00 1.8521224E+00
 5.4171460E+00 1.1384743E+00 1.8259783E+00
 5.3741528E+00 1.1642301E+00 1.7963844E+00
 6.1799364E+00 8.4094985E-01 1.8742632E+00
 6.1274502E+00 8.6056254E-01 1.8823129E+00
 6.0738552E+00 8.8089563E-01 1.8902361E+00
 6.0190729E+00 9.0230355E-01 1.8979153E+00
 5.9632174E+00 9.2490099E-01 1.9050487E+00
 5.9065296E+00 9.4873273E-01 1.9111676E+00
 5.8493104E+00 9.7379168E-01 1.9156454E+00
 5.7918868E+00 9.9999963E-01 1.9177303E+00
 5.7346214E+00 1.0271871E+00 1.9166177E+00
 5.6779504E+00 1.0550858E+00 1.9115604E+00
 5.6224134E+00 1.0833437E+00 1.9020026E+00
 5.5686378E+00 1.1115667E+00 1.8876921E+00
 5.5172586E+00 1.1393857E+00 1.8687186E+00
 5.4687589E+00 1.1665081E+00 1.8454329E+00
 5.4231707E+00 1.1926599E+00 1.8182117E+00
 6.1794949E+00 8.8550469E-01 1.8812489E+00
 6.1266934E+00 9.0641206E-01 1.8884197E+00
 6.0729206E+00 9.2813343E-01 1.8953789E+00
 6.0181111E+00 9.5093583E-01 1.9019724E+00
 5.9623939E+00 9.7489015E-01 1.9078849E+00
 5.9060236E+00 9.9999964E-01 1.9126465E+00
 5.8493104E+00 1.0262076E+00 1.9156454E+00
 5.7925846E+00 1.0533797E+00 1.9161655E+00
 5.7362039E+00 1.0812917E+00 1.9134611E+00
 5.6805859E+00 1.1096330E+00 1.9068614E+00
 5.6262297E+00 1.1380372E+00 1.8958887E+00
 5.5736898E+00 1.1661401E+00 1.8803436E+00
 5.5234667E+00 1.1936426E+00 1.8603058E+00
 5.4757397E+00 1.2202906E+00 1.8359917E+00
 6.1791943E+00 9.3094072E-01 1.8859975E+00
 6.1262315E+00 9.5301400E-01 1.8921433E+00
 6.0724472E+00 9.7597608E-01 1.8979828E+00
 6.0177877E+00 9.9999964E-01 1.9033366E+00
 5.9623939E+00 1.0251091E+00 1.9078849E+00
 5.9065296E+00 1.0512666E+00 1.9111676E+00
 5.8505085E+00 1.0783692E+00 1.9126000E+00
 5.7946577E+00 1.1062355E+00 1.9115144E+00
 5.7393211E+00 1.1346020E+00 1.9072330E+00
 5.6848846E+00 1.1631414E+00 1.8991610E+00
 5.6317866E+00 1.1915100E+00 1.8868828E+00
 5.5804694E+00 1.2194137E+00 1.8702115E+00
 5.5311905E+00 1.2466199E+00 1.8491446E+00
 6.1790420E+00 9.7691898E-01 1.8883999E+00
 6.1260762E+00 9.9999964E-01 1.8933947E+00
 6.0724472E+00 1.0240232E+00 1.8979828E+00
 6.0181111E+00 1.0490635E+00 1.9019724E+00
 5.9632174E+00 1.0750983E+00 1.9050487E+00
 5.9080337E+00 1.1020513E+00 1.9067714E+00
 5.8528712E+00 1.1297810E+00 1.9065934E+00
 5.7980457E+00 1.1580724E+00 1.9039039E+00
 5.7438766E+00 1.1866464E+00 1.8980942E+00
 5.6907028E+00 1.2151959E+00 1.8886349E+00
 5.6388790E+00 1.2434492E+00 1.8751395E+00
 5.5886817E+00 1.2712047E+00 1.8573829E+00
 6.1790420E+00 1.0230803E+00 1.8883999E+00
 6.1262315E+00 1.0469853E+00 1.8921433E+00
 6.0729206E+00 1.0718659E+00 1.8953789E+00
 6.0190729E+00 1.0976957E+00 1.8979153E+00
 5.9648425E+00 1.1244085E+00 1.8994520E+00
 5.9104949E+00 1.1518951E+00 1.8995766E+00
 5.8563314E+00 1.1799870E+00 1.8977868E+00
 5.8026474E+00 1.2084569E+00 1.8935306E+00
 5.7497268E+00 1.2370460E+00 1.8862600E+00
 5.6978565E+00 1.2655222E+00 1.8754820E+00
 5.6473141E+00 1.2937301E+00 1.8608004E+00
 6.1791943E+00 1.0690586E+00 1.8859976E+00
 6.1266934E+00 1.0935872E+00 1.8884197E+00
 6.0738552E+00 1.1191037E+00 1.8902361E+00
 6.0206481E+00 1.1454838E+00 1.8912693E+00
 5.9672261E+00 1.1726215E+00 1.8912402E+00
 5.9138456E+00 1.2003851E+00 1.8897702E+00
 5.8607900E+00 1.2285974E+00 1.8864034E+00
 5.8083269E+00 1.2570531E+00 1.8806383E+00
 5.7567182E+00 1.2855706E+00 1.8719604E+00
 5.7062661E+00 1.3140543E+00 1.8598757E+00
 6.1794949E+00 1.1144946E+00 1.8812490E+00
 6.1274503E+00 1.1394368E+00 1.8823130E+00
 6.0752271E+00 1.1653609E+00 1.8826804E+00
 6.0227958E+00 1.1920503E+00 1.8821994E+00
 5.9703042E+00 1.2193684E+00 1.8806180E+00
 5.9179930E+00 1.2471765E+00 1.8775920E+00
 5.8661230E+00 1.2753214E+00 1.8727033E+00
 5.8149663E+00 1.3036763E+00 1.8654734E+00
 5.7648886E+00 1.3322112E+00 1.8553769E+00
 6.1799364E+00 1.1590494E+00 1.8742633E+00
 6.1284829E+00 1.1841942E+00 1.8739655E+00
 6.0770016E+00 1.2103002E+00 1.8728900E+00
 6.0254601E+00 1.2370696E+00 1.8709202E+00
 5.9739951E+00 1.2643487E+00 1.8678323E+00
 5.9228297E+00 1.2920237E+00 1.8633075E+00
 5.8722523E+00 1.3200196E+00 1.8569361E+00
 5.8227202E+00 1.3483723E+00 1.8482060E+00
 6.1805076E+00 1.2024161E+00 1.8651953E+00
 6.1297659E+00 1.2275597E+00 1.8635635E+00
 6.0791336E+00 1.2536365E+00 1.8610836E+00
 6.0285724E+00 1.2802823E+00 1.8576797E+00
 5.9782097E+00 1.3073594E+00 1.8531465E+00
 5.9283178E+00 1.3348297E+00 1.8471593E+00
 5.8794440E+00 1.3627891E+00 1.8392461E+00
 6.1811950E+00 1.2443290E+00 1.8542370E+00
 6.1312672E+00 1.2692856E+00 1.8513260E+00
 6.0815707E+00 1.2951492E+00 1.8475049E+00
 6.0320652E+00 1.3215258E+00 1.8427320E+00
 5.9829500E+00 1.3483424E+00 1.8367887E+00
 5.9348266E+00 1.3757385E+00 1.8292580E+00
 6.1819810E+00 1.2845736E+00 1.8416059E+00
 6.1329503E+00 1.3091836E+00 1.8374904E+00
 6.0842614E+00 1.3347064E+00 1.8323986E+00
 6.0359737E+00 1.3607731E+00 1.8262896E+00
 5.9886793E+00 1.3874837E+00 1.8188329E+00
 6.1828465E+00 1.3229859E+00 1.8275345E+00
 6.1347832E+00 1.3471522E+00 1.8222888E+00
 6.0872785E+00 1.3723137E+00 1.8159561E+00
 6.0408425E+00 1.3982501E+00 1.8083888E+00
 6.1837703E+00 1.3594688E+00 1.8122525E+00
 6.1368259E+00 1.3831908E+00 1.8059139E+00
 6.0912103E+00 1.4082199E+00 1.7981882E+00
 6.1848112E+00 1.3940247E+00 1.7959503E+00
 6.1397180E+00 1.4175923E+00 1.7883405E+00
 6.1862907E+00 1.4267512E+00 1.7787483E+00
 6.2315850E+00 1.4374629E+00 1.7683450E+00
 6.2315762E+00 1.4063753E+00 1.7852565E+00
 6.2315690E+00 1.3732620E+00 1.8015452E+00
 6.2315648E+00 1.3380725E+00 1.8170232E+00
 6.2315628E+00 1.3009172E+00 1.8314372E+00
 6.2315620E+00 1.2619081E+00 1.8445468E+00
 6.2315616E+00 1.2211853E+00 1.8561225E+00
 6.2315609E+00 1.1789348E+00 1.8659459E+00
 6.2315600E+00 1.1353943E+00 1.8738178E+00
 6.2315590E+00 1.0908436E+00 1.8795701E+00
 6.2315582E+00 1.0455985E+00 1.8830748E+00
 6.2315580E+00 9.9999963E-01 1.8842522E+00
 6.2315582E+00 9.5440079E-01 1.8830748E+00
 6.2315590E+00 9.0915571E-01 1.8795700E+00
 6.2315599E+00 8.6460503E-01 1.8738177E+00
 6.2315609E+00 8.2106455E-01 1.8659458E+00
 6.2315615E+00 7.7881400E-01 1.8561223E+00
 6.2315620E+00 7.3809126E-01 1.8445467E+00
 6.2315628E+00 6.9908216E-01 1.8314370E+00
 6.2315647E+00 6.6192684E-01 1.8170230E+00
 6.2315689E+00 6.2673746E-01 1.8015449E+00
 6.2315761E+00 5.9362415E-01 1.7852563E+00
 6.2315849E+00 5.6253659E-01 1.7683447E+00
 6.2724558E+00 5.4520393E-01 1.7543894E+00
 6.3173448E+00 5.5633415E-01 1.7569143E+00
 6.3644390E+00 5.6802651E-01 1.7594920E+00
 6.4133833E+00 5.8027746E-01 1.7620578E+00
 6.4640119E+00 5.9314463E-01 1.7645188E+00
 6.5161517E+00 6.0670907E-01 1.7667469E+00
 6.5696269E+00 6.2107222E-01 1.7685815E+00
 6.6242131E+00 6.3633576E-01 1.7698263E+00
 6.6796410E+00 6.5259862E-01 1.7702574E+00
 6.7355978E+00 6.6994740E-01 1.7696318E+00
 6.7917339E+00 6.8844814E-01 1.7676999E+00
 6.8476691E+00 7.0813771E-01 1.7642209E+00
 6.9030031E+00 7.2901638E-01 1.7589787E+00
 6.9573255E+00 7.5104313E-01 1.7517978E+00
 7.0102301E+00 7.7413360E-01 1.7425573E+00
 7.0613288E+00 7.9816240E-01 1.7312002E+00
 7.1102672E+00 8.2296815E-01 1.7177375E+00
 7.1567388E+00 8.4836246E-01 1.7022465E+00
 7.2004973E+00 8.7414112E-01 1.6848639E+00
 7.2413606E+00 9.0009634E-01 1.6657748E+00
 7.2791918E+00 9.2601238E-01 1.6452135E+00
 7.3138732E+00 9.5165857E-01 1.6234649E+00
 7.3452623E+00 9.7674848E-01 1.6008995E+00
 6.2768027E+00 1.4231309E+00 1.7721935E+00
 6.3231292E+00 1.4104409E+00 1.7749183E+00
 6.3711935E+00 1.3975733E+00 1.7774666E+00
 6.4208942E+00 1.3841784E+00 1.7799315E+00
 6.4721468E+00 1.3701175E+00 1.7822406E+00
 6.5248233E+00 1.3553042E+00 1.7842504E+00
 6.5787288E+00 1.3396512E+00 1.7857808E+00
 6.6336210E+00 1.3230701E+00 1.7866200E+00
 6.6892091E+00 1.3054813E+00 1.7865316E+00
 6.7451620E+00 1.2868214E+00 1.7852649E+00
 6.8011146E+00 1.2670523E+00 1.7825690E+00
 6.8566771E+00 1.2461687E+00 1.7782090E+00
 6.9114450E+00 1.2242036E+00 1.7719821E+00
 6.9650116E+00 1.2012312E+00 1.7637335E+00
 7.0169818E+00 1.1773654E+00 1.7533688E+00
 7.0669865E+00 1.1527553E+00 1.7408611E+00
 7.1146959E+00 1.1275775E+00 1.7262532E+00
 7.1598355E+00 1.1020240E+00 1.7096522E+00
 7.2021949E+00 1.0762863E+00 1.6912198E+00
 7.2416392E+00 1.0505445E+00 1.6711534E+00
 7.2781662E+00 1.0249880E+00 1.6496258E+00
 7.3120909E+00 9.9999964E-01 1.6266219E+00
 6.2782520E+00 1.3905692E+00 1.7890351E+00
 6.3259659E+00 1.3764122E+00 1.7917685E+00
 6.3750302E+00 1.3623167E+00 1.7941921E+00
 6.4256185E+00 1.3476816E+00 1.7964783E+00
 6.4776765E+00 1.3323447E+00 1.7985435E+00
 6.5310760E+00 1.3162140E+00 1.8002315E+00
 6.5856083E+00 1.2992106E+00 1.8013455E+00
 6.6410069E+00 1.2812612E+00 1.8016579E+00
 6.6969576E+00 1.2623053E+00 1.8009197E+00
 6.7531077E+00 1.2423041E+00 1.7988725E+00
 6.8090740E+00 1.2212488E+00 1.7952649E+00
 6.8644536E+00 1.1991661E+00 1.7898688E+00
 6.9188355E+00 1.1761221E+00 1.7824973E+00
 6.9718143E+00 1.1522227E+00 1.7730187E+00
 7.0230049E+00 1.1276095E+00 1.7613678E+00
 7.0720566E+00 1.1024517E+00 1.7475509E+00
 7.1186665E+00 1.0769347E+00 1.7316440E+00
 7.1625979E+00 1.0512420E+00 1.7137819E+00
 7.2037085E+00 1.0255393E+00 1.6941315E+00
 7.2420352E+00 9.9999964E-01 1.6728165E+00
 7.2781662E+00 9.7501128E-01 1.6496258E+00
 6.2792728E+00 1.3562425E+00 1.8050400E+00
 6.3279683E+00 1.3408725E+00 1.8075477E+00
 6.3779752E+00 1.3255232E+00 1.8097367E+00
 6.4294138E+00 1.3096180E+00 1.8117282E+00
 6.4822570E+00 1.2929724E+00 1.8134283E+00
 6.5363550E+00 1.2755040E+00 1.8146634E+00
 6.5914779E+00 1.2571449E+00 1.8152214E+00
 6.6473349E+00 1.2378389E+00 1.8148610E+00
 6.7035884E+00 1.2175479E+00 1.8133234E+00
 6.7598650E+00 1.1962604E+00 1.8103467E+00
 6.8157656E+00 1.1739979E+00 1.8056832E+00
 6.8708771E+00 1.1508195E+00 1.7991174E+00
 6.9247855E+00 1.1268230E+00 1.7904834E+00
 6.9770909E+00 1.1021429E+00 1.7796773E+00
 7.0274236E+00 1.0769426E+00 1.7666663E+00
 7.0754578E+00 1.0514024E+00 1.7514904E+00
 7.1209285E+00 1.0257014E+00 1.7342547E+00
 7.1636659E+00 9.9999965E-01 1.7151026E+00
 7.2037085E+00 9.7446001E-01 1.6941314E+00
 7.2416391E+00 9.4945476E-01 1.6711534E+00
 6.2801836E+00 1.3200289E+00 1.8200442E+00
 6.3297703E+00 1.3034813E+00 1.8221929E+00
 6.3806065E+00 1.2868999E+00 1.8240115E+00
 6.4328103E+00 1.2697188E+00 1.8255775E+00
 6.4863336E+00 1.2517731E+00 1.8267719E+00
 6.5410102E+00 1.2329890E+00 1.8274068E+00
 6.5965861E+00 1.2133150E+00 1.8272563E+00
 6.6527473E+00 1.1927152E+00 1.8260692E+00
 6.7091351E+00 1.1711771E+00 1.8235818E+00
 6.7653591E+00 1.1487182E+00 1.8195341E+00
 6.8210095E+00 1.1253914E+00 1.8136889E+00
 6.8756687E+00 1.1012870E+00 1.8058497E+00
 6.9289263E+00 1.0765313E+00 1.7958768E+00
 6.9803951E+00 1.0512814E+00 1.7836982E+00
 7.0297291E+00 1.0257125E+00 1.7693143E+00
 7.0766397E+00 9.9999965E-01 1.7527946E+00
 7.1209285E+00 9.7429790E-01 1.7342547E+00
 7.1625979E+00 9.4875727E-01 1.7137818E+00
 7.2021949E+00 9.2371295E-01 1.6912197E+00
 6.2810403E+00 1.2819207E+00 1.8338520E+00
 6.3314279E+00 1.2642330E+00 1.8355094E+00
 6.3829916E+00 1.2464320E+00 1.8368257E+00
 6.4358376E+00 1.2279998E+00 1.8378249E+00
 6.4899035E+00 1.2087896E+00 1.8383671E+00
 6.5450014E+00 1.1887446E+00 1.8382503E+00
 6.6008556E+00 1.1678319E+00 1.8372392E+00
 6.6571312E+00 1.1460395E+00 1.8350769E+00
 6.7134526E+00 1.1233822E+00 1.8315008E+00
 6.7694176E+00 1.0999077E+00 1.8262597E+00
 6.8246116E+00 1.0756994E+00 1.8191332E+00
 6.8786198E+00 1.0508758E+00 1.8099496E+00
 6.9310433E+00 1.0255861E+00 1.7985998E+00
 6.9815162E+00 9.9999965E-01 1.7850448E+00
 7.0297291E+00 9.7428681E-01 1.7693143E+00
 7.0754578E+00 9.4859686E-01 1.7514904E+00
 7.1186664E+00 9.2306455E-01 1.7316439E+00
 7.1598354E+00 8.9797535E-01 1.7096521E+00
 6.2818195E+00 1.2420148E+00 1.8462408E+00
 6.3329068E+00 1.2232262E+00 1.8472781E+00
 6.3850777E+00 1.2042444E+00 1.8479546E+00
 6.4384279E+00 1.1846109E+00 1.8482438E+00
 6.4928793E+00 1.1642045E+00 1.8479861E+00
 6.5482245E+00 1.1429874E+00 1.8469695E+00
 6.6041679E+00 1.1209485E+00 1.8449534E+00
 6.6603577E+00 1.0981014E+00 1.8416811E+00
 6.7164060E+00 1.0744894E+00 1.8368975E+00
 6.7719055E+00 1.0501895E+00 1.8303663E+00
 6.8264435E+00 1.0253125E+00 1.8218905E+00
 6.8796157E+00 9.9999965E-01 1.8113272E+00
 6.9310433E+00 9.7441323E-01 1.7985997E+00
 6.9803951E+00 9.4871795E-01 1.7836981E+00
 7.0274236E+00 9.2305673E-01 1.7666662E+00
 7.0720566E+00 8.9754760E-01 1.7475508E+00
 7.1146958E+00 8.7242180E-01 1.7262531E+00
 6.2825009E+00 1.2004729E+00 1.8569846E+00
 6.3341701E+00 1.1806433E+00 1.8572747E+00
 6.3868130E+00 1.1605463E+00 1.8571748E+00
 6.4405148E+00 1.1397930E+00 1.8566129E+00
 6.4951826E+00 1.1182913E+00 1.8554140E+00
 6.5505913E+00 1.0960254E+00 1.8533603E+00
 6.6064290E+00 1.0730077E+00 1.8502109E+00
 6.6623316E+00 1.0492782E+00 1.8457156E+00
 6.7179052E+00 1.0249077E+00 1.8396328E+00
 6.7727435E+00 9.9999965E-01 1.8317477E+00
 6.8264435E+00 9.7468681E-01 1.8218904E+00
 6.8786198E+00 9.4912350E-01 1.8099495E+00
 6.9289263E+00 9.2346796E-01 1.7958767E+00
 6.9770908E+00 8.9785640E-01 1.7796772E+00
 7.0230049E+00 8.7238983E-01 1.7613677E+00
 7.0669864E+00 8.4724405E-01 1.7408610E+00
 6.2830662E+00 1.1575060E+00 1.8658726E+00
 6.3351859E+00 1.1367228E+00 1.8652927E+00
 6.3881535E+00 1.1156068E+00 1.8642856E+00
 6.4420446E+00 1.0938471E+00 1.8627407E+00
 6.4967525E+00 1.0713847E+00 1.8604726E+00
 6.5520373E+00 1.0482267E+00 1.8572626E+00
 6.6075754E+00 1.0244099E+00 1.8528753E+00
 6.6629959E+00 9.9999965E-01 1.8470728E+00
 6.7179052E+00 9.7509158E-01 1.8396328E+00
 6.7719055E+00 9.4980984E-01 1.8303663E+00
 6.8246116E+00 9.2429989E-01 1.8191331E+00
 6.8756686E+00 8.9871236E-01 1.8058496E+00
 6.9247855E+00 8.7317628E-01 1.7904833E+00
 6.9718142E+00 8.4777664E-01 1.7730186E+00
 7.0169818E+00 8.2263393E-01 1.7533686E+00
 6.2835025E+00 1.1133744E+00 1.8727180E+00
 6.3359297E+00 1.0917530E+00 1.8711560E+00
 6.3890663E+00 1.0697439E+00 1.8691231E+00
 6.4429785E+00 1.0471223E+00 1.8664795E+00
 6.4975479E+00 1.0238639E+00 1.8630349E+00
 6.5525237E+00 9.9999964E-01 1.8585750E+00
 6.6075754E+00 9.7558939E-01 1.8528753E+00
 6.6623316E+00 9.5072112E-01 1.8457156E+00
 6.7164060E+00 9.2550991E-01 1.8368974E+00
 6.7694176E+00 9.0009157E-01 1.8262596E+00
 6.8210095E+00 8.7460792E-01 1.8136888E+00
 6.8708770E+00 8.4917984E-01 1.7991173E+00
 6.9188355E+00 8.2387724E-01 1.7824971E+00
 6.9650116E+00 7.9876813E-01 1.7637334E+00
 6.2837991E+00 1.0683791E+00 1.8773705E+00
 6.3363833E+00 1.0460605E+00 1.8747302E+00
 6.3895284E+00 1.0233118E+00 1.8715717E+00
 6.4432924E+00 9.9999964E-01 1.8677363E+00
 6.4975479E+00 9.7613538E-01 1.8630348E+00
 6.5520373E+00 9.5177261E-01 1.8572626E+00
 6.6064290E+00 9.2699160E-01 1.8502108E+00
 6.6603577E+00 9.0189793E-01 1.8416811E+00
 6.7134525E+00 8.7661712E-01 1.8315007E+00
 6.7653591E+00 8.5128115E-01 1.8195339E+00
 6.8157656E+00 8.2600143E-01 1.8056830E+00
 6.8644536E+00 8.0083329E-01 1.7898686E+00
 6.9114450E+00 7.7579570E-01 1.7719819E+00
 6.2839492E+00 1.0228526E+00 1.8797240E+00
 6.3365358E+00 9.9999964E-01 1.8759312E+00
 6.3895284E+00 9.7668746E-01 1.8715717E+00
 6.4429784E+00 9.5287699E-01 1.8664795E+00
 6.4967525E+00 9.2861463E-01 1.8604725E+00
 6.5505913E+00 9.0397391E-01 1.8533602E+00
 6.6041679E+00 8.7905082E-01 1.8449533E+00
 6.6571312E+00 8.5395984E-01 1.8350768E+00
 6.7091350E+00 8.2882227E-01 1.8235816E+00
 6.7598650E+00 8.0373894E-01 1.8103465E+00
 6.8090739E+00 7.7875053E-01 1.7952647E+00
 6.8566771E+00 7.5383069E-01 1.7782087E+00
 6.2839492E+00 9.7714669E-01 1.8797239E+00
 6.3363833E+00 9.5393880E-01 1.8747302E+00
 6.3890663E+00 9.3025539E-01 1.8691230E+00
 6.4420446E+00 9.0615220E-01 1.8627406E+00
 6.4951826E+00 8.8170797E-01 1.8554139E+00
 6.5482244E+00 8.5701195E-01 1.8469694E+00
 6.6008556E+00 8.3216742E-01 1.8372390E+00
 6.6527472E+00 8.0728416E-01 1.8260690E+00
 6.7035884E+00 7.8245145E-01 1.8133233E+00
 6.7531076E+00 7.5769521E-01 1.7988723E+00
 6.8011146E+00 7.3294711E-01 1.7825688E+00
 6.2837991E+00 9.3162015E-01 1.8773704E+00
 6.3359297E+00 9.0824631E-01 1.8711559E+00
 6.3881535E+00 8.8439251E-01 1.8642855E+00
 6.4405148E+00 8.6020635E-01 1.8566128E+00
 6.4928793E+00 8.3579478E-01 1.8479859E+00
 6.5450014E+00 8.1125472E-01 1.8382502E+00
 6.5965861E+00 7.8668438E-01 1.8272561E+00
 6.6473348E+00 7.6216048E-01 1.8148608E+00
 6.6969576E+00 7.3769407E-01 1.8009194E+00
 6.7451619E+00 7.1317797E-01 1.7852646E+00
 6.2835024E+00 8.8662491E-01 1.8727179E+00
 6.3351859E+00 8.6327650E-01 1.8652926E+00
 6.3868129E+00 8.3945297E-01 1.8571747E+00
 6.4384279E+00 8.1538842E-01 1.8482437E+00
 6.4899035E+00 7.9120976E-01 1.8383669E+00
 6.5410102E+00 7.6701033E-01 1.8274066E+00
 6.5914778E+00 7.4285445E-01 1.8152212E+00
 6.6410068E+00 7.1873812E-01 1.8016577E+00
 6.6892091E+00 6.9451804E-01 1.7865313E+00
 6.2830662E+00 8.4249329E-01 1.8658724E+00
 6.3341701E+00 8.1935599E-01 1.8572745E+00
 6.3850776E+00 7.9575497E-01 1.8479545E+00
 6.4358376E+00 7.7199955E-01 1.8378247E+00
 6.4863335E+00 7.4822621E-01 1.8267717E+00
 6.5363549E+00 7.2449534E-01 1.8146632E+00
 6.5856083E+00 7.0078873E-01 1.8013453E+00
 6.6336210E+00 6.7692925E-01 1.7866197E+00
 6.2825008E+00 7.9952640E-01 1.8569845E+00
 6.3329067E+00 7.7677310E-01 1.8472779E+00
 6.3829916E+00 7.5356738E-01 1.8368255E+00
 6.4328103E+00 7.3028055E-01 1.8255773E+00
 6.4822570E+00 7.0702702E-01 1.8134281E+00
 6.5310759E+00 6.8378544E-01 1.8002313E+00
 6.5787287E+00 6.6034824E-01 1.7857805E+00
 6.2818194E+00 7.5798453E-01 1.8462406E+00
 6.3314278E+00 7.3576636E-01 1.8355092E+00
 6.3806064E+00 7.1309944E-01 1.8240113E+00
 6.4294138E+00 6.9038135E-01 1.8117279E+00
 6.4776765E+00 6.6765474E-01 1.7985432E+00
 6.5248232E+00 6.4469521E-01 1.7842501E+00
 6.2810402E+00 7.1807866E-01 1.8338517E+00
 6.3297703E+00 6.9651811E-01 1.8221927E+00
 6.3779752E+00 6.7447618E-01 1.8097365E+00
 6.4256184E+00 6.5231776E-01 1.7964780E+00
 6.4721468E+00 6.2988195E-01 1.7822403E+00
 6.2801836E+00 6.7997049E-01 1.8200439E+00
 6.3279683E+00 6.5912693E-01 1.8075475E+00
 6.3750302E+00 6.3768268E-01 1.7941918E+00
 6.4208942E+00 6.1582102E-01 1.7799312E+00
 6.2792727E+00 6.4375687E-01 1.8050398E+00
 6.3259659E+00 6.2358723E-01 1.7917682E+00
 6.3711934E+00 6.0242616E-01 1.7774663E+00
 6.2782519E+00 6.0943022E-01 1.7890349E+00
 6.3231291E+00 5.8955853E-01 1.7749180E+00
 6.2768027E+00 5.7686854E-01 1.7721933E+00
 6.2062770E+00 1.4876827E+00 1.7400439E+00
 6.1783285E+00 1.5127115E+00 1.7258816E+00
 6.1491230E+00 1.5385813E+00 1.7101323E+00
 6.1187509E+00 1.5651307E+00 1.6927205E+00
 6.0873595E+00 1.5922101E+00 1.6735459E+00
 6.0550939E+00 1.6196601E+00 1.6524923E+00
 6.0221161E+00 1.6473019E+00 1.6294348E+00
 5.9886168E+00 1.6749081E+00 1.6042648E+00
 5.9548171E+00 1.7022068E+00 1.5768963E+00
 5.9209579E+00 1.7288846E+00 1.5472782E+00
 5.8872934E+00 1.7545963E+00 1.5154068E+00
 5.8540810E+00 1.7789799E+00 1.4813371E+00
 5.8215749E+00 1.8016768E+00 1.4451923E+00
 5.7900184E+00 1.8223533E+00 1.4071678E+00
 5.7596383E+00 1.8407238E+00 1.3675300E+00
 5.7306386E+00 1.8565707E+00 1.3266049E+00
 5.7031946E+00 1.8697586E+00 1.2847622E+00
 5.6774469E+00 1.8802388E+00 1.2423949E+00
 5.6534970E+00 1.8880470E+00 1.1998968E+00
 5.6314048E+00 1.8932926E+00 1.1576397E+00
 5.6112103E+00 1.8961439E+00 1.1159816E+00
 5.5929417E+00 1.8968104E+00 1.0752691E+00
 5.5767115E+00 1.8955541E+00 1.0360418E+00
 5.1362217E+00 1.0655669E+00 1.5783383E+00
 5.1321706E+00 1.1080232E+00 1.5658790E+00
 5.1295072E+00 1.1515915E+00 1.5516911E+00
 5.1286648E+00 1.1964358E+00 1.5360430E+00
 5.1298815E+00 1.2424747E+00 1.5189217E+00
 5.1333604E+00 1.2895204E+00 1.5002821E+00
 5.1392962E+00 1.3373259E+00 1.4800962E+00
 5.1478712E+00 1.3855911E+00 1.4583656E+00
 5.1592447E+00 1.4339672E+00 1.4351214E+00
 5.1735424E+00 1.4820613E+00 1.4104261E+00
 5.1908465E+00 1.5294437E+00 1.3843750E+00
 5.2111859E+00 1.5756566E+00 1.3570981E+00
 5.2345266E+00 1.6202260E+00 1.3287593E+00
 5.2607649E+00 1.6626768E+00 1.2995566E+00
 5.2897214E+00 1.7025504E+00 1.2697179E+00
 5.3211407E+00 1.7394258E+00 1.2394970E+00
 5.3546945E+00 1.7729416E+00 1.2091658E+00
 5.3899952E+00 1.8028206E+00 1.1790056E+00
 5.4266137E+00 1.8288889E+00 1.1492951E+00
 5.4641031E+00 1.8510887E+00 1.1202956E+00
 5.5020261E+00 1.8694868E+00 1.0921662E+00
 5.5398300E+00 1.8842363E+00 1.0647363E+00
 5.1601897E+00 1.0929898E+00 1.6085364E+00
 5.1573152E+00 1.1374737E+00 1.5961566E+00
 5.1558614E+00 1.1826736E+00 1.5818757E+00
 5.1563652E+00 1.2290002E+00 1.5660204E+00
 5.1590853E+00 1.2764084E+00 1.5485712E+00
 5.1642279E+00 1.3246911E+00 1.5294717E+00
 5.1719835E+00 1.3735607E+00 1.5086895E+00
 5.1825245E+00 1.4226668E+00 1.4862279E+00
 5.1959918E+00 1.4716078E+00 1.4621257E+00
 5.2124832E+00 1.5199382E+00 1.4364581E+00
 5.2320422E+00 1.5671788E+00 1.4093389E+00
 5.2546474E+00 1.6128295E+00 1.3809215E+00
 5.2802044E+00 1.6563857E+00 1.3513989E+00
 5.3085394E+00 1.6973578E+00 1.3210009E+00
 5.3393981E+00 1.7352945E+00 1.2899903E+00
 5.3724493E+00 1.7698073E+00 1.2586557E+00
 5.4072999E+00 1.8005977E+00 1.2273000E+00
 5.4435179E+00 1.8274802E+00 1.1962280E+00
 5.4806664E+00 1.8504004E+00 1.1657116E+00
 5.5183268E+00 1.8694429E+00 1.1358913E+00
 5.5560054E+00 1.8848157E+00 1.1063571E+00
 5.1876054E+00 1.1210131E+00 1.6388845E+00
 5.1859685E+00 1.1671077E+00 1.6264115E+00
 5.1858696E+00 1.2138384E+00 1.6119452E+00
 5.1878785E+00 1.2615833E+00 1.5957730E+00
 5.1922654E+00 1.3102821E+00 1.5778614E+00
 5.1992339E+00 1.3596866E+00 1.5581461E+00
 5.2089660E+00 1.4094581E+00 1.5365946E+00
 5.2216161E+00 1.4591903E+00 1.5132160E+00
 5.2372973E+00 1.5084249E+00 1.4880610E+00
 5.2560679E+00 1.5566623E+00 1.4612239E+00
 5.2779200E+00 1.6033766E+00 1.4328439E+00
 5.3027692E+00 1.6480330E+00 1.4031062E+00
 5.3304479E+00 1.6901099E+00 1.3722403E+00
 5.3607037E+00 1.7291240E+00 1.3405169E+00
 5.3932034E+00 1.7646586E+00 1.3082399E+00
 5.4275478E+00 1.7963915E+00 1.2757362E+00
 5.4633000E+00 1.8241240E+00 1.2433369E+00
 5.5000195E+00 1.8477972E+00 1.2113465E+00
 5.5372935E+00 1.8675081E+00 1.1799190E+00
 5.5746250E+00 1.8834996E+00 1.1486835E+00
 5.2187538E+00 1.1498811E+00 1.6689041E+00
 5.2184998E+00 1.1974134E+00 1.6562005E+00
 5.2199353E+00 1.2455205E+00 1.6414262E+00
 5.2236393E+00 1.2945229E+00 1.6248071E+00
 5.2298762E+00 1.3443094E+00 1.6062869E+00
 5.2388388E+00 1.3945809E+00 1.5857960E+00
 5.2506899E+00 1.4449415E+00 1.5633054E+00
 5.2655552E+00 1.4949263E+00 1.5388353E+00
 5.2835064E+00 1.5440205E+00 1.5124552E+00
 5.3045489E+00 1.5916761E+00 1.4842858E+00
 5.3286086E+00 1.6373314E+00 1.4545005E+00
 5.3555264E+00 1.6804351E+00 1.4233250E+00
 5.3850534E+00 1.7204739E+00 1.3910350E+00
 5.4168580E+00 1.7570039E+00 1.3579476E+00
 5.4505386E+00 1.7896804E+00 1.3244122E+00
 5.4856568E+00 1.8182899E+00 1.2907886E+00
 5.5217734E+00 1.8427683E+00 1.2574139E+00
 5.5584805E+00 1.8632167E+00 1.2244879E+00
 5.5952935E+00 1.8799094E+00 1.1917182E+00
 5.2539371E+00 1.1794493E+00 1.6981153E+00
 5.2552356E+00 1.2282445E+00 1.6850354E+00
 5.2583969E+00 1.2775322E+00 1.6698097E+00