# TIME = 3.900000
variables = x, y, z
zone N=5762 E=11520 F=FEPOINT ET=TRIANGLE
 7.1270957E+00 1.4636737E+00 1.7500961E+00
 7.1270958E+00 1.4636739E+00 2.4990376E-01
 7.1270957E+00 5.3632560E-01 1.7500958E+00
 7.1270958E+00 5.3632555E-01 2.4990421E-01
 6.0170574E+00 9.9999956E-01 1.5617066E+00
 8.2692507E+00 9.9999957E-01 1.5794551E+00
 6.0170577E+00 9.9999956E-01 4.3829355E-01
 8.2692507E+00 9.9999957E-01 4.2054492E-01
 6.4573164E+00 1.8938729E+00 1.0000000E+00
 6.4573162E+00 1.0612550E-01 1.0000000E+00
 7.7778482E+00 1.8093447E+00 1.0000000E+00
 7.7778481E+00 1.9065503E-01 1.0000000E+00
 7.0856905E+00 1.4571454E+00 1.7583416E+00
 7.0399947E+00 1.4498044E+00 1.7675205E+00
 6.9918363E+00 1.4419856E+00 1.7772704E+00
 6.9415335E+00 1.4336155E+00 1.7875171E+00
 6.8892995E+00 1.4245755E+00 1.7981168E+00
 6.8353867E+00 1.4146815E+00 1.8088127E+00
 6.7800370E+00 1.4036865E+00 1.8192082E+00
 6.7235036E+00 1.3912951E+00 1.8287422E+00
 6.6660467E+00 1.3771863E+00 1.8366967E+00
 6.6079561E+00 1.3610506E+00 1.8422399E+00
 6.5496006E+00 1.3426434E+00 1.8445125E+00
 6.4914847E+00 1.3218416E+00 1.8427491E+00
 6.4342726E+00 1.2986906E+00 1.8364111E+00
 6.3787464E+00 1.2734186E+00 1.8252848E+00
 6.3257046E+00 1.2464106E+00 1.8095103E+00
 6.2758480E+00 1.2181505E+00 1.7895330E+00
 6.2296951E+00 1.1891550E+00 1.7660050E+00
 6.1875486E+00 1.1599153E+00 1.7396733E+00
 6.1495088E+00 1.1308608E+00 1.7112880E+00
 6.1155151E+00 1.1023452E+00 1.6815429E+00
 6.0854078E+00 1.0746664E+00 1.6510624E+00
 6.0589650E+00 1.0480744E+00 1.6203884E+00
 6.0359751E+00 1.0228288E+00 1.5900515E+00
 7.0809740E+00 5.7458672E-01 1.7770566E+00
 7.0336349E+00 5.8385060E-01 1.7869352E+00
 6.9843397E+00 5.9318854E-01 1.7970460E+00
 6.9331925E+00 6.0302989E-01 1.8075097E+00
 6.8803193E+00 6.1364304E-01 1.8182388E+00
 6.8259166E+00 6.2523819E-01 1.8289563E+00
 6.7702282E+00 6.3805221E-01 1.8392182E+00
 6.7135107E+00 6.5234978E-01 1.8484125E+00
 6.6560308E+00 6.6840081E-01 1.8557783E+00
 6.5980882E+00 6.8644118E-01 1.8604614E+00
 6.5400678E+00 7.0662487E-01 1.8616106E+00
 6.4824927E+00 7.2897692E-01 1.8585049E+00
 6.4260378E+00 7.5336366E-01 1.8506812E+00
 6.3714753E+00 7.7949378E-01 1.8380177E+00
 6.3195687E+00 8.0695358E-01 1.8207428E+00
 6.2709645E+00 8.3526608E-01 1.7993714E+00
 6.2261206E+00 8.6395336E-01 1.7746000E+00
 6.1852829E+00 8.9258491E-01 1.7471952E+00
 6.1485016E+00 9.2080186E-01 1.7179032E+00
 6.1156566E+00 9.4831243E-01 1.6873730E+00
 6.0864482E+00 9.7484094E-01 1.6560526E+00
 6.0603465E+00 9.9999956E-01 1.6240367E+00
 7.0791939E+00 6.0749573E-01 1.7943629E+00
 7.0301662E+00 6.1861019E-01 1.8047153E+00
 6.9796990E+00 6.2952328E-01 1.8150623E+00
 6.9275941E+00 6.4095718E-01 1.8256685E+00
 6.8739323E+00 6.5324361E-01 1.8364430E+00
 6.8188831E+00 6.6661766E-01 1.8470855E+00
 6.7626884E+00 6.8130276E-01 1.8571074E+00
 6.7056129E+00 6.9753047E-01 1.8658481E+00
 6.6479321E+00 7.1551591E-01 1.8725070E+00
 6.5899584E+00 7.3542080E-01 1.8762102E+00
 6.5320954E+00 7.5731134E-01 1.8761179E+00
 6.4748864E+00 7.8112313E-01 1.8715562E+00
 6.4190175E+00 8.0664561E-01 1.8621394E+00
 6.3652526E+00 8.3353653E-01 1.8478382E+00
 6.3143226E+00 8.6136478E-01 1.8289689E+00
 6.2668206E+00 8.8967066E-01 1.8061138E+00
 6.2231422E+00 9.1802333E-01 1.7800086E+00
 6.1834638E+00 9.4605889E-01 1.7514227E+00
 6.1477339E+00 9.7348208E-01 1.7210367E+00
 6.1156380E+00 9.9999956E-01 1.6892871E+00
 6.0864483E+00 1.0251582E+00 1.6560525E+00
 7.0780196E+00 6.4215957E-01 1.8106949E+00
 7.0278735E+00 6.5484654E-01 1.8211491E+00
 6.9763564E+00 6.6736816E-01 1.8315799E+00
 6.9233537E+00 6.8045328E-01 1.8421898E+00
 6.8689069E+00 6.9448045E-01 1.8528752E+00
 6.8132007E+00 7.0967998E-01 1.8632956E+00
 6.7564872E+00 7.2625651E-01 1.8729188E+00
 6.6990436E+00 7.4440073E-01 1.8810404E+00
 6.6411575E+00 7.6426854E-01 1.8868272E+00
 6.5831561E+00 7.8594610E-01 1.8893960E+00
 6.5254617E+00 8.0941571E-01 1.8879299E+00
 6.4686350E+00 8.3453146E-01 1.8818119E+00
 6.4133672E+00 8.6101738E-01 1.8707392E+00
 6.3604059E+00 8.8849436E-01 1.8547745E+00
 6.3104424E+00 9.1652966E-01 1.8343157E+00
 6.2640102E+00 9.4469651E-01 1.8100002E+00
 6.2214271E+00 9.7262223E-01 1.7825777E+00
 6.1827572E+00 9.9999955E-01 1.7527640E+00
 6.1477340E+00 1.0265170E+00 1.7210366E+00
 6.1156567E+00 1.0516867E+00 1.6873729E+00
 7.0770545E+00 6.7865491E-01 1.8259455E+00
 7.0259593E+00 6.9284013E-01 1.8363042E+00
 6.9735512E+00 7.0695364E-01 1.8466366E+00
 6.9197428E+00 7.2172533E-01 1.8570903E+00
 6.8646046E+00 7.3751839E-01 1.8675138E+00
 6.8083350E+00 7.5455051E-01 1.8775280E+00
 6.7512055E+00 7.7299426E-01 1.8865590E+00
 6.6935071E+00 7.9299339E-01 1.8938674E+00
 6.6355394E+00 8.1464011E-01 1.8986006E+00
 6.5776435E+00 8.3794523E-01 1.8998820E+00
 6.5202560E+00 8.6281100E-01 1.8969325E+00
 6.4639469E+00 8.8901931E-01 1.8892034E+00
 6.4094000E+00 9.1624309E-01 1.8764776E+00
 6.3573338E+00 9.4408448E-01 1.8589035E+00
 6.3083875E+00 9.7212918E-01 1.8369452E+00
 6.2630187E+00 9.9999955E-01 1.8112669E+00
 6.2214271E+00 1.0273769E+00 1.7825776E+00
 6.1834639E+00 1.0539402E+00 1.7514226E+00
 6.1485018E+00 1.0791972E+00 1.7179030E+00
 7.0761700E+00 7.1700417E-01 1.8399521E+00
 7.0242320E+00 7.3263891E-01 1.8500437E+00
 6.9710496E+00 7.4834292E-01 1.8601091E+00
 6.9165647E+00 7.6480217E-01 1.8702262E+00
 6.8608703E+00 7.8235272E-01 1.8801970E+00
 6.8041875E+00 8.0118246E-01 1.8896031E+00
 6.7468046E+00 8.2142594E-01 1.8978373E+00
 6.6890253E+00 8.4317378E-01 1.9041375E+00
 6.6311593E+00 8.6645242E-01 1.9076479E+00
 6.5735570E+00 8.9119809E-01 1.9075155E+00
 6.5166622E+00 9.1723966E-01 1.9030141E+00
 6.4610418E+00 9.4429929E-01 1.8936704E+00
 6.4073578E+00 9.7201737E-01 1.8793508E+00
 6.3562838E+00 9.9999954E-01 1.8602751E+00
 6.3083875E+00 1.0278699E+00 1.8369451E+00
 6.2640103E+00 1.0553026E+00 1.8100001E+00
 6.2231423E+00 1.0819758E+00 1.7800084E+00
 6.1852830E+00 1.1074142E+00 1.7471950E+00
 7.0753580E+00 7.5712121E-01 1.8525024E+00
 7.0226827E+00 7.7417165E-01 1.8621665E+00
 6.9688531E+00 7.9144699E-01 1.8717914E+00
 6.9138367E+00 8.0956786E-01 1.8813844E+00
 6.8577482E+00 8.2882890E-01 1.8907032E+00
 6.8008282E+00 8.4938158E-01 1.8992970E+00
 6.7433798E+00 8.7131584E-01 1.9065356E+00
 6.6857157E+00 8.9466618E-01 1.9116486E+00
 6.6281517E+00 9.1939224E-01 1.9137942E+00
 6.5710421E+00 9.4536020E-01 1.9121592E+00
 6.5148277E+00 9.7233598E-01 1.9060815E+00
 6.4600583E+00 9.9999954E-01 1.8951655E+00
 6.4073578E+00 1.0279817E+00 1.8793507E+00
 6.3573338E+00 1.0559146E+00 1.8589035E+00
 6.3104425E+00 1.0834694E+00 1.8343156E+00
 6.2668208E+00 1.1103284E+00 1.8061136E+00
 6.2261207E+00 1.1360457E+00 1.7745997E+00
 7.0746406E+00 7.9885092E-01 1.8633751E+00
 7.0213482E+00 8.1727407E-01 1.8724544E+00
 6.9670147E+00 8.3607530E-01 1.8814620E+00
 6.9116279E+00 8.5579754E-01 1.8903410E+00
 6.8553218E+00 8.7668449E-01 1.8988105E+00
 6.7983530E+00 8.9884533E-01 1.9063961E+00
 6.7410347E+00 9.2232198E-01 1.9124571E+00
 6.6836851E+00 9.4709105E-01 1.9162305E+00
 6.6266211E+00 9.7304862E-01 1.9169041E+00
 6.5701932E+00 9.9999955E-01 1.9137183E+00
 6.5148277E+00 1.0276631E+00 1.9060815E+00
 6.4610418E+00 1.0556998E+00 1.8936704E+00
 6.4094000E+00 1.0837560E+00 1.8764775E+00
 6.3604060E+00 1.1115047E+00 1.8547743E+00
 6.3143227E+00 1.1386343E+00 1.8289687E+00
 6.2709647E+00 1.1647330E+00 1.7993710E+00
 7.0740402E+00 8.4198716E-01 1.8723622E+00
 7.0202685E+00 8.6171312E-01 1.8807007E+00
 6.9655877E+00 8.8196315E-01 1.8889165E+00
 6.9100030E+00 9.0318988E-01 1.8968964E+00
 6.8536635E+00 9.2557941E-01 1.9043297E+00
 6.7968373E+00 9.4919465E-01 1.9107290E+00
 6.7398436E+00 9.7402763E-01 1.9154564E+00
 6.6830008E+00 9.9999956E-01 1.9177707E+00
 6.6266212E+00 1.0269505E+00 1.9169041E+00
 6.5710421E+00 1.0546389E+00 1.9121591E+00
 6.5166623E+00 1.0827594E+00 1.9030140E+00
 6.4639469E+00 1.1109798E+00 1.8892033E+00
 6.4133673E+00 1.1389817E+00 1.8707390E+00
 6.3652527E+00 1.1664625E+00 1.8478379E+00
 6.3195689E+00 1.1930454E+00 1.8207424E+00
 7.0735741E+00 8.8627394E-01 1.8792799E+00
 7.0194748E+00 9.0720281E-01 1.8867282E+00
 6.9646135E+00 9.2879050E-01 1.8939864E+00
 6.9090092E+00 9.5138843E-01 1.9008953E+00
 6.8528221E+00 9.7511991E-01 1.9071248E+00
 6.7963270E+00 9.9999957E-01 1.9121859E+00
 6.7398436E+00 1.0259715E+00 1.9154564E+00
 6.6836851E+00 1.0529081E+00 1.9162305E+00
 6.6281517E+00 1.0806069E+00 1.9137942E+00
 6.5735571E+00 1.1088010E+00 1.9075154E+00
 6.5202561E+00 1.1371881E+00 1.8969324E+00
 6.4686351E+00 1.1654676E+00 1.8818117E+00
 6.4190176E+00 1.1933534E+00 1.8621391E+00
 6.3714755E+00 1.2205052E+00 1.8380174E+00
 7.0732559E+00 9.3141386E-01 1.8839794E+00
 7.0189897E+00 9.5341657E-01 1.8904015E+00
 6.9641196E+00 9.7619784E-01 1.8965522E+00
 6.9086748E+00 9.9999958E-01 1.9022395E+00
 6.8528221E+00 1.0248792E+00 1.9071248E+00
 6.7968373E+00 1.0508045E+00 1.9107290E+00
 6.7410347E+00 1.0776772E+00 1.9124571E+00
 6.6857157E+00 1.1053330E+00 1.9116486E+00
 6.6311593E+00 1.1335467E+00 1.9076479E+00
 6.5776435E+00 1.1620539E+00 1.8998819E+00
 6.5254618E+00 1.1905834E+00 1.8879298E+00
 6.4748865E+00 1.2188759E+00 1.8715559E+00
 6.4260379E+00 1.2466354E+00 1.8506809E+00
 7.0730945E+00 9.7707862E-01 1.8863561E+00
 7.0188265E+00 9.9999957E-01 1.8916356E+00
 6.9641196E+00 1.0238013E+00 1.8965522E+00
 6.9090092E+00 1.0486107E+00 1.9008953E+00
 6.8536635E+00 1.0744197E+00 1.9043297E+00
 6.7983530E+00 1.1011538E+00 1.9063961E+00
 6.7433798E+00 1.1286833E+00 1.9065356E+00
 6.6890254E+00 1.1568254E+00 1.9041375E+00
 6.6355395E+00 1.1853590E+00 1.8986006E+00
 6.5831562E+00 1.2140530E+00 1.8893959E+00
 6.5320954E+00 1.2426877E+00 1.8761177E+00
 6.4824928E+00 1.2710221E+00 1.8585046E+00
 7.0730945E+00 1.0229205E+00 1.8863562E+00
 7.0189897E+00 1.0465826E+00 1.8904015E+00
 6.9646135E+00 1.0712087E+00 1.8939864E+00
 6.9100030E+00 1.0968093E+00 1.8968965E+00
 6.8553218E+00 1.1233147E+00 1.8988106E+00
 6.8008282E+00 1.1506176E+00 1.8992970E+00
 6.7468046E+00 1.1785732E+00 1.8978374E+00
 6.6935071E+00 1.2070058E+00 1.8938674E+00
 6.6411576E+00 1.2357306E+00 1.8868272E+00
 6.5899585E+00 1.2645783E+00 1.8762100E+00
 6.5400679E+00 1.2933742E+00 1.8616103E+00
 7.0732559E+00 1.0685853E+00 1.8839795E+00
 7.0194748E+00 1.0927963E+00 1.8867283E+00
 6.9655877E+00 1.1180360E+00 1.8889166E+00
 6.9116279E+00 1.1442016E+00 1.8903411E+00
 6.8577482E+00 1.1711703E+00 1.8907033E+00
 6.8041875E+00 1.1988167E+00 1.8896031E+00
 6.7512055E+00 1.2270049E+00 1.8865590E+00
 6.6990437E+00 1.2555984E+00 1.8810404E+00
 6.6479321E+00 1.2844832E+00 1.8725069E+00
 6.5980882E+00 1.3135579E+00 1.8604613E+00
 7.0735741E+00 1.1137252E+00 1.8792800E+00
 7.0202685E+00 1.1382861E+00 1.8807008E+00
 6.9670147E+00 1.1639239E+00 1.8814622E+00
 6.9138367E+00 1.1904313E+00 1.8813845E+00
 6.8608703E+00 1.2176465E+00 1.8801971E+00
 6.8083350E+00 1.2454487E+00 1.8775281E+00
 6.7564872E+00 1.2737427E+00 1.8729189E+00
 6.7056130E+00 1.3024687E+00 1.8658481E+00
 6.6560308E+00 1.3315983E+00 1.8557783E+00
 7.0740402E+00 1.1580120E+00 1.8723624E+00
 7.0213482E+00 1.1827251E+00 1.8724546E+00
 6.9688531E+00 1.2085522E+00 1.8717915E+00
 6.9165647E+00 1.2351970E+00 1.8702263E+00
 6.8646046E+00 1.2624808E+00 1.8675139E+00
 6.8132007E+00 1.2903192E+00 1.8632957E+00
 6.7626884E+00 1.3186964E+00 1.8571075E+00
 6.7135107E+00 1.3476494E+00 1.8484126E+00
 7.0746407E+00 1.2011483E+00 1.8633752E+00
 7.0226827E+00 1.2258275E+00 1.8621667E+00
 6.9710496E+00 1.2516563E+00 1.8601093E+00
 6.9197428E+00 1.2782739E+00 1.8570905E+00
 6.8689070E+00 1.3055188E+00 1.8528754E+00
 6.8188831E+00 1.3333816E+00 1.8470857E+00
 6.7702283E+00 1.3619470E+00 1.8392183E+00
 7.0753580E+00 1.2428780E+00 1.8525026E+00
 7.0242321E+00 1.2673603E+00 1.8500439E+00
 6.9735512E+00 1.2930456E+00 1.8466368E+00
 6.9233537E+00 1.3195460E+00 1.8421900E+00
 6.8739323E+00 1.3467556E+00 1.8364432E+00
 6.8259166E+00 1.3747610E+00 1.8289564E+00
 7.0761700E+00 1.2829951E+00 1.8399523E+00
 7.0259593E+00 1.3071591E+00 1.8363044E+00
 6.9763564E+00 1.3326311E+00 1.8315801E+00
 6.9275942E+00 1.3590421E+00 1.8256688E+00
 6.8803193E+00 1.3863562E+00 1.8182390E+00
 7.0770545E+00 1.3213443E+00 1.8259457E+00
 7.0278736E+00 1.3451527E+00 1.8211494E+00
 6.9796990E+00 1.3704760E+00 1.8150625E+00
 6.9331926E+00 1.3969694E+00 1.8075100E+00
 7.0780196E+00 1.3578397E+00 1.8106952E+00
 7.0301662E+00 1.3813891E+00 1.8047156E+00
 6.9843397E+00 1.4068108E+00 1.7970463E+00
 7.0791939E+00 1.3925036E+00 1.7943632E+00
 7.0336350E+00 1.4161487E+00 1.7869355E+00
 7.0809741E+00 1.4254126E+00 1.7770569E+00
 7.1270807E+00 1.4362485E+00 1.7663959E+00
 7.1270558E+00 1.4051145E+00 1.7833267E+00
 7.1270311E+00 1.3719653E+00 1.7996218E+00
 7.1270117E+00 1.3367810E+00 1.8150805E+00
 7.1269979E+00 1.2996564E+00 1.8294615E+00
 7.1269879E+00 1.2607219E+00 1.8425222E+00
 7.1269801E+00 1.2201171E+00 1.8540400E+00
 7.1269735E+00 1.1780260E+00 1.8638034E+00
 7.1269676E+00 1.1346799E+00 1.8716203E+00
 7.1269627E+00 1.0903513E+00 1.8773288E+00
 7.1269596E+00 1.0453474E+00 1.8808053E+00
 7.1269585E+00 9.9999957E-01 1.8819729E+00
 7.1269596E+00 9.5465175E-01 1.8808053E+00
 7.1269627E+00 9.0964784E-01 1.8773287E+00
 7.1269675E+00 8.6531924E-01 1.8716202E+00
 7.1269734E+00 8.2197318E-01 1.8638032E+00
 7.1269801E+00 7.7988214E-01 1.8540398E+00
 7.1269879E+00 7.3927735E-01 1.8425220E+00
 7.1269979E+00 7.0034280E-01 1.8294613E+00
 7.1270117E+00 6.6321825E-01 1.8150803E+00
 7.1270311E+00 6.2803396E-01 1.7996215E+00
 7.1270557E+00 5.9488484E-01 1.7833264E+00
 7.1270806E+00 5.6375082E-01 1.7663956E+00
 7.1683959E+00 5.4646776E-01 1.7523657E+00
 7.2137062E+00 5.5764749E-01 1.7548478E+00
 7.2611662E+00 5.6934595E-01 1.7573960E+00
 7.3104421E+00 5.8158684E-01 1.7599592E+00
 7.3613469E+00 5.9442351E-01 1.7624423E+00
 7.4136806E+00 6.0793531E-01 1.7647162E+00
 7.4672591E+00 6.2222220E-01 1.7666174E+00
 7.5218642E+00 6.3738856E-01 1.7679488E+00
 7.5772377E+00 6.5353588E-01 1.7684860E+00
 7.6330802E+00 6.7075316E-01 1.7679859E+00
 7.6890561E+00 6.8910885E-01 1.7661997E+00
 7.7448008E+00 7.0864260E-01 1.7628874E+00
 7.7999305E+00 7.2935838E-01 1.7578333E+00
 7.8540526E+00 7.5122008E-01 1.7508610E+00
 7.9067781E+00 7.7414978E-01 1.7418465E+00
 7.9577358E+00 7.9803021E-01 1.7307269E+00
 8.0065862E+00 8.2270979E-01 1.7175042E+00
 8.0530349E+00 8.4801120E-01 1.7022436E+00
 8.0968401E+00 8.7374054E-01 1.6850687E+00
 8.1378109E+00 8.9969596E-01 1.6661545E+00
 8.1757843E+00 9.2565840E-01 1.6457353E+00
 8.2106320E+00 9.5140065E-01 1.6240887E+00
 8.2421990E+00 9.7661643E-01 1.6015834E+00
 7.1730345E+00 1.4216477E+00 1.7702555E+00
 7.2199195E+00 1.4087228E+00 1.7730213E+00
 7.2684308E+00 1.3957653E+00 1.7755730E+00
 7.3184625E+00 1.3823822E+00 1.7780290E+00
 7.3699292E+00 1.3683722E+00 1.7803488E+00
 7.4226983E+00 1.3536315E+00 1.7823962E+00
 7.4765874E+00 1.3380696E+00 1.7839899E+00
 7.5313702E+00 1.3215994E+00 1.7849160E+00
 7.5867732E+00 1.3041413E+00 1.7849376E+00
 7.6424822E+00 1.2856313E+00 1.7838047E+00
 7.6981501E+00 1.2660300E+00 1.7812681E+00
 7.7534058E+00 1.2453294E+00 1.7770946E+00
 7.8078645E+00 1.2235580E+00 1.7710821E+00
 7.8611396E+00 1.2007834E+00 1.7630749E+00
 7.9128553E+00 1.1771108E+00 1.7529744E+00
 7.9626604E+00 1.1526772E+00 1.7407466E+00
 8.0102404E+00 1.1276431E+00 1.7264236E+00
 8.0553320E+00 1.1021806E+00 1.7100980E+00
 8.0977314E+00 1.0764647E+00 1.6919132E+00
 8.1373179E+00 1.0506790E+00 1.6720358E+00
 8.1741334E+00 1.0250521E+00 1.6505823E+00
 8.2085323E+00 9.9999957E-01 1.6274793E+00
 7.1747396E+00 1.3888898E+00 1.7871492E+00
 7.2232612E+00 1.3743129E+00 1.7899738E+00
 7.2728728E+00 1.3600624E+00 1.7924115E+00
 7.3237864E+00 1.3454337E+00 1.7946838E+00
 7.3759748E+00 1.3301653E+00 1.7967514E+00
 7.4293435E+00 1.3141289E+00 1.7984707E+00
 7.4837150E+00 1.2972414E+00 1.7996441E+00
 7.5388502E+00 1.2794305E+00 1.8000431E+00
 7.5944587E+00 1.2606375E+00 1.7994194E+00
 7.6502100E+00 1.2408239E+00 1.7975173E+00
 7.7057435E+00 1.2199790E+00 1.7940884E+00
 7.7606795E+00 1.1981259E+00 1.7889074E+00
 7.8146306E+00 1.1753246E+00 1.7817885E+00
 7.8672146E+00 1.1516716E+00 1.7725982E+00
 7.9180690E+00 1.1272947E+00 1.7612654E+00
 7.9668641E+00 1.1023436E+00 1.7477861E+00
 8.0133168E+00 1.0769766E+00 1.7322197E+00
 8.0572151E+00 1.0513481E+00 1.7146732E+00
 8.0984667E+00 1.0256152E+00 1.6952600E+00
 8.1372158E+00 9.9999957E-01 1.6740016E+00
 8.1741334E+00 9.7494705E-01 1.6505823E+00
 7.1758521E+00 1.3544588E+00 1.8031566E+00
 7.2254515E+00 1.3385848E+00 1.8057576E+00
 7.2760544E+00 1.3230506E+00 1.8079558E+00
 7.3278021E+00 1.3071570E+00 1.8099275E+00
 7.3807186E+00 1.2905965E+00 1.8116258E+00
 7.4347038E+00 1.2732448E+00 1.8128897E+00
 7.4895724E+00 1.2550265E+00 1.8135075E+00
 7.5450684E+00 1.2358870E+00 1.8132379E+00
 7.6008835E+00 1.2157894E+00 1.8118242E+00
 7.6566710E+00 1.1947218E+00 1.8090078E+00
 7.7120580E+00 1.1727030E+00 1.8045450E+00
 7.7666578E+00 1.1497865E+00 1.7982229E+00
 7.8200827E+00 1.1260610E+00 1.7898756E+00
 7.8719586E+00 1.1016467E+00 1.7793955E+00
 7.9219418E+00 1.0766861E+00 1.7667403E+00
 7.9697333E+00 1.0513290E+00 1.7519328E+00
 8.0151044E+00 1.0257189E+00 1.7350463E+00
 8.0579558E+00 9.9999957E-01 1.7161620E+00
 8.0984667E+00 9.7438391E-01 1.6952600E+00
 8.1373179E+00 9.4932019E-01 1.6720358E+00
 7.1767698E+00 1.3182440E+00 1.8181161E+00
 7.2272840E+00 1.3011927E+00 1.8203280E+00
 7.2787278E+00 1.2844375E+00 1.8221396E+00
 7.3312261E+00 1.2672852E+00 1.8236801E+00
 7.3847852E+00 1.2494458E+00 1.8248720E+00
 7.4392994E+00 1.2308017E+00 1.8255380E+00
 7.4945662E+00 1.2112939E+00 1.8254528E+00
 7.5503122E+00 1.1908873E+00 1.8243658E+00
 7.6062123E+00 1.1695693E+00 1.8220161E+00
 7.6619063E+00 1.1473557E+00 1.8181476E+00
 7.7170131E+00 1.1242944E+00 1.8125264E+00
 7.7711439E+00 1.1004670E+00 1.8049577E+00
 7.8239168E+00 1.0759861E+00 1.7952995E+00
 7.8749734E+00 1.0509868E+00 1.7834722E+00
 7.9239997E+00 1.0256127E+00 1.7694598E+00
 7.9707496E+00 9.9999957E-01 1.7533002E+00
 8.0151044E+00 9.7428027E-01 1.7350463E+00
 8.0572151E+00 9.4865106E-01 1.7146732E+00
 8.0977314E+00 9.2353444E-01 1.6919132E+00
 7.1776180E+00 1.2802133E+00 1.8318489E+00
 7.2289441E+00 1.2620734E+00 1.8335264E+00
 7.2811177E+00 1.2441393E+00 1.8348150E+00
 7.3342446E+00 1.2257663E+00 1.8357844E+00
 7.3883193E+00 1.2066901E+00 1.8363266E+00
 7.4432207E+00 1.1868132E+00 1.8362473E+00
 7.4987305E+00 1.1660952E+00 1.8353113E+00
 7.5545590E+00 1.1445236E+00 1.8332631E+00
 7.6103676E+00 1.1221117E+00 1.8298428E+00
 7.6657874E+00 1.0989029E+00 1.8248028E+00
 7.7204347E+00 1.0749724E+00 1.8179250E+00
 7.7739257E+00 1.0504252E+00 1.8090371E+00
 7.8258929E+00 1.0253887E+00 1.7980238E+00
 7.8760053E+00 9.9999958E-01 1.7848314E+00
 7.9239997E+00 9.7438648E-01 1.7694598E+00
 7.9697333E+00 9.4867017E-01 1.7519328E+00
 8.0133168E+00 9.2302255E-01 1.7322197E+00
 8.0553320E+00 8.9781855E-01 1.7100980E+00
 7.1784013E+00 1.2404510E+00 1.8441456E+00
 7.2304366E+00 1.2212931E+00 1.8451585E+00
 7.2832183E+00 1.2022351E+00 1.8457894E+00
 7.3368369E+00 1.1826996E+00 1.8460479E+00
 7.3912752E+00 1.1624595E+00 1.8457972E+00
 7.4463980E+00 1.1414411E+00 1.8448292E+00
 7.5019725E+00 1.1196262E+00 1.8429031E+00
 7.5576961E+00 1.0970263E+00 1.8397636E+00
 7.6132213E+00 1.0736809E+00 1.8351579E+00
 7.6681761E+00 1.0496591E+00 1.8288525E+00
 7.7221818E+00 1.0250588E+00 1.8206503E+00
 7.7748679E+00 9.9999958E-01 1.8104040E+00
 7.8258929E+00 9.7461043E-01 1.7980238E+00
 7.8749734E+00 9.4901230E-01 1.7834721E+00
 7.9219418E+00 9.2331306E-01 1.7667402E+00
 7.9668641E+00 8.9765556E-01 1.7477860E+00
 8.0102404E+00 8.7235607E-01 1.7264236E+00
 7.1790944E+00 1.1991102E+00 1.8547926E+00
 7.2317223E+00 1.1790098E+00 1.8550202E+00
 7.2849759E+00 1.1589028E+00 1.8548627E+00
 7.3389353E+00 1.1382897E+00 1.8542748E+00
 7.3935722E+00 1.1169877E+00 1.8530948E+00
 7.4487395E+00 1.0949505E+00 1.8511059E+00
 7.5041929E+00 1.0721834E+00 1.8480663E+00
 7.5596212E+00 1.0487222E+00 1.8437266E+00
 7.6146737E+00 1.0246308E+00 1.8378468E+00
 7.6689825E+00 9.9999958E-01 1.8302125E+00
 7.7221818E+00 9.7494035E-01 1.8206503E+00
 7.7739257E+00 9.4957396E-01 1.8090370E+00
 7.8239168E+00 9.2401305E-01 1.7952995E+00
 7.8719586E+00 8.9835244E-01 1.7793954E+00
 7.9180690E+00 8.7270443E-01 1.7612654E+00
 7.9626604E+00 8.4732199E-01 1.7407465E+00
 7.1796740E+00 1.1563932E+00 1.8635894E+00
 7.2327616E+00 1.1354468E+00 1.8629192E+00
 7.2863392E+00 1.1143900E+00 1.8618503E+00
 7.3404783E+00 1.0928125E+00 1.8602900E+00
 7.3951419E+00 1.0705803E+00 1.8580581E+00
 7.4501734E+00 1.0476764E+00 1.8549338E+00
 7.5053209E+00 1.0241301E+00 1.8506800E+00
 7.5602700E+00 9.9999958E-01 1.8450585E+00
 7.6146737E+00 9.7536840E-01 1.8378468E+00
 7.6681761E+00 9.5034003E-01 1.8288525E+00
 7.7204347E+00 9.2502672E-01 1.8179249E+00
 7.7711439E+00 8.9953214E-01 1.8049576E+00
 7.8200827E+00 8.7393820E-01 1.7898755E+00
 7.8672145E+00 8.4832759E-01 1.7725981E+00
 7.9128553E+00 8.2288836E-01 1.7529743E+00
 7.1801228E+00 1.1125504E+00 1.8703586E+00
 7.2335246E+00 1.0908777E+00 1.8686899E+00
 7.2872693E+00 1.0689966E+00 1.8665997E+00
 7.3414217E+00 1.0465953E+00 1.8639571E+00
 7.3959382E+00 1.0235921E+00 1.8605703E+00
 7.4506561E+00 9.9999957E-01 1.8562204E+00
 7.5053209E+00 9.7586904E-01 1.8506800E+00
 7.5596212E+00 9.5127693E-01 1.8437266E+00
 7.6132212E+00 9.2631828E-01 1.8351579E+00
 7.6657873E+00 9.0109623E-01 1.8248027E+00
 7.7170131E+00 8.7570475E-01 1.8125264E+00
 7.7666578E+00 8.5021268E-01 1.7982229E+00
 7.8146306E+00 8.2467455E-01 1.7817884E+00
 7.8611396E+00 7.9921578E-01 1.7630748E+00
 7.1804285E+00 1.0678728E+00 1.8749562E+00
 7.2339905E+00 1.0456153E+00 1.8722055E+00
 7.2877407E+00 1.0230598E+00 1.8690024E+00
 7.3417391E+00 9.9999957E-01 1.8651893E+00
 7.3959382E+00 9.7640704E-01 1.8605703E+00
 7.4501734E+00 9.5232271E-01 1.8549338E+00
 7.5041929E+00 9.2781579E-01 1.8480662E+00
 7.5576961E+00 9.0297284E-01 1.8397636E+00
 7.6103676E+00 8.7788747E-01 1.8298428E+00
 7.6619063E+00 8.5264347E-01 1.8181475E+00
 7.7120580E+00 8.2729613E-01 1.8045449E+00
 7.7606795E+00 8.0187329E-01 1.7889073E+00
 7.8078645E+00 7.7644121E-01 1.7710821E+00
 7.1805832E+00 1.0226817E+00 1.8772810E+00
 7.2341471E+00 9.9999957E-01 1.8733864E+00
 7.2877407E+00 9.7693932E-01 1.8690024E+00
 7.3414217E+00 9.5340386E-01 1.8639571E+00
 7.3951419E+00 9.2941881E-01 1.8580580E+00
 7.4487395E+00 9.0504870E-01 1.8511058E+00
 7.5019725E+00 8.8037292E-01 1.8429031E+00
 7.5545590E+00 8.5547559E-01 1.8332630E+00
 7.6062122E+00 8.3042986E-01 1.8220161E+00
 7.6566710E+00 8.0527732E-01 1.8090078E+00
 7.7057435E+00 7.8002019E-01 1.7940883E+00
 7.7534058E+00 7.5466981E-01 1.7770945E+00
 7.1805832E+00 9.7731739E-01 1.8772810E+00
 7.2339905E+00 9.5438380E-01 1.8722055E+00
 7.2872693E+00 9.3100252E-01 1.8665996E+00
 7.3404783E+00 9.0718668E-01 1.8602900E+00
 7.3935722E+00 8.8301144E-01 1.8530947E+00
 7.4463980E+00 8.5855807E-01 1.8448292E+00
 7.4987305E+00 8.3390397E-01 1.8353112E+00
 7.5503121E+00 8.0911192E-01 1.8243657E+00
 7.6008835E+00 7.8420976E-01 1.8118241E+00
 7.6502099E+00 7.5917530E-01 1.7975172E+00
 7.6981501E+00 7.3396916E-01 1.7812680E+00
 7.1804285E+00 9.3212634E-01 1.8749561E+00
 7.2335245E+00 9.0912147E-01 1.8686898E+00
 7.2863392E+00 8.8560917E-01 1.8618502E+00
 7.3389352E+00 8.6170945E-01 1.8542747E+00
 7.3912752E+00 8.3753966E-01 1.8457971E+00
 7.4432207E+00 8.1318599E-01 1.8362472E+00
 7.4945661E+00 7.8870523E-01 1.8254527E+00
 7.5450684E+00 7.6411221E-01 1.8132378E+00
 7.5944587E+00 7.3936165E-01 1.7994193E+00
 7.6424822E+00 7.1436788E-01 1.7838045E+00
 7.1801228E+00 8.8744879E-01 1.8703585E+00
 7.2327616E+00 8.6455239E-01 1.8629191E+00
 7.2849759E+00 8.4109638E-01 1.8548626E+00
 7.3368368E+00 8.1729954E-01 1.8460478E+00
 7.3883193E+00 7.9330912E-01 1.8363265E+00
 7.4392994E+00 7.6919750E-01 1.8255379E+00
 7.4895723E+00 7.4497267E-01 1.8135074E+00
 7.5388501E+00 7.2056868E-01 1.8000429E+00
 7.5867732E+00 6.9585792E-01 1.7849374E+00
 7.1796740E+00 8.4360600E-01 1.8635893E+00
 7.2317222E+00 8.2098935E-01 1.8550201E+00
 7.2832182E+00 7.9776408E-01 1.8457893E+00
 7.3342445E+00 7.7423289E-01 1.8357842E+00
 7.3847851E+00 7.5055339E-01 1.8248719E+00
 7.4347037E+00 7.2675440E-01 1.8128895E+00
 7.4837150E+00 7.0275785E-01 1.7996439E+00
 7.5313702E+00 6.7839977E-01 1.7849159E+00
 7.1790943E+00 8.0088899E-01 1.8547924E+00
 7.2304366E+00 7.7870609E-01 1.8451584E+00
 7.2811177E+00 7.5585987E-01 1.8348148E+00
 7.3312261E+00 7.3271402E-01 1.8236799E+00
 7.3807186E+00 7.0940271E-01 1.8116257E+00
 7.4293434E+00 6.8587029E-01 1.7984705E+00
 7.4765873E+00 6.6192958E-01 1.7839897E+00
 7.1784012E+00 7.5954823E-01 1.8441454E+00
 7.2289441E+00 7.3792582E-01 1.8335262E+00
 7.2787278E+00 7.1556168E-01 1.8221394E+00
 7.3278021E+00 6.9284227E-01 1.8099273E+00
 7.3759748E+00 6.6983394E-01 1.7967512E+00
 7.4226983E+00 6.4636773E-01 1.7823960E+00
 7.1776180E+00 7.1978595E-01 1.8318487E+00
 7.2272839E+00 6.9880654E-01 1.8203278E+00
 7.2760543E+00 6.7694868E-01 1.8079556E+00
 7.3237864E+00 6.5456554E-01 1.7946836E+00
 7.3699292E+00 6.3162708E-01 1.7803486E+00
 7.1767698E+00 6.8175528E-01 1.8181158E+00
 7.2254515E+00 6.6141443E-01 1.8057573E+00
 7.2728727E+00 6.3993690E-01 1.7924112E+00
 7.3184625E+00 6.1761711E-01 1.7780287E+00
 7.1758521E+00 6.4554048E-01 1.8031564E+00
 7.2232612E+00 6.2568635E-01 1.7899735E+00
 7.2684308E+00 6.0423402E-01 1.7755728E+00
 7.1747396E+00 6.1110950E-01 1.7871489E+00
 7.2199195E+00 5.9127648E-01 1.7730210E+00
 7.1730344E+00 5.7835157E-01 1.7702552E+00
 7.1015074E+00 1.4865388E+00 1.7381339E+00
 7.0731901E+00 1.5116436E+00 1.7240330E+00
 7.0435486E+00 1.5375876E+00 1.7083732E+00
 7.0127146E+00 1.5642166E+00 1.6910721E+00
 6.9808266E+00 1.5913859E+00 1.6720282E+00
 6.9480653E+00 1.6189282E+00 1.6511292E+00
 6.9146158E+00 1.6466608E+00 1.6282506E+00
 6.8806939E+00 1.6743566E+00 1.6032787E+00
 6.8465447E+00 1.7017427E+00 1.5761208E+00
 6.8124316E+00 1.7285038E+00 1.5467195E+00
 6.7786245E+00 1.7542932E+00 1.5150662E+00
 6.7453874E+00 1.7787497E+00 1.4812116E+00
 6.7129701E+00 1.8015182E+00 1.4452747E+00
 6.6816016E+00 1.8222708E+00 1.4074469E+00
 6.6514864E+00 1.8407292E+00 1.3679880E+00
 6.6228017E+00 1.8566821E+00 1.3272148E+00
 6.5956947E+00 1.8699976E+00 1.2854850E+00
 6.5702803E+00 1.8806263E+00 1.2431778E+00
 6.5466415E+00 1.8885982E+00 1.2006741E+00
 6.5248355E+00 1.8940132E+00 1.1583438E+00
 6.5049141E+00 1.8970289E+00 1.1165609E+00
 6.4869105E+00 1.8978468E+00 1.0756786E+00
 6.4709001E+00 1.8967153E+00 1.0362617E+00
 6.0318217E+00 1.0663516E+00 1.5807698E+00
 6.0279563E+00 1.1094252E+00 1.5684490E+00
 6.0254195E+00 1.1534290E+00 1.5542823E+00
 6.0246623E+00 1.1985855E+00 1.5385758E+00
 6.0259627E+00 1.2448585E+00 1.5213856E+00
 6.0295327E+00 1.2920792E+00 1.5026912E+00
 6.0355598E+00 1.3400070E+00 1.4824642E+00
 6.0442163E+00 1.3883473E+00 1.4606992E+00
 6.0556520E+00 1.4367546E+00 1.4374217E+00
 6.0699846E+00 1.4848381E+00 1.4126903E+00
 6.0872885E+00 1.5321698E+00 1.3865986E+00
 6.1075854E+00 1.5782943E+00 1.3592748E+00
 6.1308354E+00 1.6227415E+00 1.3308819E+00
 6.1569307E+00 1.6650421E+00 1.3016162E+00
 6.1856912E+00 1.7047456E+00 1.2717043E+00
 6.2168662E+00 1.7414422E+00 1.2413973E+00
 6.2501401E+00 1.7747832E+00 1.2109650E+00
 6.2851476E+00 1.8045045E+00 1.1806852E+00
 6.3214853E+00 1.8304398E+00 1.1508336E+00
 6.3587254E+00 1.8525301E+00 1.1216501E+00
 6.3964295E+00 1.8708321E+00 1.0932393E+00
 6.4340687E+00 1.8854934E+00 1.0653712E+00
 6.0560673E+00 1.0942499E+00 1.6112496E+00
 6.0535055E+00 1.1396412E+00 1.5990407E+00
 6.0522508E+00 1.1853988E+00 1.5847638E+00
 6.0528808E+00 1.2320363E+00 1.5688262E+00
 6.0557160E+00 1.2796103E+00 1.5513024E+00
 6.0609732E+00 1.3279654E+00 1.5321589E+00
 6.0688318E+00 1.3768359E+00 1.5113575E+00
 6.0794494E+00 1.4258834E+00 1.4888906E+00
 6.0929540E+00 1.4747131E+00 1.4647894E+00
 6.1094324E+00 1.5228852E+00 1.4391249E+00
 6.1289182E+00 1.5699262E+00 1.4120080E+00
 6.1513823E+00 1.6153433E+00 1.3835900E+00
 6.1767252E+00 1.6586417E+00 1.3540616E+00
 6.2047723E+00 1.6993442E+00 1.3236503E+00
 6.2352758E+00 1.7370152E+00 1.2926150E+00
 6.2679218E+00 1.7712844E+00 1.2612396E+00
 6.3023485E+00 1.8018728E+00 1.2298200E+00
 6.3381673E+00 1.8286108E+00 1.1986442E+00
 6.3749825E+00 1.8514504E+00 1.1679356E+00
 6.4123872E+00 1.8704686E+00 1.1377159E+00
 6.4499106E+00 1.8858541E+00 1.1074648E+00
 6.0837563E+00 1.1225691E+00 1.6418039E+00
 6.0825208E+00 1.1696846E+00 1.6294929E+00
 6.0826696E+00 1.2170162E+00 1.6150060E+00
 6.0848291E+00 1.2650535E+00 1.5987321E+00
 6.0893440E+00 1.3138603E+00 1.5807378E+00
 6.0964293E+00 1.3632556E+00 1.5609793E+00
 6.1062524E+00 1.4129317E+00 1.5394150E+00
 6.1189498E+00 1.4624995E+00 1.5160417E+00
 6.1346189E+00 1.5115116E+00 1.4909019E+00
 6.1533052E+00 1.5594780E+00 1.4640853E+00
 6.1749906E+00 1.6058835E+00 1.4357280E+00
 6.1995841E+00 1.6502064E+00 1.4060128E+00
 6.2269169E+00 1.6919412E+00 1.3751661E+00
 6.2567442E+00 1.7306242E+00 1.3434543E+00
 6.2887528E+00 1.7658615E+00 1.3111748E+00
 6.3225810E+00 1.7973550E+00 1.2786434E+00
 6.3578456E+00 1.8249271E+00 1.2461679E+00
 6.3941597E+00 1.8485306E+00 1.2139893E+00
 6.4311274E+00 1.8682587E+00 1.1821196E+00
 6.4682628E+00 1.8843288E+00 1.1500569E+00
 6.1151498E+00 1.1516075E+00 1.6719369E+00
 6.1153301E+00 1.2001547E+00 1.6593392E+00
 6.1170223E+00 1.2488454E+00 1.6444971E+00
 6.1208731E+00 1.2981031E+00 1.6277461E+00
 6.1272248E+00 1.3479402E+00 1.6091244E+00
 6.1362793E+00 1.3981299E+00 1.5885783E+00
 6.1481816E+00 1.4483123E+00 1.5660675E+00
 6.1630364E+00 1.4980445E+00 1.5415993E+00
 6.1808988E+00 1.5468275E+00 1.5152353E+00
 6.2017611E+00 1.5941281E+00 1.4870916E+00
 6.2255411E+00 1.6394010E+00 1.4573387E+00
 6.2520781E+00 1.6821146E+00 1.4261989E+00
 6.2811316E+00 1.7217787E+00 1.3939432E+00
 6.3123922E+00 1.7579757E+00 1.3608811E+00
 6.3455003E+00 1.7903880E+00 1.3273483E+00
 6.3800781E+00 1.8188260E+00 1.2936771E+00
 6.4157469E+00 1.8432400E+00 1.2601385E+00
 6.4521179E+00 1.8637306E+00 1.2267885E+00
 6.4887003E+00 1.8805429E+00 1.1932070E+00
 6.1505064E+00 1.1812692E+00 1.7011347E+00
 6.1522190E+00 1.2310178E+00 1.6880675E+00
 6.1556078E+00 1.2808369E+00 1.6727077E+00