# TIME = 13.700000
variables = x, y, z
zone N=5762 E=11520 F=FEPOINT ET=TRIANGLE
 2.3150531E+00 1.4628302E+00 1.7487044E+00
 2.3150531E+00 1.4628298E+00 2.5129500E-01
 2.3150531E+00 5.3716968E-01 1.7487045E+00
 2.3150531E+00 5.3717014E-01 2.5129485E-01
 1.2093415E+00 9.9999995E-01 1.5711832E+00
 3.4640250E+00 9.9999998E-01 1.5784894E+00
 1.2093402E+00 9.9999997E-01 4.2881441E-01
 3.4640245E+00 9.9999998E-01 4.2150971E-01
 1.6412397E+00 1.8903935E+00 9.9999924E-01
 1.6412397E+00 1.0960684E-01 9.9999934E-01
 2.9745597E+00 1.8075978E+00 9.9999927E-01
 2.9745597E+00 1.9240201E-01 9.9999931E-01
 2.2700026E+00 1.4561294E+00 1.7573583E+00
 2.2201668E+00 1.4486443E+00 1.7669944E+00
 2.1679529E+00 1.4407592E+00 1.7771497E+00
 2.1140087E+00 1.4323794E+00 1.7876866E+00
 2.0588570E+00 1.4233373E+00 1.7983874E+00
 2.0030305E+00 1.4133973E+00 1.8089170E+00
 1.9469728E+00 1.4022874E+00 1.8188236E+00
 1.8910206E+00 1.3897284E+00 1.8275579E+00
 1.8353935E+00 1.3754611E+00 1.8345140E+00
 1.7802377E+00 1.3592729E+00 1.8390740E+00
 1.7256917E+00 1.3410229E+00 1.8406577E+00
 1.6719493E+00 1.3206623E+00 1.8387736E+00
 1.6192950E+00 1.2982468E+00 1.8330671E+00
 1.5681014E+00 1.2739384E+00 1.8233555E+00
 1.5187957E+00 1.2479941E+00 1.8096451E+00
 1.4718108E+00 1.2207422E+00 1.7921226E+00
 1.4275366E+00 1.1925551E+00 1.7711269E+00
 1.3862826E+00 1.1638195E+00 1.7471071E+00
 1.3482569E+00 1.1349106E+00 1.7205765E+00
 1.3135642E+00 1.1061713E+00 1.6920717E+00
 1.2822355E+00 1.0779164E+00 1.6621435E+00
 1.2542559E+00 1.0504299E+00 1.6313534E+00
 1.2296578E+00 1.0240472E+00 1.6003908E+00
 2.2646059E+00 5.7673909E-01 1.7767377E+00
 2.2129943E+00 5.8628924E-01 1.7871230E+00
 2.1596402E+00 5.9582138E-01 1.7976659E+00
 2.1049755E+00 6.0572155E-01 1.8083833E+00
 2.0494115E+00 6.1631561E-01 1.8191208E+00
 1.9934118E+00 6.2788963E-01 1.8295428E+00
 1.9373880E+00 6.4072114E-01 1.8391776E+00
 1.8816364E+00 6.5506042E-01 1.8474562E+00
 1.8263447E+00 6.7111550E-01 1.8537610E+00
 1.7716407E+00 6.8903516E-01 1.8574763E+00
 1.7176580E+00 7.0889256E-01 1.8580393E+00
 1.6645942E+00 7.3067193E-01 1.8549912E+00
 1.6127374E+00 7.5426298E-01 1.8480218E+00
 1.5624569E+00 7.7946463E-01 1.8369998E+00
 1.5141653E+00 8.0599970E-01 1.8219821E+00
 1.4682694E+00 8.3353735E-01 1.8031986E+00
 1.4251227E+00 8.6171858E-01 1.7810178E+00
 1.3849883E+00 8.9017874E-01 1.7558972E+00
 1.3480180E+00 9.1856497E-01 1.7283300E+00
 1.3142442E+00 9.4654864E-01 1.6987912E+00
 1.2835725E+00 9.7382376E-01 1.6676761E+00
 1.2557531E+00 9.9999995E-01 1.6352134E+00
 2.2622335E+00 6.1073688E-01 1.7945494E+00
 2.2085863E+00 6.2230791E-01 1.8054753E+00
 2.1538945E+00 6.3353840E-01 1.8162792E+00
 2.0982815E+00 6.4506986E-01 1.8271055E+00
 2.0421255E+00 6.5730624E-01 1.8377988E+00
 1.9858228E+00 6.7058323E-01 1.8480198E+00
 1.9297268E+00 6.8517283E-01 1.8572779E+00
 1.8740848E+00 7.0129205E-01 1.8649887E+00
 1.8190468E+00 7.1909703E-01 1.8705294E+00
 1.7647194E+00 7.3867657E-01 1.8732919E+00
 1.7112290E+00 7.6004328E-01 1.8727364E+00
 1.6587728E+00 7.8312707E-01 1.8684393E+00
 1.6076371E+00 8.0777508E-01 1.8601355E+00
 1.5581825E+00 8.3375975E-01 1.8477420E+00
 1.5107997E+00 8.6079446E-01 1.8313586E+00
 1.4658576E+00 8.8855433E-01 1.8112429E+00
 1.4236532E+00 9.1669665E-01 1.7877661E+00
 1.3843721E+00 9.4487710E-01 1.7613487E+00
 1.3480556E+00 9.7275802E-01 1.7323858E+00
 1.3145821E+00 9.9999994E-01 1.7011643E+00
 1.2835725E+00 1.0261761E+00 1.6676761E+00
 2.2605291E+00 6.4629742E-01 1.8111774E+00
 2.2055191E+00 6.5955501E-01 1.8222219E+00
 2.1496496E+00 6.7247572E-01 1.8331038E+00
 2.0931770E+00 6.8566927E-01 1.8438879E+00
 2.0364412E+00 6.9959992E-01 1.8544093E+00
 1.9798206E+00 7.1461187E-01 1.8643004E+00
 1.9236228E+00 7.3096282E-01 1.8730506E+00
 1.8680531E+00 7.4883080E-01 1.8800628E+00
 1.8132299E+00 7.6832185E-01 1.8847136E+00
 1.7592407E+00 7.8947023E-01 1.8864088E+00
 1.7062044E+00 8.1223673E-01 1.8846348E+00
 1.6543144E+00 8.3650725E-01 1.8790059E+00
 1.6038500E+00 8.6209720E-01 1.8693003E+00
 1.5551535E+00 8.8876193E-01 1.8554765E+00
 1.5085815E+00 9.1621151E-01 1.8376633E+00
 1.4644455E+00 9.4412673E-01 1.8161230E+00
 1.4229587E+00 9.7217192E-01 1.7911909E+00
 1.3841960E+00 9.9999994E-01 1.7632004E+00
 1.3480556E+00 1.0272419E+00 1.7323858E+00
 1.3142442E+00 1.0534512E+00 1.6987912E+00
 2.2592003E+00 6.8338840E-01 1.8264959E+00
 2.2031476E+00 6.9817566E-01 1.8374100E+00
 2.1463616E+00 7.1269881E-01 1.8481518E+00
 2.0891663E+00 7.2754478E-01 1.8587239E+00
 2.0319402E+00 7.4316797E-01 1.8689132E+00
 1.9750488E+00 7.5990387E-01 1.8783206E+00
 1.9187742E+00 7.7797926E-01 1.8864123E+00
 1.8632895E+00 7.9753073E-01 1.8925820E+00
 1.8086880E+00 8.1861630E-01 1.8962115E+00
 1.7550421E+00 8.4122252E-01 1.8967249E+00
 1.7024619E+00 8.6526672E-01 1.8936391E+00
 1.6511330E+00 8.9060028E-01 1.8866060E+00
 1.6013187E+00 9.1701533E-01 1.8754426E+00
 1.5533306E+00 9.4425522E-01 1.8601377E+00
 1.5074730E+00 9.7202504E-01 1.8408301E+00
 1.4639790E+00 9.9999993E-01 1.8177585E+00
 1.4229587E+00 1.0278279E+00 1.7911909E+00
 1.3843721E+00 1.0551228E+00 1.7613487E+00
 1.3480180E+00 1.0814349E+00 1.7283300E+00
 2.2581129E+00 7.2199544E-01 1.8403792E+00
 2.2012296E+00 7.3817835E-01 1.8509597E+00
 2.1437144E+00 7.5422351E-01 1.8613710E+00
 2.0859488E+00 7.7067083E-01 1.8715510E+00
 2.0283439E+00 7.8794675E-01 1.8812370E+00
 1.9712673E+00 8.0635387E-01 1.8899938E+00
 1.9149818E+00 8.2608051E-01 1.8972679E+00
 1.8596369E+00 8.4721931E-01 1.9024488E+00
 1.8053055E+00 8.6978426E-01 1.9049291E+00
 1.7520462E+00 8.9372041E-01 1.9041562E+00
 1.6999584E+00 9.1891000E-01 1.8996789E+00
 1.6492126E+00 9.4517770E-01 1.8911849E+00
 1.6000448E+00 9.7229762E-01 1.8785219E+00
 1.5527202E+00 9.9999994E-01 1.8616943E+00
 1.5074730E+00 1.0279748E+00 1.8408301E+00
 1.4644455E+00 1.0558731E+00 1.8161230E+00
 1.4236532E+00 1.0833032E+00 1.7877661E+00
 1.3849883E+00 1.1098211E+00 1.7558972E+00
 2.2571987E+00 7.6203474E-01 1.8526744E+00
 2.1996399E+00 7.7950435E-01 1.8627514E+00
 2.1415502E+00 7.9698430E-01 1.8726579E+00
 2.0833586E+00 8.1496045E-01 1.8822708E+00
 2.0255021E+00 8.3381589E-01 1.8912801E+00
 1.9683495E+00 8.5380931E-01 1.8992188E+00
 1.9121485E+00 8.7508435E-01 1.9055188E+00
 1.8570281E+00 8.9769066E-01 1.9095722E+00
 1.8030437E+00 9.2160230E-01 1.9107879E+00
 1.7502395E+00 9.4672993E-01 1.9086400E+00
 1.6986992E+00 9.7292794E-01 1.9027094E+00
 1.6485691E+00 9.9999994E-01 1.8927141E+00
 1.6000448E+00 1.0277023E+00 1.8785219E+00
 1.5533306E+00 1.0557447E+00 1.8601377E+00
 1.5085815E+00 1.0837884E+00 1.8376634E+00
 1.4658576E+00 1.1114455E+00 1.8112430E+00
 1.4251227E+00 1.1382813E+00 1.7810178E+00
 2.2564292E+00 8.0337077E-01 1.8632216E+00
 2.1983245E+00 8.2202959E-01 1.8726479E+00
 2.1398039E+00 8.4084910E-01 1.8818888E+00
 2.0813304E+00 8.6026224E-01 1.8907679E+00
 2.0233586E+00 8.8059944E-01 1.8989339E+00
 1.9662541E+00 9.0206895E-01 1.9058949E+00
 1.9102492E+00 9.2476811E-01 1.9110760E+00
 1.8554540E+00 9.4870584E-01 1.9138784E+00
 1.8019067E+00 9.7382211E-01 1.9137320E+00
 1.7496345E+00 9.9999996E-01 1.9101389E+00
 1.6986992E+00 1.0270720E+00 1.9027094E+00
 1.6492126E+00 1.0548222E+00 1.8911850E+00
 1.6013187E+00 1.0829846E+00 1.8754426E+00
 1.5551535E+00 1.1112379E+00 1.8554765E+00
 1.5107997E+00 1.1392054E+00 1.8313586E+00
 1.4682694E+00 1.1664625E+00 1.8031986E+00
 2.2557966E+00 8.4582963E-01 1.8718694E+00
 2.1972747E+00 8.6557547E-01 1.8805125E+00
 2.1384666E+00 8.8562988E-01 1.8889402E+00
 2.0798584E+00 9.0637126E-01 1.8969307E+00
 2.0219122E+00 9.2807298E-01 1.9040993E+00
 1.9649854E+00 9.5089014E-01 1.9099379E+00
 1.9092931E+00 9.7487481E-01 1.9138726E+00
 1.8549269E+00 9.9999997E-01 1.9153194E+00
 1.8019067E+00 1.0261778E+00 1.9137320E+00
 1.7502395E+00 1.0532700E+00 1.9086400E+00
 1.6999585E+00 1.0810899E+00 1.8996789E+00
 1.6511331E+00 1.1093996E+00 1.8866060E+00
 1.6038500E+00 1.1379027E+00 1.8693003E+00
 1.5581825E+00 1.1662401E+00 1.8477420E+00
 1.5141653E+00 1.1940002E+00 1.8219821E+00
 2.2553068E+00 8.8920098E-01 1.8784840E+00
 2.1965036E+00 9.0992255E-01 1.8862247E+00
 2.1375556E+00 9.3109544E-01 1.8937059E+00
 2.0789615E+00 9.5304174E-01 1.9006680E+00
 2.0211815E+00 9.7597579E-01 1.9067019E+00
 1.9645598E+00 9.9999999E-01 1.9112921E+00
 1.9092931E+00 1.0251252E+00 1.9138726E+00
 1.8554540E+00 1.0512941E+00 1.9138784E+00
 1.8030438E+00 1.0783976E+00 1.9107879E+00
 1.7520463E+00 1.1062795E+00 1.9041561E+00
 1.7024620E+00 1.1347332E+00 1.8936391E+00
 1.6543145E+00 1.1634926E+00 1.8790060E+00
 1.6076372E+00 1.1922248E+00 1.8601355E+00
 1.5624569E+00 1.2205353E+00 1.8369998E+00
 2.2549712E+00 9.3324530E-01 1.8829572E+00
 2.1960308E+00 9.5482088E-01 1.8896914E+00
 2.1370932E+00 9.7698410E-01 1.8961090E+00
 2.0786598E+00 1.0000000E+00 1.9019206E+00
 2.0211815E+00 1.0240242E+00 1.9067019E+00
 1.9649854E+00 1.0491098E+00 1.9099379E+00
 1.9102492E+00 1.0752319E+00 1.9110760E+00
 1.8570281E+00 1.1023093E+00 1.9095722E+00
 1.8053056E+00 1.1302157E+00 1.9049291E+00
 1.7550421E+00 1.1587774E+00 1.8967249E+00
 1.7062045E+00 1.1877632E+00 1.8846348E+00
 1.6587728E+00 1.2168728E+00 1.8684393E+00
 1.6127375E+00 1.2457369E+00 1.8480218E+00
 2.2548004E+00 9.7770211E-01 1.8852133E+00
 2.1958713E+00 1.0000000E+00 1.8908536E+00
 2.1370932E+00 1.0230159E+00 1.8961090E+00
 2.0789615E+00 1.0469583E+00 1.9006680E+00
 2.0219122E+00 1.0719270E+00 1.9040993E+00
 1.9662542E+00 1.0979310E+00 1.9058949E+00
 1.9121485E+00 1.1249156E+00 1.9055188E+00
 1.8596369E+00 1.1527806E+00 1.9024488E+00
 1.8086881E+00 1.1813836E+00 1.8962115E+00
 1.7592408E+00 1.2105297E+00 1.8864088E+00
 1.7112291E+00 1.2399566E+00 1.8727364E+00
 1.6645943E+00 1.2693280E+00 1.8549912E+00
 2.2548004E+00 1.0222979E+00 1.8852133E+00
 2.1960308E+00 1.0451791E+00 1.8896914E+00
 2.1375556E+00 1.0689046E+00 1.8937059E+00
 2.0798584E+00 1.0936287E+00 1.8969307E+00
 2.0233586E+00 1.1194005E+00 1.8989339E+00
 1.9683496E+00 1.1461907E+00 1.8992188E+00
 1.9149819E+00 1.1739194E+00 1.8972678E+00
 1.8632896E+00 1.2024692E+00 1.8925820E+00
 1.8132300E+00 1.2316781E+00 1.8847136E+00
 1.7647195E+00 1.2613233E+00 1.8732919E+00
 1.7176581E+00 1.2911074E+00 1.8580393E+00
 2.2549712E+00 1.0667547E+00 1.8829572E+00
 2.1965037E+00 1.0900775E+00 1.8862247E+00
 2.1384666E+00 1.1143701E+00 1.8889401E+00
 2.0813305E+00 1.1397378E+00 1.8907679E+00
 2.0255021E+00 1.1661841E+00 1.8912801E+00
 1.9712673E+00 1.1936461E+00 1.8899938E+00
 1.9187743E+00 1.2220207E+00 1.8864123E+00
 1.8680533E+00 1.2511691E+00 1.8800627E+00
 1.8190469E+00 1.2809029E+00 1.8705293E+00
 1.7716408E+00 1.3109648E+00 1.8574762E+00
 2.2553068E+00 1.1107990E+00 1.8784840E+00
 2.1972747E+00 1.1344245E+00 1.8805124E+00
 2.1398039E+00 1.1591509E+00 1.8818887E+00
 2.0833586E+00 1.1850395E+00 1.8822708E+00
 2.0283440E+00 1.2120532E+00 1.8812369E+00
 1.9750489E+00 1.2400961E+00 1.8783206E+00
 1.9236229E+00 1.2690371E+00 1.8730506E+00
 1.8740849E+00 1.2987079E+00 1.8649887E+00
 1.8263449E+00 1.3288844E+00 1.8537609E+00
 2.2557966E+00 1.1541704E+00 1.8718694E+00
 2.1983245E+00 1.1779704E+00 1.8726479E+00
 2.1415502E+00 1.2030157E+00 1.8726579E+00
 2.0859488E+00 1.2293292E+00 1.8715509E+00
 2.0319403E+00 1.2568320E+00 1.8689131E+00
 1.9798207E+00 1.2853881E+00 1.8643003E+00
 1.9297269E+00 1.3148271E+00 1.8572778E+00
 1.8816365E+00 1.3449395E+00 1.8474561E+00
 2.2564292E+00 1.1966292E+00 1.8632215E+00
 2.1996399E+00 1.2204956E+00 1.8627514E+00
 2.1437144E+00 1.2457765E+00 1.8613709E+00
 2.0891664E+00 1.2724552E+00 1.8587238E+00
 2.0364413E+00 1.3004001E+00 1.8544092E+00
 1.9858229E+00 1.3294167E+00 1.8480197E+00
 1.9373881E+00 1.3592788E+00 1.8391775E+00
 2.2571987E+00 1.2379653E+00 1.8526744E+00
 2.2012296E+00 1.2618216E+00 1.8509596E+00
 2.1463616E+00 1.2873012E+00 1.8481518E+00
 2.0931770E+00 1.3143307E+00 1.8438878E+00
 2.0421255E+00 1.3426937E+00 1.8377987E+00
 1.9934119E+00 1.3721103E+00 1.8295427E+00
 2.2581129E+00 1.2780045E+00 1.8403791E+00
 2.2031476E+00 1.3018243E+00 1.8374099E+00
 2.1496496E+00 1.3275243E+00 1.8331037E+00
 2.0982815E+00 1.3549301E+00 1.8271054E+00
 2.0494116E+00 1.3836843E+00 1.8191207E+00
 2.2592003E+00 1.3166116E+00 1.8264958E+00
 2.2055191E+00 1.3404450E+00 1.8222218E+00
 2.1538945E+00 1.3664616E+00 1.8162791E+00
 2.1049756E+00 1.3942784E+00 1.8083832E+00
 2.2605290E+00 1.3537025E+00 1.8111773E+00
 2.2085863E+00 1.3776920E+00 1.8054752E+00
 2.1596402E+00 1.4041786E+00 1.7976658E+00
 2.2622335E+00 1.3892631E+00 1.7945493E+00
 2.2129943E+00 1.4137107E+00 1.7871229E+00
 2.2646059E+00 1.4232608E+00 1.7767376E+00
 2.3149049E+00 1.4344250E+00 1.7655719E+00
 2.3146770E+00 1.4022569E+00 1.7829983E+00
 2.3144397E+00 1.3682203E+00 1.7996096E+00
 2.3142171E+00 1.3324005E+00 1.8151829E+00
 2.3140205E+00 1.2949327E+00 1.8295030E+00
 2.3138534E+00 1.2559564E+00 1.8423706E+00
 2.3137146E+00 1.2156025E+00 1.8536114E+00
 2.3136022E+00 1.1740358E+00 1.8630628E+00
 2.3135147E+00 1.1314549E+00 1.8705794E+00
 2.3134517E+00 1.0880865E+00 1.8760402E+00
 2.3134137E+00 1.0441798E+00 1.8793544E+00
 2.3134009E+00 1.0000000E+00 1.8804656E+00
 2.3134137E+00 9.5582017E-01 1.8793545E+00
 2.3134517E+00 9.1191351E-01 1.8760403E+00
 2.3135147E+00 8.6854509E-01 1.8705794E+00
 2.3136022E+00 8.2596422E-01 1.8630628E+00
 2.3137146E+00 7.8439751E-01 1.8536114E+00
 2.3138534E+00 7.4404362E-01 1.8423707E+00
 2.3140205E+00 7.0506726E-01 1.8295031E+00
 2.3142171E+00 6.6759942E-01 1.8151830E+00
 2.3144397E+00 6.3177961E-01 1.7996097E+00
 2.3146770E+00 5.9774305E-01 1.7829984E+00
 2.3149050E+00 5.6557489E-01 1.7655720E+00
 2.3596621E+00 5.4773585E-01 1.7509913E+00
 2.4082692E+00 5.5933271E-01 1.7535073E+00
 2.4585431E+00 5.7133526E-01 1.7560691E+00
 2.5100416E+00 5.8375945E-01 1.7586150E+00
 2.5625545E+00 5.9667199E-01 1.7610453E+00
 2.6158975E+00 6.1017090E-01 1.7632328E+00
 2.6699158E+00 6.2436384E-01 1.7650180E+00
 2.7244340E+00 6.3935582E-01 1.7662132E+00
 2.7792561E+00 6.5524507E-01 1.7666106E+00
 2.8341624E+00 6.7211778E-01 1.7659903E+00
 2.8889113E+00 6.9004265E-01 1.7641305E+00
 2.9432415E+00 7.0906574E-01 1.7608177E+00
 2.9968768E+00 7.2920592E-01 1.7558574E+00
 3.0495319E+00 7.5045220E-01 1.7490846E+00
 3.1009194E+00 7.7276282E-01 1.7403720E+00
 3.1507563E+00 7.9606621E-01 1.7296370E+00
 3.1987720E+00 8.2026368E-01 1.7168460E+00
 3.2447156E+00 8.4523389E-01 1.7020145E+00
 3.2883625E+00 8.7083807E-01 1.6852068E+00
 3.3295179E+00 8.9692277E-01 1.6665311E+00
 3.3679954E+00 9.2329819E-01 1.6461499E+00
 3.4036140E+00 9.4972181E-01 1.6242794E+00
 3.4360980E+00 9.7578476E-01 1.6012846E+00
 2.3646186E+00 1.4191827E+00 1.7694948E+00
 2.4148652E+00 1.4057043E+00 1.7723215E+00
 2.4661653E+00 1.3923469E+00 1.7748995E+00
 2.5183225E+00 1.3787825E+00 1.7773058E+00
 2.5712583E+00 1.3647755E+00 1.7795097E+00
 2.6248565E+00 1.3501692E+00 1.7813982E+00
 2.6789719E+00 1.3348354E+00 1.7828124E+00
 2.7334371E+00 1.3186713E+00 1.7835579E+00
 2.7880587E+00 1.3015944E+00 1.7834195E+00
 2.8426187E+00 1.2835412E+00 1.7821721E+00
 2.8968764E+00 1.2644682E+00 1.7795939E+00
 2.9505725E+00 1.2443551E+00 1.7754764E+00
 3.0034343E+00 1.2232062E+00 1.7696362E+00
 3.0551831E+00 1.2010524E+00 1.7619232E+00
 3.1055416E+00 1.1779504E+00 1.7522287E+00
 3.1542423E+00 1.1539828E+00 1.7404896E+00
 3.2010380E+00 1.1292563E+00 1.7266876E+00
 3.2457170E+00 1.1039018E+00 1.7108440E+00
 3.2881150E+00 1.0780750E+00 1.6930101E+00
 3.3281357E+00 1.0519617E+00 1.6732474E+00
 3.3657893E+00 1.0257944E+00 1.6515882E+00
 3.4012812E+00 9.9999998E-01 1.6279580E+00
 2.3664799E+00 1.3853183E+00 1.7868323E+00
 2.4186758E+00 1.3700144E+00 1.7897245E+00
 2.4712369E+00 1.3552626E+00 1.7921745E+00
 2.5243062E+00 1.3404520E+00 1.7943547E+00
 2.5778592E+00 1.3252657E+00 1.7962474E+00
 2.6318447E+00 1.3094843E+00 1.7977499E+00
 2.6861547E+00 1.2929636E+00 1.7986979E+00
 2.7406427E+00 1.2756039E+00 1.7988903E+00
 2.7951280E+00 1.2573376E+00 1.7981055E+00
 2.8494003E+00 1.2381215E+00 1.7961164E+00
 2.9032243E+00 1.2179341E+00 1.7927037E+00
 2.9563458E+00 1.1967751E+00 1.7876666E+00
 3.0084995E+00 1.1746666E+00 1.7808334E+00
 3.0594187E+00 1.1516525E+00 1.7720682E+00
 3.1088463E+00 1.1277982E+00 1.7612762E+00
 3.1565477E+00 1.1031917E+00 1.7484021E+00
 3.2023306E+00 1.0779456E+00 1.7334225E+00
 3.2460714E+00 1.0522014E+00 1.7163273E+00
 3.2877523E+00 1.0261385E+00 1.6970886E+00
 3.3275075E+00 9.9999999E-01 1.6756113E+00
 3.3657893E+00 9.7420555E-01 1.6515882E+00
 2.3676854E+00 1.3499967E+00 1.8030734E+00
 2.4211895E+00 1.3332974E+00 1.8057072E+00
 2.4748720E+00 1.3172050E+00 1.8078811E+00
 2.5287783E+00 1.3011525E+00 1.8097155E+00
 2.5829403E+00 1.2847566E+00 1.8111945E+00
 2.6373225E+00 1.2677771E+00 1.8122060E+00
 2.6918430E+00 1.2500602E+00 1.8125782E+00
 2.7463722E+00 1.2315141E+00 1.8121023E+00
 2.8007413E+00 1.2120856E+00 1.8105529E+00
 2.8547481E+00 1.1917492E+00 1.8077032E+00
 2.9081645E+00 1.1705009E+00 1.8033388E+00
 2.9607445E+00 1.1483559E+00 1.7972678E+00
 3.0122356E+00 1.1253476E+00 1.7893295E+00
 3.0623921E+00 1.1015282E+00 1.7793982E+00
 3.1109932E+00 1.0769694E+00 1.7673831E+00
 3.1578644E+00 1.0517677E+00 1.7532194E+00
 3.2029088E+00 1.0260523E+00 1.7368495E+00
 3.2461432E+00 9.9999999E-01 1.7181917E+00
 3.2877523E+00 9.7386143E-01 1.6970886E+00
 3.3281357E+00 9.4803829E-01 1.6732474E+00
 2.3685660E+00 1.3132124E+00 1.8180581E+00
 2.4230754E+00 1.2953347E+00 1.8202397E+00
 2.4776337E+00 1.2780419E+00 1.8219722E+00
 2.5322487E+00 1.2607947E+00 1.8233319E+00
 2.5869307E+00 1.2432163E+00 1.8242763E+00
 2.6416539E+00 1.2250596E+00 1.8246783E+00
 2.6963444E+00 1.2061776E+00 1.8243545E+00
 2.7508833E+00 1.1864892E+00 1.8230892E+00
 2.8051105E+00 1.1659562E+00 1.8206550E+00
 2.8588322E+00 1.1445682E+00 1.8168279E+00
 2.9118294E+00 1.1223345E+00 1.8113996E+00
 2.9638692E+00 1.0992806E+00 1.8041871E+00
 3.0147193E+00 1.0754478E+00 1.7950376E+00
 3.0641692E+00 1.0508953E+00 1.7838281E+00
 3.1120558E+00 1.0257064E+00 1.7704591E+00
 3.1582933E+00 9.9999999E-01 1.7548374E+00
 3.2029088E+00 9.7394769E-01 1.7368495E+00
 3.2460714E+00 9.4779861E-01 1.7163273E+00
 3.2881151E+00 9.2192493E-01 1.6930101E+00
 2.3692667E+00 1.2749619E+00 1.8316471E+00
 2.4245814E+00 1.2560870E+00 1.8332175E+00
 2.4798400E+00 1.2377168E+00 1.8343647E+00
 2.5350190E+00 1.2193600E+00 1.8351167E+00
 2.5901094E+00 1.2006600E+00 1.8354007E+00
 2.6450797E+00 1.1813856E+00 1.8350692E+00
 2.6998597E+00 1.1614038E+00 1.8339269E+00
 2.7543363E+00 1.1406489E+00 1.8317526E+00
 2.8083573E+00 1.1190967E+00 1.8283190E+00
 2.8617382E+00 1.0967489E+00 1.8234061E+00
 2.9142731E+00 1.0736241E+00 1.8168126E+00
 2.9657489E+00 1.0497549E+00 1.8083619E+00
 3.0159650E+00 1.0251896E+00 1.7979040E+00
 3.0647622E+00 9.9999999E-01 1.7853099E+00
 3.1120558E+00 9.7429354E-01 1.7704591E+00
 3.1578644E+00 9.4823232E-01 1.7532194E+00
 3.2023306E+00 9.2205442E-01 1.7334225E+00
 3.2457170E+00 8.9609822E-01 1.7108440E+00
 2.3698561E+00 1.2353197E+00 1.8436824E+00
 2.4258299E+00 1.2155950E+00 1.8445120E+00
 2.4816442E+00 1.1962687E+00 1.8449452E+00
 2.5372500E+00 1.1769008E+00 1.8449641E+00
 2.5926225E+00 1.1571671E+00 1.8444646E+00
 2.6477241E+00 1.1368621E+00 1.8432793E+00
 2.7024859E+00 1.1158735E+00 1.8412018E+00
 2.7568008E+00 1.0941523E+00 1.8380075E+00
 2.8105252E+00 1.0716869E+00 1.8334710E+00
 2.8634873E+00 1.0484876E+00 1.8273773E+00
 2.9154997E+00 1.0245790E+00 1.8195305E+00
 2.9663776E+00 9.9999999E-01 1.8097571E+00
 3.0159650E+00 9.7481036E-01 1.7979040E+00
 3.0641692E+00 9.4910468E-01 1.7838281E+00
 3.1109932E+00 9.2303060E-01 1.7673831E+00
 3.1565477E+00 8.9680823E-01 1.7484021E+00
 3.2010380E+00 8.7074371E-01 1.7266876E+00
 2.3703593E+00 1.1944154E+00 1.8540038E+00
 2.4268697E+00 1.1739694E+00 1.8539861E+00
 2.4831057E+00 1.1538080E+00 1.8535924E+00
 2.5390019E+00 1.1335385E+00 1.8527639E+00
 2.5945221E+00 1.1128769E+00 1.8513675E+00
 2.6496258E+00 1.0916488E+00 1.8492178E+00
 2.7042475E+00 1.0697659E+00 1.8460999E+00
 2.7582875E+00 1.0471950E+00 1.8417882E+00
 2.8116141E+00 1.0239344E+00 1.8360601E+00
 2.8640724E+00 9.9999999E-01 1.8287050E+00
 2.9154997E+00 9.7542096E-01 1.8195305E+00
 2.9657489E+00 9.5024512E-01 1.8083619E+00
 3.0147193E+00 9.2455218E-01 1.7950376E+00
 3.0623921E+00 8.9847179E-01 1.7793982E+00
 3.1088463E+00 8.7220173E-01 1.7612762E+00
 3.1542423E+00 8.4601719E-01 1.7404896E+00
 2.3707799E+00 1.1524173E+00 1.8624631E+00
 2.4277057E+00 1.1313763E+00 1.8615095E+00
 2.4842302E+00 1.1105024E+00 1.8601921E+00
 2.5402775E+00 1.0894505E+00 1.8584160E+00
 2.5958068E+00 1.0679796E+00 1.8560226E+00
 2.6507789E+00 1.0459498E+00 1.8528120E+00
 2.7051347E+00 1.0232964E+00 1.8485640E+00
 2.7587853E+00 9.9999999E-01 1.8430532E+00
 2.8116141E+00 9.7606558E-01 1.8360601E+00
 2.8634873E+00 9.5151241E-01 1.8273773E+00
 2.9142731E+00 9.2637587E-01 1.8168126E+00
 2.9638692E+00 9.0071938E-01 1.8041871E+00
 3.0122356E+00 8.7465235E-01 1.7893295E+00
 3.0594187E+00 8.4834747E-01 1.7720683E+00
 3.1055416E+00 8.2204952E-01 1.7522288E+00
 2.3711102E+00 1.1095299E+00 1.8689306E+00
 2.4283235E+00 1.0880224E+00 1.8669702E+00
 2.4849989E+00 1.0665632E+00 1.8646491E+00
 2.5410567E+00 1.0448554E+00 1.8618412E+00
 2.5964568E+00 1.0227028E+00 1.8583668E+00
 2.6511659E+00 9.9999999E-01 1.8540155E+00
 2.7051347E+00 9.7670361E-01 1.8485640E+00
 2.7582875E+00 9.5280502E-01 1.8417882E+00
 2.8105252E+00 9.2831310E-01 1.8334710E+00
 2.8617382E+00 9.0325104E-01 1.8234062E+00
 2.9118294E+00 8.7766548E-01 1.8113997E+00
 2.9607445E+00 8.5164411E-01 1.7972678E+00
 3.0084995E+00 8.2533333E-01 1.7808334E+00
 3.0551831E+00 7.9894758E-01 1.7619232E+00
 2.3713385E+00 1.0659863E+00 1.8733029E+00
 2.4287038E+00 1.0441446E+00 1.8702824E+00
 2.4853901E+00 1.0222319E+00 1.8668953E+00
 2.5413191E+00 9.9999999E-01 1.8629887E+00
 2.5964568E+00 9.7729714E-01 1.8583668E+00
 2.6507789E+00 9.5405018E-01 1.8528121E+00
 2.7042475E+00 9.3023412E-01 1.8460999E+00
 2.7568008E+00 9.0584769E-01 1.8380076E+00
 2.8083573E+00 8.8090325E-01 1.8283190E+00
 2.8588322E+00 8.5543174E-01 1.8168279E+00
 2.9081645E+00 8.2949906E-01 1.8033388E+00
 2.9563458E+00 8.0322482E-01 1.7876667E+00
 3.0034343E+00 7.7679376E-01 1.7696362E+00
 2.3714554E+00 1.0220406E+00 1.8755076E+00
 2.4288324E+00 1.0000000E+00 1.8713926E+00
 2.4853901E+00 9.7776804E-01 1.8668953E+00
 2.5410567E+00 9.5514457E-01 1.8618412E+00
 2.5958068E+00 9.3202040E-01 1.8560227E+00
 2.6496258E+00 9.0835116E-01 1.8492178E+00
 2.7024859E+00 8.8412645E-01 1.8412018E+00
 2.7543363E+00 8.5935107E-01 1.8317527E+00
 2.8051105E+00 8.3404373E-01 1.8206551E+00
 2.8547481E+00 8.0825075E-01 1.8077033E+00
 2.9032243E+00 7.8206589E-01 1.7927038E+00
 2.9505725E+00 7.5564489E-01 1.7754765E+00
 2.3714554E+00 9.7795939E-01 1.8755076E+00
 2.4287038E+00 9.5585536E-01 1.8702824E+00
 2.4849989E+00 9.3343682E-01 1.8646491E+00
 2.5402775E+00 9.1054951E-01 1.8584161E+00
 2.5945221E+00 8.8712309E-01 1.8513676E+00
 2.6477241E+00 8.6313791E-01 1.8432794E+00
 2.6998597E+00 8.3859613E-01 1.8339269E+00
 2.7508833E+00 8.1351078E-01 1.8230892E+00
 2.8007413E+00 7.8791436E-01 1.8105530E+00
 2.8494003E+00 7.6187843E-01 1.7961165E+00
 2.8968764E+00 7.3553174E-01 1.7795939E+00
 2.3713385E+00 9.3401367E-01 1.8733029E+00
 2.4283235E+00 9.1197763E-01 1.8669702E+00
 2.4842302E+00 8.8949763E-01 1.8601922E+00
 2.5390019E+00 8.6646144E-01 1.8527640E+00
 2.5926225E+00 8.4283285E-01 1.8444647E+00
 2.6450797E+00 8.1861433E-01 1.8350693E+00
 2.6963444E+00 7.9382237E-01 1.8243545E+00
 2.7463722E+00 7.6848586E-01 1.8121024E+00
 2.7951280E+00 7.4266234E-01 1.7981056E+00
 2.8426187E+00 7.1645879E-01 1.7821722E+00
 2.3711102E+00 8.9047013E-01 1.8689307E+00
 2.4277057E+00 8.6862373E-01 1.8615096E+00
 2.4831058E+00 8.4619203E-01 1.8535925E+00
 2.5372500E+00 8.2309922E-01 1.8449642E+00
 2.5901094E+00 7.9933996E-01 1.8354007E+00
 2.6416539E+00 7.7494037E-01 1.8246784E+00
 2.6918430E+00 7.4993972E-01 1.8125783E+00
 2.7406427E+00 7.2439609E-01 1.7988904E+00
 2.7880587E+00 6.9840551E-01 1.7834195E+00
 2.3707800E+00 8.4758267E-01 1.8624631E+00
 2.4268697E+00 8.2603059E-01 1.8539862E+00
 2.4816442E+00 8.0373130E-01 1.8449453E+00
 2.5350190E+00 7.8063999E-01 1.8351168E+00
 2.5869308E+00 7.5678369E-01 1.8242764E+00
 2.6373225E+00 7.3222291E-01 1.8122061E+00
 2.6861548E+00 7.0703636E-01 1.7986980E+00
 2.7334371E+00 6.8132860E-01 1.7835580E+00
 2.3703593E+00 8.0558457E-01 1.8540038E+00
 2.4258299E+00 7.8440497E-01 1.8445120E+00
 2.4798400E+00 7.6228319E-01 1.8343648E+00
 2.5322488E+00 7.3920527E-01 1.8233320E+00
 2.5829403E+00 7.1524340E-01 1.8111946E+00
 2.6318447E+00 6.9051567E-01 1.7977499E+00
 2.6789719E+00 6.6516453E-01 1.7828125E+00
 2.3698561E+00 7.6468027E-01 1.8436824E+00
 2.4245814E+00 7.4391298E-01 1.8332175E+00
 2.4776337E+00 7.2195806E-01 1.8219723E+00
 2.5287783E+00 6.9884749E-01 1.8097155E+00
 2.5778592E+00 6.7473426E-01 1.7962475E+00
 2.6248566E+00 6.4983071E-01 1.7813983E+00
 2.3692667E+00 7.2503810E-01 1.8316472E+00
 2.4230755E+00 7.0466530E-01 1.8202398E+00
 2.4748721E+00 6.8279500E-01 1.8078812E+00
 2.5243062E+00 6.5954796E-01 1.7943548E+00
 2.5712584E+00 6.3522441E-01 1.7795098E+00
 2.3685661E+00 6.8678756E-01 1.8180582E+00
 2.4211896E+00 6.6670255E-01 1.8057073E+00
 2.4712369E+00 6.4473736E-01 1.7921746E+00
 2.5183225E+00 6.2121740E-01 1.7773059E+00
 2.3676854E+00 6.5000331E-01 1.8030735E+00
 2.4186758E+00 6.2998551E-01 1.7897246E+00
 2.4661653E+00 6.0765302E-01 1.7748996E+00
 2.3664800E+00 6.1468162E-01 1.7868324E+00
 2.4148653E+00 5.9429562E-01 1.7723216E+00
 2.3646186E+00 5.8081727E-01 1.7694949E+00
 2.2871966E+00 1.4865227E+00 1.7363837E+00
 2.2562716E+00 1.5124530E+00 1.7218988E+00
 2.2239865E+00 1.5390497E+00 1.7059220E+00
 2.1906171E+00 1.5660976E+00 1.6884184E+00
 2.1564029E+00 1.5934546E+00 1.6692962E+00
 2.1216238E+00 1.6209685E+00 1.6484362E+00
 2.0865495E+00 1.6484677E+00 1.6257086E+00
 2.0514611E+00 1.6757356E+00 1.6009972E+00
 2.0166389E+00 1.7025162E+00 1.5742101E+00
 1.9823463E+00 1.7285237E+00 1.5452905E+00
 1.9488196E+00 1.7534558E+00 1.5142282E+00
 1.9162621E+00 1.7770090E+00 1.4810659E+00
 1.8848447E+00 1.7988942E+00 1.4459033E+00
 1.8547084E+00 1.8188511E+00 1.4088972E+00
 1.8259684E+00 1.8366608E+00 1.3702563E+00
 1.7987203E+00 1.8521547E+00 1.3302320E+00
 1.7730431E+00 1.8652212E+00 1.2891073E+00
 1.7490023E+00 1.8758060E+00 1.2471866E+00
 1.7266484E+00 1.8839111E+00 1.2047849E+00
 1.7060136E+00 1.8895880E+00 1.1622208E+00
 1.6871135E+00 1.8929297E+00 1.1198396E+00
 1.6699305E+00 1.8940585E+00 1.0780143E+00
 1.6544879E+00 1.8931436E+00 1.0374064E+00
 1.2253871E+00 1.0699861E+00 1.5908934E+00
 1.2216625E+00 1.1154178E+00 1.5784058E+00
 1.2194638E+00 1.1614844E+00 1.5640456E+00
 1.2191260E+00 1.2082485E+00 1.5480296E+00
 1.2208715E+00 1.2556435E+00 1.5304182E+00
 1.2248930E+00 1.3035207E+00 1.5112466E+00
 1.2313551E+00 1.3516640E+00 1.4905415E+00
 1.2403925E+00 1.3998035E+00 1.4683314E+00
 1.2521061E+00 1.4476230E+00 1.4446570E+00
 1.2665607E+00 1.4947701E+00 1.4195799E+00
 1.2837818E+00 1.5408668E+00 1.3931895E+00
 1.3037516E+00 1.5855203E+00 1.3656072E+00
 1.3264052E+00 1.6283352E+00 1.3369862E+00
 1.3516294E+00 1.6689279E+00 1.3075108E+00
 1.3792622E+00 1.7069398E+00 1.2773926E+00
 1.4090954E+00 1.7420521E+00 1.2468640E+00
 1.4408788E+00 1.7739982E+00 1.2161707E+00
 1.4743298E+00 1.8025778E+00 1.1855586E+00
 1.5091380E+00 1.8276635E+00 1.1552595E+00
 1.5449767E+00 1.8492068E+00 1.1254620E+00
 1.5815113E+00 1.8672418E+00 1.0962523E+00
 1.6182817E+00 1.8818525E+00 1.0674707E+00
 1.2513840E+00 1.0991905E+00 1.6219372E+00
 1.2491866E+00 1.1471477E+00 1.6095404E+00
 1.2484486E+00 1.1950360E+00 1.5949946E+00
 1.2495841E+00 1.2431675E+00 1.5786114E+00
 1.2528676E+00 1.2915897E+00 1.5605165E+00
 1.2585124E+00 1.3402071E+00 1.5407736E+00
 1.2666818E+00 1.3888193E+00 1.5194195E+00
 1.2774925E+00 1.4371474E+00 1.4964855E+00
 1.2910174E+00 1.4848569E+00 1.4720153E+00
 1.3072871E+00 1.5315749E+00 1.4460777E+00
 1.3262887E+00 1.5769070E+00 1.4187749E+00
 1.3479641E+00 1.6204517E+00 1.3902460E+00
 1.3722098E+00 1.6618176E+00 1.3606659E+00
 1.3988758E+00 1.7006372E+00 1.3302413E+00
 1.4277701E+00 1.7365841E+00 1.2992023E+00
 1.4586619E+00 1.7693854E+00 1.2677908E+00
 1.4912906E+00 1.7988357E+00 1.2362407E+00
 1.5253741E+00 1.8248062E+00 1.2047509E+00
 1.5606221E+00 1.8472506E+00 1.1734414E+00
 1.5967421E+00 1.8662052E+00 1.1422811E+00
 1.6333907E+00 1.8817723E+00 1.1108727E+00
 1.2806580E+00 1.1284511E+00 1.6524370E+00
 1.2799383E+00 1.1781923E+00 1.6398277E+00
 1.2807180E+00 1.2276043E+00 1.6249376E+00
 1.2834113E+00 1.2769383E+00 1.6080666E+00
 1.2883198E+00 1.3262626E+00 1.5893689E+00
 1.2956643E+00 1.3754889E+00 1.5689241E+00
 1.3055975E+00 1.4244116E+00 1.5467762E+00
 1.3182123E+00 1.4727379E+00 1.5229620E+00
 1.3335492E+00 1.5201158E+00 1.4975333E+00
 1.3516014E+00 1.5661578E+00 1.4705729E+00
 1.3723173E+00 1.6104622E+00 1.4422021E+00
 1.3956007E+00 1.6526312E+00 1.4125827E+00
 1.4213128E+00 1.6922899E+00 1.3819128E+00
 1.4492753E+00 1.7291029E+00 1.3504185E+00
 1.4792752E+00 1.7627899E+00 1.3183384E+00
 1.5110706E+00 1.7931388E+00 1.2859009E+00
 1.5444004E+00 1.8200170E+00 1.2532893E+00
 1.5789889E+00 1.8433740E+00 1.2205990E+00
 1.6145557E+00 1.8632434E+00 1.1877601E+00
 1.6507769E+00 1.8797233E+00 1.1544343E+00
 1.3132617E+00 1.1579428E+00 1.6818348E+00
 1.3140184E+00 1.2089697E+00 1.6687889E+00
 1.3163546E+00 1.2595257E+00 1.6533836E+00
 1.3206698E+00 1.3097806E+00 1.6358872E+00
 1.3272659E+00 1.3597591E+00 1.6164543E+00
 1.3363566E+00 1.4093486E+00 1.5951700E+00
 1.3480733E+00 1.4583209E+00 1.5720842E+00
 1.3624784E+00 1.5063636E+00 1.5472428E+00
 1.3795763E+00 1.5531097E+00 1.5207128E+00
 1.3993225E+00 1.5981654E+00 1.4925971E+00
 1.4216280E+00 1.6411326E+00 1.4630414E+00
 1.4463637E+00 1.6816314E+00 1.4322319E+00
 1.4733631E+00 1.7193181E+00 1.4003888E+00
 1.5024288E+00 1.7539044E+00 1.3677479E+00
 1.5333348E+00 1.7851691E+00 1.3345388E+00
 1.5658349E+00 1.8129724E+00 1.3009465E+00
 1.5996625E+00 1.8372582E+00 1.2670697E+00
 1.6345349E+00 1.8580531E+00 1.2328643E+00
 1.6701342E+00 1.8754536E+00 1.1980829E+00
 1.3492488E+00 1.1875543E+00 1.7096312E+00
 1.3514826E+00 1.2394719E+00 1.6959444E+00
 1.3553977E+00 1.2908112E+00 1.6798491E+00