# TIME = 4.500000
variables = x, y, z
zone N=5762 E=11520 F=FEPOINT ET=TRIANGLE
 7.4432760E+00 1.4634192E+00 1.7496792E+00
 7.4432761E+00 1.4634192E+00 2.5032084E-01
 7.4432760E+00 5.3658006E-01 1.7496788E+00
 7.4432761E+00 5.3658000E-01 2.5032124E-01
 6.3329454E+00 9.9999948E-01 1.5626077E+00
 8.5859524E+00 9.9999949E-01 1.5796249E+00
 6.3329456E+00 9.9999948E-01 4.3739252E-01
 8.5859525E+00 9.9999949E-01 4.2037527E-01
 6.7732147E+00 1.8936417E+00 1.0000001E+00
 6.7732145E+00 1.0635648E-01 1.0000001E+00
 8.0944422E+00 1.8090782E+00 1.0000001E+00
 8.0944420E+00 1.9092136E-01 1.0000001E+00
 7.4016476E+00 1.4568818E+00 1.7579504E+00
 7.3556908E+00 1.4495366E+00 1.7671596E+00
 7.3072669E+00 1.4417248E+00 1.7769370E+00
 7.2566989E+00 1.4333675E+00 1.7872093E+00
 7.2042149E+00 1.4243413E+00 1.7978308E+00
 7.1500984E+00 1.4144586E+00 1.8085378E+00
 7.0946255E+00 1.4034705E+00 1.8189270E+00
 7.0380751E+00 1.3910820E+00 1.8284348E+00
 6.9807191E+00 1.3769758E+00 1.8363503E+00
 6.9228432E+00 1.3608509E+00 1.8418596E+00
 6.8647944E+00 1.3424721E+00 1.8441295E+00
 6.8070395E+00 1.3217231E+00 1.8424196E+00
 6.7501953E+00 1.2986490E+00 1.8362046E+00
 6.6949959E+00 1.2734694E+00 1.8252654E+00
 6.6422040E+00 1.2465552E+00 1.8097199E+00
 6.5925021E+00 1.2183761E+00 1.7899829E+00
 6.5464086E+00 1.1894375E+00 1.7666769E+00
 6.5042394E+00 1.1602247E+00 1.7405267E+00
 6.4661151E+00 1.1311669E+00 1.7122708E+00
 6.4319967E+00 1.1026224E+00 1.6825999E+00
 6.4017424E+00 1.0748958E+00 1.6521413E+00
 6.3751411E+00 1.0482395E+00 1.6214386E+00
 6.3519947E+00 1.0229155E+00 1.5910337E+00
 7.3968658E+00 5.7492112E-01 1.7767094E+00
 7.3492387E+00 5.8422226E-01 1.7866367E+00
 7.2996590E+00 5.9357630E-01 1.7967869E+00
 7.2482395E+00 6.0341072E-01 1.8072772E+00
 7.1951263E+00 6.1400875E-01 1.8180222E+00
 7.1405476E+00 6.2559083E-01 1.8287420E+00
 7.0847763E+00 6.3839700E-01 1.8389877E+00
 7.0280885E+00 6.5268978E-01 1.8481470E+00
 6.9707574E+00 6.6873296E-01 1.8554689E+00
 6.9130733E+00 6.8675387E-01 1.8601202E+00
 6.8553950E+00 7.0689810E-01 1.8612774E+00
 6.7982052E+00 7.2918698E-01 1.8582434E+00
 6.7421300E+00 7.5349024E-01 1.8505647E+00
 6.6878954E+00 7.7952702E-01 1.8381100E+00
 6.6362320E+00 8.0689781E-01 1.8210817E+00
 6.5877718E+00 8.3513964E-01 1.7999626E+00
 6.5429757E+00 8.6378488E-01 1.7754199E+00
 6.5021046E+00 8.9240794E-01 1.7481989E+00
 6.4652276E+00 9.2064767E-01 1.7190327E+00
 6.4322394E+00 9.4820127E-01 1.6885604E+00
 6.4028499E+00 9.7478049E-01 1.6572215E+00
 6.3765476E+00 9.9999948E-01 1.6251203E+00
 7.3950120E+00 6.0789843E-01 1.7940502E+00
 7.3456344E+00 6.1908705E-01 1.8044710E+00
 7.2948446E+00 6.3003698E-01 1.8148671E+00
 7.2424566E+00 6.4146997E-01 1.8255004E+00
 7.1885719E+00 6.5374135E-01 1.8362849E+00
 7.1333846E+00 6.6710096E-01 1.8469197E+00
 7.0771585E+00 6.8177509E-01 1.8569132E+00
 7.0201716E+00 6.9799154E-01 1.8656077E+00
 6.9626998E+00 7.1595816E-01 1.8722161E+00
 6.9050412E+00 7.3582820E-01 1.8758892E+00
 6.8475684E+00 7.5766151E-01 1.8758169E+00
 6.7907812E+00 7.8139311E-01 1.8713484E+00
 6.7353153E+00 8.0681898E-01 1.8621039E+00
 6.6818889E+00 8.3360960E-01 1.8480396E+00
 6.6312023E+00 8.6134935E-01 1.8294423E+00
 6.5838374E+00 8.8959270E-01 1.8068593E+00
 6.5401939E+00 9.1791876E-01 1.7809947E+00
 6.5004611E+00 9.4596622E-01 1.7525923E+00
 6.4645974E+00 9.7343032E-01 1.7223085E+00
 6.4322939E+00 9.9999947E-01 1.6905565E+00
 6.4028499E+00 1.0252185E+00 1.6572214E+00
 7.3937877E+00 6.4261001E-01 1.8103970E+00
 7.3432559E+00 6.5539535E-01 1.8209272E+00
 7.2913921E+00 6.6796660E-01 1.8314102E+00
 7.2381028E+00 6.8105385E-01 1.8420456E+00
 7.1834497E+00 6.9506476E-01 1.8527357E+00
 7.1276378E+00 7.1024622E-01 1.8631401E+00
 7.0709357E+00 7.2680545E-01 1.8727256E+00
 7.0136287E+00 7.4492847E-01 1.8807933E+00
 6.9559996E+00 7.6476363E-01 1.8865272E+00
 6.8983563E+00 7.8638988E-01 1.8890719E+00
 6.8410864E+00 8.0978585E-01 1.8876409E+00
 6.7847038E+00 8.3480836E-01 1.8816385E+00
 6.7298487E+00 8.6119140E-01 1.8707634E+00
 6.6772240E+00 8.8857076E-01 1.8550592E+00
 6.6274928E+00 9.1653022E-01 1.8348900E+00
 6.5811788E+00 9.4465688E-01 1.8108547E+00
 6.5386016E+00 9.7258479E-01 1.7836660E+00
 6.4998291E+00 9.9999947E-01 1.7540030E+00
 6.4645974E+00 1.0265686E+00 1.7223085E+00
 6.4322395E+00 1.0517977E+00 1.6885604E+00
 7.3928016E+00 6.7912557E-01 1.8256430E+00
 7.3413079E+00 6.9341610E-01 1.8360745E+00
 7.2885429E+00 7.0758107E-01 1.8464563E+00
 7.2344483E+00 7.2235301E-01 1.8569326E+00
 7.1791166E+00 7.3812584E-01 1.8673568E+00
 7.1227646E+00 7.5513371E-01 1.8773496E+00
 7.0656767E+00 7.7355104E-01 1.8863373E+00
 7.0081474E+00 7.9351665E-01 1.8935887E+00
 6.9504674E+00 8.1511599E-01 1.8982712E+00
 6.8929544E+00 8.3835480E-01 1.8995377E+00
 6.8360071E+00 8.6313513E-01 1.8966393E+00
 6.7801469E+00 8.8924537E-01 1.8890453E+00
 6.7260065E+00 9.1637157E-01 1.8765358E+00
 6.6742613E+00 9.4413281E-01 1.8592353E+00
 6.6255236E+00 9.7213126E-01 1.8375696E+00
 6.5802390E+00 9.9999946E-01 1.8121588E+00
 6.5386016E+00 1.0274141E+00 1.7836659E+00
 6.5004612E+00 1.0540327E+00 1.7525922E+00
 6.4652277E+00 1.0793513E+00 1.7190326E+00
 7.3919096E+00 7.1746946E-01 1.8396322E+00
 7.3395683E+00 7.3320207E-01 1.8497881E+00
 7.2860245E+00 7.4894939E-01 1.8598971E+00
 7.2312550E+00 7.6540186E-01 1.8700337E+00
 7.1753769E+00 7.8292491E-01 1.8800025E+00
 7.1186287E+00 8.0172125E-01 1.8893842E+00
 7.0613084E+00 8.2192645E-01 1.8975729E+00
 7.0037194E+00 8.4362652E-01 1.9038165E+00
 6.9461589E+00 8.6684285E-01 1.9072816E+00
 6.8889508E+00 8.9150975E-01 1.9071452E+00
 6.8324985E+00 9.1745988E-01 1.9027095E+00
 6.7773194E+00 9.4442597E-01 1.8935158E+00
 6.7240251E+00 9.7206465E-01 1.8794229E+00
 6.6732468E+00 9.9999946E-01 1.8606215E+00
 6.6255237E+00 1.0278677E+00 1.8375695E+00
 6.5811788E+00 1.0553420E+00 1.8108546E+00
 6.5401940E+00 1.0820802E+00 1.7809946E+00
 6.5021047E+00 1.1075910E+00 1.7481988E+00
 7.3910915E+00 7.5755809E-01 1.8521579E+00
 7.3380093E+00 7.7468889E-01 1.8618765E+00
 7.2838155E+00 7.9199268E-01 1.8715391E+00
 7.2285166E+00 8.1009573E-01 1.8811495E+00
 7.1722526E+00 8.2931919E-01 1.8904653E+00
 7.1152802E+00 8.4982686E-01 1.8990340E+00
 7.0579091E+00 8.7170907E-01 1.9062277E+00
 7.0004488E+00 8.9499671E-01 1.9112879E+00
 6.9431990E+00 9.1964694E-01 1.9133958E+00
 6.8864850E+00 9.4552787E-01 1.9117680E+00
 6.8307058E+00 9.7241378E-01 1.9057683E+00
 6.7763614E+00 9.9999946E-01 1.8950109E+00
 6.7240252E+00 1.0279343E+00 1.8794228E+00
 6.6742614E+00 1.0558661E+00 1.8592353E+00
 6.6274929E+00 1.0834687E+00 1.8348899E+00
 6.5838375E+00 1.1104062E+00 1.8068591E+00
 6.5429759E+00 1.1362140E+00 1.7754197E+00
 7.3903669E+00 7.9923868E-01 1.8630033E+00
 7.3366636E+00 8.1771899E-01 1.8721284E+00
 7.2819639E+00 8.3652972E-01 1.8811696E+00
 7.2262969E+00 8.5622066E-01 1.8900654E+00
 7.1698223E+00 8.7705824E-01 1.8985328E+00
 7.1128108E+00 8.9916133E-01 1.9060952E+00
 7.0555798E+00 9.2257195E-01 1.9121150E+00
 6.9984406E+00 9.4726482E-01 1.9158420E+00
 6.9416917E+00 9.7313688E-01 1.9164874E+00
 6.8856523E+00 9.9999947E-01 1.9133194E+00
 6.8307058E+00 1.0275851E+00 1.9057683E+00
 6.7773195E+00 1.0555729E+00 1.8935158E+00
 6.7260066E+00 1.0836273E+00 1.8765357E+00
 6.6772240E+00 1.1114281E+00 1.8550590E+00
 6.6312024E+00 1.1386495E+00 1.8294421E+00
 6.5877719E+00 1.1648592E+00 1.7999623E+00
 7.3897584E+00 8.4230797E-01 1.8719639E+00
 7.3355723E+00 8.6206489E-01 1.8803420E+00
 7.2805242E+00 8.8230355E-01 1.8885894E+00
 7.2246619E+00 9.0348464E-01 1.8965877E+00
 7.1681596E+00 9.2581286E-01 1.9040222E+00
 7.1112975E+00 9.4935825E-01 1.9104030E+00
 7.0543958E+00 9.7411321E-01 1.9150957E+00
 6.9977635E+00 9.9999948E-01 1.9173724E+00
 6.9416917E+00 1.0268621E+00 1.9164874E+00
 6.8864851E+00 1.0544711E+00 1.9117680E+00
 6.8324985E+00 1.0825390E+00 1.9027095E+00
 6.7801469E+00 1.1107535E+00 1.8890451E+00
 6.7298488E+00 1.1388075E+00 1.8707632E+00
 6.6818890E+00 1.1663893E+00 1.8480394E+00
 6.6362322E+00 1.1931011E+00 1.8210814E+00
 7.3892852E+00 8.8651351E-01 1.8788589E+00
 7.3347690E+00 9.0744595E-01 1.8863437E+00
 7.2795402E+00 9.2900100E-01 1.8936341E+00
 7.2236610E+00 9.5153953E-01 1.9005652E+00
 7.1673154E+00 9.7519919E-01 1.9068015E+00
 7.1107878E+00 9.9999950E-01 1.9118512E+00
 7.0543958E+00 1.0258858E+00 1.9150957E+00
 6.9984406E+00 1.0527341E+00 1.9158420E+00
 6.9431990E+00 1.0803520E+00 1.9133958E+00
 6.8889508E+00 1.1084892E+00 1.9071451E+00
 6.8360072E+00 1.1368638E+00 1.8966392E+00
 6.7847039E+00 1.1651905E+00 1.8816383E+00
 6.7353154E+00 1.1931799E+00 1.8621036E+00
 6.6878955E+00 1.2204718E+00 1.8381096E+00
 7.3889617E+00 9.3156179E-01 1.8835419E+00
 7.3342775E+00 9.5354070E-01 1.8900004E+00
 7.2790410E+00 9.7626900E-01 1.8961867E+00
 7.2233241E+00 9.9999950E-01 1.9019020E+00
 7.1673154E+00 1.0247998E+00 1.9068015E+00
 7.1112975E+00 1.0506407E+00 1.9104030E+00
 7.0555798E+00 1.0774270E+00 1.9121151E+00
 7.0004488E+00 1.1050023E+00 1.9112879E+00
 6.9461589E+00 1.1331561E+00 1.9072816E+00
 6.8929545E+00 1.1616441E+00 1.8995376E+00
 6.8410864E+00 1.1902131E+00 1.8876408E+00
 6.7907813E+00 1.2186058E+00 1.8713481E+00
 6.7421302E+00 1.2465086E+00 1.8505644E+00
 7.3887976E+00 9.7712858E-01 1.8859099E+00
 7.3341120E+00 9.9999950E-01 1.8912288E+00
 7.2790410E+00 1.0237300E+00 1.8961867E+00
 7.2236610E+00 1.0484595E+00 1.9005652E+00
 7.1681596E+00 1.0741861E+00 1.9040223E+00
 7.1128108E+00 1.1008377E+00 1.9060953E+00
 7.0579092E+00 1.1282899E+00 1.9062277E+00
 7.0037195E+00 1.1563725E+00 1.9038166E+00
 6.9504674E+00 1.1848830E+00 1.8982712E+00
 6.8983564E+00 1.2136091E+00 1.8890719E+00
 6.8475685E+00 1.2423374E+00 1.8758167E+00
 6.7982053E+00 1.2708119E+00 1.8582431E+00
 7.3887976E+00 1.0228704E+00 1.8859099E+00
 7.3342775E+00 1.0464583E+00 1.8900005E+00
 7.2795402E+00 1.0709980E+00 1.8936341E+00
 7.2246619E+00 1.0965144E+00 1.8965878E+00
 7.1698223E+00 1.1229408E+00 1.8985329E+00
 7.1152802E+00 1.1501722E+00 1.8990341E+00
 7.0613084E+00 1.1780726E+00 1.8975730E+00
 7.0081474E+00 1.2064823E+00 1.8935887E+00
 6.9559996E+00 1.2352353E+00 1.8865272E+00
 6.9050412E+00 1.2641707E+00 1.8758891E+00
 6.8553951E+00 1.2931008E+00 1.8612772E+00
 7.3889617E+00 1.0684372E+00 1.8835420E+00
 7.3347690E+00 1.0925531E+00 1.8863438E+00
 7.2805242E+00 1.1176955E+00 1.8885895E+00
 7.2262969E+00 1.1437784E+00 1.8900655E+00
 7.1722526E+00 1.1706798E+00 1.8904654E+00
 7.1186288E+00 1.1982778E+00 1.8893843E+00
 7.0656768E+00 1.2264480E+00 1.8863374E+00
 7.0136288E+00 1.2550705E+00 1.8807933E+00
 6.9626999E+00 1.2840408E+00 1.8722160E+00
 6.9130734E+00 1.3132451E+00 1.8601201E+00
 7.3892852E+00 1.1134855E+00 1.8788590E+00
 7.3355723E+00 1.1379341E+00 1.8803422E+00
 7.2819639E+00 1.1634693E+00 1.8811697E+00
 7.2285166E+00 1.1899033E+00 1.8811497E+00
 7.1753770E+00 1.2170741E+00 1.8800027E+00
 7.1227647E+00 1.2448653E+00 1.8773497E+00
 7.0709358E+00 1.2731936E+00 1.8727257E+00
 7.0201717E+00 1.3020075E+00 1.8656077E+00
 6.9707575E+00 1.3312660E+00 1.8554688E+00
 7.3897584E+00 1.1576911E+00 1.8719641E+00
 7.3366636E+00 1.1822800E+00 1.8721286E+00
 7.2838155E+00 1.2080064E+00 1.8715393E+00
 7.2312550E+00 1.2345972E+00 1.8700339E+00
 7.1791166E+00 1.2618732E+00 1.8673569E+00
 7.1276378E+00 1.2897528E+00 1.8631403E+00
 7.0771586E+00 1.3182240E+00 1.8569133E+00
 7.0280886E+00 1.3473092E+00 1.8481471E+00
 7.3903669E+00 1.2007604E+00 1.8630035E+00
 7.3380093E+00 1.2253102E+00 1.8618767E+00
 7.2860245E+00 1.2510497E+00 1.8598973E+00
 7.2344483E+00 1.2776461E+00 1.8569328E+00
 7.1834497E+00 1.3049343E+00 1.8527359E+00
 7.1333847E+00 1.3328981E+00 1.8469199E+00
 7.0847764E+00 1.3616021E+00 1.8389879E+00
 7.3910915E+00 1.2424410E+00 1.8521582E+00
 7.3395683E+00 1.2667970E+00 1.8497883E+00
 7.2885429E+00 1.2924180E+00 1.8464566E+00
 7.2381028E+00 1.3189453E+00 1.8420458E+00
 7.1885719E+00 1.3462578E+00 1.8362851E+00
 7.1405477E+00 1.3744083E+00 1.8287423E+00
 7.3919097E+00 1.2825296E+00 1.8396325E+00
 7.3413079E+00 1.3065830E+00 1.8360748E+00
 7.2913921E+00 1.3320325E+00 1.8314104E+00
 7.2424566E+00 1.3585292E+00 1.8255007E+00
 7.1951263E+00 1.3859904E+00 1.8180225E+00
 7.3928016E+00 1.3208735E+00 1.8256433E+00
 7.3432559E+00 1.3446038E+00 1.8209275E+00
 7.2948446E+00 1.3699622E+00 1.8148674E+00
 7.2482396E+00 1.3965884E+00 1.8072775E+00
 7.3937877E+00 1.3573891E+00 1.8103973E+00
 7.3456344E+00 1.3809121E+00 1.8044713E+00
 7.2996590E+00 1.4064229E+00 1.7967872E+00
 7.3950121E+00 1.3921007E+00 1.7940505E+00
 7.3492388E+00 1.4157769E+00 1.7866370E+00
 7.3968658E+00 1.4250781E+00 1.7767098E+00
 7.4432542E+00 1.4359444E+00 1.7660076E+00
 7.4432203E+00 1.4047609E+00 1.7829611E+00
 7.4431869E+00 1.3715757E+00 1.7992667E+00
 7.4431594E+00 1.3363747E+00 1.8147231E+00
 7.4431386E+00 1.2992497E+00 1.8290931E+00
 7.4431229E+00 1.2603315E+00 1.8421365E+00
 7.4431104E+00 1.2197601E+00 1.8536329E+00
 7.4430999E+00 1.1777188E+00 1.8633738E+00
 7.4430909E+00 1.1344366E+00 1.8711699E+00
 7.4430839E+00 1.0901828E+00 1.8768616E+00
 7.4430793E+00 1.0452612E+00 1.8803273E+00
 7.4430777E+00 9.9999949E-01 1.8814912E+00
 7.4430793E+00 9.5473776E-01 1.8803273E+00
 7.4430838E+00 9.0981615E-01 1.8768615E+00
 7.4430909E+00 8.6556238E-01 1.8711698E+00
 7.4430998E+00 8.2228018E-01 1.8633736E+00
 7.4431104E+00 7.8023894E-01 1.8536327E+00
 7.4431229E+00 7.3966758E-01 1.8421362E+00
 7.4431386E+00 7.0074943E-01 1.8290928E+00
 7.4431593E+00 6.6362439E-01 1.8147228E+00
 7.4431868E+00 6.2842343E-01 1.7992664E+00
 7.4432203E+00 5.9523830E-01 1.7829608E+00
 7.4432541E+00 5.6405478E-01 1.7660073E+00
 7.4847753E+00 5.4674686E-01 1.7519498E+00
 7.5302790E+00 5.5794765E-01 1.7544348E+00
 7.5778939E+00 5.6965418E-01 1.7569847E+00
 7.6272904E+00 5.8189485E-01 1.7595500E+00
 7.6782867E+00 5.9472611E-01 1.7620366E+00
 7.7306806E+00 6.0822768E-01 1.7643155E+00
 7.7842861E+00 6.2249867E-01 1.7662234E+00
 7.8388862E+00 6.3764317E-01 1.7675637E+00
 7.8942268E+00 6.5376252E-01 1.7681128E+00
 7.9500135E+00 6.7094586E-01 1.7676291E+00
 8.0059163E+00 6.8926183E-01 1.7658654E+00
 8.0615767E+00 7.0875058E-01 1.7625830E+00
 8.1166171E+00 7.2941701E-01 1.7575675E+00
 8.1706513E+00 7.5122661E-01 1.7506427E+00
 8.2232971E+00 7.7410384E-01 1.7416843E+00
 8.2741896E+00 7.9793456E-01 1.7306274E+00
 8.3229952E+00 8.2257114E-01 1.7174710E+00
 8.3694236E+00 8.4784039E-01 1.7022761E+00
 8.4132334E+00 8.7355203E-01 1.6851616E+00
 8.4542314E+00 8.9950695E-01 1.6662990E+00
 8.4922510E+00 9.2548863E-01 1.6459186E+00
 8.5271656E+00 9.5127398E-01 1.6242907E+00
 8.5588157E+00 9.7655165E-01 1.6017798E+00
 7.4894595E+00 1.4212924E+00 1.7698764E+00
 7.5365566E+00 1.4083129E+00 1.7726594E+00
 7.5852331E+00 1.3953254E+00 1.7752211E+00
 7.6353867E+00 1.3819395E+00 1.7776780E+00
 7.6869349E+00 1.3679407E+00 1.7799967E+00
 7.7397438E+00 1.3532177E+00 1.7820447E+00
 7.7936333E+00 1.3376781E+00 1.7836423E+00
 7.8483821E+00 1.3212354E+00 1.7845761E+00
 7.9037226E+00 1.3038106E+00 1.7846100E+00
 7.9593474E+00 1.2853405E+00 1.7834955E+00
 8.0149158E+00 1.2657854E+00 1.7809851E+00
 8.0700635E+00 1.2451366E+00 1.7768468E+00
 8.1244127E+00 1.2234216E+00 1.7708799E+00
 8.1775836E+00 1.2007054E+00 1.7629287E+00
 8.2292076E+00 1.1770898E+00 1.7528938E+00
 8.2789399E+00 1.1527069E+00 1.7407388E+00
 8.3264712E+00 1.1277114E+00 1.7264923E+00
 8.3715421E+00 1.1022694E+00 1.7102417E+00
 8.4139512E+00 1.0765532E+00 1.6921232E+00
 8.4535839E+00 1.0507501E+00 1.6722920E+00
 8.4904910E+00 1.0250950E+00 1.6508503E+00
 8.5250203E+00 9.9999949E-01 1.6277195E+00
 7.4912173E+00 1.3884625E+00 1.7867945E+00
 7.5400053E+00 1.3737916E+00 1.7896461E+00
 7.5898120E+00 1.3594905E+00 1.7920968E+00
 7.6408530E+00 1.3448556E+00 1.7943682E+00
 7.6931061E+00 1.3296033E+00 1.7964310E+00
 7.7464835E+00 1.3135920E+00 1.7981477E+00
 7.8008167E+00 1.2967352E+00 1.7993227E+00
 7.8558753E+00 1.2789612E+00 1.7997284E+00
 7.9113781E+00 1.2602123E+00 1.7991178E+00
 7.9670027E+00 1.2404504E+00 1.7972370E+00
 8.0223967E+00 1.2196649E+00 1.7938397E+00
 8.0771882E+00 1.1978776E+00 1.7887023E+00
 8.1309980E+00 1.1751463E+00 1.7816400E+00
 8.1834520E+00 1.1515638E+00 1.7725193E+00
 8.2341955E+00 1.1272525E+00 1.7612674E+00
 8.2829063E+00 1.1023544E+00 1.7478766E+00
 8.3293082E+00 1.0770195E+00 1.7324004E+00
 8.3731982E+00 1.0513961E+00 1.7149353E+00
 8.4144999E+00 1.0256449E+00 1.6955772E+00
 8.4533778E+00 9.9999949E-01 1.6743231E+00
 8.4904910E+00 9.7490399E-01 1.6508503E+00
 7.4923599E+00 1.3539831E+00 1.8028095E+00
 7.5422554E+00 1.3379910E+00 1.8054389E+00
 7.5930703E+00 1.3223945E+00 1.8076490E+00
 7.6449441E+00 1.3064942E+00 1.8096172E+00
 7.6979090E+00 1.2899548E+00 1.8113085E+00
 7.7518768E+00 1.2726356E+00 1.8125681E+00
 7.8066757E+00 1.2544570E+00 1.8131867E+00
 7.8620620E+00 1.2353644E+00 1.8129243E+00
 7.9177383E+00 1.2153220E+00 1.8115260E+00
 7.9733679E+00 1.1943181E+00 1.8087355E+00
 8.0285874E+00 1.1723707E+00 1.8043112E+00
 8.0830191E+00 1.1495314E+00 1.7980421E+00
 8.1362847E+00 1.1258852E+00 1.7897628E+00
 8.1880191E+00 1.1015466E+00 1.7793649E+00
 8.2378878E+00 1.0766496E+00 1.7668027E+00
 8.2856018E+00 1.0513341E+00 1.7520926E+00
 8.3309456E+00 1.0257354E+00 1.7352962E+00
 8.3738428E+00 9.9999949E-01 1.7164737E+00
 8.4144999E+00 9.7435406E-01 1.6955771E+00
 8.4535839E+00 9.4924891E-01 1.6722920E+00
 7.4932810E+00 1.3177497E+00 1.8177614E+00
 7.5440994E+00 1.3005752E+00 1.8199959E+00
 7.5957598E+00 1.2837581E+00 1.8218145E+00
 7.6483803E+00 1.2666034E+00 1.8233488E+00
 7.7019756E+00 1.2487915E+00 1.8245325E+00
 7.7564550E+00 1.2301877E+00 1.8251940E+00
 7.8116319E+00 1.2107285E+00 1.8251105E+00
 7.8672478E+00 1.1903783E+00 1.8240331E+00
 7.9229902E+00 1.1691254E+00 1.8217029E+00
 7.9785103E+00 1.1469850E+00 1.8178661E+00
 8.0334374E+00 1.1240033E+00 1.8122911E+00
 8.0873929E+00 1.1002585E+00 1.8047844E+00
 8.1400051E+00 1.0758574E+00 1.7952038E+00
 8.1909263E+00 1.0509264E+00 1.7834669E+00
 8.2398540E+00 1.0255983E+00 1.7695517E+00
 8.2865581E+00 9.9999949E-01 1.7534840E+00
 8.3309456E+00 9.7426359E-01 1.7352962E+00
 8.3731982E+00 9.4860285E-01 1.7149353E+00
 8.4139512E+00 9.2344581E-01 1.6921231E+00
 7.4941221E+00 1.2797269E+00 1.8314758E+00
 7.5457535E+00 1.2614738E+00 1.8331660E+00
 7.5981437E+00 1.2434883E+00 1.8344548E+00
 7.6513885E+00 1.2251222E+00 1.8354154E+00
 7.7054907E+00 1.2060821E+00 1.8359493E+00
 7.7603456E+00 1.1862545E+00 1.8358669E+00
 7.8157531E+00 1.1655943E+00 1.8349353E+00
 7.8714399E+00 1.1440886E+00 1.8329006E+00
 7.9270816E+00 1.1217504E+00 1.8295053E+00
 7.9823217E+00 1.0986218E+00 1.8245040E+00
 8.0367880E+00 1.0747746E+00 1.8176805E+00
 8.0901081E+00 1.0503082E+00 1.8088626E+00
 8.1419258E+00 1.0253414E+00 1.7979333E+00
 8.1919232E+00 9.9999950E-01 1.7848334E+00
 8.2398540E+00 9.7440073E-01 1.7695517E+00
 8.2856017E+00 9.4866494E-01 1.7520926E+00
 8.3293082E+00 9.2297952E-01 1.7324003E+00
 8.3715421E+00 8.9772960E-01 1.7102416E+00
 7.4948993E+00 1.2399958E+00 1.8437470E+00
 7.5472404E+00 1.2207450E+00 1.8447616E+00
 7.6002380E+00 1.2016529E+00 1.8453864E+00
 7.6539707E+00 1.1821371E+00 1.8456347E+00
 7.7084298E+00 1.1619436E+00 1.8453770E+00
 7.7634979E+00 1.1409842E+00 1.8444090E+00
 7.8189622E+00 1.1192366E+00 1.8424915E+00
 7.8745379E+00 1.0967113E+00 1.8393712E+00
 7.9298931E+00 1.0734463E+00 1.8347975E+00
 7.9846693E+00 1.0495081E+00 1.8285386E+00
 8.0385003E+00 1.0249888E+00 1.8203983E+00
 8.0910285E+00 9.9999950E-01 1.8102281E+00
 8.1419258E+00 9.7465757E-01 1.7979333E+00
 8.1909263E+00 9.4907255E-01 1.7834669E+00
 8.2378878E+00 9.2334936E-01 1.7668027E+00
 8.2829062E+00 8.9764455E-01 1.7478765E+00
 8.3264712E+00 8.7228763E-01 1.7264923E+00
 7.4955898E+00 1.1987071E+00 1.8543654E+00
 7.5485249E+00 1.1785399E+00 1.8545851E+00
 7.6019938E+00 1.1584200E+00 1.8544168E+00
 7.6560640E+00 1.1378413E+00 1.8538189E+00
 7.7107165E+00 1.1165970E+00 1.8526352E+00
 7.7658235E+00 1.0946284E+00 1.8506510E+00
 7.8211621E+00 1.0719372E+00 1.8476260E+00
 7.8764406E+00 1.0485573E+00 1.8433128E+00
 7.9313250E+00 1.0245496E+00 1.8374728E+00
 7.9854623E+00 9.9999950E-01 1.8298927E+00
 8.0385003E+00 9.7501020E-01 1.8203983E+00
 8.0901080E+00 9.4969079E-01 1.8088626E+00
 8.1400051E+00 9.2414162E-01 1.7952037E+00
 8.1880191E+00 8.9845238E-01 1.7793648E+00
 8.2341955E+00 8.7274648E-01 1.7612673E+00
 8.2789399E+00 8.4729213E-01 1.7407387E+00
 7.4961693E+00 1.1560602E+00 1.8631343E+00
 7.5495657E+00 1.1350760E+00 1.8624491E+00
 7.6033582E+00 1.1140294E+00 1.8613673E+00
 7.6576056E+00 1.0925012E+00 1.8597996E+00
 7.7122810E+00 1.0703373E+00 1.8575688E+00
 7.7672489E+00 1.0475103E+00 1.8544557E+00
 7.8222806E+00 1.0240460E+00 1.8502240E+00
 7.8770823E+00 9.9999950E-01 1.8446369E+00
 7.9313250E+00 9.7544942E-01 1.8374727E+00
 7.9846693E+00 9.5049091E-01 1.8285385E+00
 8.0367880E+00 9.2522439E-01 1.8176804E+00
 8.0873928E+00 8.9974048E-01 1.8047843E+00
 8.1362847E+00 8.7411378E-01 1.7897628E+00
 8.1834520E+00 8.4843519E-01 1.7725192E+00
 8.2292076E+00 8.2290925E-01 1.7528937E+00
 7.4966190E+00 1.1123020E+00 1.8698795E+00
 7.5503311E+00 1.0906218E+00 1.8681920E+00
 7.6042901E+00 1.0687740E+00 1.8660897E+00
 7.6585489E+00 1.0464360E+00 1.8634443E+00
 7.7130752E+00 1.0235096E+00 1.8600652E+00
 7.7677291E+00 9.9999949E-01 1.8557342E+00
 7.8222806E+00 9.7595302E-01 1.8502240E+00
 7.8764406E+00 9.5144173E-01 1.8433127E+00
 7.9298931E+00 9.2655267E-01 1.8347974E+00
 7.9823217E+00 9.0137721E-01 1.8245040E+00
 8.0334374E+00 8.7599568E-01 1.8122911E+00
 8.0830191E+00 8.5046759E-01 1.7980420E+00
 8.1309980E+00 8.2485270E-01 1.7816399E+00
 8.1775836E+00 7.9929364E-01 1.7629286E+00
 7.4969256E+00 1.0677195E+00 1.8744597E+00
 7.5507989E+00 1.0454848E+00 1.8716899E+00
 7.6047627E+00 1.0229845E+00 1.8684783E+00
 7.6588664E+00 9.9999949E-01 1.8646688E+00
 7.7130752E+00 9.7648937E-01 1.8600652E+00
 7.7672489E+00 9.5248868E-01 1.8544557E+00
 7.8211621E+00 9.2806182E-01 1.8476260E+00
 7.8745379E+00 9.0328775E-01 1.8393712E+00
 7.9270816E+00 8.7824859E-01 1.8295053E+00
 7.9785103E+00 8.5301401E-01 1.8178660E+00
 8.0285874E+00 8.2762827E-01 1.8043111E+00
 8.0771882E+00 8.0212146E-01 1.7887022E+00
 8.1244126E+00 7.7657746E-01 1.7708798E+00
 7.4970810E+00 1.0226299E+00 1.8767754E+00
 7.5509562E+00 9.9999949E-01 1.8728647E+00
 7.6047627E+00 9.7701444E-01 1.8684783E+00
 7.6585489E+00 9.5356300E-01 1.8634442E+00
 7.7122810E+00 9.2966173E-01 1.8575688E+00
 7.7658235E+00 9.0537057E-01 1.8506509E+00
 7.8189622E+00 8.8076238E-01 1.8424914E+00
 7.8714399E+00 8.5591044E-01 1.8329005E+00
 7.9229902E+00 8.3087360E-01 1.8217028E+00
 7.9733679E+00 8.0568091E-01 1.8087354E+00
 8.0223967E+00 7.8033417E-01 1.7938395E+00
 8.0700635E+00 7.5486239E-01 1.7768466E+00
 7.4970809E+00 9.7736910E-01 1.8767754E+00
 7.5507989E+00 9.5451420E-01 1.8716899E+00
 7.6042901E+00 9.3122497E-01 1.8660896E+00
 7.6576056E+00 9.0749779E-01 1.8597995E+00
 7.7107165E+00 8.8340200E-01 1.8526351E+00
 7.7634979E+00 8.5901480E-01 1.8444089E+00
 7.8157531E+00 8.3440470E-01 1.8349352E+00
 7.8672478E+00 8.0962071E-01 1.8240330E+00
 7.9177383E+00 7.8467702E-01 1.8115259E+00
 7.9670027E+00 7.5954861E-01 1.7972369E+00
 8.0149158E+00 7.3421368E-01 1.7809849E+00
 7.4969256E+00 9.3227948E-01 1.8744596E+00
 7.5503311E+00 9.0937716E-01 1.8681919E+00
 7.6033581E+00 8.8596961E-01 1.8613672E+00
 7.6560640E+00 8.6215771E-01 1.8538188E+00
 7.7084297E+00 8.3805542E-01 1.8453768E+00
 7.7603456E+00 8.1374452E-01 1.8358668E+00
 7.8116319E+00 7.8927057E-01 1.8251104E+00
 7.8620619E+00 7.6463465E-01 1.8129242E+00
 7.9113781E+00 7.3978675E-01 1.7991177E+00
 7.9593474E+00 7.1465857E-01 1.7834953E+00
 7.4966190E+00 8.8769700E-01 1.8698794E+00
 7.5495657E+00 8.6492296E-01 1.8624489E+00
 7.6019938E+00 8.4157901E-01 1.8544166E+00
 7.6539707E+00 8.1786190E-01 1.8456345E+00
 7.7054907E+00 7.9391690E-01 1.8359492E+00
 7.7564549E+00 7.6981133E-01 1.8251939E+00
 7.8066757E+00 7.4554208E-01 1.8131865E+00
 7.8558753E+00 7.2103783E-01 1.7997282E+00
 7.9037226E+00 6.9618842E-01 1.7846098E+00
 7.4961693E+00 8.4393878E-01 1.8631342E+00
 7.5485248E+00 8.2145914E-01 1.8545849E+00
 7.6002380E+00 7.9834614E-01 1.8453862E+00
 7.6513885E+00 7.7487685E-01 1.8354152E+00
 7.7019755E+00 7.5120754E-01 1.8245323E+00
 7.7518768E+00 7.2736343E-01 1.8125679E+00
 7.8008166E+00 7.0326387E-01 1.7993225E+00
 7.8483820E+00 6.7876367E-01 1.7845759E+00
 7.4955897E+00 8.0129190E-01 1.8543652E+00
 7.5472404E+00 7.7925405E-01 1.8447614E+00
 7.5981437E+00 7.5651073E-01 1.8344546E+00
 7.6483802E+00 7.3339567E-01 1.8233486E+00
 7.6979090E+00 7.1004425E-01 1.8113082E+00
 7.7464835E+00 6.8640706E-01 1.7981475E+00
 7.7936333E+00 6.6232097E-01 1.7836421E+00
 7.4948992E+00 7.6000324E-01 1.8437468E+00
 7.5457535E+00 7.3852526E-01 1.8331658E+00
 7.5957598E+00 7.1624102E-01 1.8218142E+00
 7.6449441E+00 6.9350486E-01 1.8096169E+00
 7.6931060E+00 6.7039576E-01 1.7964308E+00
 7.7397438E+00 6.4678142E-01 1.7820445E+00
 7.4941220E+00 7.2027215E-01 1.8314755E+00
 7.5440994E+00 6.9942384E-01 1.8199957E+00
 7.5930703E+00 6.7760461E-01 1.8076487E+00
 7.6408529E+00 6.5514348E-01 1.7943679E+00
 7.6869348E+00 6.3205844E-01 1.7799964E+00
 7.4932810E+00 6.8224939E-01 1.8177611E+00
 7.5422554E+00 6.6200809E-01 1.8054386E+00
 7.5898120E+00 6.4050861E-01 1.7920966E+00
 7.6353867E+00 6.1805968E-01 1.7776777E+00
 7.4923598E+00 6.4601600E-01 1.8028092E+00
 7.5400053E+00 6.2620749E-01 1.7896458E+00
 7.5852331E+00 6.0467375E-01 1.7752207E+00
 7.4912173E+00 6.1153661E-01 1.7867941E+00
 7.5365566E+00 5.9168629E-01 1.7726591E+00
 7.4894594E+00 5.7870681E-01 1.7698761E+00
 7.4175537E+00 1.4863271E+00 1.7376999E+00
 7.3890781E+00 1.5114730E+00 1.7235833E+00
 7.3592686E+00 1.5374436E+00 1.7079174E+00
 7.3282647E+00 1.5640855E+00 1.6906202E+00
 7.2962044E+00 1.5912597E+00 1.6715875E+00
 7.2632765E+00 1.6187991E+00 1.6507063E+00
 7.2296743E+00 1.6465200E+00 1.6278529E+00
 7.1956224E+00 1.6741947E+00 1.6029131E+00
 7.1613734E+00 1.7015506E+00 1.5757941E+00
 7.1271966E+00 1.7282734E+00 1.5464377E+00
 7.0933652E+00 1.7540179E+00 1.5148351E+00
 7.0601437E+00 1.7784259E+00 1.4810367E+00
 7.0277790E+00 1.8011459E+00 1.4451616E+00
 6.9964946E+00 1.8218550E+00 1.4073998E+00
 6.9664870E+00 1.8402798E+00 1.3680087E+00
 6.9379245E+00 1.8562129E+00 1.3273012E+00
 6.9109453E+00 1.8695250E+00 1.2856293E+00
 6.8856566E+00 1.8801670E+00 1.2433662E+00
 6.8621367E+00 1.8881670E+00 1.2008875E+00
 6.8404420E+00 1.8936210E+00 1.1585609E+00
 6.8206239E+00 1.8966824E+00 1.1167589E+00
 6.8027099E+00 1.8975472E+00 1.0758293E+00
 6.7867635E+00 1.8964560E+00 1.0363390E+00
 6.3478417E+00 1.0666407E+00 1.5817555E+00
 6.3440060E+00 1.1099228E+00 1.5694552E+00
 6.3415034E+00 1.1540957E+00 1.5552928E+00
 6.3407763E+00 1.1993796E+00 1.5395657E+00
 6.3421095E+00 1.2457482E+00 1.5223422E+00
 6.3457199E+00 1.2930387E+00 1.5036122E+00
 6.3517944E+00 1.3410117E+00 1.4833510E+00
 6.3605021E+00 1.3893727E+00 1.4615523E+00
 6.3719890E+00 1.4377767E+00 1.4382401E+00
 6.3863689E+00 1.4858330E+00 1.4134723E+00
 6.4037124E+00 1.5331136E+00 1.3873421E+00
 6.4240370E+00 1.5791637E+00 1.3599780E+00
 6.4472990E+00 1.6235148E+00 1.3315438E+00
 6.4733870E+00 1.6657007E+00 1.3022361E+00
 6.5021191E+00 1.7052758E+00 1.2722822E+00
 6.5332445E+00 1.7418366E+00 1.2419332E+00
 6.5664508E+00 1.7750423E+00 1.2114589E+00
 6.6013776E+00 1.8046364E+00 1.1811363E+00
 6.6376275E+00 1.8304578E+00 1.1512385E+00
 6.6747773E+00 1.8524510E+00 1.1219970E+00
 6.7123951E+00 1.8706750E+00 1.0935044E+00
 6.7499690E+00 1.8852782E+00 1.0655341E+00
 6.3722609E+00 1.0946721E+00 1.6122982E+00
 6.3697626E+00 1.1403322E+00 1.6001142E+00
 6.3685668E+00 1.1862902E+00 1.5858352E+00
 6.3692414E+00 1.2330549E+00 1.5698650E+00
 6.3721192E+00 1.2807026E+00 1.5522991E+00
 6.3774236E+00 1.3290921E+00 1.5331170E+00
 6.3853325E+00 1.3779643E+00 1.5122825E+00
 6.3959987E+00 1.4269838E+00 1.4897862E+00
 6.4095446E+00 1.4757580E+00 1.4656571E+00
 6.4260520E+00 1.5238483E+00 1.4399647E+00
 6.4455496E+00 1.5707833E+00 1.4128198E+00
 6.4680039E+00 1.6160731E+00 1.3843741E+00
 6.4933119E+00 1.6592273E+00 1.3548187E+00
 6.5212973E+00 1.6997748E+00 1.3243812E+00
 6.5517135E+00 1.7372883E+00 1.2933209E+00
 6.5842516E+00 1.7714072E+00 1.2619205E+00
 6.6185589E+00 1.8018620E+00 1.2304736E+00
 6.6542574E+00 1.8284907E+00 1.1992612E+00
 6.6909601E+00 1.8512494E+00 1.1684898E+00
 6.7282659E+00 1.8702151E+00 1.1381560E+00
 6.7657220E+00 1.8855721E+00 1.1077432E+00
 6.4001197E+00 1.1230846E+00 1.6428676E+00
 6.3989754E+00 1.1704969E+00 1.6305766E+00
 6.3992024E+00 1.2180384E+00 1.6160773E+00
 6.4014171E+00 1.2661925E+00 1.5997601E+00
 6.4059800E+00 1.3150475E+00 1.5817167E+00
 6.4131133E+00 1.3644415E+00 1.5619163E+00
 6.4229818E+00 1.4140766E+00 1.5403186E+00
 6.4357157E+00 1.4635694E+00 1.5169181E+00
 6.4514058E+00 1.5124766E+00 1.4917549E+00
 6.4700914E+00 1.5603118E+00 1.4649172E+00
 6.4917496E+00 1.6065642E+00 1.4365413E+00
 6.5162856E+00 1.6507179E+00 1.4068100E+00
 6.5435291E+00 1.6922753E+00 1.3759500E+00
 6.5732371E+00 1.7307824E+00 1.3442273E+00
 6.6051031E+00 1.7658563E+00 1.3119379E+00
 6.6387775E+00 1.7972106E+00 1.2793936E+00
 6.6738911E+00 1.8246764E+00 1.2468923E+00
 6.7100688E+00 1.8482118E+00 1.2146532E+00
 6.7469199E+00 1.8679090E+00 1.1826565E+00
 6.7839756E+00 1.8839769E+00 1.1504026E+00
 6.4316694E+00 1.1521693E+00 1.6729663E+00
 6.4319560E+00 1.2010083E+00 1.6603746E+00
 6.4337341E+00 1.2498972E+00 1.6455041E+00
 6.4376411E+00 1.2992517E+00 1.6286969E+00
 6.4440368E+00 1.3491088E+00 1.6100173E+00
 6.4531302E+00 1.3992622E+00 1.5894237E+00
 6.4650621E+00 1.4493642E+00 1.5668769E+00
 6.4799300E+00 1.4989799E+00 1.5423815E+00
 6.4977815E+00 1.5476166E+00 1.5159967E+00
 6.5186029E+00 1.5947476E+00 1.4878378E+00
 6.5423082E+00 1.6398350E+00 1.4580751E+00
 6.5687351E+00 1.6823566E+00 1.4269309E+00
 6.5976458E+00 1.7218332E+00 1.3946754E+00
 6.6287389E+00 1.7578596E+00 1.3616162E+00
 6.6616685E+00 1.7901305E+00 1.3280840E+00
 6.6960735E+00 1.8184665E+00 1.2944000E+00
 6.7315888E+00 1.8428230E+00 1.2608114E+00
 6.7678297E+00 1.8632996E+00 1.2273412E+00
 6.8043177E+00 1.8801294E+00 1.1935701E+00
 6.4671520E+00 1.1818390E+00 1.7020742E+00
 6.4689701E+00 1.2318544E+00 1.6889890E+00
 6.4724381E+00 1.2818456E+00 1.6735788E+00