# TIME = 4.900000
variables = x, y, z
zone N=5762 E=11520 F=FEPOINT ET=TRIANGLE
 7.6542349E+00 1.4632820E+00 1.7494546E+00
 7.6542349E+00 1.4632821E+00 2.5054546E-01
 7.6542349E+00 5.3671720E-01 1.7494543E+00
 7.6542349E+00 5.3671721E-01 2.5054596E-01
 6.5437615E+00 9.9999948E-01 1.5631811E+00
 8.7972465E+00 9.9999950E-01 1.5797162E+00
 6.5437616E+00 9.9999948E-01 4.3681908E-01
 8.7972465E+00 9.9999950E-01 4.2028410E-01
 6.9839941E+00 1.8934377E+00 1.0000001E+00
 6.9839939E+00 1.0656059E-01 1.0000001E+00
 8.3056908E+00 1.8089365E+00 1.0000001E+00
 8.3056907E+00 1.9106294E-01 1.0000001E+00
 7.6124526E+00 1.4567365E+00 1.7577415E+00
 7.5663163E+00 1.4493855E+00 1.7669688E+00
 7.5177116E+00 1.4415743E+00 1.7767616E+00
 7.4669683E+00 1.4332215E+00 1.7870460E+00
 7.4143239E+00 1.4242003E+00 1.7976748E+00
 7.3600811E+00 1.4143207E+00 1.8083804E+00
 7.3045361E+00 1.4033324E+00 1.8187552E+00
 7.2479828E+00 1.3909412E+00 1.8282348E+00
 7.1906992E+00 1.3768326E+00 1.8361135E+00
 7.1329669E+00 1.3607113E+00 1.8415899E+00
 7.0751191E+00 1.3423483E+00 1.8438476E+00
 7.0175999E+00 1.3216317E+00 1.8421629E+00
 6.9609969E+00 1.2986068E+00 1.8360197E+00
 6.9060152E+00 1.2734876E+00 1.8251965E+00
 6.8533936E+00 1.2466364E+00 1.8097980E+00
 6.8038016E+00 1.2185133E+00 1.7902193E+00
 6.7577560E+00 1.1896157E+00 1.7670631E+00
 6.7155798E+00 1.1604245E+00 1.7410388E+00
 6.6774059E+00 1.1313685E+00 1.7128757E+00
 6.6432091E+00 1.1028084E+00 1.6832615E+00
 6.6128587E+00 1.0750519E+00 1.6528234E+00
 6.5861513E+00 1.0483527E+00 1.6221057E+00
 6.5628996E+00 1.0229747E+00 1.5916588E+00
 7.6076325E+00 5.7511519E-01 1.7765299E+00
 7.5598121E+00 5.8443913E-01 1.7864840E+00
 7.5100429E+00 5.9380581E-01 1.7966557E+00
 7.4584455E+00 6.0363968E-01 1.8071582E+00
 7.4051785E+00 6.1423166E-01 1.8179067E+00
 7.3504902E+00 6.2580873E-01 1.8286189E+00
 7.2946709E+00 6.3861315E-01 1.8388435E+00
 7.2380082E+00 6.5290600E-01 1.8479688E+00
 7.1807775E+00 6.6894695E-01 1.8552509E+00
 7.1232622E+00 6.8695768E-01 1.8598707E+00
 7.0658049E+00 7.0707845E-01 1.8610227E+00
 7.0088640E+00 7.2932803E-01 1.8580255E+00
 6.9530362E+00 7.5357822E-01 1.8504326E+00
 6.8990186E+00 7.7955463E-01 1.8381075E+00
 6.8475202E+00 8.0686697E-01 1.8212372E+00
 6.7991622E+00 8.3506151E-01 1.8002839E+00
 6.7544058E+00 8.6367768E-01 1.7758948E+00
 6.7135201E+00 8.9229320E-01 1.7488003E+00
 6.6765855E+00 9.2054537E-01 1.7197231E+00
 6.6435063E+00 9.4812484E-01 1.6892952E+00
 6.6140002E+00 9.7473729E-01 1.6579511E+00
 6.5875701E+00 9.9999948E-01 1.6258040E+00
 7.6057360E+00 6.0813914E-01 1.7938935E+00
 7.5561307E+00 6.1937034E-01 1.8043513E+00
 7.5051297E+00 6.3034522E-01 1.8147742E+00
 7.4525570E+00 6.4178139E-01 1.8254197E+00
 7.3985285E+00 6.5404637E-01 1.8362034E+00
 7.3432544E+00 6.6739930E-01 1.8468240E+00
 7.2870117E+00 6.8206869E-01 1.8567886E+00
 7.2300853E+00 6.9828004E-01 1.8654420E+00
 7.1727499E+00 7.1623647E-01 1.8720066E+00
 7.1152934E+00 7.3608585E-01 1.8756496E+00
 7.0580701E+00 7.5788403E-01 1.8755797E+00
 7.0015531E+00 7.8156561E-01 1.8711614E+00
 6.9463479E+00 8.0693063E-01 1.8620197E+00
 6.8931441E+00 8.3365757E-01 1.8481028E+00
 6.8426218E+00 8.6134083E-01 1.8296792E+00
 6.7953538E+00 8.8954423E-01 1.8072737E+00
 6.7517409E+00 9.1785328E-01 1.7815693E+00
 6.7119790E+00 9.4590788E-01 1.7532913E+00
 6.6760329E+00 9.7339700E-01 1.7230801E+00
 6.6436000E+00 9.9999947E-01 1.6913356E+00
 6.6140003E+00 1.0252617E+00 1.6579510E+00
 7.6044792E+00 6.4288464E-01 1.8102511E+00
 7.5536981E+00 6.5572629E-01 1.8208224E+00
 7.5016085E+00 6.6833044E-01 1.8313337E+00
 7.4481324E+00 6.8142280E-01 1.8419800E+00
 7.3933461E+00 6.9542623E-01 1.8526657E+00
 7.3374682E+00 7.1059813E-01 1.8630503E+00
 7.2807770E+00 7.2714781E-01 1.8726005E+00
 7.2235607E+00 7.4525848E-01 1.8806220E+00
 7.1660978E+00 7.6507374E-01 1.8863106E+00
 7.1086836E+00 7.8666806E-01 1.8888290E+00
 7.0516842E+00 8.1001785E-01 1.8874101E+00
 6.9955860E+00 8.3498170E-01 1.8814721E+00
 6.9409978E+00 8.6129990E-01 1.8707161E+00
 6.8885946E+00 8.8861777E-01 1.8551744E+00
 6.8390206E+00 9.1652975E-01 1.8351902E+00
 6.7927909E+00 9.4463176E-01 1.8113374E+00
 6.7502248E+00 9.7256151E-01 1.7843037E+00
 6.7113918E+00 9.9999947E-01 1.7547437E+00
 6.6760329E+00 1.0266019E+00 1.7230800E+00
 6.6435064E+00 1.0518741E+00 1.6892951E+00
 7.6034777E+00 6.7941671E-01 1.8254955E+00
 7.5517266E+00 6.9376813E-01 1.8359664E+00
 7.4987298E+00 7.0796745E-01 1.8463746E+00
 7.4444491E+00 7.2274323E-01 1.8568595E+00
 7.3889931E+00 7.3850572E-01 1.8672762E+00
 7.3325909E+00 7.5549953E-01 1.8772453E+00
 7.2755336E+00 7.7390083E-01 1.8861939E+00
 7.2181162E+00 7.9384551E-01 1.8933970E+00
 7.1606221E+00 8.1541483E-01 1.8980356E+00
 7.1033539E+00 8.3861151E-01 1.8992817E+00
 7.0466874E+00 8.6333760E-01 1.8964057E+00
 6.9911147E+00 8.8938575E-01 1.8888888E+00
 6.9372375E+00 9.1645050E-01 1.8765108E+00
 6.8857040E+00 9.4416171E-01 1.8593814E+00
 6.8371078E+00 9.7213193E-01 1.8379025E+00
 6.7918849E+00 9.9999946E-01 1.8126658E+00
 6.7502248E+00 1.0274374E+00 1.7843036E+00
 6.7119791E+00 1.0540911E+00 1.7532912E+00
 6.6765856E+00 1.0794536E+00 1.7197230E+00
 7.6025800E+00 7.1776038E-01 1.8394742E+00
 7.5499789E+00 7.3355003E-01 1.8496646E+00
 7.4962011E+00 7.4932682E-01 1.8597962E+00
 7.4412473E+00 7.6577846E-01 1.8699391E+00
 7.3852520E+00 7.8328613E-01 1.8798982E+00
 7.3284650E+00 8.0206212E-01 1.8892540E+00
 7.2711889E+00 8.2224323E-01 1.8974020E+00
 7.2137255E+00 8.4391278E-01 1.9035977E+00
 7.1563621E+00 8.6708916E-01 1.9070224E+00
 7.0994057E+00 8.9170563E-01 1.9068726E+00
 7.0432355E+00 9.1759752E-01 1.9024691E+00
 6.9883390E+00 9.4450449E-01 1.8933623E+00
 6.9352967E+00 9.7209358E-01 1.8794074E+00
 6.8847132E+00 9.9999946E-01 1.8607775E+00
 6.8371078E+00 1.0278670E+00 1.8379025E+00
 6.7927910E+00 1.0553672E+00 1.8113373E+00
 6.7517411E+00 1.0821456E+00 1.7815691E+00
 6.7135202E+00 1.1077057E+00 1.7488001E+00
 7.6017582E+00 7.5783351E-01 1.8519846E+00
 7.5484149E+00 7.7501121E-01 1.8617318E+00
 7.4939862E+00 7.9233508E-01 1.8714131E+00
 7.4385050E+00 8.1042983E-01 1.8810278E+00
 7.3821295E+00 8.2963102E-01 1.8903330E+00
 7.3251268E+00 8.5011054E-01 1.8988752E+00
 7.2678095E+00 8.7195951E-01 1.9060286E+00
 7.2104829E+00 8.9520681E-01 1.9110433E+00
 7.1534354E+00 9.1980828E-01 1.9131160E+00
 7.0969735E+00 9.4563356E-01 1.9114824E+00
 7.0414711E+00 9.7246249E-01 1.9055227E+00
 6.9873980E+00 9.9999946E-01 1.8948578E+00
 6.9352968E+00 1.0279053E+00 1.8794074E+00
 6.8857040E+00 1.0558372E+00 1.8593813E+00
 6.8390207E+00 1.0834692E+00 1.8351901E+00
 6.7953539E+00 1.1104547E+00 1.8072735E+00
 6.7544060E+00 1.1363212E+00 1.7758946E+00
 7.6010294E+00 7.9948470E-01 1.8628124E+00
 7.5470635E+00 8.1799799E-01 1.8719610E+00
 7.4921283E+00 8.3681656E-01 1.8810178E+00
 7.4362810E+00 8.5648999E-01 1.8899173E+00
 7.3796996E+00 8.7729724E-01 1.8983745E+00
 7.3226641E+00 8.9936367E-01 1.9059116E+00
 7.2654929E+00 9.2273186E-01 1.9118936E+00
 7.2084913E+00 9.4737568E-01 1.9155795E+00
 7.1519445E+00 9.7319296E-01 1.9161958E+00
 7.0961519E+00 9.9999947E-01 1.9130288E+00
 7.0414712E+00 1.0275364E+00 1.9055226E+00
 6.9883390E+00 1.0554944E+00 1.8933623E+00
 6.9372375E+00 1.0835484E+00 1.8765107E+00
 6.8885947E+00 1.1113811E+00 1.8551743E+00
 6.8426220E+00 1.1386581E+00 1.8296789E+00
 6.7991624E+00 1.1649374E+00 1.8002836E+00
 7.6004163E+00 8.4251248E-01 1.8717558E+00
 7.5459661E+00 8.6228648E-01 1.8801537E+00
 7.4906823E+00 8.8251930E-01 1.8884153E+00
 7.4346415E+00 9.0367299E-01 1.8964180E+00
 7.3780361E+00 9.2596268E-01 1.9038444E+00
 7.3211542E+00 9.4946335E-01 1.9102028E+00
 7.2643150E+00 9.7416812E-01 1.9148620E+00
 7.2078196E+00 9.9999949E-01 1.9171035E+00
 7.1519445E+00 1.0268060E+00 1.9161958E+00
 7.0969736E+00 1.0543654E+00 1.9114823E+00
 7.0432356E+00 1.0824014E+00 1.9024690E+00
 6.9911147E+00 1.1106132E+00 1.8888887E+00
 6.9409978E+00 1.1386990E+00 1.8707159E+00
 6.8931442E+00 1.1663413E+00 1.8481025E+00
 6.8475204E+00 1.1931319E+00 1.8212369E+00
 7.5999388E+00 8.8666676E-01 1.8786360E+00
 7.5451573E+00 9.0759956E-01 1.8861387E+00
 7.4896931E+00 9.2913477E-01 1.8934437E+00
 7.4336372E+00 9.5163632E-01 1.9003816E+00
 7.3771912E+00 9.7525020E-01 1.9066132E+00
 7.3206454E+00 9.9999950E-01 1.9116452E+00
 7.2643150E+00 1.0258309E+00 1.9148620E+00
 7.2084913E+00 1.0526233E+00 1.9155795E+00
 7.1534354E+00 1.0801907E+00 1.9131160E+00
 7.0994058E+00 1.1082933E+00 1.9068726E+00
 7.0466874E+00 1.1366613E+00 1.8964056E+00
 6.9955861E+00 1.1650172E+00 1.8814719E+00
 6.9463480E+00 1.1930682E+00 1.8620194E+00
 6.8990187E+00 1.2204442E+00 1.8381071E+00
 7.5996122E+00 9.3165663E-01 1.8833081E+00
 7.5446622E+00 9.5361927E-01 1.8897848E+00
 7.4891910E+00 9.7631431E-01 1.8959877E+00
 7.4332991E+00 9.9999950E-01 1.9017135E+00
 7.3771912E+00 1.0247488E+00 1.9066132E+00
 7.3211542E+00 1.0505357E+00 1.9102028E+00
 7.2654930E+00 1.0772671E+00 1.9118936E+00
 7.2104829E+00 1.1047922E+00 1.9110433E+00
 7.1563621E+00 1.1329098E+00 1.9070223E+00
 7.1033539E+00 1.1613874E+00 1.8992816E+00
 7.0516843E+00 1.1899811E+00 1.8874099E+00
 7.0015532E+00 1.2184333E+00 1.8711612E+00
 6.9530364E+00 1.2464206E+00 1.8504322E+00
 7.5994464E+00 9.7716068E-01 1.8856704E+00
 7.5444955E+00 9.9999950E-01 1.8910096E+00
 7.4891910E+00 1.0236847E+00 1.8959877E+00
 7.4336372E+00 1.0483627E+00 1.9003816E+00
 7.3780361E+00 1.0740363E+00 1.9038444E+00
 7.3226641E+00 1.1006353E+00 1.9059116E+00
 7.2678096E+00 1.1280395E+00 1.9060286E+00
 7.2137256E+00 1.1560862E+00 1.9035977E+00
 7.1606221E+00 1.1845841E+00 1.8980355E+00
 7.1086836E+00 1.2133309E+00 1.8888288E+00
 7.0580702E+00 1.2421149E+00 1.8755795E+00
 7.0088641E+00 1.2706708E+00 1.8580252E+00
 7.5994464E+00 1.0228383E+00 1.8856705E+00
 7.5446622E+00 1.0463797E+00 1.8897849E+00
 7.4896931E+00 1.0708642E+00 1.8934437E+00
 7.4346415E+00 1.0963260E+00 1.8964181E+00
 7.3796996E+00 1.1227018E+00 1.8983746E+00
 7.3251268E+00 1.1498885E+00 1.8988752E+00
 7.2711890E+00 1.1777558E+00 1.8974020E+00
 7.2181162E+00 1.2061535E+00 1.8933970E+00
 7.1660979E+00 1.2349252E+00 1.8863105E+00
 7.1152935E+00 1.2639131E+00 1.8756494E+00
 7.0658050E+00 1.2929204E+00 1.8610225E+00
 7.5996122E+00 1.0683424E+00 1.8833082E+00
 7.5451573E+00 1.0923995E+00 1.8861388E+00
 7.4906823E+00 1.1174797E+00 1.8884154E+00
 7.4362810E+00 1.1435090E+00 1.8899174E+00
 7.3821295E+00 1.1703680E+00 1.8903331E+00
 7.3284650E+00 1.1979369E+00 1.8892541E+00
 7.2755337E+00 1.2260982E+00 1.8861940E+00
 7.2235608E+00 1.2547405E+00 1.8806220E+00
 7.1727499E+00 1.2837625E+00 1.8720065E+00
 7.1232622E+00 1.3130412E+00 1.8598706E+00
 7.5999389E+00 1.1133323E+00 1.8786361E+00
 7.5459661E+00 1.1377125E+00 1.8801538E+00
 7.4921283E+00 1.1631825E+00 1.8810179E+00
 7.4385050E+00 1.1895692E+00 1.8810280E+00
 7.3852520E+00 1.2167129E+00 1.8798984E+00
 7.3325909E+00 1.2444995E+00 1.8772454E+00
 7.2807770E+00 1.2728512E+00 1.8726006E+00
 7.2300853E+00 1.3017190E+00 1.8654420E+00
 7.1807776E+00 1.3310520E+00 1.8552508E+00
 7.6004163E+00 1.1574865E+00 1.8717560E+00
 7.5470635E+00 1.1820010E+00 1.8719611E+00
 7.4939862E+00 1.2076640E+00 1.8714132E+00
 7.4412473E+00 1.2342206E+00 1.8699393E+00
 7.3889931E+00 1.2614933E+00 1.8672763E+00
 7.3374683E+00 1.2894009E+00 1.8630504E+00
 7.2870118E+00 1.3179303E+00 1.8567887E+00
 7.2380082E+00 1.3470930E+00 1.8479688E+00
 7.6010294E+00 1.2005143E+00 1.8628126E+00
 7.5484149E+00 1.2249878E+00 1.8617319E+00
 7.4962012E+00 1.2506722E+00 1.8597964E+00
 7.4444491E+00 1.2772558E+00 1.8568597E+00
 7.3933461E+00 1.3045728E+00 1.8526658E+00
 7.3432545E+00 1.3325998E+00 1.8468242E+00
 7.2946710E+00 1.3613859E+00 1.8388436E+00
 7.6017582E+00 1.2421655E+00 1.8519848E+00
 7.5499789E+00 1.2664490E+00 1.8496648E+00
 7.4987298E+00 1.2920316E+00 1.8463748E+00
 7.4481324E+00 1.3185763E+00 1.8419803E+00
 7.3985285E+00 1.3459527E+00 1.8362036E+00
 7.3504902E+00 1.3741904E+00 1.8286191E+00
 7.6025800E+00 1.2822387E+00 1.8394744E+00
 7.5517266E+00 1.3062310E+00 1.8359666E+00
 7.5016085E+00 1.3316687E+00 1.8313340E+00
 7.4525570E+00 1.3582177E+00 1.8254199E+00
 7.4051785E+00 1.3857675E+00 1.8179069E+00
 7.6034777E+00 1.3205824E+00 1.8254957E+00
 7.5536981E+00 1.3442728E+00 1.8208227E+00
 7.5051297E+00 1.3696539E+00 1.8147744E+00
 7.4584455E+00 1.3963595E+00 1.8071585E+00
 7.6044792E+00 1.3571145E+00 1.8102513E+00
 7.5561307E+00 1.3806288E+00 1.8043515E+00
 7.5100429E+00 1.4061933E+00 1.7966559E+00
 7.6057360E+00 1.3918600E+00 1.7938938E+00
 7.5598121E+00 1.4155600E+00 1.7864843E+00
 7.6076325E+00 1.4248840E+00 1.7765302E+00
 7.6542078E+00 1.4357695E+00 1.7658049E+00
 7.6541673E+00 1.4045480E+00 1.7827761E+00
 7.6541272E+00 1.3713343E+00 1.7990906E+00
 7.6540936E+00 1.3361181E+00 1.8145468E+00
 7.6540676E+00 1.2989898E+00 1.8289102E+00
 7.6540474E+00 1.2600801E+00 1.8419422E+00
 7.6540312E+00 1.2195289E+00 1.8534246E+00
 7.6540177E+00 1.1775190E+00 1.8631505E+00
 7.6540064E+00 1.1342778E+00 1.8709327E+00
 7.6539976E+00 1.0900726E+00 1.8766131E+00
 7.6539920E+00 1.0452048E+00 1.8800716E+00
 7.6539900E+00 9.9999949E-01 1.8812330E+00
 7.6539920E+00 9.5479419E-01 1.8800716E+00
 7.6539976E+00 9.0992638E-01 1.8766131E+00
 7.6540064E+00 8.6572124E-01 1.8709326E+00
 7.6540177E+00 8.2248005E-01 1.8631504E+00
 7.6540312E+00 7.8047014E-01 1.8534244E+00
 7.6540474E+00 7.3991892E-01 1.8419420E+00
 7.6540675E+00 7.0100929E-01 1.8289100E+00
 7.6540936E+00 6.6388105E-01 1.8145466E+00
 7.6541272E+00 6.2866487E-01 1.7990904E+00
 7.6541673E+00 5.9545115E-01 1.7827759E+00
 7.6542078E+00 5.6422965E-01 1.7658046E+00
 7.6958713E+00 5.4690051E-01 1.7517279E+00
 7.7415095E+00 5.5811616E-01 1.7542166E+00
 7.7892329E+00 5.6982973E-01 1.7567691E+00
 7.8387121E+00 5.8207150E-01 1.7593364E+00
 7.8897694E+00 5.9490012E-01 1.7618250E+00
 7.9422026E+00 6.0839600E-01 1.7641062E+00
 7.9958250E+00 6.2265786E-01 1.7660167E+00
 8.0504205E+00 6.3778950E-01 1.7673603E+00
 8.1057376E+00 6.5389207E-01 1.7679142E+00
 8.1614852E+00 6.7105469E-01 1.7674376E+00
 8.2173373E+00 6.8934609E-01 1.7656846E+00
 8.2729393E+00 7.0880669E-01 1.7624175E+00
 8.3279179E+00 7.2944199E-01 1.7574226E+00
 8.3818913E+00 7.5121849E-01 1.7505245E+00
 8.4344818E+00 7.7406222E-01 1.7415983E+00
 8.4853289E+00 7.9786118E-01 1.7305780E+00
 8.5341027E+00 8.2247037E-01 1.7174606E+00
 8.5805154E+00 8.4771929E-01 1.7023045E+00
 8.6243260E+00 8.7342001E-01 1.6852257E+00
 8.6653398E+00 8.9937548E-01 1.6663931E+00
 8.7033892E+00 9.2537149E-01 1.6460338E+00
 8.7383485E+00 9.5118735E-01 1.6244130E+00
 8.7700542E+00 9.7650779E-01 1.6018930E+00
 7.7005796E+00 1.4210869E+00 1.7696804E+00
 7.7478201E+00 1.4080755E+00 1.7724739E+00
 7.7966088E+00 1.3950686E+00 1.7750425E+00
 7.8468450E+00 1.3816794E+00 1.7775008E+00
 7.8984485E+00 1.3676869E+00 1.7798185E+00
 7.9512854E+00 1.3529746E+00 1.7818657E+00
 8.0051767E+00 1.3374488E+00 1.7834638E+00
 8.0599040E+00 1.3210230E+00 1.7843999E+00
 8.1152039E+00 1.3036188E+00 1.7844386E+00
 8.1707733E+00 1.2851733E+00 1.7833324E+00
 8.2262760E+00 1.2656469E+00 1.7808348E+00
 8.2813521E+00 1.2450306E+00 1.7767150E+00
 8.3356285E+00 1.2233507E+00 1.7707731E+00
 8.3887303E+00 1.2006709E+00 1.7628536E+00
 8.4402933E+00 1.1770906E+00 1.7528567E+00
 8.4899768E+00 1.1527386E+00 1.7407445E+00
 8.5374753E+00 1.1277659E+00 1.7265430E+00
 8.5825314E+00 1.1023351E+00 1.7103364E+00
 8.6249457E+00 1.0766173E+00 1.6922561E+00
 8.6646077E+00 1.0508022E+00 1.6724502E+00
 8.7015722E+00 1.0251268E+00 1.6510122E+00
 8.7361803E+00 9.9999950E-01 1.6278625E+00
 7.7023649E+00 1.3882085E+00 1.7866159E+00
 7.7513261E+00 1.3734845E+00 1.7894830E+00
 7.8012624E+00 1.3591518E+00 1.7919423E+00
 7.8523901E+00 1.3445114E+00 1.7942136E+00
 7.9046898E+00 1.3292684E+00 1.7962729E+00
 7.9580775E+00 1.3132728E+00 1.7979866E+00
 8.0123895E+00 1.2964353E+00 1.7991605E+00
 8.0674014E+00 1.2786844E+00 1.7995677E+00
 8.1228376E+00 1.2599629E+00 1.7989623E+00
 8.1783814E+00 1.2402332E+00 1.7970915E+00
 8.2336858E+00 1.2194846E+00 1.7937103E+00
 8.2883843E+00 1.1977381E+00 1.7885965E+00
 8.3421029E+00 1.1750501E+00 1.7815660E+00
 8.3944729E+00 1.1515107E+00 1.7724853E+00
 8.4451448E+00 1.1272387E+00 1.7612806E+00
 8.4938011E+00 1.1023712E+00 1.7479418E+00
 8.5401703E+00 1.0770531E+00 1.7325184E+00
 8.5840553E+00 1.0514301E+00 1.7151001E+00
 8.6253891E+00 1.0256657E+00 1.6957716E+00
 8.6643457E+00 9.9999950E-01 1.6745172E+00
 8.7015722E+00 9.7487215E-01 1.6510122E+00
 7.7035253E+00 1.3536947E+00 1.8026374E+00
 7.7536124E+00 1.3376358E+00 1.8052828E+00
 7.8045674E+00 1.3220003E+00 1.8075007E+00
 7.8565279E+00 1.3060940E+00 1.8094672E+00
 7.9095299E+00 1.2895670E+00 1.8111533E+00
 7.9634917E+00 1.2722684E+00 1.8124086E+00
 8.0182497E+00 1.2541149E+00 1.8130254E+00
 8.0735679E+00 1.2350520E+00 1.8127649E+00
 8.1291565E+00 1.2150444E+00 1.8113732E+00
 8.1846854E+00 1.1940805E+00 1.8085955E+00
 8.2397974E+00 1.1721778E+00 1.8041918E+00
 8.2941211E+00 1.1493865E+00 1.7979523E+00
 8.3472841E+00 1.1257891E+00 1.7897121E+00
 8.3989276E+00 1.1014962E+00 1.7793620E+00
 8.4487229E+00 1.0766362E+00 1.7668546E+00
 8.4963876E+00 1.0513429E+00 1.7522019E+00
 8.5417151E+00 1.0257480E+00 1.7354573E+00
 8.5846424E+00 9.9999950E-01 1.7166684E+00
 8.6253891E+00 9.7433326E-01 1.6957716E+00
 8.6646077E+00 9.4919679E-01 1.6724501E+00
 7.7044491E+00 1.3174456E+00 1.8175857E+00
 7.7554642E+00 1.3002008E+00 1.8198330E+00
 7.8072677E+00 1.2833443E+00 1.8216564E+00
 7.8599725E+00 1.2661862E+00 1.8231871E+00
 7.9135971E+00 1.2483909E+00 1.8243647E+00
 7.9680592E+00 1.2298127E+00 1.8250218E+00
 8.0231819E+00 1.2103845E+00 1.8249370E+00
 8.0787163E+00 1.1900703E+00 1.8238628E+00
 8.1343583E+00 1.1688586E+00 1.8215417E+00
 8.1897667E+00 1.1467644E+00 1.8177216E+00
 8.2445781E+00 1.1238327E+00 1.8121723E+00
 8.2984206E+00 1.1001391E+00 1.8047009E+00
 8.3509295E+00 1.0757865E+00 1.7951654E+00
 8.4017638E+00 1.0508958E+00 1.7834815E+00
 8.4506289E+00 1.0255929E+00 1.7696234E+00
 8.4973052E+00 9.9999950E-01 1.7536089E+00
 8.5417151E+00 9.7425102E-01 1.7354573E+00
 8.5840553E+00 9.4856888E-01 1.7151001E+00
 8.6249457E+00 9.2338166E-01 1.6922561E+00
 7.7052849E+00 1.2794246E+00 1.8312892E+00
 7.7571134E+00 1.2611063E+00 1.8329866E+00
 7.8096465E+00 1.2430878E+00 1.8342761E+00
 7.8629729E+00 1.2247240E+00 1.8352313E+00
 7.9170988E+00 1.2057060E+00 1.8357590E+00
 7.9719287E+00 1.1859097E+00 1.8356729E+00
 8.0272737E+00 1.1652864E+00 1.8347416E+00
 8.0828712E+00 1.1438226E+00 1.8327127E+00
 8.1384063E+00 1.1215312E+00 1.8293301E+00
 8.1935308E+00 1.0984530E+00 1.8243500E+00
 8.2478807E+00 1.0746578E+00 1.8175571E+00
 8.3010907E+00 1.0502409E+00 1.8087798E+00
 8.3528127E+00 1.0253154E+00 1.7978995E+00
 8.4027371E+00 9.9999950E-01 1.7848534E+00
 8.4506289E+00 9.7440613E-01 1.7696234E+00
 8.4963876E+00 9.4865605E-01 1.7522018E+00
 8.5401703E+00 9.2294594E-01 1.7325184E+00
 8.5825313E+00 8.9766386E-01 1.7103364E+00
 7.7060566E+00 1.2397106E+00 1.8435447E+00
 7.7585945E+00 1.2204063E+00 1.8445603E+00
 7.8117342E+00 1.2012918E+00 1.8451818E+00
 7.8655460E+00 1.1817866E+00 1.8454235E+00
 7.9200245E+00 1.1616219E+00 1.8451603E+00
 7.9750624E+00 1.1406999E+00 1.8441904E+00
 8.0304591E+00 1.1189952E+00 1.8422760E+00
 8.0859416E+00 1.0965172E+00 1.8391652E+00
 8.1411882E+00 1.0733031E+00 1.8346086E+00
 8.1958500E+00 1.0494169E+00 1.8283758E+00
 8.2495690E+00 1.0249473E+00 1.8202710E+00
 8.3019962E+00 9.9999950E-01 1.8101448E+00
 8.3528127E+00 9.7468365E-01 1.7978995E+00
 8.4017638E+00 9.4910315E-01 1.7834815E+00
 8.4487229E+00 9.2336281E-01 1.7668546E+00
 8.4938011E+00 8.9762778E-01 1.7479418E+00
 8.5374753E+00 8.7223310E-01 1.7265430E+00
 7.7067438E+00 1.1984529E+00 1.8541451E+00
 7.7598759E+00 1.1782477E+00 1.8543602E+00
 7.8134863E+00 1.1581189E+00 1.8541856E+00
 7.8676335E+00 1.1375603E+00 1.8535812E+00
 7.9223022E+00 1.1163520E+00 1.8523939E+00
 7.9773755E+00 1.0944270E+00 1.8504108E+00
 8.0326438E+00 1.0717839E+00 1.8473929E+00
 8.0878281E+00 1.0484552E+00 1.8430935E+00
 8.1426057E+00 1.0244998E+00 1.8372757E+00
 8.1966335E+00 9.9999950E-01 1.8297264E+00
 8.2495690E+00 9.7505168E-01 1.8202710E+00
 8.3010907E+00 9.4975815E-01 1.8087798E+00
 8.3509294E+00 9.2421247E-01 1.7951654E+00
 8.3989276E+00 8.9850285E-01 1.7793620E+00
 8.4451448E+00 8.7276029E-01 1.7612806E+00
 8.4899768E+00 8.4726035E-01 1.7407445E+00
 7.7073219E+00 1.1558493E+00 1.8628963E+00
 7.7609160E+00 1.1348446E+00 1.8622024E+00
 7.8148494E+00 1.1138036E+00 1.8611130E+00
 7.8691722E+00 1.0923054E+00 1.8595401E+00
 7.9238617E+00 1.0701843E+00 1.8573089E+00
 7.9787941E+00 1.0474061E+00 1.8542010E+00
 8.0337550E+00 1.0239935E+00 1.8499809E+00
 8.0884645E+00 9.9999950E-01 1.8444129E+00
 8.1426057E+00 9.7549915E-01 1.8372756E+00
 8.1958500E+00 9.5058206E-01 1.8283758E+00
 8.2478807E+00 9.2534122E-01 1.8175571E+00
 8.2984206E+00 8.9985990E-01 1.8047009E+00
 8.3472841E+00 8.7420990E-01 1.7897120E+00
 8.3944729E+00 8.4848829E-01 1.7724853E+00
 8.4402933E+00 8.2290839E-01 1.7528566E+00
 7.7077712E+00 1.1121441E+00 1.8696260E+00
 7.7616817E+00 1.0904617E+00 1.8679279E+00
 7.8157813E+00 1.0686343E+00 1.8658184E+00
 7.8701145E+00 1.0463356E+00 1.8631707E+00
 7.9246537E+00 1.0234577E+00 1.8597953E+00
 7.9792722E+00 9.9999950E-01 1.8554743E+00
 8.0337550E+00 9.7600553E-01 1.8499809E+00
 8.0878281E+00 9.5154379E-01 1.8430935E+00
 8.1411882E+00 9.2669595E-01 1.8346086E+00
 8.1935308E+00 9.0154597E-01 1.8243500E+00
 8.2445781E+00 8.7616635E-01 1.8121722E+00
 8.2941210E+00 8.5061252E-01 1.7979523E+00
 8.3421029E+00 8.2494892E-01 1.7815660E+00
 8.3887303E+00 7.9932806E-01 1.7628536E+00
 7.7080779E+00 1.0676219E+00 1.8741949E+00
 7.7621500E+00 1.0454029E+00 1.8714146E+00
 7.8162541E+00 1.0229373E+00 1.8681981E+00
 7.8704317E+00 9.9999949E-01 1.8643903E+00
 7.9246537E+00 9.7654134E-01 1.8597953E+00
 7.9787941E+00 9.5259293E-01 1.8542009E+00
 8.0326438E+00 9.2821513E-01 1.8473928E+00
 8.0859416E+00 9.0348182E-01 1.8391652E+00
 8.1384063E+00 8.7846781E-01 1.8293301E+00
 8.1897667E+00 8.5323461E-01 1.8177216E+00
 8.2397974E+00 8.2782121E-01 1.8041918E+00
 8.2883843E+00 8.0226093E-01 1.7885965E+00
 8.3356285E+00 7.7664830E-01 1.7707731E+00
 7.7082333E+00 1.0225969E+00 1.8765047E+00
 7.7623076E+00 9.9999949E-01 1.8725855E+00
 7.8162541E+00 9.7706172E-01 1.8681980E+00
 7.8701145E+00 9.5366338E-01 1.8631706E+00
 7.9238616E+00 9.2981469E-01 1.8573089E+00
 7.9773755E+00 9.0557201E-01 1.8504108E+00
 8.0304591E+00 8.8100378E-01 1.8422760E+00
 8.0828712E+00 8.5617639E-01 1.8327126E+00
 8.1343583E+00 8.3114037E-01 1.8215417E+00
 8.1846853E+00 8.0591854E-01 1.8085955E+00
 8.2336858E+00 7.8051446E-01 1.7937103E+00
 8.2813521E+00 7.5496842E-01 1.7767149E+00
 7.7082333E+00 9.7740213E-01 1.8765047E+00
 7.7621500E+00 9.5459605E-01 1.8714146E+00
 7.8157813E+00 9.3136468E-01 1.8658183E+00
 7.8691722E+00 9.0769355E-01 1.8595401E+00
 7.9223022E+00 8.8364701E-01 1.8523938E+00
 7.9750624E+00 8.5929906E-01 1.8441903E+00
 8.0272737E+00 8.3471262E-01 1.8347415E+00
 8.0787162E+00 8.0992871E-01 1.8238628E+00
 8.1291565E+00 7.8495462E-01 1.8113731E+00
 8.1783814E+00 7.5976578E-01 1.7970914E+00
 8.2262759E+00 7.3435210E-01 1.7808347E+00
 7.7080778E+00 9.3237710E-01 1.8741949E+00
 7.7616817E+00 9.0953734E-01 1.8679278E+00
 7.8148494E+00 8.8619540E-01 1.8611129E+00
 7.8676335E+00 8.6243870E-01 1.8535812E+00
 7.9200244E+00 8.3837714E-01 1.8451602E+00
 7.9719286E+00 8.1408936E-01 1.8356728E+00
 8.0231819E+00 7.8961456E-01 1.8249369E+00
 8.0735679E+00 7.6494699E-01 1.8127648E+00
 8.1228375E+00 7.4003613E-01 1.7989622E+00
 8.1707733E+00 7.1482570E-01 1.7833323E+00
 7.7077712E+00 8.8785487E-01 1.8696259E+00
 7.7609160E+00 8.6515441E-01 1.8622023E+00
 7.8134862E+00 8.4188014E-01 1.8541855E+00
 7.8655460E+00 8.1821241E-01 1.8454234E+00
 7.9170987E+00 7.9429302E-01 1.8357589E+00
 7.9680592E+00 7.7018630E-01 1.8250217E+00
 8.0182497E+00 7.4588413E-01 1.8130254E+00
 8.0674013E+00 7.2131465E-01 1.7995676E+00
 8.1152039E+00 6.9638018E-01 1.7844385E+00
 7.7073219E+00 8.4414973E-01 1.8628961E+00
 7.7598759E+00 8.2175129E-01 1.8543601E+00
 7.8117342E+00 7.9870722E-01 1.8451816E+00
 7.8629728E+00 7.7527507E-01 1.8352312E+00
 7.9135971E+00 7.5160812E-01 1.8243646E+00
 7.9634917E+00 7.2773066E-01 1.8124085E+00
 8.0123895E+00 7.0356376E-01 1.7991604E+00
 8.0599040E+00 6.7897603E-01 1.7843998E+00
 7.7067438E+00 8.0154609E-01 1.8541450E+00
 7.7585945E+00 7.7959272E-01 1.8445601E+00
 7.8096465E+00 7.5691128E-01 1.8342760E+00
 7.8599724E+00 7.3381281E-01 1.8231869E+00
 7.9095298E+00 7.1043201E-01 1.8111532E+00
 7.9580775E+00 6.8672629E-01 1.7979865E+00
 8.0051766E+00 6.6255025E-01 1.7834637E+00
 7.7060566E+00 7.6028849E-01 1.8435446E+00
 7.7571134E+00 7.3889272E-01 1.8329864E+00
 7.8072677E+00 7.1665471E-01 1.8216563E+00
 7.8565278E+00 6.9390507E-01 1.8094670E+00
 7.9046898E+00 6.7073066E-01 1.7962728E+00
 7.9512854E+00 6.4702444E-01 1.7818656E+00
 7.7052848E+00 7.2057451E-01 1.8312890E+00
 7.7554642E+00 6.9979827E-01 1.8198328E+00
 7.8045674E+00 6.7799880E-01 1.8075005E+00
 7.8523901E+00 6.5548770E-01 1.7942135E+00
 7.8984485E+00 6.3231221E-01 1.7798183E+00
 7.7044490E+00 6.8255344E-01 1.8175855E+00
 7.7536123E+00 6.6236333E-01 1.8052826E+00
 7.8012624E+00 6.4084729E-01 1.7919421E+00
 7.8468449E+00 6.1831967E-01 1.7775006E+00
 7.7035253E+00 6.4630440E-01 1.8026371E+00
 7.7513261E+00 6.2651460E-01 1.7894827E+00
 7.7966088E+00 6.0493047E-01 1.7750423E+00
 7.7023649E+00 6.1179060E-01 1.7866157E+00
 7.7478201E+00 5.9192367E-01 1.7724737E+00
 7.7005796E+00 5.7891223E-01 1.7696802E+00
 7.6284189E+00 1.4862215E+00 1.7374606E+00
 7.5998339E+00 1.5113977E+00 1.7233293E+00
 7.5699103E+00 1.5373882E+00 1.7076547E+00
 7.5387923E+00 1.5640393E+00 1.6903555E+00
 7.5066191E+00 1.5912153E+00 1.6713261E+00
 7.4735836E+00 1.6187502E+00 1.6504528E+00
 7.4398847E+00 1.6464597E+00 1.6276120E+00
 7.4057522E+00 1.6741159E+00 1.6026896E+00
 7.3714435E+00 1.7014465E+00 1.5755926E+00
 7.3372311E+00 1.7281377E+00 1.5462627E+00
 7.3033896E+00 1.7538460E+00 1.5146908E+00
 7.2701832E+00 1.7782151E+00 1.4809277E+00
 7.2378566E+00 1.8008965E+00 1.4450920E+00
 7.2066292E+00 1.8215705E+00 1.4073730E+00
 7.1766927E+00 1.8399671E+00 1.3680263E+00
 7.1482097E+00 1.8558816E+00 1.3273620E+00
 7.1213128E+00 1.8691864E+00 1.2857284E+00
 7.0961049E+00 1.8798325E+00 1.2434947E+00
 7.0726616E+00 1.8878467E+00 1.2010331E+00
 7.0510387E+00 1.8933227E+00 1.1587094E+00
 7.0312866E+00 1.8964109E+00 1.1168940E+00
 7.0134283E+00 1.8973035E+00 1.0759312E+00
 6.9975211E+00 1.8962358E+00 1.0363904E+00
 6.5587436E+00 1.0668293E+00 1.5823789E+00
 6.5549231E+00 1.1102437E+00 1.5700866E+00
 6.5524419E+00 1.1545271E+00 1.5559256E+00
 6.5517355E+00 1.1998944E+00 1.5401857E+00
 6.5530907E+00 1.2463245E+00 1.5229406E+00
 6.5567276E+00 1.2936585E+00 1.5041866E+00
 6.5628329E+00 1.3416576E+00 1.4839019E+00
 6.5715736E+00 1.3900279E+00 1.4620803E+00
 6.5830933E+00 1.4384244E+00 1.4387451E+00
 6.5975031E+00 1.4864566E+00 1.4139536E+00
 6.6148707E+00 1.5336969E+00 1.3877988E+00
 6.6352110E+00 1.5796915E+00 1.3604094E+00
 6.6584778E+00 1.6239729E+00 1.3319493E+00
 6.6845576E+00 1.6660776E+00 1.3026158E+00
 6.7132673E+00 1.7055636E+00 1.2726362E+00
 6.7443565E+00 1.7420319E+00 1.2422619E+00
 6.7775149E+00 1.7751469E+00 1.2117622E+00
 6.8123855E+00 1.8046569E+00 1.1814137E+00
 6.8485745E+00 1.8304042E+00 1.1514874E+00
 6.8856619E+00 1.8523359E+00 1.1222093E+00
 6.9232218E+00 1.8705123E+00 1.0936663E+00
 6.9607528E+00 1.8850820E+00 1.0656364E+00
 6.5832779E+00 1.0949417E+00 1.6129598E+00
 6.5808145E+00 1.1407659E+00 1.6007856E+00
 6.5796553E+00 1.1868516E+00 1.5865039E+00
 6.5803591E+00 1.2336993E+00 1.5705128E+00
 6.5832644E+00 1.2813949E+00 1.5529185E+00
 6.5885985E+00 1.3298056E+00 1.5337090E+00
 6.5965389E+00 1.3786764E+00 1.5128508E+00
 6.6072353E+00 1.4276740E+00 1.4903334E+00
 6.6208066E+00 1.4764073E+00 1.4661848E+00
 6.6373309E+00 1.5244391E+00 1.4404736E+00
 6.6568338E+00 1.5712995E+00 1.4133105E+00
 6.6792790E+00 1.6165009E+00 1.3848470E+00
 6.7045613E+00 1.6595562E+00 1.3552747E+00
 6.7325037E+00 1.6999989E+00 1.3248216E+00
 6.7628605E+00 1.7374073E+00 1.2937464E+00
 6.7953266E+00 1.7714272E+00 1.2623316E+00
 6.8295550E+00 1.8017953E+00 1.2308686E+00
 6.8651741E+00 1.8283540E+00 1.1996337E+00
 6.9018017E+00 1.8510618E+00 1.1688228E+00
 6.9390415E+00 1.8699955E+00 1.1384201E+00
 6.9764531E+00 1.8853365E+00 1.1079159E+00
 6.6112485E+00 1.1234123E+00 1.6435343E+00
 6.6101551E+00 1.1710043E+00 1.6312492E+00
 6.6104306E+00 1.2186784E+00 1.6167403E+00
 6.6126810E+00 1.2669086E+00 1.6003948E+00
 6.6172740E+00 1.3157948E+00 1.5823175E+00
 6.6244366E+00 1.3651863E+00 1.5624870E+00
 6.6343323E+00 1.4147917E+00 1.5408650E+00
 6.6470875E+00 1.4642317E+00 1.5174448E+00
 6.6627886E+00 1.5130657E+00 1.4922652E+00
 6.6814710E+00 1.5608102E+00 1.4654136E+00
 6.7031082E+00 1.6069578E+00 1.4370260E+00
 6.7276035E+00 1.6509970E+00 1.4072853E+00
 6.7547859E+00 1.6924355E+00 1.3764184E+00
 6.7844142E+00 1.7308263E+00 1.3446907E+00
 6.8161865E+00 1.7657939E+00 1.3123971E+00
 6.8497608E+00 1.7970587E+00 1.2798466E+00
 6.8847766E+00 1.8244576E+00 1.2473301E+00
 6.9208650E+00 1.8479511E+00 1.2150534E+00
 6.9576396E+00 1.8676305E+00 1.1829803E+00
 6.9946437E+00 1.8836989E+00 1.1506187E+00
 6.6428987E+00 1.1525255E+00 1.6736041E+00
 6.6432455E+00 1.2015404E+00 1.6610097E+00
 6.6450771E+00 1.2505537E+00 1.6461195E+00
 6.6490201E+00 1.2999706E+00 1.6292753E+00
 6.6554427E+00 1.3498398E+00 1.6105559E+00
 6.6645585E+00 1.3999674E+00 1.5899287E+00
 6.6765065E+00 1.4500135E+00 1.5673561E+00
 6.6913795E+00 1.4995487E+00 1.5428416E+00
 6.7092204E+00 1.5480852E+00 1.5164431E+00
 6.7300116E+00 1.5951008E+00 1.4882750E+00
 6.7536646E+00 1.6400632E+00 1.4585076E+00
 6.7800168E+00 1.6824568E+00 1.4273628E+00
 6.8088325E+00 1.7218100E+00 1.3951104E+00
 6.8398160E+00 1.7577257E+00 1.3620562E+00
 6.8726302E+00 1.7899066E+00 1.3285274E+00
 6.9069240E+00 1.8181789E+00 1.2948372E+00
 6.9423396E+00 1.8425012E+00 1.2612183E+00
 6.9784954E+00 1.8629713E+00 1.2276762E+00
 7.0149229E+00 1.8798143E+00 1.1937979E+00
 6.6784604E+00 1.1821972E+00 1.7026461E+00
 6.6803384E+00 1.2323724E+00 1.6895445E+00
 6.6838555E+00 1.2824706E+00 1.6741010E+00