# TIME = 16.200000
variables = x, y, z
zone N=5762 E=11520 F=FEPOINT ET=TRIANGLE
 3.6402433E+00 1.4629242E+00 1.7488561E+00
 3.6402434E+00 1.4629241E+00 2.5114416E-01
 3.6402434E+00 5.3707656E-01 1.7488564E+00
 3.6402434E+00 5.3707668E-01 2.5114384E-01
 2.5367449E+00 1.0000004E+00 1.5728367E+00
 4.7909069E+00 1.0000005E+00 1.5777362E+00
 2.5367450E+00 1.0000005E+00 4.2716326E-01
 4.7909072E+00 1.0000005E+00 4.2226366E-01
 2.9657238E+00 1.8899571E+00 9.9999998E-01
 2.9657239E+00 1.1004476E-01 1.0000001E+00
 4.3023741E+00 1.8072875E+00 1.0000000E+00
 4.3023742E+00 1.9271285E-01 1.0000001E+00
 3.5944148E+00 1.4562010E+00 1.7576061E+00
 3.5437320E+00 1.4486980E+00 1.7673486E+00
 3.4907273E+00 1.4408024E+00 1.7776008E+00
 3.4361265E+00 1.4324150E+00 1.7882079E+00
 3.3805201E+00 1.4233623E+00 1.7989320E+00
 3.3244758E+00 1.4134017E+00 1.8094222E+00
 3.2684376E+00 1.4022590E+00 1.8192215E+00
 3.2127186E+00 1.3896594E+00 1.8277893E+00
 3.1575044E+00 1.3753545E+00 1.8345420E+00
 3.1029055E+00 1.3591464E+00 1.8388954E+00
 3.0490258E+00 1.3409084E+00 1.8403090E+00
 2.9960232E+00 1.3206012E+00 1.8383291E+00
 2.9441412E+00 1.2982827E+00 1.8326296E+00
 2.8937076E+00 1.2741078E+00 1.8230411E+00
 2.8451039E+00 1.2483180E+00 1.8095636E+00
 2.7987221E+00 1.2212215E+00 1.7923598E+00
 2.7549214E+00 1.1931682E+00 1.7717307E+00
 2.7139944E+00 1.1645243E+00 1.7480807E+00
 2.6761476E+00 1.1356490E+00 1.7218790E+00
 2.6414991E+00 1.1068757E+00 1.6936267E+00
 2.6101071E+00 1.0785178E+00 1.6638542E+00
 2.5819925E+00 1.0508661E+00 1.6331209E+00
 2.5572257E+00 1.0242720E+00 1.6021309E+00
 3.5889008E+00 5.7688461E-01 1.7771127E+00
 3.5364375E+00 5.8645626E-01 1.7876000E+00
 3.4823127E+00 5.9600131E-01 1.7982317E+00
 3.4270381E+00 6.0590744E-01 1.8090046E+00
 3.3710784E+00 6.1650468E-01 1.8197448E+00
 3.3149211E+00 6.2808309E-01 1.8301029E+00
 3.2589704E+00 6.4092215E-01 1.8396060E+00
 3.2034957E+00 6.5526941E-01 1.8476984E+00
 3.1486507E+00 6.7132525E-01 1.8537892E+00
 3.0945275E+00 6.8922841E-01 1.8572990E+00
 3.0412256E+00 7.0904298E-01 1.8577054E+00
 2.9889063E+00 7.3074901E-01 1.8545856E+00
 2.9378165E+00 7.5423882E-01 1.8476543E+00
 2.8882811E+00 7.7932126E-01 1.8367883E+00
 2.8406681E+00 8.0573452E-01 1.8220325E+00
 2.7953451E+00 8.3316556E-01 1.8035877E+00
 2.7526368E+00 8.6127234E-01 1.7817799E+00
 2.7127924E+00 8.8970436E-01 1.7570198E+00
 2.6759660E+00 9.1811912E-01 1.7297578E+00
 2.6422092E+00 9.4619374E-01 1.7004391E+00
 2.6114590E+00 9.7362151E-01 1.6694469E+00
 2.5835004E+00 1.0000004E+00 1.6370130E+00
 3.5864548E+00 6.1109167E-01 1.7950192E+00
 3.5319392E+00 6.2268693E-01 1.8060430E+00
 3.4764900E+00 6.3393011E-01 1.8169270E+00
 3.4202989E+00 6.4546344E-01 1.8277956E+00
 3.3637922E+00 6.5769116E-01 1.8384731E+00
 3.3073810E+00 6.7095203E-01 1.8486090E+00
 3.2514060E+00 6.8552088E-01 1.8577152E+00
 3.1960839E+00 7.0161440E-01 1.8652252E+00
 3.1415291E+00 7.1938465E-01 1.8705467E+00
 3.0878118E+00 7.3891486E-01 1.8731104E+00
 3.0350232E+00 7.6021343E-01 1.8724164E+00
 2.9833226E+00 7.8321092E-01 1.8680752E+00
 2.9329545E+00 8.0776080E-01 1.8598423E+00
 2.8842340E+00 8.3364703E-01 1.8476365E+00
 2.8375072E+00 8.6059726E-01 1.8315396E+00
 2.7931045E+00 8.8830063E-01 1.8117737E+00
 2.7512968E+00 9.1642630E-01 1.7886636E+00
 2.7122605E+00 9.4463937E-01 1.7625828E+00
 2.6760472E+00 9.7260945E-01 1.7338888E+00
 2.6425621E+00 1.0000004E+00 1.7028477E+00
 2.6114590E+00 1.0263794E+00 1.6694469E+00
 3.5846815E+00 6.4683855E-01 1.8117096E+00
 3.5287977E+00 6.6011668E-01 1.8228439E+00
 3.4721824E+00 6.7304667E-01 1.8337968E+00
 3.4151602E+00 6.8623402E-01 1.8446105E+00
 3.3581133E+00 7.0014081E-01 1.8551000E+00
 3.3014294E+00 7.1511391E-01 1.8648888E+00
 3.2453980E+00 7.3141547E-01 1.8734727E+00
 3.1901905E+00 7.4922600E-01 1.8802760E+00
 3.1358868E+00 7.6865107E-01 1.8847092E+00
 3.0825370E+00 7.8972360E-01 1.8862179E+00
 3.0302225E+00 8.1240486E-01 1.8843277E+00
 2.9790973E+00 8.3658531E-01 1.8786837E+00
 2.9293968E+00 8.6208916E-01 1.8690792E+00
 2.8814166E+00 8.8868328E-01 1.8554679E+00
 2.8354682E+00 9.1608937E-01 1.8379536E+00
 2.7918269E+00 9.4399807E-01 1.8167577E+00
 2.7506853E+00 9.7208170E-01 1.7921683E+00
 2.7121189E+00 1.0000004E+00 1.7644764E+00
 2.6760472E+00 1.0273914E+00 1.7338888E+00
 2.6422091E+00 1.0538071E+00 1.7004391E+00
 3.5832928E+00 6.8407328E-01 1.8270542E+00
 3.5263706E+00 6.9887213E-01 1.8380487E+00
 3.4688564E+00 7.1339645E-01 1.8488517E+00
 3.4111414E+00 7.2822415E-01 1.8594417E+00
 3.3536423E+00 7.4380559E-01 1.8695863E+00
 3.2967292E+00 7.6047949E-01 1.8788797E+00
 3.2406613E+00 7.7847906E-01 1.8867974E+00
 3.1855747E+00 7.9794618E-01 1.8927579E+00
 3.1315220E+00 8.1894198E-01 1.8961782E+00
 3.0785358E+00 8.4145562E-01 1.8965222E+00
 3.0266874E+00 8.6540877E-01 1.8933440E+00
 2.9761203E+00 8.9066005E-01 1.8863214E+00
 2.9270522E+00 9.1701099E-01 1.8752807E+00
 2.8797472E+00 9.4421455E-01 1.8601986E+00
 2.8344660E+00 9.7198383E-01 1.8411836E+00
 2.7914119E+00 1.0000004E+00 1.8184318E+00
 2.7506853E+00 1.0279192E+00 1.7921684E+00
 2.7122604E+00 1.0553615E+00 1.7625828E+00
 2.6759659E+00 1.0818818E+00 1.7297579E+00
 3.5821612E+00 7.2276735E-01 1.8409292E+00
 3.5244237E+00 7.3894838E-01 1.8515806E+00
 3.4662051E+00 7.5498165E-01 1.8620437E+00
 3.4079515E+00 7.7139470E-01 1.8722320E+00
 3.3501085E+00 7.8860932E-01 1.8818648E+00
 3.2930445E+00 8.0693272E-01 1.8905022E+00
 3.2369961E+00 8.2656182E-01 1.8976023E+00
 3.1820728E+00 8.4759728E-01 1.9025807E+00
 3.1283052E+00 8.7005931E-01 1.9048655E+00
 3.0757104E+00 8.9389882E-01 1.9039423E+00
 3.0243470E+00 9.1900486E-01 1.8993933E+00
 2.9743417E+00 9.4521009E-01 1.8909270E+00
 2.9258841E+00 9.7229646E-01 1.8783937E+00
 2.8791931E+00 1.0000004E+00 1.8617808E+00
 2.8344660E+00 1.0280170E+00 1.8411837E+00
 2.7918269E+00 1.0560028E+00 1.8167578E+00
 2.7512968E+00 1.0835746E+00 1.7886637E+00
 2.7127923E+00 1.1102965E+00 1.7570199E+00
 3.5812215E+00 7.6283018E-01 1.8531889E+00
 3.5228332E+00 7.8028049E-01 1.8633285E+00
 3.4640692E+00 7.9773105E-01 1.8732791E+00
 3.4054196E+00 8.1565384E-01 1.8828940E+00
 3.3473531E+00 8.3442839E-01 1.8918468E+00
 3.2902364E+00 8.5431998E-01 1.8996673E+00
 3.2342884E+00 8.7548304E-01 1.9058001E+00
 3.1795970E+00 8.9797749E-01 1.9096631E+00
 3.1261737E+00 9.2178594E-01 1.9106995E+00
 3.0740202E+00 9.4682672E-01 1.9084183E+00
 3.0231780E+00 9.7296153E-01 1.9024292E+00
 2.9737491E+00 1.0000004E+00 1.8924658E+00
 2.9258841E+00 1.0277044E+00 1.8783937E+00
 2.8797471E+00 1.0557863E+00 1.8601987E+00
 2.8354682E+00 1.0839115E+00 1.8379537E+00
 2.7931044E+00 1.1117003E+00 1.8117738E+00
 2.7526367E+00 1.1387286E+00 1.7817801E+00
 3.5804429E+00 8.0412606E-01 1.8636832E+00
 3.5215384E+00 8.2274529E-01 1.8731663E+00
 3.4623717E+00 8.4151471E-01 1.8824466E+00
 3.4034643E+00 8.6085414E-01 1.8913261E+00
 3.3453003E+00 8.8109301E-01 1.8994381E+00
 3.2882414E+00 9.0244863E-01 1.9062882E+00
 3.2324900E+00 9.2503095E-01 1.9113138E+00
 3.1781144E+00 9.4886055E-01 1.9139405E+00
 3.1251086E+00 9.7388687E-01 1.9136295E+00
 3.0734567E+00 1.0000004E+00 1.9099143E+00
 3.0231780E+00 1.0270394E+00 1.9024293E+00
 2.9743417E+00 1.0547908E+00 1.8909271E+00
 2.9270522E+00 1.0829899E+00 1.8752807E+00
 2.8814166E+00 1.1113176E+00 1.8554680E+00
 2.8375071E+00 1.1394036E+00 1.8315397E+00
 2.7953450E+00 1.1668353E+00 1.8035879E+00
 3.5798125E+00 8.4648606E-01 1.8722719E+00
 3.5205191E+00 8.6617083E-01 1.8809696E+00
 3.4610876E+00 8.8615335E-01 1.8894366E+00
 3.4020604E+00 9.0680200E-01 1.8974308E+00
 3.3439277E+00 9.2839282E-01 1.9045531E+00
 3.2870424E+00 9.5109247E-01 1.9102926E+00
 3.2315899E+00 9.7496681E-01 1.9140859E+00
 3.1776199E+00 1.0000005E+00 1.9153711E+00
 3.1251086E+00 1.0261140E+00 1.9136295E+00
 3.0740202E+00 1.0531742E+00 1.9084183E+00
 3.0243470E+00 1.0809960E+00 1.8993934E+00
 2.9761203E+00 1.1093408E+00 1.8863215E+00
 2.9293968E+00 1.1379117E+00 1.8690794E+00
 2.8842339E+00 1.1663539E+00 1.8476367E+00
 2.8406680E+00 1.1942664E+00 1.8220328E+00
 3.5793300E+00 8.8970864E-01 1.8788316E+00
 3.5197778E+00 9.1034866E-01 1.8866292E+00
 3.4602203E+00 9.3142960E-01 1.8941543E+00
 3.4012109E+00 9.5326850E-01 1.9011282E+00
 3.3432381E+00 9.7608675E-01 1.9071277E+00
 3.2866418E+00 1.0000005E+00 1.9116329E+00
 3.2315899E+00 1.0250341E+00 1.9140859E+00
 3.1781144E+00 1.0511404E+00 1.9139405E+00
 3.1261737E+00 1.0782150E+00 1.9106995E+00
 3.0757104E+00 1.1061021E+00 1.9039423E+00
 3.0266874E+00 1.1345921E+00 1.8933440E+00
 2.9790974E+00 1.1634156E+00 1.8786839E+00
 2.9329545E+00 1.1922401E+00 1.8598425E+00
 2.8882811E+00 1.2206797E+00 1.8367885E+00
 3.5790020E+00 9.3356610E-01 1.8832629E+00
 3.5193259E+00 9.5504314E-01 1.8900606E+00
 3.4597820E+00 9.7709920E-01 1.8965311E+00
 3.4009261E+00 1.0000005E+00 1.9023667E+00
 3.3432381E+00 1.0239142E+00 1.9071277E+00
 3.2870425E+00 1.0489085E+00 1.9102925E+00
 3.2324900E+00 1.0749700E+00 1.9113138E+00
 3.1795970E+00 1.1020234E+00 1.9096631E+00
 3.1283052E+00 1.1299416E+00 1.9048655E+00
 3.0785359E+00 1.1585453E+00 1.8965223E+00
 3.0302226E+00 1.1875961E+00 1.8843278E+00
 2.9833226E+00 1.2167900E+00 1.8680754E+00
 2.9378165E+00 1.2457621E+00 1.8476546E+00
 3.5788356E+00 9.7781210E-01 1.8854964E+00
 3.5191738E+00 1.0000005E+00 1.8912104E+00
 3.4597820E+00 1.0229018E+00 1.8965310E+00
 3.4012109E+00 1.0467325E+00 1.9011282E+00
 3.3439277E+00 1.0716081E+00 1.9045530E+00
 3.2882414E+00 1.0975523E+00 1.9062882E+00
 3.2342885E+00 1.1245179E+00 1.9058001E+00
 3.1820729E+00 1.1524036E+00 1.9025807E+00
 3.1315221E+00 1.1810589E+00 1.8961782E+00
 3.0825370E+00 1.2102773E+00 1.8862180E+00
 3.0350232E+00 1.2397875E+00 1.8724165E+00
 2.9889063E+00 1.2692519E+00 1.8545858E+00
 3.5788356E+00 1.0221889E+00 1.8854964E+00
 3.5193259E+00 1.0449578E+00 1.8900605E+00
 3.4602203E+00 1.0685714E+00 1.8941542E+00
 3.4020604E+00 1.0931990E+00 1.8974307E+00
 3.3453003E+00 1.1189079E+00 1.8994380E+00
 3.2902364E+00 1.1456810E+00 1.8996673E+00
 3.2369962E+00 1.1734391E+00 1.8976023E+00
 3.1855748E+00 1.2020547E+00 1.8927579E+00
 3.1358869E+00 1.2313499E+00 1.8847093E+00
 3.0878119E+00 1.2610861E+00 1.8731105E+00
 3.0412257E+00 1.2909580E+00 1.8577056E+00
 3.5790020E+00 1.0664349E+00 1.8832628E+00
 3.5197778E+00 1.0896523E+00 1.8866292E+00
 3.4610877E+00 1.1138476E+00 1.8894365E+00
 3.4034643E+00 1.1391468E+00 1.8913260E+00
 3.3473531E+00 1.1655726E+00 1.8918467E+00
 3.2930446E+00 1.1930682E+00 1.8905022E+00
 3.2406614E+00 1.2215219E+00 1.8867974E+00
 3.1901906E+00 1.2507749E+00 1.8802760E+00
 3.1415292E+00 1.2806163E+00 1.8705467E+00
 3.0945276E+00 1.3107725E+00 1.8572991E+00
 3.5793300E+00 1.1102923E+00 1.8788315E+00
 3.5205191E+00 1.1338301E+00 1.8809696E+00
 3.4623717E+00 1.1584863E+00 1.8824465E+00
 3.4054196E+00 1.1843471E+00 1.8828939E+00
 3.3501086E+00 1.2113916E+00 1.8818647E+00
 3.2967292E+00 1.2395214E+00 1.8788796E+00
 3.2453981E+00 1.2685855E+00 1.8734726E+00
 3.1960840E+00 1.2983865E+00 1.8652252E+00
 3.1486508E+00 1.3286757E+00 1.8537892E+00
 3.5798125E+00 1.1535149E+00 1.8722718E+00
 3.5215384E+00 1.1772557E+00 1.8731662E+00
 3.4640692E+00 1.2022699E+00 1.8732789E+00
 3.4079515E+00 1.2286062E+00 1.8722319E+00
 3.3536424E+00 1.2561953E+00 1.8695862E+00
 3.3014295E+00 1.2848870E+00 1.8648887E+00
 3.2514061E+00 1.3144800E+00 1.8577151E+00
 3.2034958E+00 1.3447315E+00 1.8476983E+00
 3.5804429E+00 1.1958749E+00 1.8636830E+00
 3.5228333E+00 1.2197205E+00 1.8633284E+00
 3.4662051E+00 1.2450193E+00 1.8620436E+00
 3.4111414E+00 1.2717768E+00 1.8594415E+00
 3.3581134E+00 1.2998601E+00 1.8550999E+00
 3.3073811E+00 1.3290489E+00 1.8486089E+00
 3.2589705E+00 1.3590788E+00 1.8396059E+00
 3.5812215E+00 1.2371708E+00 1.8531887E+00
 3.5244237E+00 1.2610525E+00 1.8515805E+00
 3.4688564E+00 1.2866045E+00 1.8488515E+00
 3.4151602E+00 1.3137669E+00 1.8446103E+00
 3.3637923E+00 1.3423097E+00 1.8384730E+00
 3.3149212E+00 1.3719178E+00 1.8301028E+00
 3.5821612E+00 1.2772336E+00 1.8409290E+00
 3.5263706E+00 1.3011288E+00 1.8380485E+00
 3.4721824E+00 1.3269542E+00 1.8337966E+00
 3.4202990E+00 1.3545374E+00 1.8277953E+00
 3.3710785E+00 1.3834962E+00 1.8197446E+00
 3.5832928E+00 1.3159276E+00 1.8270540E+00
 3.5287977E+00 1.3398842E+00 1.8228437E+00
 3.4764900E+00 1.3660708E+00 1.8169268E+00
 3.4270381E+00 1.3940934E+00 1.8090043E+00
 3.5846815E+00 1.3531623E+00 1.8117093E+00
 3.5319392E+00 1.3773139E+00 1.8060428E+00
 3.4823127E+00 1.4039995E+00 1.7982315E+00
 3.5864548E+00 1.3889092E+00 1.7950190E+00
 3.5364375E+00 1.4135446E+00 1.7875998E+00
 3.5889008E+00 1.4231162E+00 1.7771125E+00
 3.6400715E+00 1.4343247E+00 1.7658356E+00
 3.6397998E+00 1.4019453E+00 1.7833641E+00
 3.6395112E+00 1.3677146E+00 1.8000483E+00
 3.6392368E+00 1.3317362E+00 1.8156595E+00
 3.6389923E+00 1.2941615E+00 1.8299830E+00
 3.6387834E+00 1.2551395E+00 1.8428245E+00
 3.6386098E+00 1.2148032E+00 1.8540187E+00
 3.6384696E+00 1.1733140E+00 1.8634136E+00
 3.6383612E+00 1.1308631E+00 1.8708739E+00
 3.6382837E+00 1.0876670E+00 1.8762874E+00
 3.6382371E+00 1.0439626E+00 1.8795702E+00
 3.6382215E+00 1.0000005E+00 1.8806703E+00
 3.6382371E+00 9.5603836E-01 1.8795702E+00
 3.6382837E+00 9.1233392E-01 1.8762874E+00
 3.6383612E+00 8.6913787E-01 1.8708740E+00
 3.6384696E+00 8.2668697E-01 1.8634137E+00
 3.6386098E+00 7.8519772E-01 1.8540189E+00
 3.6387834E+00 7.4486143E-01 1.8428246E+00
 3.6389923E+00 7.0583936E-01 1.8299832E+00
 3.6392369E+00 6.6826466E-01 1.8156598E+00
 3.6395113E+00 6.3228631E-01 1.8000485E+00
 3.6397998E+00 5.9805551E-01 1.7833644E+00
 3.6400715E+00 5.6567609E-01 1.7658359E+00
 3.6855850E+00 5.4773540E-01 1.7511281E+00
 3.7349357E+00 5.5942651E-01 1.7536325E+00
 3.7858717E+00 5.7150850E-01 1.7561815E+00
 3.8379212E+00 5.8399268E-01 1.7587087E+00
 3.8908522E+00 5.9694240E-01 1.7611104E+00
 3.9444742E+00 6.1045646E-01 1.7632575E+00
 3.9986371E+00 6.2464452E-01 1.7649911E+00
 4.0531776E+00 6.3961334E-01 1.7661258E+00
 4.1079157E+00 6.5546207E-01 1.7664575E+00
 4.1626508E+00 6.7227728E-01 1.7657713E+00
 4.2171627E+00 6.9012838E-01 1.7638509E+00
 4.2712134E+00 7.0906324E-01 1.7604882E+00
 4.3245500E+00 7.2910425E-01 1.7554930E+00
 4.3769099E+00 7.5024592E-01 1.7487023E+00
 4.4280255E+00 7.7245367E-01 1.7399889E+00
 4.4776302E+00 7.9566508E-01 1.7292667E+00
 4.5254661E+00 8.1979164E-01 1.7164959E+00
 4.5712910E+00 8.4472250E-01 1.7016832E+00
 4.6148835E+00 8.7032762E-01 1.6848815E+00
 4.6560463E+00 8.9645796E-01 1.6661872E+00
 4.6945823E+00 9.2292082E-01 1.6457537E+00
 4.7302935E+00 9.4946285E-01 1.6237931E+00
 4.7628839E+00 9.7565897E-01 1.6006741E+00
 3.6905913E+00 1.4189544E+00 1.7697482E+00
 3.7415788E+00 1.4053786E+00 1.7725570E+00
 3.7935271E+00 1.3919460E+00 1.7751134E+00
 3.8462073E+00 1.3783346E+00 1.7774894E+00
 3.8995284E+00 1.3643104E+00 1.7796512E+00
 3.9533720E+00 1.3497156E+00 1.7814848E+00
 4.0076004E+00 1.3344179E+00 1.7828336E+00
 4.0620592E+00 1.3183097E+00 1.7835075E+00
 4.1165716E+00 1.3013044E+00 1.7832966E+00
 4.1709396E+00 1.2833354E+00 1.7819820E+00
 4.2249453E+00 1.2643562E+00 1.7793476E+00
 4.2783529E+00 1.2443423E+00 1.7751902E+00
 4.3309135E+00 1.2232930E+00 1.7693294E+00
 4.3823704E+00 1.2012326E+00 1.7616160E+00
 4.4324660E+00 1.1782110E+00 1.7519387E+00
 4.4809490E+00 1.1543033E+00 1.7402281E+00
 4.5275857E+00 1.1296096E+00 1.7264565E+00
 4.5721726E+00 1.1042550E+00 1.7106328E+00
 4.6145472E+00 1.0783907E+00 1.6927955E+00
 4.6546056E+00 1.0522011E+00 1.6729952E+00
 4.6923427E+00 1.0259242E+00 1.6512585E+00
 4.7279443E+00 1.0000005E+00 1.6275097E+00
 3.6924313E+00 1.3848785E+00 1.7871749E+00
 3.7453868E+00 1.3694761E+00 1.7900393E+00
 3.7985966E+00 1.3546562E+00 1.7924565E+00
 3.8521795E+00 1.3398120E+00 1.7945948E+00
 3.9060995E+00 1.3246297E+00 1.7964328E+00
 3.9603070E+00 1.3088871E+00 1.7978684E+00
 4.0147027E+00 1.2924332E+00 1.7987412E+00
 4.0691547E+00 1.2751602E+00 1.7988560E+00
 4.1235015E+00 1.2569935E+00 1.7979976E+00
 4.1775551E+00 1.2378842E+00 1.7959458E+00
 4.2311050E+00 1.2178051E+00 1.7924867E+00
 4.2839224E+00 1.1967504E+00 1.7874240E+00
 4.3357667E+00 1.1747354E+00 1.7805875E+00
 4.3863944E+00 1.1517973E+00 1.7718399E+00
 4.4355693E+00 1.1279958E+00 1.7610804E+00
 4.4830744E+00 1.1034146E+00 1.7482438E+00
 4.5287309E+00 1.0781632E+00 1.7332935E+00
 4.5724212E+00 1.0523809E+00 1.7162053E+00
 4.6141222E+00 1.0262452E+00 1.6969394E+00
 4.6539521E+00 1.0000005E+00 1.6753937E+00
 4.6923427E+00 9.7407671E-01 1.6512585E+00
 3.6936025E+00 1.3493734E+00 1.8034719E+00
 3.7478796E+00 1.3325849E+00 1.8060643E+00
 3.8022152E+00 1.3164352E+00 1.8081938E+00
 3.8566290E+00 1.3003653E+00 1.8099751E+00
 3.9111436E+00 1.2839954E+00 1.8113897E+00
 3.9657258E+00 1.2670812E+00 1.8123265E+00
 4.0203045E+00 1.2494590E+00 1.8126192E+00
 4.0747673E+00 1.2310260E+00 1.8120656E+00
 4.1289674E+00 1.2117193E+00 1.8104475E+00
 4.1827283E+00 1.1915051E+00 1.8075447E+00
 4.2358490E+00 1.1703719E+00 1.8031477E+00
 4.2881115E+00 1.1483275E+00 1.7970675E+00
 4.3392897E+00 1.1253984E+00 1.7891427E+00
 4.3891635E+00 1.1016308E+00 1.7792426E+00
 4.4375347E+00 1.0770936E+00 1.7672669E+00
 4.4842475E+00 1.0518823E+00 1.7531371E+00
 4.5292146E+00 1.0261260E+00 1.7367806E+00
 4.5724502E+00 1.0000005E+00 1.7181030E+00
 4.6141222E+00 9.7375572E-01 1.6969394E+00
 4.6546056E+00 9.4779980E-01 1.6729953E+00
 3.6944441E+00 1.3124520E+00 1.8184763E+00
 3.7497323E+00 1.2945020E+00 1.8206027E+00
 3.8049421E+00 1.2771683E+00 1.8222798E+00
 3.8600556E+00 1.2599230E+00 1.8235778E+00
 3.9150742E+00 1.2423932E+00 1.8244514E+00
 3.9699759E+00 1.2243261E+00 1.8247760E+00
 4.0246992E+00 1.2055619E+00 1.8243738E+00
 4.0791454E+00 1.1860061E+00 1.8230365E+00
 4.1331794E+00 1.1656083E+00 1.8205435E+00
 4.1866358E+00 1.1443478E+00 1.8166764E+00
 4.2393258E+00 1.1222248E+00 1.8112308E+00
 4.2910466E+00 1.0992570E+00 1.8040238E+00
 4.3415955E+00 1.0754797E+00 1.7948990E+00
 4.3907895E+00 1.0509491E+00 1.7837250E+00
 4.4384883E+00 1.0257492E+00 1.7703892E+00
 4.4846210E+00 1.0000005E+00 1.7547832E+00
 4.5292146E+00 9.7387491E-01 1.7367806E+00
 4.5724212E+00 9.4762000E-01 1.7162053E+00
 4.6145472E+00 9.2161024E-01 1.6927955E+00
 3.6951002E+00 1.2741237E+00 1.8320522E+00
 3.7511896E+00 1.2551996E+00 1.8335556E+00
 3.8070900E+00 1.2368101E+00 1.8346388E+00
 3.8627540E+00 1.2184774E+00 1.8353234E+00
 3.9181649E+00 1.1998487E+00 1.8355345E+00
 3.9732957E+00 1.1806846E+00 1.8351277E+00
 4.0280903E+00 1.1608372E+00 1.8339134E+00
 4.0824579E+00 1.1402250E+00 1.8316772E+00
 4.1362740E+00 1.1188100E+00 1.8281975E+00
 4.1893852E+00 1.0965822E+00 1.8232587E+00
 4.2416183E+00 1.0735509E+00 1.8166606E+00
 4.2927925E+00 1.0497419E+00 1.8082244E+00
 4.3427391E+00 1.0252009E+00 1.7977929E+00
 4.3913265E+00 1.0000005E+00 1.7852260E+00
 4.4384883E+00 9.7425172E-01 1.7703892E+00
 4.4842475E+00 9.4811866E-01 1.7531371E+00
 4.5287310E+00 9.2183771E-01 1.7332936E+00
 4.5721726E+00 8.9574593E-01 1.7106328E+00
 3.6956398E+00 1.2344687E+00 1.8440494E+00
 3.7523744E+00 1.2147225E+00 1.8448037E+00
 3.8088153E+00 1.1954026E+00 1.8451674E+00
 3.8648918E+00 1.1760833E+00 1.8451168E+00
 3.9205721E+00 1.1564424E+00 1.8445466E+00
 3.9758235E+00 1.1362633E+00 1.8432924E+00
 4.0305927E+00 1.1154173E+00 1.8411531E+00
 4.0847961E+00 1.0938377E+00 1.8379094E+00
 4.1383201E+00 1.0714984E+00 1.8333400E+00
 4.1910258E+00 1.0483981E+00 1.8272318E+00
 4.2427603E+00 1.0245536E+00 1.8193877E+00
 4.2933730E+00 1.0000005E+00 1.8096289E+00
 4.3427391E+00 9.7480010E-01 1.7977929E+00
 4.3907895E+00 9.4905184E-01 1.7837250E+00
 4.4375348E+00 9.2290738E-01 1.7672669E+00
 4.4830744E+00 8.9658632E-01 1.7482438E+00
 4.5275857E+00 8.7039130E-01 1.7264565E+00
 3.6960907E+00 1.1936158E+00 1.8543177E+00
 3.7533428E+00 1.1731786E+00 1.8542205E+00
 3.8101896E+00 1.1530521E+00 1.8537555E+00
 3.8665454E+00 1.1328564E+00 1.8528594E+00
 3.9223674E+00 1.1123058E+00 1.8513984E+00
 3.9776204E+00 1.0912128E+00 1.8491896E+00
 4.0322546E+00 1.0694703E+00 1.8460222E+00
 4.0861952E+00 1.0470277E+00 1.8416737E+00
 4.1393413E+00 1.0238690E+00 1.8359233E+00
 4.1915720E+00 1.0000005E+00 1.8285601E+00
 4.2427603E+00 9.7544734E-01 1.8193877E+00
 4.2927925E+00 9.5025907E-01 1.8082244E+00
 4.3415955E+00 9.2452129E-01 1.7948990E+00
 4.3891635E+00 8.9837015E-01 1.7792426E+00
 4.4355693E+00 8.7200509E-01 1.7610805E+00
 4.4809490E+00 8.4569765E-01 1.7402282E+00
 3.6964616E+00 1.1517276E+00 1.8627192E+00
 3.7541105E+00 1.1307264E+00 1.8616862E+00
 3.8112336E+00 1.1099164E+00 1.8602999E+00
 3.8677360E+00 1.0889614E+00 1.8584619E+00
 3.9235700E+00 1.0676148E+00 1.8560131E+00
 3.9787012E+00 1.0457205E+00 1.8527553E+00
 4.0330864E+00 1.0231944E+00 1.8484699E+00
 4.0866616E+00 1.0000005E+00 1.8429327E+00
 4.1393413E+00 9.7613198E-01 1.8359234E+00
 4.1910258E+00 9.5160289E-01 1.8272318E+00
 4.2416183E+00 9.2645009E-01 1.8166607E+00
 4.2910466E+00 9.0074396E-01 1.8040239E+00
 4.3392897E+00 8.7460259E-01 1.7891427E+00
 4.3863945E+00 8.4820365E-01 1.7718400E+00
 4.4324660E+00 8.2178989E-01 1.7519388E+00
 3.6967501E+00 1.1089994E+00 1.8691339E+00
 3.7546725E+00 1.0875611E+00 1.8670982E+00
 3.8119416E+00 1.0661927E+00 1.8647143E+00
 3.8684582E+00 1.0446005E+00 1.8618534E+00
 3.9241750E+00 1.0225778E+00 1.8583351E+00
 3.9790625E+00 1.0000005E+00 1.8539486E+00
 4.0330864E+00 9.7680656E-01 1.8484700E+00
 4.0861952E+00 9.5297324E-01 1.8416737E+00
 4.1383201E+00 9.2850257E-01 1.8333400E+00
 4.1893853E+00 9.0341873E-01 1.8232587E+00
 4.2393258E+00 8.7777612E-01 1.8112309E+00
 4.2881115E+00 8.5167346E-01 1.7970676E+00
 4.3357668E+00 8.2526553E-01 1.7805876E+00
 4.3823705E+00 7.9876830E-01 1.7616161E+00
 3.6969486E+00 1.0656525E+00 1.8734661E+00
 3.7550169E+00 1.0439056E+00 1.8703780E+00
 3.8123002E+00 1.0221056E+00 1.8669374E+00
 3.8687007E+00 1.0000005E+00 1.8629891E+00
 3.9241750E+00 9.7742320E-01 1.8583351E+00
 3.9787012E+00 9.5428050E-01 1.8527553E+00
 4.0322546E+00 9.3053061E-01 1.8460222E+00
 4.0847961E+00 9.0616324E-01 1.8379095E+00
 4.1362740E+00 8.8119093E-01 1.8281976E+00
 4.1866358E+00 8.5565312E-01 1.8166765E+00
 4.2358490E+00 8.2962900E-01 1.8031478E+00
 4.2839224E+00 8.0325048E-01 1.7874241E+00
 4.3309135E+00 7.7670793E-01 1.7693295E+00
 3.6970500E+00 1.0219270E+00 1.8756492E+00
 3.7551330E+00 1.0000005E+00 1.8714768E+00
 3.8123002E+00 9.7789541E-01 1.8669374E+00
 3.8684582E+00 9.5540044E-01 1.8618535E+00
 3.9235700E+00 9.3238618E-01 1.8560132E+00
 3.9776204E+00 9.0878819E-01 1.8491897E+00
 4.0305927E+00 8.8458365E-01 1.8411531E+00
 4.0824579E+00 8.5977591E-01 1.8316773E+00
 4.1331794E+00 8.3439259E-01 1.8205436E+00
 4.1827283E+00 8.0849583E-01 1.8075448E+00
 4.2311050E+00 7.8219578E-01 1.7924868E+00
 4.2783530E+00 7.5565862E-01 1.7751903E+00
 3.6970500E+00 9.7807399E-01 1.8756492E+00
 3.7550169E+00 9.5609537E-01 1.8703780E+00
 3.8119416E+00 9.3380821E-01 1.8647143E+00
 3.8677360E+00 9.1103952E-01 1.8584619E+00
 3.9223675E+00 8.8769516E-01 1.8513985E+00
 3.9758235E+00 8.6373760E-01 1.8432925E+00
 4.0280903E+00 8.3916370E-01 1.8339135E+00
 4.0791454E+00 8.1399483E-01 1.8230366E+00
 4.1289675E+00 7.8828167E-01 1.8104476E+00
 4.1775551E+00 7.6211675E-01 1.7959459E+00
 4.2249453E+00 7.3564471E-01 1.7793477E+00
 3.6969486E+00 9.3434847E-01 1.8734661E+00
 3.7546725E+00 9.1243983E-01 1.8670982E+00
 3.8112336E+00 8.9008451E-01 1.8602999E+00
 3.8665454E+00 8.6714457E-01 1.8528595E+00
 3.9205721E+00 8.4355857E-01 1.8445467E+00
 3.9732957E+00 8.1931630E-01 1.8351278E+00
 4.0246992E+00 7.9443899E-01 1.8243740E+00
 4.0747673E+00 7.6897494E-01 1.8120657E+00
 4.1235015E+00 7.4300739E-01 1.7979978E+00
 4.1709397E+00 7.1666548E-01 1.7819821E+00
 3.6967501E+00 8.9100160E-01 1.8691340E+00
 3.7541105E+00 8.6927458E-01 1.8616863E+00
 3.8101896E+00 8.4694882E-01 1.8537556E+00
 3.8648918E+00 8.2391762E-01 1.8451169E+00
 3.9181649E+00 8.0015220E-01 1.8355346E+00
 3.9699759E+00 7.7567486E-01 1.8247762E+00
 4.0203046E+00 7.5054188E-01 1.8126193E+00
 4.0691547E+00 7.2484074E-01 1.7988561E+00
 4.1165716E+00 6.9869644E-01 1.7832967E+00
 3.6964617E+00 8.4827334E-01 1.8627193E+00
 3.7533428E+00 8.2682234E-01 1.8542206E+00
 3.8088153E+00 8.0459833E-01 1.8451675E+00
 3.8627540E+00 7.8152353E-01 1.8353235E+00
 3.9150742E+00 7.5760768E-01 1.8244516E+00
 3.9657258E+00 7.3291975E-01 1.8123267E+00
 4.0147027E+00 7.0756769E-01 1.7987414E+00
 4.0620592E+00 6.8169119E-01 1.7835077E+00
 3.6960907E+00 8.0638512E-01 1.8543178E+00
 3.7523744E+00 7.8527846E-01 1.8448038E+00
 3.8070900E+00 7.6319086E-01 1.8346389E+00
 3.8600556E+00 7.4007795E-01 1.8235780E+00
 3.9111437E+00 7.1600549E-01 1.8113899E+00
 3.9603070E+00 6.9111374E-01 1.7978686E+00
 4.0076004E+00 6.6558299E-01 1.7828338E+00
 3.6956398E+00 7.6553222E-01 1.8440495E+00
 3.7511896E+00 7.4480130E-01 1.8335558E+00
 3.8049421E+00 7.2283258E-01 1.8222800E+00
 3.8566290E+00 6.9963562E-01 1.8099753E+00
 3.9060996E+00 6.7537115E-01 1.7964330E+00
 3.9533720E+00 6.5028523E-01 1.7814850E+00
 3.6951003E+00 7.2587725E-01 1.8320524E+00
 3.7497324E+00 7.0549890E-01 1.8206029E+00
 3.8022152E+00 6.8356572E-01 1.8081940E+00
 3.8521795E+00 6.6018888E-01 1.7945950E+00
 3.8995284E+00 6.3569045E-01 1.7796514E+00
 3.6944441E+00 6.8754889E-01 1.8184765E+00
 3.7478796E+00 6.6741600E-01 1.8060646E+00
 3.7985966E+00 6.4534470E-01 1.7924568E+00
 3.8462074E+00 6.2166626E-01 1.7774897E+00
 3.6936026E+00 6.5062751E-01 1.8034721E+00
 3.7453868E+00 6.3052471E-01 1.7900396E+00
 3.7935272E+00 6.0805486E-01 1.7751136E+00
 3.6924314E+00 6.1512230E-01 1.7871752E+00
 3.7415789E+00 5.9462220E-01 1.7725573E+00
 3.6905913E+00 5.8104639E-01 1.7697484E+00
 3.6118994E+00 1.4867861E+00 1.7364758E+00
 3.5804259E+00 1.5128899E+00 1.7219246E+00
 3.5476002E+00 1.5396363E+00 1.7058866E+00
 3.5137319E+00 1.5667961E+00 1.6883352E+00
 3.4790893E+00 1.5942177E+00 1.6691850E+00
 3.4439750E+00 1.6217455E+00 1.6483203E+00
 3.4086710E+00 1.6492093E+00 1.6256120E+00
 3.3734608E+00 1.6763970E+00 1.6009432E+00
 3.3386183E+00 1.7030595E+00 1.5742215E+00
 3.3043939E+00 1.7289201E+00 1.5453899E+00
 3.2710064E+00 1.7536874E+00 1.5144365E+00
 3.2386405E+00 1.7770705E+00 1.4814005E+00
 3.2074483E+00 1.7987933E+00 1.4463757E+00
 3.1775546E+00 1.8186070E+00 1.4095095E+00
 3.1490616E+00 1.8363014E+00 1.3709991E+00
 3.1220551E+00 1.8517135E+00 1.3310829E+00
 3.0966074E+00 1.8647329E+00 1.2900303E+00
 3.0727789E+00 1.8753028E+00 1.2481328E+00
 3.0506154E+00 1.8834183E+00 1.2056954E+00
 3.0301444E+00 1.8891209E+00 1.1630321E+00
 3.0113774E+00 1.8924909E+00 1.1204928E+00
 2.9942954E+00 1.8936384E+00 1.0784646E+00
 2.9789228E+00 1.8927244E+00 1.0376257E+00
 2.5529262E+00 1.0706310E+00 1.5925680E+00
 2.5492003E+00 1.1164541E+00 1.5799977E+00
 2.5470357E+00 1.1628722E+00 1.5655505E+00
 2.5467572E+00 1.2099211E+00 1.5494434E+00
 2.5485713E+00 1.2575138E+00 1.5317352E+00
 2.5526547E+00 1.3054909E+00 1.5124622E+00
 2.5591593E+00 1.3536355E+00 1.4916555E+00
 2.5682099E+00 1.4016845E+00 1.4693513E+00
 2.5798990E+00 1.4493329E+00 1.4455969E+00
 2.5942844E+00 1.4962428E+00 1.4204586E+00
 2.6113857E+00 1.5420533E+00 1.3940273E+00
 2.6311825E+00 1.5863914E+00 1.3664228E+00
 2.6536107E+00 1.6288823E+00 1.3377946E+00
 2.6785620E+00 1.6691628E+00 1.3083215E+00
 2.7058832E+00 1.7068925E+00 1.2782084E+00
 2.7353787E+00 1.7417682E+00 1.2476801E+00
 2.7668141E+00 1.7735346E+00 1.2169748E+00
 2.7999246E+00 1.8019978E+00 1.1863311E+00
 2.8344182E+00 1.8270305E+00 1.1559755E+00
 2.8699828E+00 1.8485777E+00 1.1260948E+00
 2.9062895E+00 1.8666605E+00 1.0967756E+00
 2.9428726E+00 1.8813463E+00 1.0678596E+00
 2.5791104E+00 1.1000343E+00 1.6236286E+00
 2.5769296E+00 1.1483622E+00 1.6111390E+00
 2.5762361E+00 1.1965654E+00 1.5964929E+00
 2.5774295E+00 1.2449312E+00 1.5800009E+00
 2.5807650E+00 1.2934876E+00 1.5617878E+00
 2.5864399E+00 1.3421321E+00 1.5419212E+00
 2.5946063E+00 1.3906681E+00 1.5204477E+00
 2.6053739E+00 1.4388288E+00 1.4974097E+00
 2.6188101E+00 1.4862959E+00 1.4728601E+00
 2.6349411E+00 1.5327165E+00 1.4468726E+00
 2.6537517E+00 1.5777181E+00 1.4195503E+00
 2.6751849E+00 1.6209225E+00 1.3910288E+00
 2.6991417E+00 1.6619608E+00 1.3614768E+00
 2.7254813E+00 1.7004864E+00 1.3310921E+00
 2.7540238E+00 1.7361897E+00 1.3000939E+00
 2.7845533E+00 1.7688101E+00 1.2687120E+00
 2.8168263E+00 1.7981487E+00 1.2371679E+00
 2.8505790E+00 1.8240769E+00 1.2056518E+00
 2.8855388E+00 1.8465418E+00 1.1742796E+00
 2.9214248E+00 1.8655666E+00 1.1430226E+00
 2.9578940E+00 1.8812362E+00 1.1114854E+00
 2.6085237E+00 1.1294276E+00 1.6540505E+00
 2.6078243E+00 1.1795045E+00 1.6413291E+00
 2.6086459E+00 1.2291871E+00 1.6263186E+00
 2.6113824E+00 1.2786992E+00 1.6093177E+00
 2.6163137E+00 1.3280915E+00 1.5904816E+00
 2.6236447E+00 1.3772721E+00 1.5698982E+00
 2.6335197E+00 1.4260444E+00 1.5476250E+00
 2.6460272E+00 1.4741330E+00 1.5237122E+00
 2.6612056E+00 1.5212083E+00 1.4982215E+00
 2.6790472E+00 1.5669079E+00 1.4712395E+00
 2.6995022E+00 1.6108560E+00 1.4428862E+00
 2.7224796E+00 1.6526809E+00 1.4133168E+00
 2.7478498E+00 1.6920312E+00 1.3827193E+00
 2.7754468E+00 1.7285908E+00 1.3513060E+00
 2.8050721E+00 1.7620933E+00 1.3192992E+00
 2.8365005E+00 1.7923337E+00 1.2869105E+00
 2.8694884E+00 1.8191798E+00 1.2543095E+00
 2.9037789E+00 1.8425737E+00 1.2215849E+00
 2.9391077E+00 1.8625348E+00 1.1886694E+00
 2.9751569E+00 1.8791422E+00 1.1552318E+00
 2.6411803E+00 1.1589763E+00 1.6832667E+00
 2.6419473E+00 1.2102905E+00 1.6700870E+00
 2.6443090E+00 1.2610618E+00 1.6545420E+00
 2.6486395E+00 1.3114320E+00 1.6368987E+00
 2.6552169E+00 1.3614106E+00 1.6173157E+00
 2.6642405E+00 1.4108859E+00 1.5958899E+00
 2.6758364E+00 1.4596439E+00 1.5726873E+00
 2.6900664E+00 1.5073950E+00 1.5477683E+00
 2.7069366E+00 1.5537998E+00 1.5212086E+00
 2.7264059E+00 1.5984933E+00 1.4931126E+00
 2.7483914E+00 1.6411065E+00 1.4636210E+00
 2.7727736E+00 1.6812859E+00 1.4329094E+00
 2.7993984E+00 1.7187102E+00 1.4011823E+00
 2.8280828E+00 1.7531069E+00 1.3686563E+00
 2.8586164E+00 1.7842636E+00 1.3355402E+00
 2.8907694E+00 1.8120409E+00 1.3020007E+00
 2.9242940E+00 1.8363753E+00 1.2681262E+00
 2.9589259E+00 1.8572780E+00 1.2338744E+00
 2.9943597E+00 1.8748246E+00 1.1990083E+00
 2.6771011E+00 1.1885646E+00 1.7107877E+00
 2.6793230E+00 1.2407095E+00 1.6969505E+00
 2.6832339E+00 1.2922002E+00 1.6807027E+00