# TIME = 12.200000
variables = x, y, z
zone N=5762 E=11520 F=FEPOINT ET=TRIANGLE
 1.5197696E+00 1.4627829E+00 1.7486285E+00
 1.5197695E+00 1.4627827E+00 2.5137111E-01
 1.5197696E+00 5.3721758E-01 1.7486288E+00
 1.5197696E+00 5.3721788E-01 2.5137091E-01
 4.1276804E-01 1.0000003E+00 1.5701284E+00
 2.6677595E+00 1.0000003E+00 1.5789184E+00
 4.1276732E-01 1.0000003E+00 4.2987028E-01
 2.6677593E+00 1.0000003E+00 4.2108113E-01
 8.4645913E-01 1.8906874E+00 9.9999957E-01
 8.4645917E-01 1.0931409E-01 9.9999965E-01
 2.1777481E+00 1.8077822E+00 9.9999958E-01
 2.1777482E+00 1.9221798E-01 9.9999962E-01
 1.4752222E+00 1.4560991E+00 1.7572204E+00
 1.4259408E+00 1.4486280E+00 1.7667876E+00
 1.3742524E+00 1.4407514E+00 1.7768799E+00
 1.3207527E+00 1.4323768E+00 1.7873706E+00
 1.2659182E+00 1.4233407E+00 1.7980552E+00
 1.2102557E+00 1.4134126E+00 1.8086088E+00
 1.1542050E+00 1.4023228E+00 1.8185837E+00
 1.0981144E+00 1.3897897E+00 1.8274262E+00
 1.0422238E+00 1.3755468E+00 1.8345158E+00
 9.8670219E-01 1.3593715E+00 1.8392120E+00
 9.3171187E-01 1.3411129E+00 1.8409075E+00
 8.7747230E-01 1.3207151E+00 1.8390839E+00
 8.2429744E-01 1.2982324E+00 1.8333665E+00
 7.7259244E-01 1.2738319E+00 1.8235640E+00
 7.2281755E-01 1.2477810E+00 1.8096877E+00
 6.7543450E-01 1.2204229E+00 1.7919424E+00
 6.3085409E-01 1.1921451E+00 1.7706945E+00
 5.8939623E-01 1.1633479E+00 1.7464247E+00
 5.5126896E-01 1.1344169E+00 1.7196771E+00
 5.1656674E-01 1.1057011E+00 1.6910126E+00
 4.8530122E-01 1.0775158E+00 1.6609952E+00
 4.5743168E-01 1.0501399E+00 1.6301861E+00
 4.3296307E-01 1.0238983E+00 1.5992616E+00
 1.4699043E+00 5.7662337E-01 1.7765142E+00
 1.4188522E+00 5.8615587E-01 1.7868330E+00
 1.3660118E+00 5.9567623E-01 1.7973172E+00
 1.3117619E+00 6.0557060E-01 1.8079971E+00
 1.2564771E+00 6.1616260E-01 1.8187315E+00
 1.2006018E+00 6.2773489E-01 1.8291936E+00
 1.1445481E+00 6.4056260E-01 1.8389133E+00
 1.0886264E+00 6.5489724E-01 1.8473136E+00
 1.0330458E+00 6.7095198E-01 1.8537594E+00
 9.7795694E-01 6.8888301E-01 1.8576104E+00
 9.2351775E-01 7.0877004E-01 1.8582759E+00
 8.6995161E-01 7.3060072E-01 1.8552716E+00
 8.1757643E-01 7.5426296E-01 1.8482697E+00
 7.6679377E-01 7.7954844E-01 1.8371338E+00
 7.1804835E-01 8.0616870E-01 1.8219298E+00
 6.7177430E-01 8.3378021E-01 1.8029094E+00
 6.2834469E-01 8.6201240E-01 1.7804715E+00
 5.8803191E-01 8.9049181E-01 1.7551073E+00
 5.5098526E-01 9.1885959E-01 1.7273403E+00
 5.1722300E-01 9.4678378E-01 1.6976661E+00
 4.8662731E-01 9.7395845E-01 1.6664868E+00
 4.5892204E-01 1.0000003E+00 1.6340251E+00
 1.4675842E+00 6.1047948E-01 1.7942616E+00
 1.4145111E+00 6.2202924E-01 1.8051227E+00
 1.3603281E+00 6.3324566E-01 1.8158725E+00
 1.3051118E+00 6.4477221E-01 1.8266692E+00
 1.2492067E+00 6.5701331E-01 1.8373713E+00
 1.1929949E+00 6.7030158E-01 1.8476469E+00
 1.1368343E+00 6.8490573E-01 1.8570040E+00
 1.0809892E+00 7.0104246E-01 1.8648473E+00
 1.0256328E+00 7.1887099E-01 1.8705332E+00
 9.7089636E-01 7.3848478E-01 1.8734276E+00
 9.1693121E-01 7.5989971E-01 1.8729622E+00
 8.6396138E-01 7.8304565E-01 1.8686896E+00
 8.1230422E-01 8.0776498E-01 1.8603300E+00
 7.6235271E-01 8.3382135E-01 1.8477993E+00
 7.1452992E-01 8.6091734E-01 1.8312110E+00
 6.6923155E-01 8.8871792E-01 1.8108492E+00
 6.2677332E-01 9.1687280E-01 1.7871187E+00
 5.8734702E-01 9.4503260E-01 1.7604749E+00
 5.5098629E-01 9.7285579E-01 1.7313398E+00
 5.1754833E-01 1.0000003E+00 1.7000134E+00
 4.8662730E-01 1.0260422E+00 1.6664868E+00
 1.4659294E+00 6.4591501E-01 1.8108477E+00
 1.4115020E+00 6.5915173E-01 1.8218317E+00
 1.3561377E+00 6.7205826E-01 1.8326647E+00
 1.3000458E+00 6.8525049E-01 1.8434271E+00
 1.2435352E+00 6.9919492E-01 1.8539678E+00
 1.1869734E+00 7.1423265E-01 1.8639254E+00
 1.1306766E+00 7.3061695E-01 1.8727854E+00
 1.0748707E+00 7.4852393E-01 1.8799363E+00
 1.0196992E+00 7.6806052E-01 1.8847322E+00
 9.6527656E-01 7.8926275E-01 1.8865512E+00
 9.1174773E-01 8.1209148E-01 1.8848520E+00
 8.5933455E-01 8.3642928E-01 1.8792268E+00
 8.0834832E-01 8.6208459E-01 1.8694431E+00
 7.5916520E-01 8.8880356E-01 1.8554631E+00
 7.1217434E-01 9.1628722E-01 1.8374347E+00
 6.6771360E-01 9.4420962E-01 1.8156507E+00
 6.2601142E-01 9.7223087E-01 1.7904823E+00
 5.8714202E-01 1.0000003E+00 1.7622943E+00
 5.5098628E-01 1.0271448E+00 1.7313398E+00
 5.1722297E-01 1.0532168E+00 1.6976661E+00
 1.4646434E+00 6.8291132E-01 1.8261495E+00
 1.4091740E+00 6.9768185E-01 1.8370089E+00
 1.3528845E+00 7.1219435E-01 1.8477077E+00
 1.2960519E+00 7.2704578E-01 1.8582657E+00
 1.2390253E+00 7.4269398E-01 1.8684832E+00
 1.1821628E+00 7.5947079E-01 1.8779655E+00
 1.1257584E+00 7.7759744E-01 1.8861728E+00
 1.0700091E+00 7.9720689E-01 1.8924824E+00
 1.0150358E+00 8.1835572E-01 1.8962519E+00
 9.6093886E-01 8.4102934E-01 1.8968774E+00
 9.0785655E-01 8.6514214E-01 1.8938495E+00
 8.5600425E-01 8.9053963E-01 1.8868012E+00
 8.0567871E-01 9.1700606E-01 1.8755432E+00
 7.5722637E-01 9.4427682E-01 1.8600732E+00
 7.1098355E-01 9.7205101E-01 1.8405540E+00
 6.6720623E-01 1.0000003E+00 1.8172566E+00
 6.2601141E-01 1.0277697E+00 1.7904823E+00
 5.8734700E-01 1.0549680E+00 1.7604749E+00
 5.5098523E-01 1.0811410E+00 1.7273403E+00
 1.4635863E+00 7.2146309E-01 1.8400396E+00
 1.4072782E+00 7.3763707E-01 1.8505716E+00
 1.3502447E+00 7.5367937E-01 1.8609464E+00
 1.2928217E+00 7.7014246E-01 1.8711190E+00
 1.2353926E+00 7.8745642E-01 1.8808392E+00
 1.1783200E+00 8.0591934E-01 1.8896751E+00
 1.1218819E+00 8.2571272E-01 1.8970654E+00
 1.0662536E+00 8.4692385E-01 1.9023821E+00
 1.0115378E+00 8.6956304E-01 1.9049932E+00
 9.5782235E-01 8.9357151E-01 1.9043189E+00
 9.0523600E-01 9.1882620E-01 1.8998844E+00
 8.5398060E-01 9.4514484E-01 1.8913622E+00
 8.0432652E-01 9.7229453E-01 1.8785984E+00
 7.5657330E-01 1.0000003E+00 1.8616111E+00
 7.1098355E-01 1.0279496E+00 1.8405540E+00
 6.6771360E-01 1.0557910E+00 1.8156507E+00
 6.2677330E-01 1.0831278E+00 1.7871187E+00
 5.8803187E-01 1.1095088E+00 1.7551073E+00
 1.4626887E+00 7.6149014E-01 1.8523601E+00
 1.4056895E+00 7.7896220E-01 1.8623945E+00
 1.3480634E+00 7.9645132E-01 1.8722702E+00
 1.2901952E+00 8.1445670E-01 1.8818804E+00
 1.2324953E+00 8.3336417E-01 1.8909265E+00
 1.1753300E+00 8.5342666E-01 1.8989437E+00
 1.1189637E+00 8.7477973E-01 1.9053557E+00
 1.0635534E+00 8.9746615E-01 1.9095369E+00
 1.0091851E+00 9.2145430E-01 1.9108721E+00
 9.5593326E-01 9.4664912E-01 1.9088104E+00
 9.0391216E-01 9.7289864E-01 1.9029123E+00
 8.5330011E-01 1.0000003E+00 1.8928849E+00
 8.0432653E-01 1.0277061E+00 1.8785985E+00
 7.5722638E-01 1.0557238E+00 1.8600732E+00
 7.1217434E-01 1.0837134E+00 1.8374347E+00
 6.6923154E-01 1.1112827E+00 1.8108492E+00
 6.2834466E-01 1.1379882E+00 1.7804716E+00
 1.4619244E+00 8.0285629E-01 1.8629439E+00
 1.4043609E+00 8.2153193E-01 1.8723321E+00
 1.3462862E+00 8.4037605E-01 1.8815458E+00
 1.2881205E+00 8.5983379E-01 1.8904240E+00
 1.2302930E+00 8.8023643E-01 1.8986255E+00
 1.1731681E+00 9.0178495E-01 1.9056604E+00
 1.1169962E+00 9.2456751E-01 1.9109456E+00
 1.0619164E+00 9.4858493E-01 1.9138654E+00
 1.0079980E+00 9.7377031E-01 1.9138275E+00
 9.5529909E-01 1.0000003E+00 1.9103121E+00
 9.0391217E-01 1.0271020E+00 1.9029123E+00
 8.5398062E-01 1.0548558E+00 1.8913622E+00
 8.0567873E-01 1.0829945E+00 1.8755432E+00
 7.5916521E-01 1.1111970E+00 1.8554631E+00
 7.1452992E-01 1.1390833E+00 1.8312111E+00
 6.7177428E-01 1.1662204E+00 1.8029095E+00
 1.4612903E+00 8.4538401E-01 1.8716321E+00
 1.4032920E+00 8.6516284E-01 1.8802390E+00
 1.3449156E+00 8.8525904E-01 1.8886404E+00
 1.2866054E+00 9.0606039E-01 1.8966282E+00
 1.2287989E+00 9.2783836E-01 1.9038273E+00
 1.1718533E+00 9.5073922E-01 1.9097317E+00
 1.1160025E+00 9.7480507E-01 1.9137605E+00
 1.0613670E+00 1.0000003E+00 1.9153144E+00
 1.0079980E+00 1.0262303E+00 1.9138275E+00
 9.5593329E-01 1.0533515E+00 1.9088104E+00
 9.0523604E-01 1.0811744E+00 1.8998844E+00
 8.5600429E-01 1.1094610E+00 1.8868012E+00
 8.0834836E-01 1.1379160E+00 1.8694431E+00
 7.6235274E-01 1.1661792E+00 1.8477993E+00
 7.1804836E-01 1.1938319E+00 1.8219299E+00
 1.4607964E+00 8.8885714E-01 1.8782839E+00
 1.4025031E+00 9.0962797E-01 1.8859875E+00
 1.3439781E+00 9.3085937E-01 1.8934398E+00
 1.2856789E+00 9.5287863E-01 1.9003937E+00
 1.2280420E+00 9.7589492E-01 1.9064499E+00
 1.1714114E+00 1.0000004E+00 1.9110960E+00
 1.1160025E+00 1.0251956E+00 1.9137605E+00
 1.0619164E+00 1.0514157E+00 1.9138654E+00
 1.0091851E+00 1.0785464E+00 1.9108720E+00
 9.5782240E-01 1.1064291E+00 1.9043189E+00
 9.0785661E-01 1.1348585E+00 1.8938495E+00
 8.5933461E-01 1.1635713E+00 1.8792268E+00
 8.1230428E-01 1.1922356E+00 1.8603300E+00
 7.6679381E-01 1.2204522E+00 1.8371339E+00
 1.4604568E+00 9.3302849E-01 1.8827853E+00
 1.4020181E+00 9.5466771E-01 1.8894784E+00
 1.3435013E+00 9.7690332E-01 1.8958612E+00
 1.2853668E+00 1.0000004E+00 1.9016563E+00
 1.2280420E+00 1.0241058E+00 1.9064499E+00
 1.1718533E+00 1.0492615E+00 1.9097317E+00
 1.1169963E+00 1.0754332E+00 1.9109456E+00
 1.0635534E+00 1.1025345E+00 1.9095368E+00
 1.0115379E+00 1.1304376E+00 1.9049931E+00
 9.6093894E-01 1.1589713E+00 1.8968773E+00
 9.1174782E-01 1.1879091E+00 1.8848519E+00
 8.6396146E-01 1.2169550E+00 1.8686896E+00
 8.1757651E-01 1.2457377E+00 1.8482697E+00
 1.4602837E+00 9.7762826E-01 1.8850566E+00
 1.4018543E+00 1.0000004E+00 1.8906491E+00
 1.3435013E+00 1.0230974E+00 1.8958611E+00
 1.2856789E+00 1.0471221E+00 1.9003937E+00
 1.2287989E+00 1.0721624E+00 1.9038272E+00
 1.1731681E+00 1.0982158E+00 1.9056603E+00
 1.1189638E+00 1.1252210E+00 1.9053557E+00
 1.0662537E+00 1.1530768E+00 1.9023821E+00
 1.0150359E+00 1.1816449E+00 1.8962518E+00
 9.6527667E-01 1.2107379E+00 1.8865512E+00
 9.1693132E-01 1.2401009E+00 1.8729622E+00
 8.6995172E-01 1.2693999E+00 1.8552716E+00
 1.4602837E+00 1.0223725E+00 1.8850565E+00
 1.4020181E+00 1.0453330E+00 1.8894783E+00
 1.3439781E+00 1.0691414E+00 1.8934398E+00
 1.2866054E+00 1.0939403E+00 1.8966281E+00
 1.2302930E+00 1.1197643E+00 1.8986254E+00
 1.1753300E+00 1.1465740E+00 1.8989436E+00
 1.1218819E+00 1.1742880E+00 1.8970653E+00
 1.0700092E+00 1.2027938E+00 1.8924823E+00
 1.0196994E+00 1.2319401E+00 1.8847321E+00
 9.7089649E-01 1.2615158E+00 1.8734275E+00
 9.2351789E-01 1.2912306E+00 1.8582759E+00
 1.4604568E+00 1.0669722E+00 1.8827852E+00
 1.4025031E+00 1.0903728E+00 1.8859874E+00
 1.3449156E+00 1.1147417E+00 1.8886403E+00
 1.2881205E+00 1.1401669E+00 1.8904239E+00
 1.2324954E+00 1.1666365E+00 1.8909264E+00
 1.1783201E+00 1.1940813E+00 1.8896750E+00
 1.1257585E+00 1.2224032E+00 1.8861726E+00
 1.0748708E+00 1.2514767E+00 1.8799362E+00
 1.0256330E+00 1.2811296E+00 1.8705331E+00
 9.7795710E-01 1.3111176E+00 1.8576103E+00
 1.4607964E+00 1.1111436E+00 1.8782838E+00
 1.4032920E+00 1.1348379E+00 1.8802389E+00
 1.3462862E+00 1.1596247E+00 1.8815457E+00
 1.2901952E+00 1.1855440E+00 1.8818802E+00
 1.2353926E+00 1.2125443E+00 1.8808391E+00
 1.1821628E+00 1.2405299E+00 1.8779654E+00
 1.1306767E+00 1.2693837E+00 1.8727852E+00
 1.0809893E+00 1.2989582E+00 1.8648471E+00
 1.0330460E+00 1.3290486E+00 1.8537593E+00
 1.4612903E+00 1.1546167E+00 1.8716320E+00
 1.4043609E+00 1.1784688E+00 1.8723319E+00
 1.3480634E+00 1.2035494E+00 1.8722700E+00
 1.2928217E+00 1.2298582E+00 1.8711189E+00
 1.2390254E+00 1.2573067E+00 1.8684830E+00
 1.1869735E+00 1.2857680E+00 1.8639252E+00
 1.1368344E+00 1.3150949E+00 1.8570039E+00
 1.0886266E+00 1.3451034E+00 1.8473134E+00
 1.4619244E+00 1.1971444E+00 1.8629437E+00
 1.4056895E+00 1.2210385E+00 1.8623943E+00
 1.3502447E+00 1.2463213E+00 1.8609462E+00
 1.2960519E+00 1.2729549E+00 1.8582655E+00
 1.2435352E+00 1.3008057E+00 1.8539676E+00
 1.1929950E+00 1.3296991E+00 1.8476466E+00
 1.1445482E+00 1.3594380E+00 1.8389131E+00
 1.4626887E+00 1.2385105E+00 1.8523600E+00
 1.4072781E+00 1.2623636E+00 1.8505714E+00
 1.3528845E+00 1.2878063E+00 1.8477075E+00
 1.3000458E+00 1.3147502E+00 1.8434269E+00
 1.2492068E+00 1.3429873E+00 1.8373710E+00
 1.2006019E+00 1.3722657E+00 1.8291933E+00
 1.4635863E+00 1.2785376E+00 1.8400394E+00
 1.4091740E+00 1.3023188E+00 1.8370086E+00
 1.3561376E+00 1.3279424E+00 1.8326644E+00
 1.3051119E+00 1.3552284E+00 1.8266690E+00
 1.2564771E+00 1.3838380E+00 1.8187312E+00
 1.4646433E+00 1.3170893E+00 1.8261493E+00
 1.4115020E+00 1.3408489E+00 1.8218315E+00
 1.3603281E+00 1.3667550E+00 1.8158723E+00
 1.3117619E+00 1.3944300E+00 1.8079969E+00
 1.4659294E+00 1.3540856E+00 1.8108475E+00
 1.4145111E+00 1.3779714E+00 1.8051225E+00
 1.3660117E+00 1.4043244E+00 1.7973169E+00
 1.4675841E+00 1.3895211E+00 1.7942613E+00
 1.4188522E+00 1.4138447E+00 1.7868327E+00
 1.4699043E+00 1.4233772E+00 1.7765139E+00
 1.5196383E+00 1.4345093E+00 1.7654201E+00
 1.5194401E+00 1.4024836E+00 1.7827776E+00
 1.5192363E+00 1.3685770E+00 1.7993404E+00
 1.5190469E+00 1.3328615E+00 1.8148894E+00
 1.5188806E+00 1.2954618E+00 1.8292089E+00
 1.5187398E+00 1.2565122E+00 1.8420954E+00
 1.5186229E+00 1.2161432E+00 1.8533683E+00
 1.5185280E+00 1.1745225E+00 1.8628581E+00
 1.5184538E+00 1.1318533E+00 1.8704128E+00
 1.5184001E+00 1.0883687E+00 1.8759055E+00
 1.5183676E+00 1.0443263E+00 1.8792408E+00
 1.5183566E+00 1.0000004E+00 1.8803592E+00
 1.5183676E+00 9.5567446E-01 1.8792408E+00
 1.5184002E+00 9.1163198E-01 1.8759055E+00
 1.5184538E+00 8.6814745E-01 1.8704129E+00
 1.5185280E+00 8.2547825E-01 1.8628583E+00
 1.5186229E+00 7.8385744E-01 1.8533685E+00
 1.5187399E+00 7.4348847E-01 1.8420956E+00
 1.5188807E+00 7.0453886E-01 1.8292091E+00
 1.5190469E+00 6.6713917E-01 1.8148896E+00
 1.5192364E+00 6.3142362E-01 1.7993407E+00
 1.5194401E+00 5.9751696E-01 1.7827779E+00
 1.5196384E+00 5.6549123E-01 1.7654204E+00
 1.5639105E+00 5.4772284E-01 1.7509227E+00
 1.6120454E+00 5.5925794E-01 1.7534435E+00
 1.6619024E+00 5.7120909E-01 1.7560115E+00
 1.7130584E+00 5.8359544E-01 1.7585677E+00
 1.7653163E+00 5.9648542E-01 1.7610150E+00
 1.8184944E+00 6.0997592E-01 1.7632267E+00
 1.8724331E+00 6.2417300E-01 1.7650429E+00
 1.9269494E+00 6.3918060E-01 1.7662746E+00
 1.9818369E+00 6.5509669E-01 1.7667114E+00
 2.0368642E+00 6.7200751E-01 1.7661303E+00
 2.0917761E+00 6.8998156E-01 1.7643058E+00
 2.1462961E+00 7.0906380E-01 1.7610209E+00
 2.2001326E+00 7.2927086E-01 1.7560784E+00
 2.2529855E+00 7.5058822E-01 1.7493116E+00
 2.3045542E+00 7.7296917E-01 1.7405937E+00
 2.3545450E+00 7.9633637E-01 1.7298441E+00
 2.4026790E+00 8.2058433E-01 1.7170333E+00
 2.4486998E+00 8.4558454E-01 1.7021828E+00
 2.4923799E+00 8.7119156E-01 1.6853646E+00
 2.5335257E+00 8.9724781E-01 1.6666952E+00
 2.5719570E+00 9.2356429E-01 1.6463441E+00
 2.6075044E+00 9.4990559E-01 1.6245306E+00
 2.6399070E+00 9.7587463E-01 1.6016178E+00
 1.5688356E+00 1.4193515E+00 1.7693466E+00
 1.6186106E+00 1.4059379E+00 1.7721820E+00
 1.6695025E+00 1.3926306E+00 1.7747714E+00
 1.7213354E+00 1.3790970E+00 1.7771951E+00
 1.7740376E+00 1.3651004E+00 1.7794246E+00
 1.8274925E+00 1.3504854E+00 1.7813469E+00
 1.8815492E+00 1.3351272E+00 1.7828013E+00
 1.9360324E+00 1.3189263E+00 1.7835906E+00
 1.9907378E+00 1.3018025E+00 1.7834959E+00
 2.0454344E+00 1.2836936E+00 1.7822886E+00
 2.0998669E+00 1.2645581E+00 1.7797426E+00
 2.1537603E+00 1.2443778E+00 1.7756466E+00
 2.2068263E+00 1.2231606E+00 1.7698146E+00
 2.2587715E+00 1.2009419E+00 1.7620961E+00
 2.3093062E+00 1.1777837E+00 1.7523842E+00
 2.3581521E+00 1.1537733E+00 1.7406194E+00
 2.4050533E+00 1.1290222E+00 1.7267901E+00
 2.4497919E+00 1.1036651E+00 1.7109260E+00
 2.4922015E+00 1.0778611E+00 1.6930880E+00
 2.5321896E+00 1.0517974E+00 1.6733454E+00
 2.5697773E+00 1.0257045E+00 1.6517352E+00
 2.6051843E+00 1.0000003E+00 1.6281828E+00
 1.5707084E+00 1.3856301E+00 1.7866240E+00
 1.6224171E+00 1.3703933E+00 1.7895311E+00
 1.6745671E+00 1.3556892E+00 1.7919991E+00
 1.7273166E+00 1.3409025E+00 1.7942040E+00
 1.7806470E+00 1.3257137E+00 1.7961303E+00
 1.8345054E+00 1.3099061E+00 1.7976745E+00
 1.8887770E+00 1.2933410E+00 1.7986694E+00
 1.9433057E+00 1.2759241E+00 1.7989096E+00
 1.9978981E+00 1.2575921E+00 1.7981694E+00
 2.0523289E+00 1.2383047E+00 1.7962174E+00
 2.1063461E+00 1.2180434E+00 1.7928305E+00
 2.1596786E+00 1.1968119E+00 1.7878050E+00
 2.2120448E+00 1.1746370E+00 1.7809681E+00
 2.2631628E+00 1.1515677E+00 1.7721848E+00
 2.3127621E+00 1.1276744E+00 1.7613639E+00
 2.3605959E+00 1.1030482E+00 1.7484569E+00
 2.4064621E+00 1.0778033E+00 1.7334498E+00
 2.4502321E+00 1.0520828E+00 1.7163430E+00
 2.4918902E+00 1.0260674E+00 1.6971178E+00
 2.5315823E+00 1.0000003E+00 1.6756840E+00
 2.5697773E+00 9.7429620E-01 1.6517352E+00
 1.5719314E+00 1.3504314E+00 1.8028283E+00
 1.6249358E+00 1.3337952E+00 1.8054856E+00
 1.6782016E+00 1.3177459E+00 1.8076847E+00
 1.7317906E+00 1.3017085E+00 1.8095506E+00
 1.7857398E+00 1.2852965E+00 1.8110698E+00
 1.8400111E+00 1.2682738E+00 1.8121282E+00
 1.8945147E+00 1.2504941E+00 1.8125503E+00
 1.9491091E+00 1.2318729E+00 1.8121224E+00
 2.0036100E+00 1.2123628E+00 1.8106144E+00
 2.0577979E+00 1.1919430E+00 1.8077954E+00
 2.1114258E+00 1.1706140E+00 1.8034473E+00
 2.1642294E+00 1.1483964E+00 1.7973764E+00
 2.2159381E+00 1.1253293E+00 1.7894223E+00
 2.2662899E+00 1.1014696E+00 1.7794624E+00
 2.3150486E+00 1.0768922E+00 1.7674126E+00
 2.3620262E+00 1.0516944E+00 1.7532177E+00
 2.4071173E+00 1.0260048E+00 1.7368314E+00
 2.4503395E+00 1.0000003E+00 1.7181821E+00
 2.4918902E+00 9.7393333E-01 1.6971178E+00
 2.5321896E+00 9.4820334E-01 1.6733454E+00
 1.5728328E+00 1.3137374E+00 1.8178011E+00
 1.6268360E+00 1.2959134E+00 1.8200150E+00
 1.6809772E+00 1.2786550E+00 1.8217798E+00
 1.7352807E+00 1.2614116E+00 1.8231769E+00
 1.7897612E+00 1.2438028E+00 1.8241655E+00
 1.8443900E+00 1.2255869E+00 1.8246165E+00
 1.8990836E+00 1.2066263E+00 1.8243417E+00
 1.9537089E+00 1.1868488E+00 1.8231207E+00
 2.0080879E+00 1.1662237E+00 1.8207215E+00
 2.0620067E+00 1.1447466E+00 1.8169160E+00
 2.1152259E+00 1.1224329E+00 1.8114935E+00
 2.1674923E+00 1.0993143E+00 1.8042704E+00
 2.2185539E+00 1.0754376E+00 1.7950963E+00
 2.2681818E+00 1.0508650E+00 1.7838544E+00
 2.3161960E+00 1.0256803E+00 1.7704544E+00
 2.3624992E+00 1.0000003E+00 1.7548144E+00
 2.4071173E+00 9.7399593E-01 1.7368314E+00
 2.4502321E+00 9.4791790E-01 1.7163430E+00
 2.4922015E+00 9.2213959E-01 1.6930881E+00
 1.5735594E+00 1.2755361E+00 1.8314004E+00
 1.6283700E+00 1.2567011E+00 1.8330109E+00
 1.6832176E+00 1.2383521E+00 1.8341962E+00
 1.7380939E+00 1.2199848E+00 1.8349896E+00
 1.7929946E+00 1.2012396E+00 1.8353194E+00
 1.8478843E+00 1.1818919E+00 1.8350355E+00
 1.9026819E+00 1.1618195E+00 1.8339381E+00
 1.9572582E+00 1.1409673E+00 1.8318015E+00
 2.0114409E+00 1.1193196E+00 1.8283941E+00
 2.0650237E+00 1.0968857E+00 1.8234932E+00
 2.1177783E+00 1.0736910E+00 1.8168961E+00
 2.1694695E+00 1.0497739E+00 1.8084278E+00
 2.2198753E+00 1.0251865E+00 1.7979434E+00
 2.2688173E+00 1.0000003E+00 1.7853222E+00
 2.3161960E+00 9.7432041E-01 1.7704544E+00
 2.3620262E+00 9.4830628E-01 1.7532177E+00
 2.4064622E+00 9.2219737E-01 1.7334499E+00
 2.4497920E+00 8.9633555E-01 1.7109261E+00
 1.5741801E+00 1.2358994E+00 1.8434624E+00
 1.6296589E+00 1.2161967E+00 1.8443379E+00
 1.6850721E+00 1.1968745E+00 1.8448135E+00
 1.7403848E+00 1.1774793E+00 1.8448755E+00
 1.7955768E+00 1.1576855E+00 1.8444207E+00
 1.8506061E+00 1.1372956E+00 1.8432787E+00
 1.9053920E+00 1.1162097E+00 1.8412392E+00
 1.9598097E+00 1.0943900E+00 1.8380741E+00
 2.0136940E+00 1.0718346E+00 1.8335546E+00
 2.0668496E+00 1.0485618E+00 1.8274645E+00
 2.1190655E+00 1.0246029E+00 1.8196085E+00
 2.1701334E+00 1.0000004E+00 1.8098169E+00
 2.2198753E+00 9.7481423E-01 1.7979434E+00
 2.2681818E+00 9.4913568E-01 1.7838544E+00
 2.3150486E+00 9.2310845E-01 1.7674126E+00
 2.3605959E+00 8.9695254E-01 1.7484570E+00
 2.4050534E+00 8.7097849E-01 1.7267902E+00
 1.5747168E+00 1.1949580E+00 1.8538204E+00
 1.6307446E+00 1.1745134E+00 1.8538519E+00
 1.6865898E+00 1.1543359E+00 1.8535023E+00
 1.7422003E+00 1.1340212E+00 1.8527162E+00
 1.7975445E+00 1.1132856E+00 1.8513605E+00
 1.8525775E+00 1.0919652E+00 1.8492475E+00
 1.9072209E+00 1.0699844E+00 1.8461593E+00
 1.9613566E+00 1.0473221E+00 1.8418678E+00
 2.0148301E+00 1.0239863E+00 1.8361489E+00
 2.0674621E+00 1.0000004E+00 1.8287924E+00
 2.1190655E+00 9.7539782E-01 1.8196085E+00
 2.1694695E+00 9.5022680E-01 1.8084279E+00
 2.2185539E+00 9.2456314E-01 1.7950964E+00
 2.2662899E+00 8.9853112E-01 1.7794625E+00
 2.3127621E+00 8.7232630E-01 1.7613640E+00
 2.3581521E+00 8.4622739E-01 1.7406195E+00
 1.5751691E+00 1.1528843E+00 1.8623190E+00
 1.6316241E+00 1.1318227E+00 1.8614152E+00
 1.6877654E+00 1.1109114E+00 1.8601410E+00
 1.7435302E+00 1.0897965E+00 1.8584039E+00
 1.7988824E+00 1.0682410E+00 1.8560450E+00
 1.8537781E+00 1.0461167E+00 1.8528629E+00
 1.9081453E+00 1.0233723E+00 1.8486358E+00
 1.9618759E+00 1.0000004E+00 1.8431375E+00
 2.0148301E+00 9.7601440E-01 1.8361489E+00
 2.0668496E+00 9.5143886E-01 1.8274645E+00
 2.1177783E+00 9.2630974E-01 1.8168961E+00
 2.1674923E+00 9.0068636E-01 1.8042704E+00
 2.2159381E+00 8.7467143E-01 1.7894224E+00
 2.2631628E+00 8.4843293E-01 1.7721849E+00
 2.3093063E+00 8.2221701E-01 1.7523844E+00
 1.5755255E+00 1.1098887E+00 1.8688224E+00
 1.6322765E+00 1.0883392E+00 1.8669096E+00
 1.6885720E+00 1.0668218E+00 1.8646280E+00
 1.7443453E+00 1.0450361E+00 1.8618531E+00
 1.7995612E+00 1.0227929E+00 1.8584053E+00
 1.8541820E+00 1.0000004E+00 1.8540739E+00
 1.9081453E+00 9.7662838E-01 1.8486359E+00
 1.9613566E+00 9.5267864E-01 1.8418678E+00
 2.0136940E+00 9.2816611E-01 1.8335547E+00
 2.0650237E+00 9.0311502E-01 1.8234932E+00
 2.1152259E+00 8.7756779E-01 1.8114936E+00
 2.1642294E+00 8.5160426E-01 1.7973765E+00
 2.2120449E+00 8.2536368E-01 1.7809682E+00
 2.2587716E+00 7.9905877E-01 1.7620963E+00
 1.5757723E+00 1.0662123E+00 1.8732219E+00
 1.6326788E+00 1.0443091E+00 1.8702442E+00
 1.6889830E+00 1.0223206E+00 1.8668905E+00
 1.7446201E+00 1.0000004E+00 1.8630091E+00
 1.7995613E+00 9.7720776E-01 1.8584053E+00
 1.8537781E+00 9.5388404E-01 1.8528629E+00
 1.9072209E+00 9.3001632E-01 1.8461594E+00
 1.9598097E+00 9.0561070E-01 1.8380742E+00
 2.0114409E+00 8.8068110E-01 1.8283942E+00
 2.0620067E+00 8.5525410E-01 1.8169161E+00
 2.1114258E+00 8.2938663E-01 1.8034474E+00
 2.1596786E+00 8.0318874E-01 1.7878052E+00
 2.2068263E+00 7.7684008E-01 1.7698147E+00
 1.5758986E+00 1.0221179E+00 1.8754412E+00
 1.6328149E+00 1.0000004E+00 1.8713622E+00
 1.6889830E+00 9.7768006E-01 1.8668905E+00
 1.7443453E+00 9.5496465E-01 1.8618531E+00
 1.7988824E+00 9.3175974E-01 1.8560450E+00
 1.8525775E+00 9.0803550E-01 1.8492475E+00
 1.9053921E+00 8.8379097E-01 1.8412393E+00
 1.9572582E+00 8.5903343E-01 1.8318016E+00
 2.0080879E+00 8.3377696E-01 1.8207217E+00
 2.0577979E+00 8.0805768E-01 1.8077955E+00
 2.1063461E+00 7.8195726E-01 1.7928306E+00
 2.1537603E+00 7.5562289E-01 1.7756468E+00
 1.5758986E+00 9.7788278E-01 1.8754412E+00
 1.6326789E+00 9.5569164E-01 1.8702442E+00
 1.6885720E+00 9.3317886E-01 1.8646281E+00
 1.7435303E+00 9.1020421E-01 1.8584040E+00
 1.7975445E+00 8.8671505E-01 1.8513606E+00
 1.8506061E+00 8.6270508E-01 1.8432788E+00
 1.9026819E+00 8.3818114E-01 1.8339383E+00
 1.9537089E+00 8.1315182E-01 1.8231209E+00
 2.0036100E+00 7.8763787E-01 1.8106146E+00
 2.0523289E+00 7.6169594E-01 1.7962176E+00
 2.0998670E+00 7.3544252E-01 1.7797428E+00
 1.5757723E+00 9.3378846E-01 1.8732220E+00
 1.6322765E+00 9.1166155E-01 1.8669096E+00
 1.6877654E+00 8.8908934E-01 1.8601411E+00
 1.7422003E+00 8.6597952E-01 1.8527163E+00
 1.7955768E+00 8.4231520E-01 1.8444208E+00
 1.8478843E+00 8.1810880E-01 1.8350357E+00
 1.8990836E+00 7.9337434E-01 1.8243418E+00
 1.9491091E+00 7.6812779E-01 1.8121226E+00
 1.9978981E+00 7.4240852E-01 1.7981696E+00
 2.0454344E+00 7.1630700E-01 1.7822888E+00
 1.5755256E+00 8.9011198E-01 1.8688225E+00
 1.6316241E+00 8.6817795E-01 1.8614153E+00
 1.6865898E+00 8.4566475E-01 1.8535024E+00
 1.7403848E+00 8.2252137E-01 1.8448757E+00
 1.7929946E+00 7.9876111E-01 1.8353195E+00
 1.8443900E+00 7.7441371E-01 1.8246166E+00
 1.8945147E+00 7.4950655E-01 1.8125505E+00
 1.9433057E+00 7.2407650E-01 1.7989098E+00
 1.9907378E+00 6.9819815E-01 1.7834962E+00
 1.5751692E+00 8.4711641E-01 1.8623191E+00
 1.6307446E+00 8.2548725E-01 1.8538521E+00
 1.6850721E+00 8.0312618E-01 1.8448136E+00
 1.7380939E+00 7.8001585E-01 1.8349898E+00
 1.7897613E+00 7.5619787E-01 1.8241657E+00
 1.8400111E+00 7.3172688E-01 1.8121284E+00
 1.8887771E+00 7.0665966E-01 1.7986696E+00
 1.9360325E+00 6.8107429E-01 1.7835909E+00
 1.5747168E+00 8.0504270E-01 1.8538205E+00
 1.6296589E+00 7.8380393E-01 1.8443381E+00
 1.6832177E+00 7.6164853E-01 1.8341964E+00
 1.7352807E+00 7.3858909E-01 1.8231771E+00
 1.7857398E+00 7.1470412E-01 1.8110700E+00
 1.8345054E+00 6.9009455E-01 1.7976747E+00
 1.8815493E+00 6.6487341E-01 1.7828015E+00
 1.5741801E+00 7.6410127E-01 1.8434626E+00
 1.6283701E+00 7.4329956E-01 1.8330111E+00
 1.6809772E+00 7.2134563E-01 1.8217800E+00
 1.7317906E+00 6.9829217E-01 1.8095509E+00
 1.7806471E+00 6.7428694E-01 1.7961306E+00
 1.8274925E+00 6.4951520E-01 1.7813471E+00
 1.5735595E+00 7.2446450E-01 1.8314006E+00
 1.6268361E+00 7.0408726E-01 1.8200153E+00
 1.6782017E+00 6.8225476E-01 1.8076849E+00
 1.7273166E+00 6.5909810E-01 1.7942043E+00
 1.7740376E+00 6.3490021E-01 1.7794248E+00
 1.5728328E+00 6.8626324E-01 1.8178013E+00
 1.6249358E+00 6.6620545E-01 1.8054858E+00
 1.6745672E+00 6.4431138E-01 1.7919994E+00
 1.7213354E+00 6.2090358E-01 1.7771954E+00
 1.5719315E+00 6.4956922E-01 1.8028286E+00
 1.6224172E+00 6.2960728E-01 1.7895313E+00
 1.6695025E+00 6.0737000E-01 1.7747717E+00
 1.5707085E+00 6.1437046E-01 1.7866243E+00
 1.6186107E+00 5.9406266E-01 1.7721823E+00
 1.5688357E+00 5.8064902E-01 1.7693469E+00
 1.4922286E+00 1.4863616E+00 1.7363503E+00
 1.4616611E+00 1.5121757E+00 1.7219121E+00
 1.4297309E+00 1.5386728E+00 1.7059782E+00
 1.3966920E+00 1.5656476E+00 1.6885076E+00
 1.3627649E+00 1.5929634E+00 1.6694039E+00
 1.3282147E+00 1.6204695E+00 1.6485464E+00
 1.2933024E+00 1.6479927E+00 1.6258055E+00
 1.2583066E+00 1.6753134E+00 1.6010656E+00
 1.2235103E+00 1.7021715E+00 1.5742348E+00
 1.1891839E+00 1.7282759E+00 1.5452565E+00
 1.1555741E+00 1.7533172E+00 1.5141212E+00
 1.1228966E+00 1.7769835E+00 1.4808736E+00
 1.0913342E+00 1.7989774E+00 1.4456174E+00
 1.0610390E+00 1.8190306E+00 1.4085156E+00
 1.0321358E+00 1.8369179E+00 1.3697843E+00
 1.0047266E+00 1.8524672E+00 1.3296835E+00
 9.7889532E-01 1.8655655E+00 1.2885057E+00
 9.5471081E-01 1.8761602E+00 1.2465636E+00
 9.3222665E-01 1.8842572E+00 1.2041799E+00
 9.1147832E-01 1.8899150E+00 1.1616775E+00
 8.9248503E-01 1.8932347E+00 1.1193999E+00
 8.7523082E-01 1.8943472E+00 1.0777107E+00
 8.5973945E-01 1.8934285E+00 1.0372590E+00
 4.2871021E-01 1.0695562E+00 1.5898058E+00
 4.2498267E-01 1.1147243E+00 1.5773677E+00
 4.2275616E-01 1.1605543E+00 1.5630582E+00
 4.2237393E-01 1.2071278E+00 1.5470953E+00
 4.2406995E-01 1.2543918E+00 1.5295421E+00
 4.2804676E-01 1.3022030E+00 1.5104331E+00
 4.3447638E-01 1.3503442E+00 1.4897910E+00
 4.4349910E-01 1.3985410E+00 1.4676389E+00
 4.5522132E-01 1.4464701E+00 1.4440130E+00
 4.6971307E-01 1.4937705E+00 1.4189721E+00
 4.8700418E-01 1.5400534E+00 1.3926055E+00
 5.0707930E-01 1.5849135E+00 1.3650356E+00
 5.2987360E-01 1.6279422E+00 1.3364185E+00
 5.5527092E-01 1.6687425E+00 1.3069421E+00
 5.8310360E-01 1.7069434E+00 1.2768220E+00
 6.1315539E-01 1.7422160E+00 1.2462952E+00
 6.4516603E-01 1.7742860E+00 1.2156126E+00
 6.7884072E-01 1.8029485E+00 1.1850248E+00
 7.1385618E-01 1.8280748E+00 1.1547674E+00
 7.4987427E-01 1.8496203E+00 1.1250302E+00
 7.8655447E-01 1.8676274E+00 1.0958980E+00
 8.2344004E-01 1.8821916E+00 1.0672089E+00
 4.5456462E-01 1.0986251E+00 1.6208179E+00
 4.5235088E-01 1.1463279E+00 1.6084770E+00
 4.5157604E-01 1.1939987E+00 1.5939908E+00
 4.5266622E-01 1.2419689E+00 1.5776736E+00
 4.5590966E-01 1.2902991E+00 1.5596530E+00
 4.6152959E-01 1.3388972E+00 1.5399890E+00
 4.6969499E-01 1.3875589E+00 1.5187109E+00
 4.8052675E-01 1.4359971E+00 1.4958419E+00
 4.9410184E-01 1.4838665E+00 1.4714200E+00
 5.1045463E-01 1.5307817E+00 1.4455114E+00
 5.2957463E-01 1.5763340E+00 1.4182187E+00
 5.5140404E-01 1.6201071E+00 1.3896833E+00
 5.7583610E-01 1.6616940E+00 1.3600845E+00
 6.0271511E-01 1.7007135E+00 1.3296343E+00
 6.3184047E-01 1.7368274E+00 1.2985697E+00
 6.6297139E-01 1.7697542E+00 1.2671407E+00
 6.9583590E-01 1.7992842E+00 1.2355896E+00
 7.3013927E-01 1.8252878E+00 1.2041225E+00
 7.6557837E-01 1.8477227E+00 1.1728622E+00
 8.0185054E-01 1.8666338E+00 1.1417747E+00
 8.3861053E-01 1.8821353E+00 1.1104582E+00
 4.8372594E-01 1.1277927E+00 1.6513520E+00
 4.8298595E-01 1.1772978E+00 1.6388127E+00
 4.8372850E-01 1.2265171E+00 1.6239966E+00
 4.8638411E-01 1.2757234E+00 1.6072074E+00
 4.9127030E-01 1.3249980E+00 1.5885991E+00
 4.9861715E-01 1.3742535E+00 1.5682446E+00
 5.0858184E-01 1.4232770E+00 1.5461775E+00
 5.2125972E-01 1.4717633E+00 1.5224251E+00
 5.3669362E-01 1.5193456E+00 1.4970335E+00
 5.5487854E-01 1.5656200E+00 1.4700836E+00
 5.7576262E-01 1.6101671E+00 1.4416986E+00
 5.9924666E-01 1.6525720E+00 1.4120446E+00
 6.2518545E-01 1.6924433E+00 1.3813265E+00
 6.5339183E-01 1.7294322E+00 1.3497790E+00
 6.8364213E-01 1.7632486E+00 1.3176515E+00
 7.1568351E-01 1.7936751E+00 1.2851841E+00
 7.4924256E-01 1.8205789E+00 1.2525709E+00
 7.8403053E-01 1.8439142E+00 1.2199125E+00
 8.1975441E-01 1.8637243E+00 1.1871361E+00
 8.5608330E-01 1.8801208E+00 1.1538943E+00
 5.1627387E-01 1.1572421E+00 1.6808584E+00
 5.1701537E-01 1.2080615E+00 1.6678982E+00
 5.1932321E-01 1.2584588E+00 1.6525814E+00
 5.2361776E-01 1.3086263E+00 1.6351800E+00
 5.3021804E-01 1.3586000E+00 1.6158463E+00
 5.3934607E-01 1.4082656E+00 1.5946556E+00
 5.5113576E-01 1.4573840E+00 1.5716458E+00
 5.6564993E-01 1.5056263E+00 1.5468530E+00
 5.8289310E-01 1.5526073E+00 1.5203392E+00
 6.0281969E-01 1.5979131E+00 1.4922070E+00
 6.2533710E-01 1.6411259E+00 1.4626063E+00
 6.5030978E-01 1.6818473E+00 1.4317305E+00
 6.7756201E-01 1.7197180E+00 1.3998097E+00
 7.0688562E-01 1.7544383E+00 1.3670927E+00
 7.3804353E-01 1.7857807E+00 1.3338237E+00
 7.7077824E-01 1.8136049E+00 1.3002015E+00
 8.0481033E-01 1.8378599E+00 1.2663328E+00
 8.3984336E-01 1.8585835E+00 1.2321713E+00
 8.7554807E-01 1.8758869E+00 1.1974582E+00
 5.5228528E-01 1.1868663E+00 1.7088314E+00
 5.5451754E-01 1.2386151E+00 1.6952427E+00
 5.5842289E-01 1.2898376E+00 1.6792467E+00