# TIME = 10.200000
variables = x, y, z
zone N=5762 E=11520 F=FEPOINT ET=TRIANGLE
 4.5936645E-01 1.4627453E+00 1.7485705E+00
 4.5936646E-01 1.4627454E+00 2.5142938E-01
 4.5936650E-01 5.3725485E-01 1.7485704E+00
 4.5936650E-01 5.3725493E-01 2.5142960E-01
 -6.4923452E-01 1.0000000E+00 1.5686192E+00
 1.6060764E+00 1.0000001E+00 1.5794299E+00
 -6.4923459E-01 1.0000000E+00 4.3138057E-01
 1.6060764E+00 1.0000001E+00 4.2057012E-01
 -2.1318143E-01 1.8911558E+00 9.9999992E-01
 -2.1318163E-01 1.0884430E-01 9.9999999E-01
 1.1153833E+00 1.8080268E+00 9.9999993E-01
 1.1153833E+00 1.9197344E-01 9.9999996E-01
 4.1553164E-01 1.4560895E+00 1.7570761E+00
 3.6704432E-01 1.4486423E+00 1.7665473E+00
 3.1611889E-01 1.4407803E+00 1.7765519E+00
 2.6327603E-01 1.4324135E+00 1.7869786E+00
 2.0892482E-01 1.4233850E+00 1.7976412E+00
 1.5353107E-01 1.4134725E+00 1.8082292E+00
 9.7521829E-02 1.4024108E+00 1.8183019E+00
 4.1255665E-02 1.3899146E+00 1.8273004E+00
 -1.5002841E-02 1.3757071E+00 1.8345838E+00
 -7.1052904E-02 1.3595503E+00 1.8394778E+00
 -1.2669624E-01 1.3412778E+00 1.8413330E+00
 -1.8167300E-01 1.3208223E+00 1.8395898E+00
 -2.3562186E-01 1.2982359E+00 1.8338421E+00
 -2.8808455E-01 1.2736933E+00 1.8238863E+00
 -3.3854787E-01 1.2474793E+00 1.8097439E+00
 -3.8650502E-01 1.2199598E+00 1.7916498E+00
 -4.3151476E-01 1.1915455E+00 1.7700150E+00
 -4.7324409E-01 1.1626567E+00 1.7453692E+00
 -5.1148829E-01 1.1336933E+00 1.7183027E+00
 -5.4617051E-01 1.1050119E+00 1.6894121E+00
 -5.7730922E-01 1.0769288E+00 1.6592808E+00
 -6.0498511E-01 1.0497152E+00 1.6284669E+00
 -6.2923658E-01 1.0236797E+00 1.5976232E+00
 4.1032923E-01 5.7641671E-01 1.7762438E+00
 3.6008168E-01 5.8591754E-01 1.7864686E+00
 3.0798981E-01 5.9541485E-01 1.7968695E+00
 2.5435697E-01 6.0529754E-01 1.8074967E+00
 1.9950297E-01 6.1588628E-01 1.8182271E+00
 1.4383945E-01 6.2745709E-01 1.8287471E+00
 8.7771456E-02 6.4027973E-01 1.8385894E+00
 3.1623674E-02 6.5460691E-01 1.8471663E+00
 -2.4367574E-02 6.7066001E-01 1.8538174E+00
 -8.0018259E-02 6.8860720E-01 1.8578653E+00
 -1.3513337E-01 7.0853931E-01 1.8586765E+00
 -1.8944800E-01 7.3044971E-01 1.8557268E+00
 -2.4259626E-01 7.5422349E-01 1.8486614E+00
 -2.9412406E-01 7.7964063E-01 1.8373373E+00
 -3.4353571E-01 8.0639430E-01 1.8218360E+00
 -3.9035471E-01 8.3412049E-01 1.8024448E+00
 -4.3417972E-01 8.6243084E-01 1.7796116E+00
 -4.7472655E-01 8.9093982E-01 1.7538800E+00
 -5.1185119E-01 9.1928192E-01 1.7258207E+00
 -5.4555800E-01 9.4712173E-01 1.6959607E+00
 -5.7600263E-01 9.7415272E-01 1.6647097E+00
 -6.0350512E-01 1.0000000E+00 1.6322761E+00
 4.0809043E-01 6.1006468E-01 1.7938966E+00
 3.5585059E-01 6.2157368E-01 1.8046643E+00
 3.0241638E-01 6.3275929E-01 1.8153351E+00
 2.4779705E-01 6.4427246E-01 1.8260890E+00
 1.9228449E-01 6.5651865E-01 1.8368040E+00
 1.3623403E-01 6.6982323E-01 1.8471590E+00
 8.0002732E-02 6.8444787E-01 1.8566606E+00
 2.3875148E-02 7.0060857E-01 1.8646973E+00
 -3.1943672E-02 7.1847039E-01 1.8705961E+00
 -8.7286187E-02 7.3813519E-01 1.8736824E+00
 -1.4196177E-01 7.5962518E-01 1.8733441E+00
 -1.9570276E-01 7.8287044E-01 1.8690960E+00
 -2.4814240E-01 8.0770556E-01 1.8606361E+00
 -2.9883463E-01 8.3387932E-01 1.8478797E+00
 -3.4730566E-01 8.6107592E-01 1.8309633E+00
 -3.9311799E-01 8.8894346E-01 1.8102138E+00
 -4.3592830E-01 9.1712039E-01 1.7860909E+00
 -4.7553554E-01 9.4525207E-01 1.7591061E+00
 -5.1191905E-01 9.7299393E-01 1.7297246E+00
 -5.4525696E-01 1.0000000E+00 1.6982647E+00
 -5.7600261E-01 1.0258473E+00 1.6647097E+00
 4.0651459E-01 6.4531893E-01 1.8104222E+00
 3.5294084E-01 6.5851141E-01 1.8213171E+00
 2.9832769E-01 6.7138273E-01 1.8320768E+00
 2.4281445E-01 6.8456406E-01 1.8428068E+00
 1.8665977E-01 6.9852513E-01 1.8533759E+00
 1.3020903E-01 7.1359907E-01 1.8634311E+00
 7.3784496E-02 7.3003052E-01 1.8724523E+00
 1.7638759E-02 7.4799306E-01 1.8798078E+00
 -3.8047640E-02 7.6759670E-01 1.8848177E+00
 -9.3120575E-02 7.8888179E-01 1.8868173E+00
 -1.4739316E-01 8.1181028E-01 1.8852215E+00
 -2.0059744E-01 8.3625949E-01 1.8795881E+00
 -2.5237067E-01 8.6202580E-01 1.8696678E+00
 -3.0228226E-01 8.8883892E-01 1.8554300E+00
 -3.4989136E-01 9.1638376E-01 1.8370542E+00
 -3.9481837E-01 9.4432328E-01 1.8148839E+00
 -4.3681044E-01 9.7231296E-01 1.7893499E+00
 -4.7579411E-01 1.0000000E+00 1.7608695E+00
 -5.1191902E-01 1.0270061E+00 1.7297246E+00
 -5.4555795E-01 1.0528783E+00 1.6959607E+00
 4.0529484E-01 6.8218135E-01 1.8257015E+00
 3.5068592E-01 6.9691033E-01 1.8364790E+00
 2.9514005E-01 7.1138975E-01 1.8471128E+00
 2.3886280E-01 7.2623833E-01 1.8576494E+00
 1.8215463E-01 7.4191836E-01 1.8679082E+00
 1.2535573E-01 7.5875285E-01 1.8775012E+00
 6.8772880E-02 7.7695300E-01 1.8858796E+00
 1.2635447E-02 7.9664724E-01 1.8923969E+00
 -4.2894267E-02 8.1789198E-01 1.8963737E+00
 -9.7672767E-02 8.4067237E-01 1.8971625E+00
 -1.5151746E-01 8.6489850E-01 1.8942117E+00
 -2.0416445E-01 8.9040598E-01 1.8871246E+00
 -2.5526327E-01 9.1696450E-01 1.8757022E+00
 -3.0441146E-01 9.4429431E-01 1.8599582E+00
 -3.5122063E-01 9.7208369E-01 1.8400951E+00
 -3.9539679E-01 1.0000000E+00 1.8164400E+00
 -4.3681042E-01 1.0276871E+00 1.7893498E+00
 -4.7553549E-01 1.0547479E+00 1.7591060E+00
 -5.1185112E-01 1.0807181E+00 1.7258206E+00
 4.0428239E-01 7.2065874E-01 1.8396043E+00
 3.4882569E-01 7.3680067E-01 1.8500636E+00
 2.9251761E-01 7.5282021E-01 1.8603831E+00
 2.3562292E-01 7.6929511E-01 1.8705443E+00
 1.7847726E-01 7.8665988E-01 1.8803153E+00
 1.2142953E-01 8.0520266E-01 1.8892686E+00
 6.4775255E-02 8.2509365E-01 1.8968320E+00
 8.7271057E-03 8.4641337E-01 1.9023513E+00
 -4.6567632E-02 8.6916832E-01 1.9051563E+00
 -1.0097532E-01 8.9329484E-01 1.9046247E+00
 -1.5432061E-01 9.1866089E-01 1.9002430E+00
 -2.0635114E-01 9.4507139E-01 1.8916601E+00
 -2.5674101E-01 9.7227954E-01 1.8787206E+00
 -3.0513437E-01 1.0000000E+00 1.8614661E+00
 -3.5122061E-01 1.0279163E+00 1.8400951E+00
 -3.9481833E-01 1.0556767E+00 1.8148838E+00
 -4.3592823E-01 1.0828796E+00 1.7860908E+00
 -4.7472646E-01 1.1090602E+00 1.7538798E+00
 4.0340746E-01 7.6067446E-01 1.8519642E+00
 3.4723946E-01 7.7813114E-01 1.8619353E+00
 2.9031523E-01 7.9561611E-01 1.8717648E+00
 2.3294886E-01 8.1365423E-01 1.8813712E+00
 1.7550449E-01 8.3263422E-01 1.8904725E+00
 1.1833736E-01 8.5279779E-01 1.8986072E+00
 6.1733678E-02 8.7426787E-01 1.9051868E+00
 5.8908314E-03 8.9707813E-01 1.9095588E+00
 -4.9057937E-02 9.2118952E-01 1.9110707E+00
 -1.0299050E-01 9.4649807E-01 1.9091319E+00
 -1.5574449E-01 9.7283998E-01 1.9032695E+00
 -2.0708966E-01 1.0000000E+00 1.8931738E+00
 -2.5674099E-01 1.0277205E+00 1.8787206E+00
 -3.0441142E-01 1.0557057E+00 1.8599582E+00
 -3.4989130E-01 1.0836162E+00 1.8370541E+00
 -3.9311791E-01 1.1110565E+00 1.8102136E+00
 -4.3417961E-01 1.1375691E+00 1.7796114E+00
 4.0265024E-01 8.0209019E-01 1.8626031E+00
 3.4589354E-01 8.2077337E-01 1.8719356E+00
 2.8849765E-01 8.3963879E-01 1.8811098E+00
 2.3081239E-01 8.5915455E-01 1.8899875E+00
 1.7322179E-01 8.7965194E-01 1.8982429E+00
 1.1608201E-01 9.0131919E-01 1.9053888E+00
 5.9667889E-02 9.2423057E-01 1.9108301E+00
 4.1611913E-03 9.4837559E-01 1.9139251E+00
 -5.0320117E-02 9.7367697E-01 1.9140467E+00
 -1.0366917E-01 1.0000000E+00 1.9106395E+00
 -1.5574447E-01 1.0271601E+00 1.9032695E+00
 -2.0635110E-01 1.0549286E+00 1.8916601E+00
 -2.5526322E-01 1.0830355E+00 1.8757021E+00
 -3.0228219E-01 1.1111611E+00 1.8554299E+00
 -3.4730556E-01 1.1389241E+00 1.8309632E+00
 -3.9035459E-01 1.1658795E+00 1.8024447E+00
 4.0201502E-01 8.4472283E-01 1.8713512E+00
 3.4480112E-01 8.6453622E-01 1.8799066E+00
 2.8708514E-01 8.8468315E-01 1.8882707E+00
 2.2924146E-01 9.0556898E-01 1.8962560E+00
 1.7166393E-01 9.2746123E-01 1.9035018E+00
 1.1470346E-01 9.5049169E-01 1.9095054E+00
 5.8620366E-02 9.7468743E-01 1.9136751E+00
 3.5790631E-03 1.0000001E+00 1.9153877E+00
 -5.0320101E-02 1.0263231E+00 1.9140466E+00
 -1.0299047E-01 1.0535020E+00 1.9091319E+00
 -1.5432056E-01 1.0813392E+00 1.9002429E+00
 -2.0416438E-01 1.1095940E+00 1.8871245E+00
 -2.5237058E-01 1.1379742E+00 1.8696677E+00
 -2.9883452E-01 1.1661207E+00 1.8478796E+00
 -3.4353557E-01 1.1936057E+00 1.8218358E+00
 4.0151736E-01 8.8834798E-01 1.8780577E+00
 3.4399143E-01 9.0918153E-01 1.8857094E+00
 2.8611538E-01 9.3049337E-01 1.8931213E+00
 2.2827758E-01 9.5262089E-01 1.9000652E+00
 1.7087235E-01 9.7576452E-01 1.9061560E+00
 1.1423912E-01 1.0000001E+00 1.9108860E+00
 5.8620378E-02 1.0253127E+00 1.9136751E+00
 4.1612196E-03 1.0516245E+00 1.9139250E+00
 -4.9057889E-02 1.0788106E+00 1.9110707E+00
 -1.0097525E-01 1.1067052E+00 1.9046246E+00
 -1.5151738E-01 1.1351015E+00 1.8942116E+00
 -2.0059733E-01 1.1637405E+00 1.8795880E+00
 -2.4814227E-01 1.1922944E+00 1.8606359E+00
 -2.9412391E-01 1.2203593E+00 1.8373371E+00
 4.0117441E-01 9.3270757E-01 1.8826006E+00
 3.4349282E-01 9.5443552E-01 1.8892363E+00
 2.8562137E-01 9.7677767E-01 1.8955705E+00
 2.2795246E-01 1.0000001E+00 1.9013432E+00
 1.7087236E-01 1.0242357E+00 1.9061560E+00
 1.1470348E-01 1.0495085E+00 1.9095054E+00
 5.9667924E-02 1.0757696E+00 1.9108301E+00
 5.8908874E-03 1.1029220E+00 1.9095587E+00
 -4.6567554E-02 1.1308318E+00 1.9051562E+00
 -9.7672666E-02 1.1593277E+00 1.8971623E+00
 -1.4739304E-01 1.1881897E+00 1.8852214E+00
 -1.9570261E-01 1.2171296E+00 1.8690958E+00
 -2.4259609E-01 1.2457765E+00 1.8486612E+00
 4.0099943E-01 9.7751849E-01 1.8848942E+00
 3.4332440E-01 1.0000001E+00 1.8904197E+00
 2.8562137E-01 1.0232225E+00 1.8955705E+00
 2.2827758E-01 1.0473793E+00 1.9000652E+00
 1.7166395E-01 1.0725389E+00 1.9035018E+00
 1.1608204E-01 1.0986810E+00 1.9053887E+00
 6.1733736E-02 1.1257323E+00 1.9051867E+00
 8.7271883E-03 1.1535867E+00 1.9023512E+00
 -4.2894159E-02 1.1821081E+00 1.8963735E+00
 -9.3120442E-02 1.2111183E+00 1.8868171E+00
 -1.4196161E-01 1.2403748E+00 1.8733439E+00
 -1.8944782E-01 1.2695503E+00 1.8557265E+00
 4.0099943E-01 1.0224817E+00 1.8848942E+00
 3.4349282E-01 1.0455647E+00 1.8892363E+00
 2.8611538E-01 1.0695068E+00 1.8931213E+00
 2.2924147E-01 1.0944312E+00 1.8962560E+00
 1.7322182E-01 1.1203482E+00 1.8982428E+00
 1.1833741E-01 1.1472024E+00 1.8986071E+00
 6.4775333E-02 1.1749065E+00 1.8968319E+00
 1.2635554E-02 1.2033529E+00 1.8923968E+00
 -3.8047504E-02 1.2324034E+00 1.8848176E+00
 -8.7286023E-02 1.2618649E+00 1.8736822E+00
 -1.3513318E-01 1.2914607E+00 1.8586763E+00
 4.0117440E-01 1.0672926E+00 1.8826006E+00
 3.4399142E-01 1.0908187E+00 1.8857094E+00
 2.8708513E-01 1.1153170E+00 1.8882707E+00
 2.3081240E-01 1.1408456E+00 1.8899875E+00
 1.7550453E-01 1.1673659E+00 1.8904725E+00
 1.2142960E-01 1.1947975E+00 1.8892685E+00
 6.8772977E-02 1.2230471E+00 1.8858795E+00
 1.7638889E-02 1.2520070E+00 1.8798077E+00
 -3.1943510E-02 1.2815297E+00 1.8705960E+00
 -8.0018067E-02 1.3113928E+00 1.8578651E+00
 4.0151735E-01 1.1116522E+00 1.8780577E+00
 3.4480111E-01 1.1354640E+00 1.8799066E+00
 2.8849765E-01 1.1603614E+00 1.8811098E+00
 2.3294887E-01 1.1863459E+00 1.8813712E+00
 1.7847730E-01 1.2133403E+00 1.8803152E+00
 1.2535581E-01 1.2412473E+00 1.8775011E+00
 7.3784609E-02 1.2699696E+00 1.8724521E+00
 2.3875298E-02 1.2993915E+00 1.8646972E+00
 -2.4367388E-02 1.3293400E+00 1.8538172E+00
 4.0201500E-01 1.1552773E+00 1.8713512E+00
 3.4589352E-01 1.1792268E+00 1.8719356E+00
 2.9031522E-01 1.2043841E+00 1.8717648E+00
 2.3562294E-01 1.2307051E+00 1.8705443E+00
 1.8215468E-01 1.2580818E+00 1.8679082E+00
 1.3020912E-01 1.2864011E+00 1.8634310E+00
 8.0002858E-02 1.3155522E+00 1.8566605E+00
 3.1623842E-02 1.3453932E+00 1.8471661E+00
 4.0265022E-01 1.1979100E+00 1.8626031E+00
 3.4723944E-01 1.2218690E+00 1.8619353E+00
 2.9251760E-01 1.2471800E+00 1.8603830E+00
 2.3886282E-01 1.2737618E+00 1.8576493E+00
 1.8665982E-01 1.3014750E+00 1.8533759E+00
 1.3623412E-01 1.3301769E+00 1.8471589E+00
 8.7771593E-02 1.3597204E+00 1.8385893E+00
 4.0340743E-01 1.2393257E+00 1.8519642E+00
 3.4882567E-01 1.2631995E+00 1.8500636E+00
 2.9514004E-01 1.2886104E+00 1.8471128E+00
 2.4281446E-01 1.3154361E+00 1.8428068E+00
 1.9228454E-01 1.3434815E+00 1.8368040E+00
 1.4383954E-01 1.3725430E+00 1.8287471E+00
 4.0428235E-01 1.2793414E+00 1.8396043E+00
 3.5068589E-01 1.3030898E+00 1.8364790E+00
 2.9832768E-01 1.3286174E+00 1.8320767E+00
 2.4779706E-01 1.3557277E+00 1.8260890E+00
 1.9950302E-01 1.3841139E+00 1.8182270E+00
 4.0529479E-01 1.3178188E+00 1.8257015E+00
 3.5294080E-01 1.3414888E+00 1.8213171E+00
 3.0241636E-01 1.3672409E+00 1.8153351E+00
 2.5435699E-01 1.3947026E+00 1.8074967E+00
 4.0651455E-01 1.3546812E+00 1.8104222E+00
 3.5585055E-01 1.3784265E+00 1.8046643E+00
 3.0798979E-01 1.4045853E+00 1.7968695E+00
 4.0809038E-01 1.3899355E+00 1.7938966E+00
 3.6008164E-01 1.4140826E+00 1.7864686E+00
 4.1032918E-01 1.4235835E+00 1.7762438E+00
 4.5926101E-01 1.4346649E+00 1.7652505E+00
 4.5910578E-01 1.4028473E+00 1.7825075E+00
 4.5894901E-01 1.3691282E+00 1.7990008E+00
 4.5880521E-01 1.3335598E+00 1.8145167E+00
 4.5868041E-01 1.2962524E+00 1.8288383E+00
 4.5857543E-01 1.2573347E+00 1.8417547E+00
 4.5848840E-01 1.2169382E+00 1.8530760E+00
 4.5841745E-01 1.1752349E+00 1.8626225E+00
 4.5836158E-01 1.1324349E+00 1.8702328E+00
 4.5832086E-01 1.0887800E+00 1.8757719E+00
 4.5829598E-01 1.0445391E+00 1.8791378E+00
 4.5828760E-01 1.0000001E+00 1.8802670E+00
 4.5829599E-01 9.5546106E-01 1.8791378E+00
 4.5832088E-01 9.1122014E-01 1.8757719E+00
 4.5836160E-01 8.6756531E-01 1.8702328E+00
 4.5841747E-01 8.2476527E-01 1.8626225E+00
 4.5848843E-01 7.8306195E-01 1.8530760E+00
 4.5857547E-01 7.4266543E-01 1.8417547E+00
 4.5868045E-01 7.0374774E-01 1.8288383E+00
 4.5880525E-01 6.6644036E-01 1.8145167E+00
 4.5894906E-01 6.3087192E-01 1.7990007E+00
 4.5910583E-01 5.9715292E-01 1.7825074E+00
 4.5926106E-01 5.6533523E-01 1.7652505E+00
 5.0285202E-01 5.4767339E-01 1.7508700E+00
 5.5032913E-01 5.5912086E-01 1.7533932E+00
 5.9961007E-01 5.7100041E-01 1.7559664E+00
 6.5029945E-01 5.8333588E-01 1.7585343E+00
 7.0221658E-01 5.9619716E-01 1.7610027E+00
 7.5517982E-01 6.0967848E-01 1.7632453E+00
 8.0902163E-01 6.2388330E-01 1.7651013E+00
 8.6354778E-01 6.3891430E-01 1.7663798E+00
 9.1853867E-01 6.5486956E-01 1.7668671E+00
 9.7374691E-01 6.7183588E-01 1.7663357E+00
 1.0288982E+00 6.8988170E-01 1.7645550E+00
 1.0836953E+00 7.0905063E-01 1.7613026E+00
 1.1378245E+00 7.2935615E-01 1.7563775E+00
 1.1909645E+00 7.5077871E-01 1.7496105E+00
 1.2427952E+00 7.7326459E-01 1.7408753E+00
 1.2930075E+00 7.9672811E-01 1.7300946E+00
 1.3413109E+00 8.2105407E-01 1.7172447E+00
 1.3874412E+00 8.4610346E-01 1.7023559E+00
 1.4311665E+00 8.7172043E-01 1.6855112E+00
 1.4722932E+00 8.9773948E-01 1.6668399E+00
 1.5106483E+00 9.2397050E-01 1.6465234E+00
 1.5460791E+00 9.5018763E-01 1.6247867E+00
 1.5783475E+00 9.7601252E-01 1.6019900E+00
 5.0773266E-01 1.4196286E+00 1.7691771E+00
 5.5684843E-01 1.4063089E+00 1.7720199E+00
 6.0717622E-01 1.3930745E+00 1.7746203E+00
 6.5856830E-01 1.3795846E+00 1.7770647E+00
 7.1095932E-01 1.3656006E+00 1.7793270E+00
 7.6422964E-01 1.3509708E+00 1.7812939E+00
 8.1822026E-01 1.3355764E+00 1.7828013E+00
 8.7274422E-01 1.3193227E+00 1.7836479E+00
 9.2758255E-01 1.3021319E+00 1.7836097E+00
 9.8248623E-01 1.2839432E+00 1.7824528E+00
 1.0371790E+00 1.2647166E+00 1.7799461E+00
 1.0913634E+00 1.2444368E+00 1.7758731E+00
 1.1447288E+00 1.2231171E+00 1.7700448E+00
 1.1969610E+00 1.2007996E+00 1.7623096E+00
 1.2477521E+00 1.1775545E+00 1.7525624E+00
 1.2968088E+00 1.1534772E+00 1.7407495E+00
 1.3438629E+00 1.1286861E+00 1.7268686E+00
 1.3886866E+00 1.1033213E+00 1.7109625E+00
 1.4311083E+00 1.0775463E+00 1.6931069E+00
 1.4710390E+00 1.0515517E+00 1.6733846E+00
 1.5085154E+00 1.0255675E+00 1.6518400E+00
 1.5437808E+00 1.0000001E+00 1.6283983E+00
 5.0961551E-01 1.3861167E+00 1.7863669E+00
 5.6063664E-01 1.3709812E+00 1.7892889E+00
 6.1221355E-01 1.3563516E+00 1.7917761E+00
 6.6452518E-01 1.3416018E+00 1.7940112E+00
 7.1755914E-01 1.3264087E+00 1.7959819E+00
 7.7125781E-01 1.3105619E+00 1.7975823E+00
 8.2549682E-01 1.2939324E+00 1.7986397E+00
 8.8010536E-01 1.2764338E+00 1.7989429E+00
 9.3487167E-01 1.2580075E+00 1.7982602E+00
 9.8954826E-01 1.2386163E+00 1.7963544E+00
 1.0438592E+00 1.2182452E+00 1.7929971E+00
 1.0975088E+00 1.1969031E+00 1.7879804E+00
 1.1501918E+00 1.1746243E+00 1.7811291E+00
 1.2016047E+00 1.1514664E+00 1.7723092E+00
 1.2514577E+00 1.1275084E+00 1.7614346E+00
 1.2994869E+00 1.1028476E+00 1.7484665E+00
 1.3454747E+00 1.0776011E+00 1.7334055E+00
 1.3892816E+00 1.0519123E+00 1.7162695E+00
 1.4308926E+00 1.0259633E+00 1.6970556E+00
 1.4704710E+00 1.0000001E+00 1.6756815E+00
 1.5085154E+00 9.7443260E-01 1.6518400E+00
 5.1085391E-01 1.3510963E+00 1.8025190E+00
 5.6314593E-01 1.3345600E+00 1.8052026E+00
 6.1582617E-01 1.3185831E+00 1.8074303E+00
 6.6897867E-01 1.3025731E+00 1.8093360E+00
 7.2264598E-01 1.2861390E+00 1.8109088E+00
 7.7678483E-01 1.2690533E+00 1.8120308E+00
 8.3129283E-01 1.2511828E+00 1.8125198E+00
 8.8600963E-01 1.2324535E+00 1.8121552E+00
 9.4072788E-01 1.2128247E+00 1.8107002E+00
 9.9520155E-01 1.1922808E+00 1.8079180E+00
 1.0491564E+00 1.1708284E+00 1.8035856E+00
 1.1023009E+00 1.1484958E+00 1.7975059E+00
 1.1543390E+00 1.1253315E+00 1.7895182E+00
 1.2049847E+00 1.1014021E+00 1.7795044E+00
 1.2539794E+00 1.0767892E+00 1.7673897E+00
 1.3011144E+00 1.0515918E+00 1.7531342E+00
 1.3462680E+00 1.0259369E+00 1.7367109E+00
 1.3894551E+00 1.0000001E+00 1.7180656E+00
 1.4308926E+00 9.7403685E-01 1.6970556E+00
 1.4710390E+00 9.4844840E-01 1.6733846E+00
 5.1177681E-01 1.3145300E+00 1.8174769E+00
 5.6505495E-01 1.2967962E+00 1.8197295E+00
 6.1860783E-01 1.2796011E+00 1.8215326E+00
 6.7248241E-01 1.2623708E+00 1.8229778E+00
 7.2669914E-01 1.2447203E+00 1.8240261E+00
 7.8122287E-01 1.2264189E+00 1.8245434E+00
 8.3595473E-01 1.2073444E+00 1.8243345E+00
 8.9073881E-01 1.1874371E+00 1.8231717E+00
 9.4536948E-01 1.1666753E+00 1.8208161E+00
 9.9960265E-01 1.1450624E+00 1.8170342E+00
 1.0531682E+00 1.1226223E+00 1.8116112E+00
 1.1057832E+00 1.0993968E+00 1.8043623E+00
 1.1571678E+00 1.0754428E+00 1.7951402E+00
 1.2070653E+00 1.0508303E+00 1.7838366E+00
 1.2552705E+00 1.0256447E+00 1.7703760E+00
 1.3016648E+00 1.0000001E+00 1.7546956E+00
 1.3462680E+00 9.7406327E-01 1.7367109E+00
 1.3892816E+00 9.4808788E-01 1.7162695E+00
 1.4311083E+00 9.2245384E-01 1.6931069E+00
 5.1253630E-01 1.2763948E+00 1.8310938E+00
 5.6662399E-01 1.2576322E+00 1.8327541E+00
 6.2089133E-01 1.2393290E+00 1.8339869E+00
 6.7535159E-01 1.2209548E+00 1.8348346E+00
 7.3000653E-01 1.2021463E+00 1.8352264E+00
 7.8481362E-01 1.1826923E+00 1.8350071E+00
 8.3967395E-01 1.1624875E+00 1.8339697E+00
 8.9443195E-01 1.1414912E+00 1.8318814E+00
 9.4888406E-01 1.1196989E+00 1.8285049E+00
 1.0027905E+00 1.0971299E+00 1.8236128E+00
 1.0558896E+00 1.0738206E+00 1.8170005E+00
 1.1079140E+00 1.0498202E+00 1.8084949E+00
 1.1586106E+00 1.0251886E+00 1.7979581E+00
 1.2077708E+00 1.0000001E+00 1.7852825E+00
 1.2552705E+00 9.7435541E-01 1.7703760E+00
 1.3011144E+00 9.4840833E-01 1.7531342E+00
 1.3454747E+00 9.2239902E-01 1.7334055E+00
 1.3886866E+00 8.9667883E-01 1.7109625E+00
 5.1319984E-01 1.2367601E+00 1.8431970E+00
 5.6796868E-01 1.2171046E+00 1.8441313E+00
 6.2281525E-01 1.1978027E+00 1.8446613E+00
 6.7772561E-01 1.1783754E+00 1.8447810E+00
 7.3268584E-01 1.1584958E+00 1.8443867E+00
 7.8764650E-01 1.1379814E+00 1.8433032E+00
 8.4250689E-01 1.1167510E+00 1.8413138E+00
 8.9711301E-01 1.0947824E+00 1.8381844E+00
 9.5126566E-01 1.0720868E+00 1.8336819E+00
 1.0047337E+00 1.0486948E+00 1.8275873E+00
 1.0572704E+00 1.0246488E+00 1.8197065E+00
 1.1086330E+00 1.0000001E+00 1.8098753E+00
 1.1586106E+00 9.7481155E-01 1.7979581E+00
 1.2070653E+00 9.4916985E-01 1.7838366E+00
 1.2539794E+00 9.2321097E-01 1.7673897E+00
 1.2994869E+00 8.9715250E-01 1.7484665E+00
 1.3438629E+00 8.7131407E-01 1.7268686E+00
 5.1378301E-01 1.1957597E+00 1.8536096E+00
 5.6911762E-01 1.1753312E+00 1.8537059E+00
 6.2440989E-01 1.1551424E+00 1.8534146E+00
 6.7962841E-01 1.1347670E+00 1.8526858E+00
 7.3474843E-01 1.1139237E+00 1.8513853E+00
 7.8971668E-01 1.0924654E+00 1.8493210E+00
 8.4443326E-01 1.0703362E+00 1.8462703E+00
 8.9874872E-01 1.0475318E+00 1.8420008E+00
 9.5247255E-01 1.0240746E+00 1.8362862E+00
 1.0053878E+00 1.0000001E+00 1.8289167E+00
 1.0572704E+00 9.7535136E-01 1.8197065E+00
 1.1079140E+00 9.5017997E-01 1.8084949E+00
 1.1571678E+00 9.2455729E-01 1.7951402E+00
 1.2049847E+00 8.9859803E-01 1.7795045E+00
 1.2514577E+00 8.7249176E-01 1.7614346E+00
 1.2968088E+00 8.4652298E-01 1.7407495E+00
 5.1427823E-01 1.1535721E+00 1.8621665E+00
 5.7005518E-01 1.1324920E+00 1.8613297E+00
 6.2565337E-01 1.1115346E+00 1.8601137E+00
 6.8103110E-01 1.0903301E+00 1.8584294E+00
 7.3615886E-01 1.0686483E+00 1.8561165E+00
 7.9098382E-01 1.0463801E+00 1.8529707E+00
 8.4541087E-01 1.0234941E+00 1.8487675E+00
 8.9929940E-01 1.0000001E+00 1.8432789E+00
 9.5247255E-01 9.7592559E-01 1.8362862E+00
 1.0047337E+00 9.5130532E-01 1.8275873E+00
 1.0558896E+00 9.2617950E-01 1.8170005E+00
 1.1057832E+00 9.0060330E-01 1.8043623E+00
 1.1543390E+00 8.7466864E-01 1.7895183E+00
 1.2016047E+00 8.4853374E-01 1.7723093E+00
 1.2477521E+00 8.2244564E-01 1.7525624E+00
 5.1466908E-01 1.1104162E+00 1.8687231E+00
 5.7075234E-01 1.0888130E+00 1.8668750E+00
 6.2650890E-01 1.0672152E+00 1.8646471E+00
 6.8189315E-01 1.0453140E+00 1.8619163E+00
 7.3687638E-01 1.0229327E+00 1.8585025E+00
 7.9141095E-01 1.0000001E+00 1.8541940E+00
 8.4541087E-01 9.7650603E-01 1.8487675E+00
 8.9874872E-01 9.5246832E-01 1.8420008E+00
 9.5126566E-01 9.2791329E-01 1.8336819E+00
 1.0027904E+00 9.0287020E-01 1.8236128E+00
 1.0531682E+00 8.7737784E-01 1.8116112E+00
 1.1023008E+00 8.5150437E-01 1.7975059E+00
 1.1501918E+00 8.2537588E-01 1.7811291E+00
 1.1969610E+00 7.9920052E-01 1.7623096E+00
 5.1493941E-01 1.0665437E+00 1.8731627E+00
 5.7118236E-01 1.0445544E+00 1.8702434E+00
 6.2694520E-01 1.0224549E+00 1.8669346E+00
 6.8218414E-01 1.0000001E+00 1.8630856E+00
 7.3687638E-01 9.7706740E-01 1.8585025E+00
 7.9098382E-01 9.5362008E-01 1.8529707E+00
 8.4443326E-01 9.2966392E-01 1.8462703E+00
 8.9711301E-01 9.0521777E-01 1.8381845E+00
 9.4888405E-01 8.8030128E-01 1.8285049E+00
 9.9960264E-01 8.5493775E-01 1.8170342E+00
 1.0491564E+00 8.2917171E-01 1.8035856E+00
 1.0975087E+00 8.0309702E-01 1.7879805E+00
 1.1447288E+00 7.7688306E-01 1.7700448E+00
 5.1507756E-01 1.0222308E+00 1.8754036E+00
 5.7132772E-01 1.0000001E+00 1.8713733E+00
 6.2694520E-01 9.7754527E-01 1.8669346E+00
 6.8189315E-01 9.5468618E-01 1.8619163E+00
 7.3615886E-01 9.3135180E-01 1.8561165E+00
 7.8971667E-01 9.0753470E-01 1.8493210E+00
 8.4250689E-01 8.8324918E-01 1.8413138E+00
 8.9443195E-01 8.5850898E-01 1.8318815E+00
 9.4536948E-01 8.3332479E-01 1.8208161E+00
 9.9520155E-01 8.0771930E-01 1.8079181E+00
 1.0438592E+00 7.8175496E-01 1.7929972E+00
 1.0913634E+00 7.5556328E-01 1.7758732E+00
 5.1507756E-01 9.7776935E-01 1.8754036E+00
 5.7118237E-01 9.5544573E-01 1.8702434E+00
 6.2650890E-01 9.3278497E-01 1.8646471E+00
 6.8103110E-01 9.0967001E-01 1.8584294E+00
 7.3474843E-01 8.8607641E-01 1.8513853E+00
 7.8764649E-01 8.6201872E-01 1.8433032E+00
 8.3967394E-01 8.3751261E-01 1.8339697E+00
 8.9073880E-01 8.1256301E-01 1.8231717E+00
 9.4072787E-01 7.8717543E-01 1.8107003E+00
 9.8954825E-01 7.6138381E-01 1.7963545E+00
 1.0371790E+00 7.3528356E-01 1.7799461E+00
 5.1493942E-01 9.3345646E-01 1.8731627E+00
 5.7075234E-01 9.1118714E-01 1.8668750E+00
 6.2565337E-01 8.8846554E-01 1.8601137E+00
 6.7962841E-01 8.6523313E-01 1.8526858E+00
 7.3268584E-01 8.4150439E-01 1.8443867E+00
 7.8481362E-01 8.1730788E-01 1.8350071E+00
 8.3595472E-01 7.9265578E-01 1.8243345E+00
 8.8600962E-01 7.6754665E-01 1.8121552E+00
 9.3487167E-01 7.4199259E-01 1.7982602E+00
 9.8248622E-01 7.1605692E-01 1.7824528E+00
 5.1466909E-01 8.8958397E-01 1.8687231E+00
 5.7005519E-01 8.6750812E-01 1.8613297E+00
 6.2440990E-01 8.4485770E-01 1.8534146E+00
 6.7772561E-01 8.2162474E-01 1.8447810E+00
 7.3000653E-01 7.9785379E-01 1.8352264E+00
 7.8122287E-01 7.7358126E-01 1.8245434E+00
 8.3129282E-01 7.4881729E-01 1.8125198E+00
 8.8010535E-01 7.2356629E-01 1.7989429E+00
 9.2758254E-01 6.9786824E-01 1.7836097E+00
 5.1427824E-01 8.4642807E-01 1.8621665E+00
 5.6911764E-01 8.2466899E-01 1.8537059E+00
 6.2281526E-01 8.0219745E-01 1.8446613E+00
 6.7535160E-01 7.7904533E-01 1.8348346E+00
 7.2669914E-01 7.5527989E-01 1.8240261E+00
 7.7678483E-01 7.3094687E-01 1.8120308E+00
 8.2549681E-01 7.0606776E-01 1.7986397E+00
 8.7274421E-01 6.8067741E-01 1.7836479E+00
 5.1378303E-01 8.0424049E-01 1.8536096E+00
 5.6796870E-01 7.8289557E-01 1.8441313E+00
 6.2089135E-01 7.6067114E-01 1.8339869E+00
 6.7248242E-01 7.3762936E-01 1.8229778E+00
 7.2264598E-01 7.1386115E-01 1.8109088E+00
 7.7125780E-01 6.8943826E-01 1.7975823E+00
 8.1822025E-01 6.6442370E-01 1.7828014E+00
 5.1319986E-01 7.6324008E-01 1.8431970E+00
 5.6662401E-01 7.4236798E-01 1.8327541E+00
 6.1860785E-01 7.2039902E-01 1.8215326E+00
 6.6897868E-01 6.9742703E-01 1.8093360E+00
 7.1755915E-01 6.7359142E-01 1.7959820E+00
 7.6422964E-01 6.4902932E-01 1.7812939E+00
 5.1253633E-01 7.2360533E-01 1.8310938E+00
 5.6505498E-01 7.0320399E-01 1.8197295E+00
 6.1582619E-01 6.8141703E-01 1.8074303E+00
 6.6452519E-01 6.5839831E-01 1.7940112E+00
 7.1095933E-01 6.3439953E-01 1.7793270E+00
 5.1177684E-01 6.8547016E-01 1.8174769E+00
 5.6314596E-01 6.6544021E-01 1.8052026E+00
 6.1221357E-01 6.4364858E-01 1.7917761E+00
 6.5856832E-01 6.2041559E-01 1.7770646E+00
 5.1085395E-01 6.4890388E-01 1.8025189E+00
 5.6063667E-01 6.2901893E-01 1.7892889E+00
 6.0717625E-01 6.0692564E-01 1.7746203E+00
 5.0961555E-01 6.1388345E-01 1.7863668E+00
 5.5684846E-01 5.9369125E-01 1.7720199E+00
 5.0773270E-01 5.8037162E-01 1.7691771E+00
 4.3227232E-01 1.4861585E+00 1.7363576E+00
 4.0221403E-01 1.5118042E+00 1.7219913E+00
 3.7079275E-01 1.5381590E+00 1.7061225E+00
 3.3823197E-01 1.5650317E+00 1.6887005E+00
 3.0472546E-01 1.5922930E+00 1.6696228E+00
 2.7051773E-01 1.6197918E+00 1.6487678E+00
 2.3585709E-01 1.6473521E+00 1.6260068E+00
 2.0101620E-01 1.6747500E+00 1.6012252E+00
 1.6627900E-01 1.7017205E+00 1.5743314E+00
 1.3192355E-01 1.7279656E+00 1.5452684E+00
 9.8209638E-02 1.7531664E+00 1.5140272E+00
 6.5369348E-02 1.7769991E+00 1.4806552E+00
 3.3603201E-02 1.7991537E+00 1.4452615E+00
 3.0797697E-03 1.8193502E+00 1.4080172E+00
 -2.6062092E-02 1.8373540E+00 1.3691494E+00
 -5.3709388E-02 1.8529866E+00 1.3289308E+00
 -7.9770456E-02 1.8661332E+00 1.2876667E+00
 -1.0417135E-01 1.8767431E+00 1.2456830E+00
 -1.2685419E-01 1.8848276E+00 1.2033142E+00
 -1.4777810E-01 1.8904543E+00 1.1608913E+00
 -1.6691773E-01 1.8937367E+00 1.1187582E+00
 -1.8428466E-01 1.8948193E+00 1.0772655E+00
 -1.9985285E-01 1.8938888E+00 1.0370429E+00
 -6.3346470E-01 1.0689243E+00 1.5882239E+00
 -6.3720169E-01 1.1137016E+00 1.5758492E+00
 -6.3947596E-01 1.1591812E+00 1.5616018E+00
 -6.3992931E-01 1.2054748E+00 1.5457061E+00
 -6.3831021E-01 1.2525479E+00 1.5282304E+00
 -6.3440349E-01 1.3002618E+00 1.5092075E+00
 -6.2802877E-01 1.3483958E+00 1.4886526E+00
 -6.1903864E-01 1.3966684E+00 1.4665802E+00
 -6.0731872E-01 1.4447479E+00 1.4430203E+00
 -5.9279045E-01 1.4922620E+00 1.4180291E+00
 -5.7541659E-01 1.5388077E+00 1.3916958E+00
 -5.5520768E-01 1.5839634E+00 1.3641452E+00
 -5.3222758E-01 1.6273017E+00 1.3355373E+00
 -5.0659575E-01 1.6684067E+00 1.3060643E+00
 -4.7848735E-01 1.7068896E+00 1.2759473E+00
 -4.4812983E-01 1.7424061E+00 1.2454291E+00
 -4.1579760E-01 1.7746701E+00 1.2147673E+00
 -3.8180242E-01 1.8034688E+00 1.1842198E+00
 -3.4648688E-01 1.8286709E+00 1.1540288E+00
 -3.1020862E-01 1.8502350E+00 1.1243868E+00
 -2.7332051E-01 1.8682143E+00 1.0953748E+00
 -2.3627649E-01 1.8827214E+00 1.0668250E+00
 -6.0784769E-01 1.0977899E+00 1.6191644E+00
 -6.1009376E-01 1.1451065E+00 1.6068955E+00
 -6.1093366E-01 1.1924455E+00 1.5924846E+00
 -6.0991942E-01 1.2401711E+00 1.5762550E+00
 -6.0674213E-01 1.2883628E+00 1.5583378E+00
 -6.0116683E-01 1.3369301E+00 1.5387855E+00
 -5.9301856E-01 1.3856607E+00 1.5176139E+00
 -5.8217105E-01 1.4342552E+00 1.4948345E+00
 -5.6854037E-01 1.4823536E+00 1.4704780E+00
 -5.5208488E-01 1.5295537E+00 1.4446083E+00
 -5.3280972E-01 1.5754275E+00 1.4173295E+00
 -5.1077130E-01 1.6195372E+00 1.3887869E+00
 -4.8607988E-01 1.6614541E+00 1.3591652E+00
 -4.5889973E-01 1.7007760E+00 1.3286834E+00
 -4.2944398E-01 1.7371468E+00 1.2975873E+00
 -3.9796857E-01 1.7702719E+00 1.2661377E+00
 -3.6476205E-01 1.7999335E+00 1.2345901E+00
 -3.3013730E-01 1.8260004E+00 1.2031633E+00
 -2.9441765E-01 1.8484347E+00 1.1719861E+00
 -2.5792402E-01 1.8672931E+00 1.1410188E+00
 -2.2100892E-01 1.8827078E+00 1.1098479E+00
 -5.7888370E-01 1.1268139E+00 1.6497284E+00
 -5.7966520E-01 1.1759505E+00 1.6372825E+00
 -5.7899291E-01 1.2248660E+00 1.6225645E+00
 -5.7640607E-01 1.2738718E+00 1.6058881E+00
 -5.7156368E-01 1.3230673E+00 1.5874076E+00
 -5.6422496E-01 1.3723637E+00 1.5671826E+00
 -5.5422868E-01 1.4215345E+00 1.5452295E+00
 -5.4147564E-01 1.4702559E+00 1.5215623E+00
 -5.2591767E-01 1.5181402E+00 1.4962200E+00
 -5.0755493E-01 1.5647601E+00 1.4692828E+00
 -4.8643763E-01 1.6096715E+00 1.4408771E+00
 -4.6266857E-01 1.6524336E+00 1.4111754E+00
 -4.3640227E-01 1.6926309E+00 1.3803913E+00
 -4.0783985E-01 1.7298934E+00 1.3487710E+00
 -3.7722175E-01 1.7639156E+00 1.3165786E+00
 -3.4481814E-01 1.7944712E+00 1.2840723E+00
 -3.1092013E-01 1.8214259E+00 1.2514646E+00
 -2.7583616E-01 1.8447401E+00 1.2188670E+00
 -2.3988053E-01 1.8644714E+00 1.1862012E+00
 -2.0339942E-01 1.8807522E+00 1.1530994E+00
 -5.4645180E-01 1.1561953E+00 1.6793799E+00
 -5.4574795E-01 1.2066826E+00 1.6665377E+00
 -5.4350142E-01 1.2568216E+00 1.6513425E+00
 -5.3925389E-01 1.3068450E+00 1.6340763E+00
 -5.3266121E-01 1.3568054E+00 1.6148869E+00
 -5.2349221E-01 1.4065828E+00 1.5938324E+00
 -5.1161115E-01 1.4559193E+00 1.5709309E+00
 -4.9695357E-01 1.5044616E+00 1.5462052E+00
 -4.7951246E-01 1.5517971E+00 1.5197115E+00
 -4.5933253E-01 1.5974829E+00 1.4915540E+00
 -4.3651005E-01 1.6410719E+00 1.4618884E+00
 -4.1119008E-01 1.6821377E+00 1.4309184E+00
 -3.8356316E-01 1.7202968E+00 1.3988879E+00
 -3.5385526E-01 1.7552311E+00 1.3660635E+00
 -3.2232149E-01 1.7867027E+00 1.3327115E+00
 -2.8923650E-01 1.8145697E+00 1.2990533E+00
 -2.5489809E-01 1.8387882E+00 1.2652116E+00