# TIME = 3.600000
variables = x, y, z
zone N=5762 E=11520 F=FEPOINT ET=TRIANGLE
 6.9691023E+00 1.4638264E+00 1.7503464E+00
 6.9691023E+00 1.4638266E+00 2.4965355E-01
 6.9691023E+00 5.3617295E-01 1.7503461E+00
 6.9691023E+00 5.3617289E-01 2.4965403E-01
 5.8592281E+00 9.9999956E-01 1.5612493E+00
 8.1109871E+00 9.9999958E-01 1.5793550E+00
 5.8592285E+00 9.9999957E-01 4.3875106E-01
 8.1109872E+00 9.9999958E-01 4.2064510E-01
 6.2994755E+00 1.8939275E+00 1.0000001E+00
 6.2994752E+00 1.0607066E-01 1.0000001E+00
 7.6196583E+00 1.8095075E+00 1.0000001E+00
 7.6196581E+00 1.9049237E-01 1.0000001E+00
 6.9278033E+00 1.4573001E+00 1.7585772E+00
 6.8822321E+00 1.4499579E+00 1.7677383E+00
 6.8342026E+00 1.4421315E+00 1.7774707E+00
 6.7840331E+00 1.4337509E+00 1.7876985E+00
 6.7319284E+00 1.4246997E+00 1.7982794E+00
 6.6781239E+00 1.4147954E+00 1.8089599E+00
 6.6228431E+00 1.4037919E+00 1.8193478E+00
 6.5663252E+00 1.3913945E+00 1.8288834E+00
 6.5088230E+00 1.3772801E+00 1.8368460E+00
 6.4506274E+00 1.3611358E+00 1.8423957E+00
 6.3921186E+00 1.3427119E+00 1.8446603E+00
 6.3338211E+00 1.3218823E+00 1.8428625E+00
 6.2764247E+00 1.2986927E+00 1.8364573E+00
 6.2207366E+00 1.2733758E+00 1.8252347E+00
 6.1675734E+00 1.2463231E+00 1.8093462E+00
 6.1176439E+00 1.2180260E+00 1.7892526E+00
 6.0714654E+00 1.1890061E+00 1.7656203E+00
 6.0293333E+00 1.1597571E+00 1.7392062E+00
 5.9913371E+00 1.1307080E+00 1.7107653E+00
 5.9574054E+00 1.1022101E+00 1.6809916E+00
 5.9273688E+00 1.0745567E+00 1.6505069E+00
 5.9010010E+00 1.0479966E+00 1.6198519E+00
 5.8780844E+00 1.0227879E+00 1.5895517E+00
 6.9231249E+00 5.7439774E-01 1.7772699E+00
 6.8759279E+00 5.8364187E-01 1.7871182E+00
 6.8267746E+00 5.9297431E-01 1.7972040E+00
 6.7757654E+00 6.0282333E-01 1.8076480E+00
 6.7230159E+00 6.1344811E-01 1.8183608E+00
 6.6687060E+00 6.2505369E-01 1.8290672E+00
 6.6130644E+00 6.3787539E-01 1.8393264E+00
 6.5563363E+00 6.5217885E-01 1.8485267E+00
 6.4987839E+00 6.6823683E-01 1.8559034E+00
 6.4407113E+00 6.8628945E-01 1.8605921E+00
 6.3825167E+00 7.0649480E-01 1.8617281E+00
 6.3247455E+00 7.2887983E-01 1.8585788E+00
 6.2680985E+00 7.5330901E-01 1.8506767E+00
 6.2133722E+00 7.7948561E-01 1.8379056E+00
 6.1613465E+00 8.0698889E-01 1.8205074E+00
 6.1126739E+00 8.3533510E-01 1.7990131E+00
 6.0678097E+00 8.6404153E-01 1.7741332E+00
 6.0269912E+00 8.9267534E-01 1.7466439E+00
 5.9902590E+00 9.2087859E-01 1.7172966E+00
 5.9574850E+00 9.4836540E-01 1.6867445E+00
 5.9283663E+00 9.7486805E-01 1.6554408E+00
 5.9023656E+00 9.9999956E-01 1.6234776E+00
 6.9213869E+00 6.0727339E-01 1.7945586E+00
 6.8725379E+00 6.1834569E-01 1.8048685E+00
 6.8222340E+00 6.2924191E-01 1.8151846E+00
 6.7702726E+00 6.4068024E-01 1.8257706E+00
 6.7167246E+00 6.5297790E-01 1.8365317E+00
 6.6617476E+00 6.6636237E-01 1.8471681E+00
 6.6055716E+00 6.8105589E-01 1.8571931E+00
 6.5484535E+00 6.9729186E-01 1.8659458E+00
 6.4906670E+00 7.1528906E-01 1.8726191E+00
 6.4325318E+00 7.3521346E-01 1.8763273E+00
 6.3744676E+00 7.5713452E-01 1.8762158E+00
 6.3170417E+00 7.8098822E-01 1.8715994E+00
 6.2609675E+00 8.0656045E-01 1.8620900E+00
 6.2070324E+00 8.3350243E-01 1.8476664E+00
 6.1559821E+00 8.6137544E-01 1.8286604E+00
 6.1084148E+00 8.8971283E-01 1.8056716E+00
 6.0647220E+00 9.1807879E-01 1.7794506E+00
 6.0250731E+00 9.4610770E-01 1.7507789E+00
 5.9894114E+00 9.7350881E-01 1.7203483E+00
 5.9574218E+00 9.9999956E-01 1.6886092E+00
 5.9283663E+00 1.0251311E+00 1.6554407E+00
 6.9202378E+00 6.4191494E-01 1.8108839E+00
 6.8702897E+00 6.5454594E-01 1.8212912E+00
 6.8189488E+00 6.6704397E-01 1.8316892E+00
 6.7660912E+00 6.8013193E-01 1.8422794E+00
 6.7117499E+00 6.9417066E-01 1.8529538E+00
 6.6560993E+00 7.0938196E-01 1.8633719E+00
 6.5993825E+00 7.2596944E-01 1.8730028E+00
 6.5418714E+00 7.4412624E-01 1.8811401E+00
 6.4838545E+00 7.6401209E-01 1.8869426E+00
 6.4256687E+00 7.8571693E-01 1.8895134E+00
 6.3677551E+00 8.0922501E-01 1.8880204E+00
 6.3106998E+00 8.3438899E-01 1.8818364E+00
 6.2552217E+00 8.6092790E-01 1.8706581E+00
 6.2020911E+00 8.8845503E-01 1.8545592E+00
 6.1520132E+00 9.1652940E-01 1.8339547E+00
 6.1055250E+00 9.4471728E-01 1.8095010E+00
 6.0629418E+00 9.7264206E-01 1.7819657E+00
 6.0243258E+00 9.9999956E-01 1.7520824E+00
 5.9894114E+00 1.0264903E+00 1.7203482E+00
 5.9574851E+00 1.0516337E+00 1.6867444E+00
 6.9192819E+00 6.7840254E-01 1.8261378E+00
 6.8683914E+00 6.9252849E-01 1.8364515E+00
 6.8161651E+00 7.0661767E-01 1.8467525E+00
 6.7625020E+00 7.2139304E-01 1.8571876E+00
 6.7074632E+00 7.3719934E-01 1.8676016E+00
 6.6512378E+00 7.5424591E-01 1.8776159E+00
 6.5940901E+00 7.7270467E-01 1.8866573E+00
 6.5363075E+00 7.9272202E-01 1.8939829E+00
 6.4781932E+00 8.1439370E-01 1.8987307E+00
 6.4201001E+00 8.3773320E-01 1.9000095E+00
 6.3624854E+00 8.6264304E-01 1.8970253E+00
 6.3059454E+00 8.8890178E-01 1.8892202E+00
 6.2511915E+00 9.1617578E-01 1.8763795E+00
 6.1989642E+00 9.4405866E-01 1.8586648E+00
 6.1499154E+00 9.7212772E-01 1.8365592E+00
 6.1045073E+00 9.9999955E-01 1.8107488E+00
 6.0629419E+00 1.0273571E+00 1.7819657E+00
 6.0250732E+00 1.0538914E+00 1.7507788E+00
 5.9902591E+00 1.0791205E+00 1.7172964E+00
 6.9184007E+00 7.1675708E-01 1.8401540E+00
 6.8666706E+00 7.3233718E-01 1.8502054E+00
 6.8136728E+00 7.4802129E-01 1.8602422E+00
 6.7593329E+00 7.6448757E-01 1.8703418E+00
 6.7037332E+00 7.8205471E-01 1.8803042E+00
 6.6470864E+00 8.0090315E-01 1.8897117E+00
 6.5896747E+00 8.2116725E-01 1.8979573E+00
 6.5318003E+00 8.4294014E-01 1.9042745E+00
 6.4737783E+00 8.6625093E-01 1.9077969E+00
 6.4159729E+00 8.9103702E-01 1.9076565E+00
 6.3588495E+00 9.1712549E-01 1.9031130E+00
 6.3030019E+00 9.4423320E-01 1.8936858E+00
 6.2491194E+00 9.7199241E-01 1.8792461E+00
 6.1978968E+00 9.9999955E-01 1.8600293E+00
 6.1499154E+00 1.0278714E+00 1.8365591E+00
 6.1055250E+00 1.0552818E+00 1.8095009E+00
 6.0647221E+00 1.0819203E+00 1.7794504E+00
 6.0269914E+00 1.1073238E+00 1.7466436E+00
 6.9175921E+00 7.5689095E-01 1.8527173E+00
 6.8651273E+00 7.7389665E-01 1.8623466E+00
 6.8114843E+00 7.9115968E-01 1.8719456E+00
 6.7566123E+00 8.0929285E-01 1.8815219E+00
 6.7006146E+00 8.2857522E-01 1.8908325E+00
 6.6437242E+00 8.4915213E-01 1.8994279E+00
 6.5862393E+00 8.7111368E-01 1.9066775E+00
 6.5284730E+00 8.9449636E-01 1.9118058E+00
 6.4707482E+00 9.1926125E-01 1.9139597E+00
 6.4134342E+00 9.4527371E-01 1.9123110E+00
 6.3569944E+00 9.7229564E-01 1.9061849E+00
 6.3020060E+00 9.9999955E-01 1.8951810E+00
 6.2491194E+00 1.0280067E+00 1.8792461E+00
 6.1989643E+00 1.0559404E+00 1.8586647E+00
 6.1520133E+00 1.0834697E+00 1.8339545E+00
 6.1084149E+00 1.1102862E+00 1.8056713E+00
 6.0678098E+00 1.1359575E+00 1.7741329E+00
 6.9168790E+00 7.9864773E-01 1.8636041E+00
 6.8637998E+00 8.1703881E-01 1.8726534E+00
 6.8096544E+00 8.3583728E-01 1.8816370E+00
 6.7544111E+00 8.5557818E-01 1.8904993E+00
 6.6981924E+00 8.7649200E-01 1.8989599E+00
 6.6412481E+00 8.9868320E-01 1.9065460E+00
 6.5838881E+00 9.2219394E-01 1.9126162E+00
 6.5264324E+00 9.4700202E-01 1.9164017E+00
 6.4692067E+00 9.7300330E-01 1.9170789E+00
 6.4125775E+00 9.9999955E-01 1.9138743E+00
 6.3569944E+00 1.0277035E+00 1.9061849E+00
 6.3030019E+00 1.0557659E+00 1.8936857E+00
 6.2511916E+00 1.0838233E+00 1.8763794E+00
 6.2020912E+00 1.1115440E+00 1.8545589E+00
 6.1559823E+00 1.1386236E+00 1.8286601E+00
 6.1126741E+00 1.1646639E+00 1.7990127E+00
 6.9162830E+00 8.4181976E-01 1.8726049E+00
 6.8627269E+00 8.6152781E-01 1.8809166E+00
 6.8082351E+00 8.8178546E-01 1.8891093E+00
 6.7527928E+00 9.0303755E-01 1.8970714E+00
 6.6965378E+00 9.2545953E-01 1.9044940E+00
 6.6397326E+00 9.4911091E-01 1.9108915E+00
 6.5826942E+00 9.7398385E-01 1.9156248E+00
 6.5257449E+00 9.9999957E-01 1.9179469E+00
 6.4692067E+00 1.0269958E+00 1.9170789E+00
 6.4134342E+00 1.0547254E+00 1.9123110E+00
 6.3588495E+00 1.0828736E+00 1.9031129E+00
 6.3059455E+00 1.1110973E+00 1.8892200E+00
 6.2552217E+00 1.1390712E+00 1.8706579E+00
 6.2070325E+00 1.1664966E+00 1.8476661E+00
 6.1613466E+00 1.1930101E+00 1.8205070E+00
 6.9158208E+00 8.8614927E-01 1.8795342E+00
 6.8619387E+00 9.0707503E-01 1.8869575E+00
 6.8072667E+00 9.2868083E-01 1.8941920E+00
 6.7518034E+00 9.5131046E-01 1.9010810E+00
 6.6956986E+00 9.7507924E-01 1.9072970E+00
 6.6392224E+00 9.9999958E-01 1.9123528E+00
 6.5826942E+00 1.0260153E+00 1.9156248E+00
 6.5264324E+00 1.0529971E+00 1.9164017E+00
 6.4707482E+00 1.0807379E+00 1.9139596E+00
 6.4159729E+00 1.1089621E+00 1.9076565E+00
 6.3624854E+00 1.1373560E+00 1.8970251E+00
 6.3106999E+00 1.1656101E+00 1.8818361E+00
 6.2609676E+00 1.1934386E+00 1.8620897E+00
 6.2133724E+00 1.2205134E+00 1.8379052E+00
 6.9155054E+00 9.3133698E-01 1.8842421E+00
 6.8614572E+00 9.5335140E-01 1.8906393E+00
 6.8067758E+00 9.7616078E-01 1.8967645E+00
 6.7514706E+00 9.9999958E-01 1.9024289E+00
 6.6956986E+00 1.0249199E+00 1.9072970E+00
 6.6397326E+00 1.0508883E+00 1.9108915E+00
 6.5838881E+00 1.0778052E+00 1.9126163E+00
 6.5284730E+00 1.1055028E+00 1.9118058E+00
 6.4737784E+00 1.1337482E+00 1.9077969E+00
 6.4201002E+00 1.1622659E+00 1.9000094E+00
 6.3677551E+00 1.1907741E+00 1.8880202E+00
 6.3170418E+00 1.2190108E+00 1.8715991E+00
 6.2680986E+00 1.2466900E+00 1.8506763E+00
 6.9153456E+00 9.7705264E-01 1.8866232E+00
 6.8612952E+00 9.9999958E-01 1.8918763E+00
 6.8067758E+00 1.0238384E+00 1.8967646E+00
 6.7518034E+00 1.0486887E+00 1.9010811E+00
 6.6965378E+00 1.0745396E+00 1.9044940E+00
 6.6412481E+00 1.1013160E+00 1.9065460E+00
 6.5862393E+00 1.1288855E+00 1.9066776E+00
 6.5318004E+00 1.1570590E+00 1.9042745E+00
 6.4781933E+00 1.1856054E+00 1.8987307E+00
 6.4256688E+00 1.2142822E+00 1.8895133E+00
 6.3744676E+00 1.2428645E+00 1.8762155E+00
 6.3247456E+00 1.2711192E+00 1.8585785E+00
 6.9153456E+00 1.0229465E+00 1.8866232E+00
 6.8614572E+00 1.0466478E+00 1.8906393E+00
 6.8072667E+00 1.0713183E+00 1.8941920E+00
 6.7527928E+00 1.0969616E+00 1.8970715E+00
 6.6981924E+00 1.1235072E+00 1.8989599E+00
 6.6437242E+00 1.1508470E+00 1.8994279E+00
 6.5896747E+00 1.1788319E+00 1.8979574E+00
 6.5363075E+00 1.2072771E+00 1.8939828E+00
 6.4838545E+00 1.2359870E+00 1.8869425E+00
 6.4325319E+00 1.2647856E+00 1.8763271E+00
 6.3825168E+00 1.2935042E+00 1.8617279E+00
 6.9155055E+00 1.0686622E+00 1.8842421E+00
 6.8619387E+00 1.0929241E+00 1.8869575E+00
 6.8082351E+00 1.1182137E+00 1.8891094E+00
 6.7544111E+00 1.1444210E+00 1.8904994E+00
 6.7006146E+00 1.1714240E+00 1.8908326E+00
 6.6470864E+00 1.1990960E+00 1.8897118E+00
 6.5940901E+00 1.2272945E+00 1.8866573E+00
 6.5418714E+00 1.2558729E+00 1.8811401E+00
 6.4906671E+00 1.2847101E+00 1.8726190E+00
 6.4407113E+00 1.3137096E+00 1.8605919E+00
 6.9158208E+00 1.1138499E+00 1.8795343E+00
 6.8627269E+00 1.1384714E+00 1.8809167E+00
 6.8096544E+00 1.1641619E+00 1.8816372E+00
 6.7566123E+00 1.1907063E+00 1.8815220E+00
 6.7037332E+00 1.2179445E+00 1.8803043E+00
 6.6512379E+00 1.2457533E+00 1.8776160E+00
 6.5993825E+00 1.2740297E+00 1.8730028E+00
 6.5484535E+00 1.3027073E+00 1.8659458E+00
 6.4987840E+00 1.3317623E+00 1.8559033E+00
 6.9162830E+00 1.1581794E+00 1.8726050E+00
 6.8637998E+00 1.1829604E+00 1.8726535E+00
 6.8114843E+00 1.2088395E+00 1.8719457E+00
 6.7593329E+00 1.2355116E+00 1.8703420E+00
 6.7074632E+00 1.2627999E+00 1.8676018E+00
 6.6560993E+00 1.2906172E+00 1.8633720E+00
 6.6055716E+00 1.3189433E+00 1.8571932E+00
 6.5563363E+00 1.3478203E+00 1.8485267E+00
 6.9168791E+00 1.2013515E+00 1.8636043E+00
 6.8651273E+00 1.2261026E+00 1.8623468E+00
 6.8136728E+00 1.2519779E+00 1.8602424E+00
 6.7625020E+00 1.2786062E+00 1.8571878E+00
 6.7117499E+00 1.3058286E+00 1.8529540E+00
 6.6617476E+00 1.3336368E+00 1.8471682E+00
 6.6130644E+00 1.3621238E+00 1.8393264E+00
 6.9175921E+00 1.2431083E+00 1.8527174E+00
 6.8666707E+00 1.2676620E+00 1.8502056E+00
 6.8161651E+00 1.2933816E+00 1.8467527E+00
 6.7660912E+00 1.3198673E+00 1.8422796E+00
 6.7167246E+00 1.3470213E+00 1.8365319E+00
 6.6687061E+00 1.3749455E+00 1.8290674E+00
 6.9184007E+00 1.2832422E+00 1.8401542E+00
 6.8683914E+00 1.3074708E+00 1.8364517E+00
 6.8189488E+00 1.3329553E+00 1.8316894E+00
 6.7702726E+00 1.3593190E+00 1.8257709E+00
 6.7230159E+00 1.3865511E+00 1.8183610E+00
 6.9192820E+00 1.3215967E+00 1.8261381E+00
 6.8702898E+00 1.3454533E+00 1.8212914E+00
 6.8222341E+00 1.3707574E+00 1.8151848E+00
 6.7757655E+00 1.3971760E+00 1.8076482E+00
 6.9202378E+00 1.3580843E+00 1.8108842E+00
 6.8725379E+00 1.3816536E+00 1.8048687E+00
 6.8267746E+00 1.4070250E+00 1.7972042E+00
 6.9213869E+00 1.3927259E+00 1.7945589E+00
 6.8759279E+00 1.4163575E+00 1.7871185E+00
 6.9231249E+00 1.4256016E+00 1.7772702E+00
 6.9690901E+00 1.4364212E+00 1.7666347E+00
 6.9690691E+00 1.4053074E+00 1.7835563E+00
 6.9690483E+00 1.3721725E+00 1.7998477E+00
 6.9690325E+00 1.3369935E+00 1.8153085E+00
 6.9690216E+00 1.2998671E+00 1.8296953E+00
 6.9690141E+00 1.2609226E+00 1.8427648E+00
 6.9690082E+00 1.2202996E+00 1.8542932E+00
 6.9690031E+00 1.1781824E+00 1.8640678E+00
 6.9689985E+00 1.1348034E+00 1.8718951E+00
 6.9689947E+00 1.0904367E+00 1.8776117E+00
 6.9689921E+00 1.0453910E+00 1.8810936E+00
 6.9689912E+00 9.9999957E-01 1.8822630E+00
 6.9689921E+00 9.5460817E-01 1.8810935E+00
 6.9689946E+00 9.0956250E-01 1.8776116E+00
 6.9689985E+00 8.6519573E-01 1.8718950E+00
 6.9690031E+00 8.2181679E-01 1.8640677E+00
 6.9690082E+00 7.7969960E-01 1.8542931E+00
 6.9690140E+00 7.3907663E-01 1.8427646E+00
 6.9690216E+00 7.0013215E-01 1.8296950E+00
 6.9690325E+00 6.6300581E-01 1.8153082E+00
 6.9690483E+00 6.2782675E-01 1.7998474E+00
 6.9690691E+00 5.9469191E-01 1.7835560E+00
 6.9690901E+00 5.6357810E-01 1.7666344E+00
 7.0103076E+00 5.4630264E-01 1.7526180E+00
 7.0555268E+00 5.5747234E-01 1.7551007E+00
 7.1029137E+00 5.6916783E-01 1.7576498E+00
 7.1521308E+00 5.8140945E-01 1.7602128E+00
 7.2029894E+00 5.9424943E-01 1.7626941E+00
 7.2552921E+00 6.0776721E-01 1.7649646E+00
 7.3088560E+00 6.2206327E-01 1.7668610E+00
 7.3634623E+00 6.3724202E-01 1.7681858E+00
 7.4188508E+00 6.5340488E-01 1.7687143E+00
 7.4747194E+00 6.7064074E-01 1.7682027E+00
 7.5307298E+00 6.8901786E-01 1.7664017E+00
 7.5865147E+00 7.0857561E-01 1.7630705E+00
 7.6416870E+00 7.2931743E-01 1.7579931E+00
 7.6958510E+00 7.5120640E-01 1.7509929E+00
 7.7486144E+00 7.7416343E-01 1.7419463E+00
 7.7996027E+00 7.9806966E-01 1.7307912E+00
 7.8484737E+00 8.2277158E-01 1.7175315E+00
 7.8949307E+00 8.4808973E-01 1.7022344E+00
 7.9387315E+00 8.7382842E-01 1.6850259E+00
 7.9796868E+00 8.9978456E-01 1.6660829E+00
 8.0176362E+00 9.2573842E-01 1.6456409E+00
 8.0524511E+00 9.5146070E-01 1.6239809E+00
 8.0839777E+00 9.7664744E-01 1.6014738E+00
 7.0149172E+00 1.4218503E+00 1.7704906E+00
 7.0616982E+00 1.4089568E+00 1.7732477E+00
 7.1101284E+00 1.3960148E+00 1.7757955E+00
 7.1601001E+00 1.3826321E+00 1.7782519E+00
 7.2115269E+00 1.3686157E+00 1.7805723E+00
 7.2642773E+00 1.3538654E+00 1.7826183E+00
 7.3181672E+00 1.3382914E+00 1.7842082E+00
 7.3729680E+00 1.3218062E+00 1.7851282E+00
 7.4284029E+00 1.3043298E+00 1.7851406E+00
 7.4841546E+00 1.2857983E+00 1.7839951E+00
 7.5398726E+00 1.2661722E+00 1.7814417E+00
 7.5951826E+00 1.2454437E+00 1.7772463E+00
 7.6496963E+00 1.2236422E+00 1.7712068E+00
 7.7030235E+00 1.2008365E+00 1.7631670E+00
 7.7547850E+00 1.1771334E+00 1.7530290E+00
 7.8046263E+00 1.1526721E+00 1.7407601E+00
 7.8522301E+00 1.1276165E+00 1.7263942E+00
 7.8973313E+00 1.1021417E+00 1.7100267E+00
 7.9397249E+00 1.0764247E+00 1.6918043E+00
 7.9792872E+00 1.0506473E+00 1.6718993E+00
 8.0160544E+00 1.0250336E+00 1.6504368E+00
 8.0503816E+00 9.9999958E-01 1.6273477E+00
 7.0165899E+00 1.3891278E+00 1.7873730E+00
 7.0649749E+00 1.3746062E+00 1.7901827E+00
 7.1144888E+00 1.3603825E+00 1.7926147E+00
 7.1653405E+00 1.3457558E+00 1.7948886E+00
 7.2174995E+00 1.3304784E+00 1.7969584E+00
 7.2708671E+00 1.3144286E+00 1.7986778E+00
 7.3252613E+00 1.2975246E+00 1.7998485E+00
 7.3804377E+00 1.2796940E+00 1.8002416E+00
 7.4361020E+00 1.2608773E+00 1.7996084E+00
 7.4919193E+00 1.2410358E+00 1.7976920E+00
 7.5475252E+00 1.2201590E+00 1.7942432E+00
 7.6025359E+00 1.1982706E+00 1.7890360E+00
 7.6565598E+00 1.1754317E+00 1.7818840E+00
 7.7092107E+00 1.1517404E+00 1.7726538E+00
 7.7601222E+00 1.1273275E+00 1.7612753E+00
 7.8089608E+00 1.1023461E+00 1.7477461E+00
 7.8554397E+00 1.0769595E+00 1.7321289E+00
 7.8993425E+00 1.0513257E+00 1.7145358E+00
 7.9405684E+00 1.0256010E+00 1.6950896E+00
 7.9792483E+00 9.9999958E-01 1.6738261E+00
 8.0160544E+00 9.7496559E-01 1.6504368E+00
 7.0176861E+00 1.3547193E+00 1.8033777E+00
 7.0671331E+00 1.3389142E+00 1.8059629E+00
 7.1176296E+00 1.3234127E+00 1.8081562E+00
 7.1693167E+00 1.3075211E+00 1.8101305E+00
 7.2222128E+00 1.2909489E+00 1.8118322E+00
 7.2762107E+00 1.2735800E+00 1.8130970E+00
 7.3311182E+00 1.2553408E+00 1.8137124E+00
 7.3866727E+00 1.2361764E+00 1.8134366E+00
 7.4425605E+00 1.2160495E+00 1.8120119E+00
 7.4984301E+00 1.1949480E+00 1.8091789E+00
 7.5539038E+00 1.1728912E+00 1.8046925E+00
 7.6085904E+00 1.1499334E+00 1.7983393E+00
 7.6620976E+00 1.1261652E+00 1.7899530E+00
 7.7140466E+00 1.1017097E+00 1.7794265E+00
 7.7640890E+00 1.0767132E+00 1.7667191E+00
 7.8119209E+00 1.0513312E+00 1.7518568E+00
 7.8573070E+00 1.0257120E+00 1.7349189E+00
 7.9001357E+00 9.9999958E-01 1.7159975E+00
 7.9405684E+00 9.7439814E-01 1.6950896E+00
 7.9792872E+00 9.4935184E-01 1.6718993E+00
 7.0186024E+00 1.3185111E+00 1.8183420E+00
 7.0689601E+00 1.3015308E+00 1.8205418E+00
 7.1202952E+00 1.2848078E+00 1.8223511E+00
 7.1727350E+00 1.2676550E+00 1.8238956E+00
 7.2262800E+00 1.2498005E+00 1.8250914E+00
 7.2808159E+00 1.2311351E+00 1.8257582E+00
 7.3361315E+00 1.2116020E+00 1.8256701E+00
 7.3919461E+00 1.1911655E+00 1.8245756E+00
 7.4479282E+00 1.1698133E+00 1.8222128E+00
 7.5037121E+00 1.1475610E+00 1.8183245E+00
 7.5589116E+00 1.1244575E+00 1.8126758E+00
 7.6131326E+00 1.1005860E+00 1.8050713E+00
 7.6659884E+00 1.0760619E+00 1.7953692E+00
 7.7171150E+00 1.0510246E+00 1.7834912E+00
 7.7661927E+00 1.0256233E+00 1.7694243E+00
 7.8129676E+00 9.9999958E-01 1.7532122E+00
 7.8573070E+00 9.7428716E-01 1.7349189E+00
 7.8993425E+00 9.4867349E-01 1.7145358E+00
 7.9397249E+00 9.2357443E-01 1.6918042E+00
 7.0194537E+00 1.2804736E+00 1.8320853E+00
 7.0706223E+00 1.2623985E+00 1.8337565E+00
 7.1226870E+00 1.2444905E+00 1.8350463E+00
 7.1757576E+00 1.2261121E+00 1.8360208E+00
 7.2298228E+00 1.2070163E+00 1.8365669E+00
 7.2847518E+00 1.1871135E+00 1.8364877E+00
 7.3403167E+00 1.1663652E+00 1.8355473E+00
 7.3962195E+00 1.1447590E+00 1.8334895E+00
 7.4521146E+00 1.1223083E+00 1.8300532E+00
 7.5076271E+00 1.0990572E+00 1.8249897E+00
 7.5623677E+00 1.0750824E+00 1.8180802E+00
 7.6159469E+00 1.0504916E+00 1.8091523E+00
 7.6679914E+00 1.0254164E+00 1.7980917E+00
 7.7181639E+00 9.9999958E-01 1.7848473E+00
 7.7661927E+00 9.7437587E-01 1.7694243E+00
 7.8119209E+00 9.4866798E-01 1.7518567E+00
 7.8554397E+00 9.2303970E-01 1.7321288E+00
 7.8973313E+00 8.9785747E-01 1.7100266E+00
 7.0202387E+00 1.2406928E+00 1.8443958E+00
 7.0721159E+00 1.2215880E+00 1.8454087E+00
 7.1247888E+00 1.2025469E+00 1.8460441E+00
 7.1783531E+00 1.1829994E+00 1.8463084E+00
 7.2327854E+00 1.1627342E+00 1.8460607E+00
 7.2879401E+00 1.1416848E+00 1.8450912E+00
 7.3435738E+00 1.1198347E+00 1.8431584E+00
 7.3993749E+00 1.0971956E+00 1.8400063E+00
 7.4549883E+00 1.0738076E+00 1.8353809E+00
 7.5100355E+00 1.0497415E+00 1.8290480E+00
 7.5641314E+00 1.0250975E+00 1.8208100E+00
 7.6168996E+00 9.9999958E-01 1.8105204E+00
 7.6679914E+00 9.7458272E-01 1.7980916E+00
 7.7171150E+00 9.4897452E-01 1.7834912E+00
 7.7640889E+00 9.2328592E-01 1.7667190E+00
 7.8089608E+00 8.9765305E-01 1.7477460E+00
 7.8522300E+00 8.7238271E-01 1.7263941E+00
 7.0209320E+00 1.1993231E+00 1.8550579E+00
 7.0734005E+00 1.1792613E+00 1.8552910E+00
 7.1265456E+00 1.1591599E+00 1.8551404E+00
 7.1804523E+00 1.1385275E+00 1.8545579E+00
 7.2350860E+00 1.1171947E+00 1.8533792E+00
 7.2902883E+00 1.0951213E+00 1.8513863E+00
 7.3458033E+00 1.0723144E+00 1.8483369E+00
 7.4013102E+00 1.0488104E+00 1.8439808E+00
 7.4564502E+00 1.0246745E+00 1.8380772E+00
 7.5108482E+00 9.9999958E-01 1.8304113E+00
 7.5641314E+00 9.7490164E-01 1.8208100E+00
 7.6159469E+00 9.4950761E-01 1.8091523E+00
 7.6659883E+00 9.2393722E-01 1.7953692E+00
 7.7140465E+00 8.9828948E-01 1.7794264E+00
 7.7601222E+00 8.7267171E-01 1.7612752E+00
 7.8046262E+00 8.4732704E-01 1.7407600E+00
 7.0215106E+00 1.1565683E+00 1.8638693E+00
 7.0744378E+00 1.1356444E+00 1.8632086E+00
 7.1279070E+00 1.1145814E+00 1.8621476E+00
 7.1819949E+00 1.0929769E+00 1.8605914E+00
 7.2366573E+00 1.0707087E+00 1.8583581E+00
 7.2917255E+00 1.0477643E+00 1.8552264E+00
 7.3469354E+00 1.0241748E+00 1.8509589E+00
 7.4019623E+00 9.9999958E-01 1.8453168E+00
 7.4564502E+00 9.7532471E-01 1.8380772E+00
 7.5100355E+00 9.5025766E-01 1.8290480E+00
 7.5623677E+00 9.2491677E-01 1.8180802E+00
 7.6131326E+00 8.9941313E-01 1.8050712E+00
 7.6620976E+00 8.7383395E-01 1.7899529E+00
 7.7092107E+00 8.4825877E-01 1.7726537E+00
 7.7547850E+00 8.2286581E-01 1.7530289E+00
 7.0219583E+00 1.1126806E+00 1.8706509E+00
 7.0751987E+00 1.0910137E+00 1.8689940E+00
 7.1288353E+00 1.0691145E+00 1.8669112E+00
 7.1829376E+00 1.0466793E+00 1.8642702E+00
 7.2374541E+00 1.0236356E+00 1.8608785E+00
 7.2922093E+00 9.9999958E-01 1.8565173E+00
 7.3469354E+00 9.7582440E-01 1.8509589E+00
 7.4013102E+00 9.5118874E-01 1.8439808E+00
 7.4549883E+00 9.2619154E-01 1.8353809E+00
 7.5076271E+00 9.0094197E-01 1.8249896E+00
 7.5589116E+00 8.7554167E-01 1.8126757E+00
 7.6085904E+00 8.5006578E-01 1.7983392E+00
 7.6565598E+00 8.2456751E-01 1.7818839E+00
 7.7030235E+00 7.9916267E-01 1.7631669E+00
 7.0222631E+00 1.0679530E+00 1.8752575E+00
 7.0756632E+00 1.0456847E+00 1.8725189E+00
 7.1293056E+00 1.0230996E+00 1.8693214E+00
 7.1832547E+00 9.9999958E-01 1.8655065E+00
 7.2374541E+00 9.7636358E-01 1.8608785E+00
 7.2917255E+00 9.5223484E-01 1.8552264E+00
 7.3458033E+00 9.2768476E-01 1.8483368E+00
 7.3993749E+00 9.0280361E-01 1.8400062E+00
 7.4521146E+00 8.7769089E-01 1.8300531E+00
 7.5037121E+00 8.5243820E-01 1.8183244E+00
 7.5539038E+00 8.2710801E-01 1.8046924E+00
 7.6025358E+00 8.0172859E-01 1.7890359E+00
 7.6496962E+00 7.7635695E-01 1.7712067E+00
 7.0224173E+00 1.0227088E+00 1.8775871E+00
 7.0758193E+00 9.9999957E-01 1.8737030E+00
 7.1293056E+00 9.7689952E-01 1.8693214E+00
 7.1829376E+00 9.5331987E-01 1.8642702E+00
 7.2366572E+00 9.2929047E-01 1.8583580E+00
 7.2902882E+00 9.0487783E-01 1.8513863E+00
 7.3435738E+00 8.8016451E-01 1.8431584E+00
 7.3962194E+00 8.5524020E-01 1.8334894E+00
 7.4479282E+00 8.3018593E-01 1.8222127E+00
 7.4984300E+00 8.0505117E-01 1.8091787E+00
 7.5475252E+00 7.7984019E-01 1.7942431E+00
 7.5951825E+00 7.5455550E-01 1.7772462E+00
 7.0224173E+00 9.7729030E-01 1.8775871E+00
 7.0756632E+00 9.5431449E-01 1.8725189E+00
 7.1288353E+00 9.3088464E-01 1.8669111E+00
 7.1819948E+00 9.0702222E-01 1.8605914E+00
 7.2350860E+00 8.8280446E-01 1.8533791E+00
 7.2879401E+00 8.5831438E-01 1.8450911E+00
 7.3403167E+00 8.3363397E-01 1.8355472E+00
 7.3919461E+00 8.0883368E-01 1.8245755E+00
 7.4425605E+00 7.8394973E-01 1.8120118E+00
 7.4919193E+00 7.5896342E-01 1.7976919E+00
 7.5398726E+00 7.3382704E-01 1.7814415E+00
 7.0222631E+00 9.3204611E-01 1.8752574E+00
 7.0751987E+00 9.0898543E-01 1.8689939E+00
 7.1279070E+00 8.8541778E-01 1.8621476E+00
 7.1804523E+00 8.6147170E-01 1.8545578E+00
 7.2327854E+00 8.3726494E-01 1.8460605E+00
 7.2847518E+00 8.1288570E-01 1.8364876E+00
 7.3361315E+00 7.8839723E-01 1.8256700E+00
 7.3866726E+00 7.6382283E-01 1.8134365E+00
 7.4361020E+00 7.3912192E-01 1.7996082E+00
 7.4841545E+00 7.1420090E-01 1.7839949E+00
 7.0219583E+00 8.8731856E-01 1.8706508E+00
 7.0744377E+00 8.6435478E-01 1.8632085E+00
 7.1265456E+00 8.4083923E-01 1.8551403E+00
 7.1783531E+00 8.1699977E-01 1.8463083E+00
 7.2298228E+00 7.9298293E-01 1.8365668E+00
 7.2808159E+00 7.6886406E-01 1.8257581E+00
 7.3311181E+00 7.4465839E-01 1.8137123E+00
 7.3804377E+00 7.2030524E-01 1.8002415E+00
 7.4284029E+00 6.9566939E-01 1.7851404E+00
 7.0215106E+00 8.4343092E-01 1.8638692E+00
 7.0734005E+00 8.2073787E-01 1.8552909E+00
 7.1247887E+00 7.9745233E-01 1.8460440E+00
 7.1757576E+00 7.7388707E-01 1.8360207E+00
 7.2262800E+00 7.5019873E-01 1.8250912E+00
 7.2762107E+00 7.2641920E-01 1.8130968E+00
 7.3252612E+00 7.0247459E-01 1.7998483E+00
 7.3729680E+00 6.7819304E-01 1.7851280E+00
 7.0209319E+00 8.0067612E-01 1.8550577E+00
 7.0721159E+00 7.7841117E-01 1.8454085E+00
 7.1226870E+00 7.5550869E-01 1.8350461E+00
 7.1727350E+00 7.3234426E-01 1.8238954E+00
 7.2222127E+00 7.0905030E-01 1.8118320E+00
 7.2708671E+00 6.8557061E-01 1.7986776E+00
 7.3181672E+00 6.6170785E-01 1.7842081E+00
 7.0202387E+00 7.5930645E-01 1.8443956E+00
 7.0706223E+00 7.3760073E-01 1.8337563E+00
 7.1202951E+00 7.1519145E-01 1.8223509E+00
 7.1693167E+00 6.9247817E-01 1.8101303E+00
 7.2174995E+00 6.6952087E-01 1.7969582E+00
 7.2642772E+00 6.4613385E-01 1.7826181E+00
 7.0194537E+00 7.1952565E-01 1.8320851E+00
 7.0689600E+00 6.9846841E-01 1.8205416E+00
 7.1176295E+00 6.7658658E-01 1.8081560E+00
 7.1653405E+00 6.5424341E-01 1.7948884E+00
 7.2115269E+00 6.3138356E-01 1.7805721E+00
 7.0186023E+00 6.8148815E-01 1.8183418E+00
 7.0671331E+00 6.6108504E-01 1.8059627E+00
 7.1144887E+00 6.3961682E-01 1.7926145E+00
 7.1601001E+00 6.1736715E-01 1.7782517E+00
 7.0176861E+00 6.4528000E-01 1.8033774E+00
 7.0649749E+00 6.2539304E-01 1.7901825E+00
 7.1101284E+00 6.0398454E-01 1.7757952E+00
 7.0165898E+00 6.1087150E-01 1.7873727E+00
 7.0616982E+00 5.9104253E-01 1.7732474E+00
 7.0149172E+00 5.7814902E-01 1.7704903E+00
 6.9435767E+00 1.4866728E+00 1.7383890E+00
 6.9153349E+00 1.5117593E+00 1.7242917E+00
 6.8857752E+00 1.5376913E+00 1.7086304E+00
 6.8550255E+00 1.5643132E+00 1.6913230E+00
 6.8232246E+00 1.5914779E+00 1.6722696E+00
 6.7905489E+00 1.6190184E+00 1.6513577E+00
 6.7571790E+00 1.6467527E+00 1.6284625E+00
 6.7233262E+00 1.6744539E+00 1.6034704E+00
 6.6892318E+00 1.7018492E+00 1.5762893E+00
 6.6551555E+00 1.7286229E+00 1.5468623E+00
 6.6213652E+00 1.7544278E+00 1.5151810E+00
 6.5881241E+00 1.7789015E+00 1.4812961E+00
 6.5556832E+00 1.8016872E+00 1.4453271E+00
 6.5242742E+00 1.8224548E+00 1.4074656E+00
 6.4941057E+00 1.8409237E+00 1.3679727E+00
 6.4653594E+00 1.8568808E+00 1.3271670E+00
 6.4381875E+00 1.8701927E+00 1.2854091E+00
 6.4127090E+00 1.8808102E+00 1.2430811E+00
 6.3890099E+00 1.8887643E+00 1.2005665E+00
 6.3671476E+00 1.8941565E+00 1.1582362E+00
 6.3471733E+00 1.8971468E+00 1.1164638E+00
 6.3291226E+00 1.8979391E+00 1.0756047E+00
 6.3130775E+00 1.8967854E+00 1.0362230E+00
 5.8739270E+00 1.0662056E+00 1.5802646E+00
 5.8700425E+00 1.1091709E+00 1.5679289E+00
 5.8674875E+00 1.1530895E+00 1.5537592E+00
 5.8667156E+00 1.1981825E+00 1.5380636E+00
 5.8679998E+00 1.2444070E+00 1.5208900E+00
 5.8715497E+00 1.2915915E+00 1.5022124E+00
 5.8775534E+00 1.3394947E+00 1.4820012E+00
 5.8861848E+00 1.3878217E+00 1.4602520E+00
 5.8975957E+00 1.4362269E+00 1.4369907E+00
 5.9119053E+00 1.4843197E+00 1.4122768E+00
 5.9291901E+00 1.5316720E+00 1.3862037E+00
 5.9494738E+00 1.5778284E+00 1.3588996E+00
 5.9727181E+00 1.6223179E+00 1.3305274E+00
 5.9988171E+00 1.6646701E+00 1.3012829E+00
 6.0275918E+00 1.7044325E+00 1.2713925E+00
 6.0587915E+00 1.7411921E+00 1.2411073E+00
 6.0920992E+00 1.7745968E+00 1.2106972E+00
 6.1271466E+00 1.8043785E+00 1.1804403E+00
 6.1635273E+00 1.8303684E+00 1.1506131E+00
 6.2008112E+00 1.8525060E+00 1.1214600E+00
 6.2385576E+00 1.8708472E+00 1.0930931E+00
 6.2762296E+00 1.8855390E+00 1.0652836E+00
 5.8980894E+00 1.0940311E+00 1.6107093E+00
 5.8954893E+00 1.1392772E+00 1.5984822E+00
 5.8942033E+00 1.1849317E+00 1.5842057E+00
 5.8948109E+00 1.2315056E+00 1.5682848E+00
 5.8976243E+00 1.2790429E+00 1.5507809E+00
 5.9028572E+00 1.3273802E+00 1.5316548E+00
 5.9106902E+00 1.3762486E+00 1.5108676E+00
 5.9212834E+00 1.4253078E+00 1.4884134E+00
 5.9347675E+00 1.4741625E+00 1.4643245E+00
 5.9512318E+00 1.5223719E+00 1.4386724E+00
 5.9707121E+00 1.5694620E+00 1.4115682E+00
 5.9931815E+00 1.6149386E+00 1.3831633E+00
 6.0185424E+00 1.6583050E+00 1.3536479E+00
 6.0466210E+00 1.6990811E+00 1.3232494E+00
 6.0771692E+00 1.7368275E+00 1.2922269E+00
 6.1098707E+00 1.7711693E+00 1.2608647E+00
 6.1443589E+00 1.8018226E+00 1.2294595E+00
 6.1802391E+00 1.8286139E+00 1.1983030E+00
 6.2171106E+00 1.8514930E+00 1.1676273E+00
 6.2545643E+00 1.8705369E+00 1.1374698E+00
 6.2921208E+00 1.8859365E+00 1.1073133E+00
 5.9256963E+00 1.1223012E+00 1.6412506E+00
 5.9244072E+00 1.1692551E+00 1.6289235E+00
 5.9245146E+00 1.2164779E+00 1.6144418E+00
 5.9266461E+00 1.2644565E+00 1.5981895E+00
 5.9311362E+00 1.3132392E+00 1.5802182E+00
 5.9381963E+00 1.3626345E+00 1.5604783E+00
 5.9479957E+00 1.4123294E+00 1.5389281E+00
 5.9606741E+00 1.4619322E+00 1.5155662E+00
 5.9763323E+00 1.5109936E+00 1.4904365E+00
 5.9950187E+00 1.5590220E+00 1.4636291E+00
 6.0167176E+00 1.6055003E+00 1.4352803E+00
 6.0413400E+00 1.6499041E+00 1.4055727E+00
 6.0687181E+00 1.6917245E+00 1.3747328E+00
 6.0986062E+00 1.7304930E+00 1.3430268E+00
 6.1306880E+00 1.7658103E+00 1.3107532E+00
 6.1645958E+00 1.7973726E+00 1.2782294E+00
 6.1999383E+00 1.8249974E+00 1.2457679E+00
 6.2363218E+00 1.8486348E+00 1.2136213E+00
 6.2733479E+00 1.8683780E+00 1.1818208E+00
 6.3105237E+00 1.8844487E+00 1.1498696E+00
 5.9570132E+00 1.1513143E+00 1.6713938E+00
 5.9571321E+00 1.1997022E+00 1.6587878E+00
 5.9587793E+00 1.2482896E+00 1.6439593E+00
 5.9626015E+00 1.2974982E+00 1.6272362E+00
 5.9689300E+00 1.3473248E+00 1.6086418E+00
 5.9779635E+00 1.3975313E+00 1.5881168E+00
 5.9898494E+00 1.4477517E+00 1.5656217E+00
 6.0046966E+00 1.4975392E+00 1.5411654E+00
 6.0225635E+00 1.5463919E+00 1.5148106E+00
 6.0434454E+00 1.5937738E+00 1.4866740E+00
 6.0672625E+00 1.6391360E+00 1.4569260E+00
 6.0938548E+00 1.6819428E+00 1.4257890E+00
 6.1229807E+00 1.7216987E+00 1.3935342E+00
 6.1543271E+00 1.7579799E+00 1.3604719E+00
 6.1875275E+00 1.7904627E+00 1.3269404E+00
 6.2221945E+00 1.8189522E+00 1.2932773E+00
 6.2579416E+00 1.8433954E+00 1.2597654E+00
 6.2943780E+00 1.8638931E+00 1.2264813E+00
 6.3310084E+00 1.8806960E+00 1.1930100E+00
 5.9923072E+00 1.1809691E+00 1.7006292E+00
 5.9939594E+00 1.2305710E+00 1.6875674E+00
 5.9973068E+00 1.2802992E+00 1.6722329E+00