# TIME = 14.600000
variables = x, y, z
zone N=5762 E=11520 F=FEPOINT ET=TRIANGLE
 2.7921696E+00 1.4628628E+00 1.7487568E+00
 2.7921696E+00 1.4628622E+00 2.5124289E-01
 2.7921696E+00 5.3713726E-01 1.7487568E+00
 2.7921696E+00 5.3713780E-01 2.5124284E-01
 1.6872496E+00 9.9999998E-01 1.5717924E+00
 3.9417426E+00 1.0000000E+00 1.5782219E+00
 1.6872480E+00 1.0000000E+00 4.2820516E-01
 3.9417421E+00 1.0000000E+00 4.2177737E-01
 2.1180835E+00 1.8902302E+00 9.9999932E-01
 2.1180834E+00 1.0976984E-01 9.9999941E-01
 3.4526116E+00 1.8074869E+00 9.9999934E-01
 3.4526115E+00 1.9251319E-01 9.9999939E-01
 2.7468303E+00 1.4561531E+00 1.7574464E+00
 2.6966786E+00 1.4486609E+00 1.7671221E+00
 2.6441682E+00 1.4407715E+00 1.7773135E+00
 2.5899760E+00 1.4323888E+00 1.7878767E+00
 2.5346505E+00 1.4233430E+00 1.7985865E+00
 2.4787383E+00 1.4133956E+00 1.8091019E+00
 2.4226839E+00 1.4022737E+00 1.8189688E+00
 2.3668157E+00 1.3896997E+00 1.8276412E+00
 2.3113413E+00 1.3754184E+00 1.8345213E+00
 2.2563933E+00 1.3592228E+00 1.8390040E+00
 2.2020972E+00 1.3409775E+00 1.8405242E+00
 2.1486331E+00 1.3206372E+00 1.8386048E+00
 2.0962697E+00 1.2982586E+00 1.8329021E+00
 2.0453622E+00 1.2740011E+00 1.8232384E+00
 1.9963202E+00 1.2481153E+00 1.8096174E+00
 1.9495608E+00 1.2209223E+00 1.7922163E+00
 1.9054626E+00 1.1927857E+00 1.7713596E+00
 1.8643285E+00 1.1640846E+00 1.7474792E+00
 1.8263663E+00 1.1351882E+00 1.7210714E+00
 1.7916861E+00 1.1064359E+00 1.6926594E+00
 1.7603293E+00 1.0781421E+00 1.6627864E+00
 1.7322949E+00 1.0505934E+00 1.6320135E+00
 1.7076301E+00 1.0241314E+00 1.6010362E+00
 2.7413894E+00 5.7679729E-01 1.7768737E+00
 2.6894598E+00 5.8635616E-01 1.7872971E+00
 2.6358164E+00 5.9589376E-01 1.7978733E+00
 2.5809209E+00 6.0579654E-01 1.8086116E+00
 2.5252051E+00 6.1639178E-01 1.8193505E+00
 2.4691423E+00 6.2796720E-01 1.8297491E+00
 2.4131420E+00 6.4080126E-01 1.8393351E+00
 2.3574913E+00 6.5514335E-01 1.8475443E+00
 2.3023656E+00 6.7119861E-01 1.8537691E+00
 2.2478788E+00 6.8911198E-01 1.8574075E+00
 2.1941521E+00 7.0895302E-01 1.8579121E+00
 2.1413688E+00 7.3070436E-01 1.8548379E+00
 2.0898011E+00 7.5425668E-01 1.8478841E+00
 2.0398012E+00 7.7941276E-01 1.8369226E+00
 1.9917645E+00 8.0590138E-01 1.8220053E+00
 1.9460829E+00 8.3339854E-01 1.8033510E+00
 1.9030989E+00 8.6155160E-01 1.7813117E+00
 1.8630704E+00 8.9000113E-01 1.7563269E+00
 1.8261501E+00 9.1839798E-01 1.7288732E+00
 1.7923780E+00 9.4641562E-01 1.6994145E+00
 1.7616720E+00 9.7374782E-01 1.6683417E+00
 1.7337961E+00 9.9999998E-01 1.6358853E+00
 2.7389887E+00 6.1087419E-01 1.7947213E+00
 2.6850166E+00 6.2245530E-01 1.8056839E+00
 2.6300397E+00 6.3369163E-01 1.8165180E+00
 2.5742073E+00 6.4522452E-01 1.8273605E+00
 2.5179160E+00 6.5745787E-01 1.8380484E+00
 2.4615688E+00 6.7072869E-01 1.8482380E+00
 2.4055149E+00 6.8531027E-01 1.8574395E+00
 2.3499908E+00 7.0141967E-01 1.8650753E+00
 2.2951333E+00 7.1921147E-01 1.8705338E+00
 2.2410352E+00 7.3877217E-01 1.8732219E+00
 2.1878094E+00 7.6011266E-01 1.8726148E+00
 2.1356386E+00 7.8316313E-01 1.8683022E+00
 2.0847928E+00 8.0777317E-01 1.8600266E+00
 2.0356151E+00 8.3371978E-01 1.8477058E+00
 1.9884790E+00 8.6072190E-01 1.8314325E+00
 1.9437387E+00 8.8846005E-01 1.8114505E+00
 1.9016811E+00 9.1659587E-01 1.7881129E+00
 1.8624881E+00 9.4478837E-01 1.7618220E+00
 1.8262055E+00 9.7270244E-01 1.7329584E+00
 1.7927220E+00 9.9999997E-01 1.7018013E+00
 1.7616720E+00 1.0262521E+00 1.6683417E+00
 2.7372577E+00 6.4650496E-01 1.8113728E+00
 2.6819199E+00 6.5977163E-01 1.8224511E+00
 2.6257688E+00 6.7269736E-01 1.8333601E+00
 2.5690869E+00 6.8588967E-01 1.8441558E+00
 2.5122306E+00 6.9981179E-01 1.8546657E+00
 2.4555828E+00 7.1480914E-01 1.8645188E+00
 2.3994450E+00 7.3114138E-01 1.8732069E+00
 2.3440100E+00 7.4898753E-01 1.8801408E+00
 2.2893820E+00 7.6845338E-01 1.8847099E+00
 2.2356341E+00 7.8957256E-01 1.8863352E+00
 2.1828708E+00 8.1230594E-01 1.8845182E+00
 2.1312704E+00 8.3654123E-01 1.8788849E+00
 2.0810950E+00 8.6209737E-01 1.8692193E+00
 2.0326690E+00 8.8873429E-01 1.8554779E+00
 1.9863316E+00 9.1616666E-01 1.8377799E+00
 1.9423802E+00 9.4407894E-01 1.8163714E+00
 1.9010200E+00 9.7213825E-01 1.7915693E+00
 1.8623261E+00 9.9999997E-01 1.7636903E+00
 1.8262055E+00 1.0272975E+00 1.7329584E+00
 1.7923780E+00 1.0535843E+00 1.6994144E+00
 2.7359058E+00 6.8364980E-01 1.8267011E+00
 2.6795261E+00 6.9844311E-01 1.8376456E+00
 2.6224646E+00 7.1296862E-01 1.8484109E+00
 2.5650709E+00 7.2780907E-01 1.8589902E+00
 2.5077387E+00 7.4341715E-01 1.8691631E+00
 2.4508361E+00 7.6012979E-01 1.8785280E+00
 2.3946374E+00 7.7817646E-01 1.8865545E+00
 2.3393018E+00 7.9769578E-01 1.8926457E+00
 2.2849073E+00 8.1874685E-01 1.8961966E+00
 2.2315111E+00 8.4131710E-01 1.8966466E+00
 2.1792083E+00 8.6532554E-01 1.8935269E+00
 2.1281682E+00 8.9062647E-01 1.8864993E+00
 2.0786366E+00 9.1701585E-01 1.8753844E+00
 2.0309065E+00 9.4424090E-01 1.8601662E+00
 1.9852653E+00 9.7200981E-01 1.8409715E+00
 1.9419344E+00 9.9999997E-01 1.8180221E+00
 1.9010200E+00 1.0278617E+00 1.7915693E+00
 1.8624881E+00 1.0552116E+00 1.7618220E+00
 1.8261501E+00 1.0816020E+00 1.7288732E+00
 2.7348016E+00 7.2228905E-01 1.8405810E+00
 2.6775966E+00 7.3847320E-01 1.8511884E+00
 2.6198148E+00 7.5451599E-01 1.8616196E+00
 2.5618625E+00 7.7095187E-01 1.8718032E+00
 2.5041648E+00 7.8820533E-01 1.8814695E+00
 2.4470903E+00 8.0658094E-01 1.8901818E+00
 2.3908926E+00 8.2627049E-01 1.8973905E+00
 2.3357063E+00 8.4736967E-01 1.9024953E+00
 2.2815881E+00 8.6989475E-01 1.9049022E+00
 2.2285807E+00 8.9379300E-01 1.9040732E+00
 2.1767678E+00 9.1894938E-01 1.8995701E+00
 2.1263029E+00 9.4519187E-01 1.8910884E+00
 2.0774040E+00 9.7229785E-01 1.8784767E+00
 2.0303183E+00 9.9999997E-01 1.8617328E+00
 1.9852653E+00 1.0279901E+00 1.8409715E+00
 1.9423802E+00 1.0559210E+00 1.8163714E+00
 1.9016811E+00 1.0834041E+00 1.7881129E+00
 1.8630704E+00 1.1099988E+00 1.7563268E+00
 2.7338780E+00 7.6233654E-01 1.8528626E+00
 2.6760065E+00 7.7980091E-01 1.8629633E+00
 2.6176609E+00 7.9727186E-01 1.8728867E+00
 2.5592938E+00 8.1522925E-01 1.8825007E+00
 2.5013551E+00 8.3405468E-01 1.8914891E+00
 2.4442136E+00 8.5400954E-01 1.8993835E+00
 2.3881068E+00 8.7524174E-01 1.9056207E+00
 2.3331480E+00 8.9780484E-01 1.9096026E+00
 2.2793761E+00 9.2167613E-01 1.9107511E+00
 2.2268187E+00 9.4676930E-01 1.9085537E+00
 2.1755434E+00 9.7294180E-01 1.9026024E+00
 2.1256792E+00 9.9999997E-01 1.8926211E+00
 2.0774041E+00 1.0277021E+00 1.8784767E+00
 2.0309065E+00 1.0557590E+00 1.8601662E+00
 1.9863317E+00 1.0838333E+00 1.8377799E+00
 1.9437387E+00 1.1115399E+00 1.8114505E+00
 1.9030989E+00 1.1384483E+00 1.7813117E+00
 2.7331052E+00 8.0365683E-01 1.8633897E+00
 2.6746989E+00 8.2230263E-01 1.8728374E+00
 2.6159328E+00 8.4110507E-01 1.8820933E+00
 2.5572927E+00 8.6049142E-01 1.8909728E+00
 2.4992454E+00 8.8079170E-01 1.8991187E+00
 2.4421560E+00 9.0221774E-01 1.9060382E+00
 2.3862456E+00 9.2487184E-01 1.9111609E+00
 2.3316088E+00 9.4876738E-01 1.9138974E+00
 2.2782666E+00 9.7384805E-01 1.9136895E+00
 2.2262297E+00 9.9999999E-01 1.9100514E+00
 2.1755434E+00 1.0270582E+00 1.9026024E+00
 2.1263029E+00 1.0548081E+00 1.8910884E+00
 2.0786366E+00 1.0829841E+00 1.8753844E+00
 2.0326690E+00 1.1112656E+00 1.8554779E+00
 1.9884791E+00 1.1392780E+00 1.8314324E+00
 1.9460829E+00 1.1666014E+00 1.8033510E+00
 2.7324735E+00 8.4607795E-01 1.8720151E+00
 2.6736604E+00 8.6580235E-01 1.8806787E+00
 2.6146151E+00 8.8583097E-01 1.8891212E+00
 2.5558460E+00 9.0653788E-01 1.8971132E+00
 2.4978266E+00 9.2819745E-01 1.9042647E+00
 2.4409135E+00 9.5096934E-01 1.9100662E+00
 2.3853107E+00 9.7491101E-01 1.9139480E+00
 2.3310941E+00 1.0000000E+00 1.9153343E+00
 2.2782666E+00 1.0261519E+00 1.9136895E+00
 2.2268188E+00 1.0532307E+00 1.9085537E+00
 2.1767678E+00 1.0810506E+00 1.8995701E+00
 2.1281683E+00 1.1093735E+00 1.8864993E+00
 2.0810950E+00 1.1379026E+00 1.8692193E+00
 2.0356151E+00 1.1662802E+00 1.8477058E+00
 1.9917646E+00 1.1940986E+00 1.8220053E+00
 2.7319864E+00 8.8939286E-01 1.8786089E+00
 2.6729002E+00 9.1008479E-01 1.8863709E+00
 2.6137202E+00 9.3122368E-01 1.8938685E+00
 2.5549666E+00 9.5312934E-01 1.9008352E+00
 2.4971112E+00 9.7601886E-01 1.9068564E+00
 2.4404973E+00 1.0000000E+00 1.9114150E+00
 2.3853107E+00 1.0250890E+00 1.9139480E+00
 2.3316088E+00 1.0512326E+00 1.9138974E+00
 2.2793762E+00 1.0783239E+00 1.9107511E+00
 2.2285807E+00 1.1062070E+00 1.9040732E+00
 2.1792083E+00 1.1346744E+00 1.8935269E+00
 2.1312704E+00 1.1634587E+00 1.8788849E+00
 2.0847929E+00 1.1922268E+00 1.8600266E+00
 2.0398012E+00 1.2205872E+00 1.8369225E+00
 2.7316535E+00 9.3336646E-01 1.8830663E+00
 2.6724349E+00 9.5490540E-01 1.8898241E+00
 2.6132666E+00 9.7702816E-01 1.8962616E+00
 2.5546711E+00 1.0000000E+00 1.9020824E+00
 2.4971112E+00 1.0239812E+00 1.9068564E+00
 2.4409135E+00 1.0490307E+00 1.9100662E+00
 2.3862456E+00 1.0751282E+00 1.9111609E+00
 2.3331481E+00 1.1021952E+00 1.9096026E+00
 2.2815881E+00 1.1301052E+00 1.9049022E+00
 2.2315111E+00 1.1586829E+00 1.8966466E+00
 2.1828709E+00 1.1876940E+00 1.8845182E+00
 2.1356386E+00 1.2168368E+00 1.8683022E+00
 2.0898012E+00 1.2457433E+00 1.8478841E+00
 2.7314843E+00 9.7774354E-01 1.8853139E+00
 2.6722782E+00 1.0000000E+00 1.8909817E+00
 2.6132666E+00 1.0229719E+00 1.8962616E+00
 2.5549666E+00 1.0468707E+00 1.9008352E+00
 2.4978266E+00 1.0718026E+00 1.9042647E+00
 2.4421560E+00 1.0977823E+00 1.9060382E+00
 2.3881068E+00 1.1247583E+00 1.9056207E+00
 2.3357063E+00 1.1526303E+00 1.9024953E+00
 2.2849074E+00 1.1812531E+00 1.8961966E+00
 2.2356341E+00 1.2104274E+00 1.8863352E+00
 2.1878095E+00 1.2398873E+00 1.8726148E+00
 2.1413689E+00 1.2692956E+00 1.8548379E+00
 2.7314843E+00 1.0222565E+00 1.8853139E+00
 2.6724350E+00 1.0450947E+00 1.8898241E+00
 2.6137202E+00 1.0687764E+00 1.8938686E+00
 2.5558460E+00 1.0934622E+00 1.8971132E+00
 2.4992455E+00 1.1192084E+00 1.8991187E+00
 2.4442137E+00 1.1459905E+00 1.8993835E+00
 2.3908927E+00 1.1737295E+00 1.8973905E+00
 2.3393019E+00 1.2023042E+00 1.8926457E+00
 2.2893821E+00 1.2315466E+00 1.8847099E+00
 2.2410353E+00 1.2612278E+00 1.8732219E+00
 2.1941522E+00 1.2910470E+00 1.8579121E+00
 2.7316535E+00 1.0666336E+00 1.8830663E+00
 2.6729002E+00 1.0899153E+00 1.8863709E+00
 2.6146152E+00 1.1141691E+00 1.8891212E+00
 2.5572928E+00 1.1395086E+00 1.8909728E+00
 2.5013551E+00 1.1659454E+00 1.8914891E+00
 2.4470904E+00 1.1934191E+00 1.8901818E+00
 2.3946374E+00 1.2218236E+00 1.8865545E+00
 2.3440101E+00 1.2510125E+00 1.8801408E+00
 2.2951334E+00 1.2807885E+00 1.8705338E+00
 2.2478790E+00 1.3108880E+00 1.8574075E+00
 2.7319864E+00 1.1106072E+00 1.8786090E+00
 2.6736604E+00 1.1341977E+00 1.8806787E+00
 2.6159328E+00 1.1588950E+00 1.8820933E+00
 2.5592938E+00 1.1847708E+00 1.8825007E+00
 2.5041649E+00 1.2117947E+00 1.8814695E+00
 2.4508362E+00 1.2398703E+00 1.8785280E+00
 2.3994451E+00 1.2688587E+00 1.8732069E+00
 2.3499909E+00 1.2985803E+00 1.8650753E+00
 2.3023657E+00 1.3288014E+00 1.8537691E+00
 2.7324735E+00 1.1539221E+00 1.8720151E+00
 2.6746989E+00 1.1776974E+00 1.8728374E+00
 2.6176609E+00 1.2027282E+00 1.8728867E+00
 2.5618626E+00 1.2290482E+00 1.8718032E+00
 2.5077388E+00 1.2565829E+00 1.8691631E+00
 2.4555829E+00 1.2851909E+00 1.8645188E+00
 2.4055150E+00 1.3146898E+00 1.8574395E+00
 2.3574915E+00 1.3448567E+00 1.8475443E+00
 2.7331052E+00 1.1963432E+00 1.8633897E+00
 2.6760065E+00 1.2201992E+00 1.8629633E+00
 2.6198149E+00 1.2454841E+00 1.8616196E+00
 2.5650709E+00 1.2721910E+00 1.8589902E+00
 2.5122307E+00 1.3001883E+00 1.8546657E+00
 2.4615689E+00 1.3292714E+00 1.8482380E+00
 2.4131422E+00 1.3591988E+00 1.8393351E+00
 2.7338780E+00 1.2376635E+00 1.8528626E+00
 2.6775967E+00 1.2615269E+00 1.8511884E+00
 2.6224646E+00 1.2870314E+00 1.8484109E+00
 2.5690869E+00 1.3141104E+00 1.8441558E+00
 2.5179161E+00 1.3425422E+00 1.8380484E+00
 2.4691424E+00 1.3720328E+00 1.8297491E+00
 2.7348016E+00 1.2777110E+00 1.8405810E+00
 2.6795261E+00 1.3015570E+00 1.8376456E+00
 2.6257688E+00 1.3273027E+00 1.8333601E+00
 2.5742073E+00 1.3547755E+00 1.8273605E+00
 2.5252052E+00 1.3836083E+00 1.8193505E+00
 2.7359058E+00 1.3163503E+00 1.8267011E+00
 2.6819199E+00 1.3402284E+00 1.8224512E+00
 2.6300398E+00 1.3663084E+00 1.8165181E+00
 2.5809210E+00 1.3942035E+00 1.8086116E+00
 2.7372577E+00 1.3534951E+00 1.8113729E+00
 2.6850166E+00 1.3775448E+00 1.8056839E+00
 2.6358164E+00 1.4041063E+00 1.7978733E+00
 2.7389887E+00 1.3891259E+00 1.7947213E+00
 2.6894598E+00 1.4136439E+00 1.7872971E+00
 2.7413894E+00 1.4232028E+00 1.7768737E+00
 2.7920123E+00 1.4343841E+00 1.7656667E+00
 2.7917678E+00 1.4021362E+00 1.7831317E+00
 2.7915113E+00 1.3680265E+00 1.7997704E+00
 2.7912695E+00 1.3321474E+00 1.8153578E+00
 2.7910552E+00 1.2946399E+00 1.8296789E+00
 2.7908727E+00 1.2556471E+00 1.8425364E+00
 2.7907211E+00 1.2153005E+00 1.8537594E+00
 2.7905985E+00 1.1737634E+00 1.8631894E+00
 2.7905033E+00 1.1312317E+00 1.8706847E+00
 2.7904350E+00 1.0879283E+00 1.8761277E+00
 2.7903938E+00 1.0440978E+00 1.8794301E+00
 2.7903800E+00 1.0000000E+00 1.8805371E+00
 2.7903938E+00 9.5590221E-01 1.8794301E+00
 2.7904350E+00 9.1207176E-01 1.8761277E+00
 2.7905033E+00 8.6876837E-01 1.8706847E+00
 2.7905985E+00 8.2623670E-01 1.8631894E+00
 2.7907211E+00 7.8469961E-01 1.8537594E+00
 2.7908727E+00 7.4435299E-01 1.8425363E+00
 2.7910552E+00 7.0536016E-01 1.8296789E+00
 2.7912695E+00 6.6785271E-01 1.8153578E+00
 2.7915113E+00 6.3197354E-01 1.7997704E+00
 2.7917678E+00 5.9786384E-01 1.7831316E+00
 2.7920123E+00 5.6561594E-01 1.7656667E+00
 2.8370493E+00 5.4773809E-01 1.7510386E+00
 2.8859304E+00 5.5937016E-01 1.7535508E+00
 2.9364475E+00 5.7140227E-01 1.7561083E+00
 2.9881475E+00 5.8384858E-01 1.7586476E+00
 3.0408122E+00 5.9677466E-01 1.7610676E+00
 3.0942552E+00 6.1027891E-01 1.7632405E+00
 3.1483239E+00 6.2446984E-01 1.7650070E+00
 3.2028474E+00 6.3945308E-01 1.7661803E+00
 3.2576356E+00 6.5532715E-01 1.7665540E+00
 3.3124758E+00 6.7217831E-01 1.7659099E+00
 3.3671344E+00 6.9007548E-01 1.7640285E+00
 3.4213586E+00 7.0906536E-01 1.7606980E+00
 3.4748811E+00 7.2916811E-01 1.7557258E+00
 3.5274249E+00 7.5037483E-01 1.7489474E+00
 3.5787103E+00 7.7264643E-01 1.7402357E+00
 3.6284601E+00 7.9591472E-01 1.7295069E+00
 3.6764086E+00 8.2008486E-01 1.7167247E+00
 3.7223081E+00 8.4503952E-01 1.7019016E+00
 3.7659353E+00 8.7064337E-01 1.6850975E+00
 3.8070945E+00 8.9674487E-01 1.6664160E+00
 3.8455957E+00 9.2315333E-01 1.6460161E+00
 3.8812511E+00 9.4962218E-01 1.6241123E+00
 3.9137774E+00 9.7573623E-01 1.6010710E+00
 2.8420240E+00 1.4190938E+00 1.7695864E+00
 2.8925440E+00 1.4055789E+00 1.7724070E+00
 2.9440822E+00 1.3921933E+00 1.7749775E+00
 2.9964304E+00 1.3786113E+00 1.7773730E+00
 3.0495057E+00 1.3645981E+00 1.7795616E+00
 3.1031915E+00 1.3499963E+00 1.7814301E+00
 3.1573454E+00 1.3346761E+00 1.7828203E+00
 3.2118050E+00 1.3185329E+00 1.7835398E+00
 3.2663830E+00 1.3014828E+00 1.7833751E+00
 3.3208688E+00 1.2834610E+00 1.7821035E+00
 3.3750302E+00 1.2644233E+00 1.7795052E+00
 3.4286167E+00 1.2443477E+00 1.7753739E+00
 3.4813644E+00 1.2232366E+00 1.7695270E+00
 3.5330031E+00 1.2011183E+00 1.7618150E+00
 3.5832625E+00 1.1780472E+00 1.7521283E+00
 3.6318814E+00 1.1541025E+00 1.7404013E+00
 3.6786176E+00 1.1293889E+00 1.7266121E+00
 3.7232624E+00 1.1040349E+00 1.7107775E+00
 3.7656526E+00 1.0781945E+00 1.6929436E+00
 3.8056891E+00 1.0520527E+00 1.6731677E+00
 3.8433763E+00 1.0258439E+00 1.6514800E+00
 3.8789118E+00 1.0000000E+00 1.6278054E+00
 2.8438778E+00 1.3851496E+00 1.7869576E+00
 2.8963546E+00 1.3698084E+00 1.7898401E+00
 2.9491545E+00 1.3550306E+00 1.7922785E+00
 3.0024116E+00 1.3402071E+00 1.7944436E+00
 3.0560975E+00 1.3250222E+00 1.7963163E+00
 3.1101617E+00 1.3092554E+00 1.7977942E+00
 3.1644997E+00 1.2927598E+00 1.7987147E+00
 3.2189703E+00 1.2754325E+00 1.7988787E+00
 3.2734002E+00 1.2572036E+00 1.7980672E+00
 3.3275875E+00 1.2380277E+00 1.7960556E+00
 3.3813062E+00 1.2178813E+00 1.7926265E+00
 3.4343115E+00 1.1967621E+00 1.7875809E+00
 3.4863476E+00 1.1746895E+00 1.7807477E+00
 3.5371563E+00 1.1517047E+00 1.7719905E+00
 3.5864884E+00 1.1278710E+00 1.7612121E+00
 3.6341158E+00 1.1032746E+00 1.7483537E+00
 3.6798514E+00 1.0780268E+00 1.7333868E+00
 3.7235743E+00 1.0522687E+00 1.7162956E+00
 3.7652647E+00 1.0261787E+00 1.6970475E+00
 3.8050507E+00 1.0000000E+00 1.6755450E+00
 3.8433763E+00 9.7415610E-01 1.6514799E+00
 2.8450714E+00 1.3497587E+00 1.8032196E+00
 2.8988622E+00 1.3330254E+00 1.8058387E+00
 2.9527857E+00 1.3169105E+00 1.8079967E+00
 3.0068778E+00 1.3008508E+00 1.8098119E+00
 3.0611673E+00 1.2844643E+00 1.8112673E+00
 3.1156196E+00 1.2675093E+00 1.8122513E+00
 3.1701571E+00 1.2498280E+00 1.8125943E+00
 3.2246567E+00 1.2313243E+00 1.8120900E+00
 3.2789581E+00 1.2119417E+00 1.8105157E+00
 3.3328688E+00 1.1916517E+00 1.8076470E+00
 3.3861709E+00 1.1704474E+00 1.8032715E+00
 3.4386291E+00 1.1483412E+00 1.7971983E+00
 3.4900007E+00 1.1253638E+00 1.7892664E+00
 3.5400495E+00 1.1015649E+00 1.7793485E+00
 3.5885635E+00 1.0770150E+00 1.7673499E+00
 3.6353750E+00 1.0518101E+00 1.7532007E+00
 3.6803915E+00 1.0260797E+00 1.7368373E+00
 3.7236287E+00 1.0000000E+00 1.7181730E+00
 3.7652647E+00 9.7382134E-01 1.6970475E+00
 3.8056891E+00 9.4794731E-01 1.6731676E+00
 2.8459384E+00 1.3129231E+00 1.8182115E+00
 2.9007372E+00 1.2950173E+00 1.8203732E+00
 2.9555361E+00 1.2777078E+00 1.8220858E+00
 3.0103337E+00 1.2604603E+00 1.8234231E+00
 3.0651370E+00 1.2428997E+00 1.8243415E+00
 3.1199218E+00 1.2247765E+00 1.8247150E+00
 3.1746191E+00 1.2059389E+00 1.8243623E+00
 3.2291179E+00 1.1863004E+00 1.8230707E+00
 3.2832675E+00 1.1658188E+00 1.8206153E+00
 3.3368851E+00 1.1444795E+00 1.8167742E+00
 3.3897632E+00 1.1222886E+00 1.8113407E+00
 3.4416802E+00 1.0992684E+00 1.8041316E+00
 3.4924148E+00 1.0754578E+00 1.7949931E+00
 3.5417671E+00 1.0509145E+00 1.7837987E+00
 3.5895827E+00 1.0257220E+00 1.7704440E+00
 3.6357817E+00 1.0000000E+00 1.7548297E+00
 3.6803915E+00 9.7392036E-01 1.7368373E+00
 3.7235743E+00 9.4773133E-01 1.7162956E+00
 3.7656526E+00 9.2180551E-01 1.6929436E+00
 2.8466231E+00 1.2746438E+00 1.8317953E+00
 2.9022258E+00 1.2557492E+00 1.8333414E+00
 2.9577215E+00 1.2373701E+00 1.8344654E+00
 3.0130780E+00 1.2190213E+00 1.8351928E+00
 3.0682835E+00 1.2003476E+00 1.8354499E+00
 3.1233083E+00 1.1811146E+00 1.8350907E+00
 3.1780877E+00 1.1611835E+00 1.8339220E+00
 3.2325175E+00 1.1404827E+00 1.8317252E+00
 3.2864561E+00 1.1189829E+00 1.8282752E+00
 3.3397309E+00 1.0966814E+00 1.8233537E+00
 3.3921484E+00 1.0735932E+00 1.8167598E+00
 3.4435078E+00 1.0497481E+00 1.8083161E+00
 3.4936205E+00 1.0251931E+00 1.7978700E+00
 3.5423380E+00 1.0000000E+00 1.7852880E+00
 3.5895827E+00 9.7427799E-01 1.7704440E+00
 3.6353750E+00 9.4818992E-01 1.7532007E+00
 3.6798514E+00 9.2197318E-01 1.7333868E+00
 3.7232624E+00 8.9596513E-01 1.7107774E+00
 2.8471943E+00 1.2349974E+00 1.8438160E+00
 2.9034509E+00 1.2152632E+00 1.8446181E+00
 2.9594966E+00 1.1959377E+00 1.8450260E+00
 3.0152744E+00 1.1765870E+00 1.8450194E+00
 3.0707570E+00 1.1568878E+00 1.8444939E+00
 3.1259088E+00 1.1366303E+00 1.8432832E+00
 3.1806671E+00 1.1156958E+00 1.8411831E+00
 3.2349339E+00 1.0940287E+00 1.8379710E+00
 3.2885774E+00 1.0716118E+00 1.8334232E+00
 3.3414383E+00 1.0484512E+00 1.8273253E+00
 3.3933424E+00 1.0245682E+00 1.8194810E+00
 3.4441178E+00 1.0000000E+00 1.8097149E+00
 3.4936205E+00 9.7480697E-01 1.7978700E+00
 3.5417671E+00 9.4908556E-01 1.7837987E+00
 3.5885634E+00 9.2298506E-01 1.7673499E+00
 3.6341158E+00 8.9672545E-01 1.7483537E+00
 3.6786176E+00 8.7061112E-01 1.7266121E+00
 2.8476781E+00 1.1941130E+00 1.8541172E+00
 2.9044641E+00 1.1736689E+00 1.8540704E+00
 2.9609257E+00 1.1535192E+00 1.8536506E+00
 3.0169897E+00 1.1332767E+00 1.8527972E+00
 3.0726176E+00 1.1126567E+00 1.8513770E+00
 3.1277711E+00 1.0914799E+00 1.8492056E+00
 3.1823909E+00 1.0696506E+00 1.8460698E+00
 3.2363872E+00 1.0471291E+00 1.8417452E+00
 3.2896404E+00 1.0239082E+00 1.8360098E+00
 3.3420084E+00 1.0000000E+00 1.8286531E+00
 3.3933424E+00 9.7543188E-01 1.8194810E+00
 3.4435078E+00 9.5025198E-01 1.8083161E+00
 3.4924148E+00 9.2454228E-01 1.7949931E+00
 3.5400495E+00 8.9843512E-01 1.7793485E+00
 3.5864883E+00 8.7212899E-01 1.7612121E+00
 3.6318814E+00 8.4589750E-01 1.7404013E+00
 2.8480803E+00 1.1521567E+00 1.8625546E+00
 2.9052748E+00 1.1311294E+00 1.8615718E+00
 2.9620203E+00 1.1102785E+00 1.8602290E+00
 3.0182337E+00 1.0892627E+00 1.8584301E+00
 3.0738717E+00 1.0678389E+00 1.8560164E+00
 3.1288971E+00 1.0458608E+00 1.8527887E+00
 3.1832572E+00 1.0232565E+00 1.8485274E+00
 3.2368731E+00 1.0000000E+00 1.8430077E+00
 3.2896404E+00 9.7609183E-01 1.8360098E+00
 3.3414383E+00 9.5154888E-01 1.8273253E+00
 3.3921484E+00 9.2640683E-01 1.8167598E+00
 3.4416801E+00 9.0073166E-01 1.8041316E+00
 3.4900007E+00 8.7463623E-01 1.7892664E+00
 3.5371563E+00 8.4829529E-01 1.7719905E+00
 3.5832625E+00 8.2195288E-01 1.7521283E+00
 2.8483951E+00 1.1093295E+00 1.8690022E+00
 2.9058721E+00 1.0878472E+00 1.8670139E+00
 2.9627666E+00 1.0664216E+00 1.8646697E+00
 3.0189918E+00 1.0447575E+00 1.8618423E+00
 3.0745049E+00 1.0226545E+00 1.8583520E+00
 3.1292745E+00 1.0000000E+00 1.8539882E+00
 3.1832572E+00 9.7674357E-01 1.8485274E+00
 3.2363872E+00 9.5287096E-01 1.8417452E+00
 3.2885774E+00 9.2838822E-01 1.8334232E+00
 3.3397309E+00 9.0331859E-01 1.8233537E+00
 3.3897632E+00 8.7771148E-01 1.8113407E+00
 3.4386291E+00 8.5165885E-01 1.7971983E+00
 3.4863476E+00 8.2531054E-01 1.7807477E+00
 3.5330030E+00 7.9888170E-01 1.7618150E+00
 2.8486126E+00 1.0658602E+00 1.8733593E+00
 2.9062392E+00 1.0440538E+00 1.8703138E+00
 2.9631459E+00 1.0221836E+00 1.8669070E+00
 3.0192469E+00 1.0000000E+00 1.8629852E+00
 3.0745049E+00 9.7734556E-01 1.8583520E+00
 3.1288971E+00 9.5413921E-01 1.8527887E+00
 3.1823909E+00 9.3034946E-01 1.8460698E+00
 3.2349339E+00 9.0597139E-01 1.8379710E+00
 3.2864561E+00 8.8101711E-01 1.8282752E+00
 3.3368851E+00 8.5552056E-01 1.8167742E+00
 3.3861709E+00 8.2955267E-01 1.8032715E+00
 3.4343115E+00 8.0323794E-01 1.7875809E+00
 3.4813644E+00 7.7676347E-01 1.7695270E+00
 2.8487238E+00 1.0219976E+00 1.8755558E+00
 2.9063633E+00 1.0000000E+00 1.8714196E+00
 2.9631459E+00 9.7781649E-01 1.8669070E+00
 3.0189918E+00 9.5524256E-01 1.8618423E+00
 3.0738717E+00 9.3216119E-01 1.8560164E+00
 3.1277711E+00 9.0852018E-01 1.8492056E+00
 3.1806671E+00 8.8430423E-01 1.8411831E+00
 3.2325175E+00 8.5951732E-01 1.8317252E+00
 3.2832675E+00 8.3418129E-01 1.8206153E+00
 3.3328688E+00 8.0834839E-01 1.8076470E+00
 3.3813062E+00 7.8211876E-01 1.7926265E+00
 3.4286166E+00 7.5565237E-01 1.7753739E+00
 2.8487238E+00 9.7800249E-01 1.8755558E+00
 2.9062392E+00 9.5594627E-01 1.8703138E+00
 2.9627666E+00 9.3357841E-01 1.8646697E+00
 3.0182337E+00 9.1073733E-01 1.8584301E+00
 3.0726176E+00 8.8734333E-01 1.8513770E+00
 3.1259089E+00 8.6336975E-01 1.8432832E+00
 3.1780877E+00 8.3881650E-01 1.8339219E+00
 3.2291178E+00 8.1369960E-01 1.8230707E+00
 3.2789581E+00 7.8805833E-01 1.8105157E+00
 3.3275875E+00 7.6197236E-01 1.7960556E+00
 3.3750302E+00 7.3557671E-01 1.7795052E+00
 2.8486126E+00 9.3413988E-01 1.8733593E+00
 2.9058721E+00 9.1215286E-01 1.8670139E+00
 2.9620203E+00 8.8972151E-01 1.8602290E+00
 3.0169897E+00 8.6672336E-01 1.8527972E+00
 3.0707570E+00 8.4311221E-01 1.8444939E+00
 3.1233083E+00 8.1888543E-01 1.8350907E+00
 3.1746191E+00 7.9406118E-01 1.8243623E+00
 3.2246567E+00 7.6867570E-01 1.8120900E+00
 3.2734002E+00 7.4279643E-01 1.7980672E+00
 3.3208688E+00 7.1653900E-01 1.7821035E+00
 2.8483951E+00 8.9067061E-01 1.8690022E+00
 2.9052748E+00 8.6887062E-01 1.8615718E+00
 2.9609257E+00 8.4648085E-01 1.8536506E+00
 3.0152744E+00 8.2341306E-01 1.8450194E+00
 3.0682835E+00 7.9965245E-01 1.8354499E+00
 3.1199218E+00 7.7522352E-01 1.8247149E+00
 3.1701571E+00 7.5017203E-01 1.8125943E+00
 3.2189703E+00 7.2456749E-01 1.7988787E+00
 3.2663830E+00 6.9851725E-01 1.7833751E+00
 2.8480803E+00 8.4784337E-01 1.8625546E+00
 2.9044641E+00 8.2633112E-01 1.8540704E+00
 2.9594966E+00 8.0406236E-01 1.8450260E+00
 3.0130780E+00 7.8097880E-01 1.8351928E+00
 3.0651370E+00 7.5710035E-01 1.8243415E+00
 3.1156196E+00 7.3249076E-01 1.8122513E+00
 3.1644997E+00 7.0724023E-01 1.7987147E+00
 3.2118050E+00 6.8146712E-01 1.7835398E+00
 2.8476781E+00 8.0588703E-01 1.8541172E+00
 2.9034509E+00 7.8473683E-01 1.8446181E+00
 2.9577216E+00 7.6262993E-01 1.8344654E+00
 3.0103337E+00 7.3953978E-01 1.8234231E+00
 3.0611673E+00 7.1553570E-01 1.8112673E+00
 3.1101617E+00 6.9074460E-01 1.7977942E+00
 3.1573454E+00 6.6532396E-01 1.7828203E+00
 2.8471943E+00 7.6500262E-01 1.8438160E+00
 2.9022258E+00 7.4425086E-01 1.8333413E+00
 2.9555361E+00 7.2229226E-01 1.8220858E+00
 3.0068778E+00 6.9914929E-01 1.8098119E+00
 3.0560975E+00 6.7497784E-01 1.7963163E+00
 3.1031915E+00 6.5000376E-01 1.7814301E+00
 2.8466232E+00 7.2535623E-01 1.8317953E+00
 2.9007372E+00 7.0498279E-01 1.8203732E+00
 2.9527857E+00 6.8308957E-01 1.8079967E+00
 3.0024117E+00 6.5979299E-01 1.7944436E+00
 3.0495057E+00 6.3540198E-01 1.7795616E+00
 2.8459384E+00 6.8707692E-01 1.8182115E+00
 2.8988622E+00 6.6697469E-01 1.8058387E+00
 2.9491545E+00 6.4496949E-01 1.7922785E+00
 2.9964304E+00 6.2138872E-01 1.7773730E+00
 2.8450714E+00 6.5024132E-01 1.8032196E+00
 2.8963546E+00 6.3019164E-01 1.7898400E+00
 2.9440822E+00 6.0780679E-01 1.7749775E+00
 2.8438778E+00 6.1485051E-01 1.7869575E+00
 2.8925440E+00 5.9442116E-01 1.7724070E+00
 2.8420240E+00 5.8090626E-01 1.7695864E+00
 2.7641321E+00 1.4866191E+00 1.7364132E+00
 2.7330029E+00 1.5126147E+00 1.7219028E+00
 2.7005159E+00 1.5392677E+00 1.7059025E+00
 2.6669595E+00 1.5663575E+00 1.6883807E+00
 2.6325841E+00 1.5937385E+00 1.6692479E+00
 2.5976781E+00 1.6212573E+00 1.6483862E+00
 2.5625158E+00 1.6487432E+00 1.6256659E+00
 2.5273794E+00 1.6759811E+00 1.6009706E+00
 2.4925471E+00 1.7027176E+00 1.5742081E+00
 2.4582779E+00 1.7286702E+00 1.5453216E+00
 2.4248015E+00 1.7535406E+00 1.5143003E+00
 2.3923144E+00 1.7770300E+00 1.4811857E+00
 2.3609805E+00 1.7988541E+00 1.4460752E+00
 2.3309346E+00 1.8187571E+00 1.4091223E+00
 2.3022870E+00 1.8365234E+00 1.3705311E+00
 2.2751295E+00 1.8519865E+00 1.3305483E+00
 2.2495385E+00 1.8650352E+00 1.2894518E+00
 2.2255777E+00 1.8756145E+00 1.2475409E+00
 2.2032958E+00 1.8837237E+00 1.2051269E+00
 2.1827232E+00 1.8894108E+00 1.1625263E+00
 2.1638739E+00 1.8927638E+00 1.1200860E+00
 2.1467294E+00 1.8939003E+00 1.0781842E+00
 2.1313134E+00 1.8929864E+00 1.0374890E+00
 1.7033489E+00 1.0702281E+00 1.5915146E+00
 1.6996246E+00 1.1158072E+00 1.5789970E+00
 1.6974398E+00 1.1620063E+00 1.5646057E+00
 1.6971253E+00 1.2088774E+00 1.5485570E+00
 1.6988975E+00 1.2563465E+00 1.5309107E+00
 1.7029430E+00 1.3042610E+00 1.5117022E+00
 1.7094219E+00 1.3524049E+00 1.4909600E+00
 1.7184654E+00 1.4005108E+00 1.4687157E+00
 1.7301713E+00 1.4482668E+00 1.4450124E+00
 1.7446017E+00 1.4953257E+00 1.4199133E+00
 1.7617797E+00 1.5413158E+00 1.3935085E+00
 1.7816865E+00 1.5858515E+00 1.3659185E+00
 1.8042573E+00 1.6285453E+00 1.3372952E+00
 1.8293807E+00 1.6690210E+00 1.3078208E+00
 1.8568980E+00 1.7069269E+00 1.2777043E+00
 1.8866056E+00 1.7419500E+00 1.2471755E+00
 1.9182593E+00 1.7738280E+00 1.2164773E+00
 1.9515831E+00 1.8023632E+00 1.1858526E+00
 1.9862737E+00 1.8274282E+00 1.1555314E+00
 2.0220104E+00 1.8489723E+00 1.1257017E+00
 2.0584611E+00 1.8670247E+00 1.0964500E+00
 2.0951634E+00 1.8816632E+00 1.0676173E+00
 1.7294197E+00 1.0995077E+00 1.6225692E+00
 1.7272297E+00 1.1476055E+00 1.6101387E+00
 1.7265098E+00 1.1956134E+00 1.5955568E+00
 1.7276685E+00 1.2438339E+00 1.5791341E+00
 1.7309727E+00 1.2923071E+00 1.5609958E+00
 1.7366299E+00 1.3409348E+00 1.5412072E+00
 1.7447993E+00 1.3895186E+00 1.5198091E+00
 1.7555953E+00 1.4377840E+00 1.4968370E+00
 1.7690886E+00 1.4854027E+00 1.4723380E+00
 1.7853081E+00 1.5320092E+00 1.4463826E+00
 1.8042396E+00 1.5772172E+00 1.4190733E+00
 1.8258255E+00 1.6206338E+00 1.3905477E+00
 1.8499639E+00 1.6618762E+00 1.3609784E+00
 1.8765082E+00 1.7005849E+00 1.3305687E+00
 1.9052711E+00 1.7364396E+00 1.2995448E+00
 1.9360274E+00 1.7691722E+00 1.2681441E+00
 1.9685229E+00 1.7985798E+00 1.2365956E+00
 2.0024824E+00 1.8245337E+00 1.2050949E+00
 2.0376226E+00 1.8469853E+00 1.1737603E+00
 2.0736557E+00 1.8659658E+00 1.1425621E+00
 2.1102390E+00 1.8815710E+00 1.1111041E+00
 1.7587501E+00 1.1288190E+00 1.6530437E+00
 1.7580393E+00 1.1786887E+00 1.6403932E+00
 1.7588367E+00 1.2282047E+00 1.6254592E+00
 1.7615480E+00 1.2776073E+00 1.6085404E+00
 1.7664666E+00 1.3269580E+00 1.5897913E+00
 1.7738074E+00 1.3761674E+00 1.5692950E+00
 1.7837201E+00 1.4250335E+00 1.5471006E+00
 1.7962962E+00 1.4732701E+00 1.5232502E+00
 1.8115752E+00 1.5205338E+00 1.4977991E+00
 1.8295498E+00 1.5664464E+00 1.4708315E+00
 1.8501688E+00 1.6106159E+00 1.4424680E+00
 1.8733380E+00 1.6526545E+00 1.4128678E+00
 1.8989220E+00 1.6921962E+00 1.3822253E+00
 1.9267473E+00 1.7289128E+00 1.3507614E+00
 1.9566064E+00 1.7625296E+00 1.3187087E+00
 1.9882639E+00 1.7928369E+00 1.2862889E+00
 2.0214652E+00 1.8197025E+00 1.2536801E+00
 2.0559418E+00 1.8430730E+00 1.2209751E+00
 2.0914199E+00 1.8629766E+00 1.1881053E+00
 2.1275781E+00 1.8795042E+00 1.1547357E+00
 1.7913779E+00 1.1583331E+00 1.6823762E+00
 1.7921400E+00 1.2094709E+00 1.6692806E+00
 1.7944881E+00 1.2601107E+00 1.6538238E+00
 1.7988111E+00 1.3104111E+00 1.6362728E+00
 1.8054019E+00 1.3603906E+00 1.6167838E+00
 1.8144689E+00 1.4099372E+00 1.5954465E+00
 1.8261417E+00 1.4588284E+00 1.5723172E+00
 1.8404824E+00 1.5067605E+00 1.5474474E+00
 1.8574960E+00 1.5533769E+00 1.5209070E+00
 1.8771391E+00 1.5982949E+00 1.4927995E+00
 1.8993248E+00 1.6411273E+00 1.4632685E+00
 1.9239275E+00 1.6815043E+00 1.4324963E+00
 1.9507857E+00 1.7190909E+00 1.4006969E+00
 1.9797076E+00 1.7536047E+00 1.3680992E+00
 2.0104732E+00 1.7848279E+00 1.3349247E+00
 2.0428425E+00 1.8126210E+00 1.3013511E+00
 2.0765559E+00 1.8369249E+00 1.2674732E+00
 2.1113382E+00 1.8577604E+00 1.2332478E+00
 2.1468767E+00 1.8752158E+00 1.1984324E+00
 1.8273441E+00 1.1879365E+00 1.7100708E+00
 1.8295752E+00 1.2399427E+00 1.6963278E+00
 1.8334912E+00 1.2913421E+00 1.6801758E+00