# TIME = 9.000000
VARIABLES = X, Y, Z, FX, FY, FZ
ZONE N=29232 E=58212 F=FEPOINT ET=TRIANGLE
  0.000E+00  9.502E-01  1.243E-03 1.0479532E+01 -1.1381789E+00 -2.2917353E+01
  0.000E+00  1.000E+00  0.000E+00 1.0470133E+01 -4.9715221E-06 -2.2947639E+01
  4.318E-02  9.751E-01  3.108E-04 1.0548018E+01 -5.3632645E-01 -2.1632913E+01
  0.000E+00  1.050E+00  1.243E-03 1.0479532E+01 1.1381696E+00 -2.2917356E+01
  4.318E-02  1.025E+00  3.108E-04 1.0548017E+01 5.3631587E-01 -2.1632915E+01
  0.000E+00  1.100E+00  4.969E-03 1.0513255E+01 2.2749965E+00 -2.2829219E+01
  4.318E-02  1.075E+00  2.796E-03 1.0570421E+01 1.6078718E+00 -2.1576101E+01
  0.000E+00  1.149E+00  1.117E-02 1.0583384E+01 3.4114563E+00 -2.2689450E+01
  4.318E-02  1.124E+00  7.761E-03 1.0621922E+01 2.6778584E+00 -2.1467635E+01
  0.000E+00  1.198E+00  1.983E-02 1.0691080E+01 4.5462273E+00 -2.2502340E+01
  4.318E-02  1.174E+00  1.519E-02 1.0709050E+01 3.7490471E+00 -2.1315311E+01
  0.000E+00  1.247E+00  3.092E-02 1.0807466E+01 5.6702773E+00 -2.2262007E+01
  4.318E-02  1.223E+00  2.507E-02 1.0825303E+01 4.8187932E+00 -2.1119342E+01
  0.000E+00  1.295E+00  4.443E-02 1.0886887E+01 6.7698924E+00 -2.1951445E+01
  4.318E-02  1.271E+00  3.738E-02 1.0931918E+01 5.8724957E+00 -2.0863648E+01
  0.000E+00  1.342E+00  6.031E-02 1.0935671E+01 7.8493305E+00 -2.1575865E+01
  4.318E-02  1.318E+00  5.207E-02 1.0990185E+01 6.8992215E+00 -2.0536387E+01
  0.000E+00  1.388E+00  7.852E-02 1.1117095E+01 8.9187139E+00 -2.1157027E+01
  4.318E-02  1.365E+00  6.913E-02 1.1083481E+01 7.9087642E+00 -2.0156231E+01
  0.000E+00  1.434E+00  9.903E-02 1.1266256E+01 9.9666477E+00 -2.0692533E+01
  4.318E-02  1.411E+00  8.849E-02 1.1289026E+01 8.9086156E+00 -1.9742451E+01
  0.000E+00  1.478E+00  1.218E-01 1.1281312E+01 1.0981590E+01 -2.0166198E+01
  4.318E-02  1.456E+00  1.101E-01 1.1369253E+01 9.8831979E+00 -1.9276913E+01
  0.000E+00  1.521E+00  1.467E-01 1.1474401E+01 1.1972691E+01 -1.9593023E+01
  4.318E-02  1.500E+00  1.340E-01 1.1423656E+01 1.0828137E+01 -1.8755488E+01
  0.000E+00  1.563E+00  1.738E-01 1.1505636E+01 1.2935579E+01 -1.8973703E+01
  4.318E-02  1.543E+00  1.600E-01 1.1603959E+01 1.1750672E+01 -1.8194507E+01
  0.000E+00  1.604E+00  2.029E-01 1.1593171E+01 1.3864213E+01 -1.8304760E+01
  4.318E-02  1.584E+00  1.881E-01 1.1595236E+01 1.2643212E+01 -1.7586449E+01
  0.000E+00  1.643E+00  2.340E-01 1.1661443E+01 1.4760210E+01 -1.7592609E+01
  4.318E-02  1.623E+00  2.182E-01 1.1711918E+01 1.3503830E+01 -1.6934797E+01
  0.000E+00  1.680E+00  2.669E-01 1.1641116E+01 1.5618858E+01 -1.6835467E+01
  4.318E-02  1.662E+00  2.502E-01 1.1706777E+01 1.4331501E+01 -1.6241341E+01
  0.000E+00  1.716E+00  3.018E-01 1.1697058E+01 1.6439802E+01 -1.6037774E+01
  4.318E-02  1.698E+00  2.841E-01 1.1774830E+01 1.5123780E+01 -1.5508054E+01
  0.000E+00  1.750E+00  3.383E-01 1.1629602E+01 1.7219549E+01 -1.5199487E+01
  4.318E-02  1.733E+00  3.198E-01 1.1719094E+01 1.5878520E+01 -1.4735896E+01
  0.000E+00  1.782E+00  3.765E-01 1.1635312E+01 1.7957583E+01 -1.4323897E+01
  4.318E-02  1.766E+00  3.572E-01 1.1740368E+01 1.6595037E+01 -1.3928050E+01
  0.000E+00  1.812E+00  4.163E-01 1.1518826E+01 1.8651092E+01 -1.3412610E+01
  4.318E-02  1.797E+00  3.962E-01 1.1671907E+01 1.7270052E+01 -1.3084561E+01
  0.000E+00  1.840E+00  4.575E-01 1.1528358E+01 1.9299007E+01 -1.2467675E+01
  4.318E-02  1.826E+00  4.367E-01 1.1585575E+01 1.7903433E+01 -1.2209257E+01
  0.000E+00  1.866E+00  5.000E-01 1.1348464E+01 1.9896724E+01 -1.1489629E+01
  4.318E-02  1.853E+00  4.786E-01 1.1554022E+01 1.8490464E+01 -1.1301658E+01
  0.000E+00  1.890E+00  5.438E-01 1.1294294E+01 2.0451670E+01 -1.0487090E+01
  4.318E-02  1.878E+00  5.217E-01 1.1362241E+01 1.9034723E+01 -1.0367444E+01
  0.000E+00  1.912E+00  5.887E-01 1.1215413E+01 2.0948454E+01 -9.4546396E+00
  4.318E-02  1.901E+00  5.661E-01 1.1347342E+01 1.9532677E+01 -9.4081323E+00
  0.000E+00  1.931E+00  6.347E-01 1.1009801E+01 2.1388500E+01 -8.3924570E+00
  4.318E-02  1.921E+00  6.116E-01 1.1198274E+01 1.9969794E+01 -8.4171159E+00
  0.000E+00  1.948E+00  6.815E-01 1.0916134E+01 2.1789176E+01 -7.3174930E+00
  4.318E-02  1.940E+00  6.580E-01 1.1018325E+01 2.0367308E+01 -7.4106170E+00
  0.000E+00  1.963E+00  7.292E-01 1.0858987E+01 2.2135722E+01 -6.2286314E+00
  4.318E-02  1.956E+00  7.052E-01 1.0969920E+01 2.0725324E+01 -6.3937118E+00
  0.000E+00  1.975E+00  7.775E-01 1.0753844E+01 2.2410011E+01 -5.1149111E+00
  4.318E-02  1.969E+00  7.532E-01 1.0889502E+01 2.1017951E+01 -5.3528162E+00
  0.000E+00  1.985E+00  8.264E-01 1.0638181E+01 2.2622202E+01 -3.9827665E+00
  4.318E-02  1.980E+00  8.019E-01 1.0772246E+01 2.1240710E+01 -4.2878091E+00
  0.000E+00  1.992E+00  8.757E-01 1.0550562E+01 2.2786320E+01 -2.8458208E+00
  4.318E-02  1.989E+00  8.510E-01 1.0664561E+01 2.1414713E+01 -3.2159579E+00
  0.000E+00  1.997E+00  9.253E-01 1.0498223E+01 2.2901974E+01 -1.7083903E+00
  4.318E-02  1.995E+00  9.004E-01 1.0595161E+01 2.1546488E+01 -2.1447842E+00
  0.000E+00  2.000E+00  9.751E-01 1.0475263E+01 2.2961764E+01 -5.6977676E-01
  4.318E-02  1.999E+00  9.502E-01 1.0562213E+01 2.1630381E+01 -1.0733554E+00
  0.000E+00  2.000E+00  1.025E+00 1.0475263E+01 2.2961746E+01 5.6975773E-01
  4.318E-02  2.000E+00  1.000E+00 1.0553112E+01 2.1659244E+01 -1.0197343E-05
  0.000E+00  1.997E+00  1.075E+00 1.0498222E+01 2.2901921E+01 1.7083759E+00
  4.318E-02  1.999E+00  1.050E+00 1.0562212E+01 2.1630346E+01 1.0733373E+00
  0.000E+00  1.992E+00  1.124E+00 1.0550560E+01 2.2786256E+01 2.8458131E+00
  4.318E-02  1.995E+00  1.100E+00 1.0595158E+01 2.1546426E+01 2.1447712E+00
  0.000E+00  1.985E+00  1.174E+00 1.0638173E+01 2.2622207E+01 3.9827616E+00
  4.318E-02  1.989E+00  1.149E+00 1.0664554E+01 2.1414690E+01 3.2159490E+00
  0.000E+00  1.975E+00  1.223E+00 1.0753829E+01 2.2410130E+01 5.1149044E+00
  4.318E-02  1.980E+00  1.198E+00 1.0772232E+01 2.1240798E+01 4.2878009E+00
  0.000E+00  1.963E+00  1.271E+00 1.0858970E+01 2.2135776E+01 6.2286254E+00
  4.318E-02  1.969E+00  1.247E+00 1.0889483E+01 2.1018072E+01 5.3528097E+00
  0.000E+00  1.948E+00  1.318E+00 1.0916119E+01 2.1789031E+01 7.3174991E+00
  4.318E-02  1.956E+00  1.295E+00 1.0969904E+01 2.0725266E+01 6.3937169E+00
  0.000E+00  1.931E+00  1.365E+00 1.1009785E+01 2.1388515E+01 8.3924766E+00
  4.318E-02  1.940E+00  1.342E+00 1.1018310E+01 2.0367219E+01 7.4106369E+00
  0.000E+00  1.912E+00  1.411E+00 1.1215394E+01 2.0948601E+01 9.4546544E+00
  4.318E-02  1.921E+00  1.388E+00 1.1198256E+01 1.9969951E+01 8.4171403E+00
  0.000E+00  1.890E+00  1.456E+00 1.1294279E+01 2.0451535E+01 1.0487092E+01
  4.318E-02  1.901E+00  1.434E+00 1.1347326E+01 1.9532686E+01 9.4081458E+00
  0.000E+00  1.866E+00  1.500E+00 1.1348446E+01 1.9896669E+01 1.1489630E+01
  4.318E-02  1.878E+00  1.478E+00 1.1362225E+01 1.9034585E+01 1.0367450E+01
  0.000E+00  1.840E+00  1.543E+00 1.1528340E+01 1.9299038E+01 1.2467667E+01
  4.318E-02  1.853E+00  1.521E+00 1.1554002E+01 1.8490514E+01 1.1301662E+01
  0.000E+00  1.812E+00  1.584E+00 1.1518809E+01 1.8650985E+01 1.3412582E+01
  4.318E-02  1.826E+00  1.563E+00 1.1585557E+01 1.7903371E+01 1.2209244E+01
  0.000E+00  1.782E+00  1.623E+00 1.1635295E+01 1.7957572E+01 1.4323861E+01
  4.318E-02  1.797E+00  1.604E+00 1.1671888E+01 1.7270001E+01 1.3084536E+01
  0.000E+00  1.750E+00  1.662E+00 1.1629586E+01 1.7219491E+01 1.5199444E+01
  4.318E-02  1.766E+00  1.643E+00 1.1740350E+01 1.6595019E+01 1.3928016E+01
  0.000E+00  1.716E+00  1.698E+00 1.1697042E+01 1.6439772E+01 1.6037728E+01
  4.318E-02  1.733E+00  1.680E+00 1.1719076E+01 1.5878466E+01 1.4735856E+01
  0.000E+00  1.680E+00  1.733E+00 1.1641101E+01 1.5618832E+01 1.6835420E+01
  4.318E-02  1.698E+00  1.716E+00 1.1774813E+01 1.5123767E+01 1.5508013E+01
  0.000E+00  1.643E+00  1.766E+00 1.1661430E+01 1.4760179E+01 1.7592563E+01
  4.318E-02  1.662E+00  1.750E+00 1.1706762E+01 1.4331465E+01 1.6241299E+01
  0.000E+00  1.604E+00  1.797E+00 1.1593159E+01 1.3864187E+01 1.8304714E+01
  4.318E-02  1.623E+00  1.782E+00 1.1711903E+01 1.3503812E+01 1.6934755E+01
  0.000E+00  1.563E+00  1.826E+00 1.1505626E+01 1.2935552E+01 1.8973656E+01
  4.318E-02  1.584E+00  1.812E+00 1.1595221E+01 1.2643183E+01 1.7586406E+01
  0.000E+00  1.521E+00  1.853E+00 1.1474391E+01 1.1972667E+01 1.9592975E+01
  4.318E-02  1.543E+00  1.840E+00 1.1603946E+01 1.1750652E+01 1.8194462E+01
  0.000E+00  1.478E+00  1.878E+00 1.1281299E+01 1.0981567E+01 2.0166149E+01
  4.318E-02  1.500E+00  1.866E+00 1.1423643E+01 1.0828110E+01 1.8755441E+01
  0.000E+00  1.434E+00  1.901E+00 1.1266242E+01 9.9666398E+00 2.0692484E+01
  4.318E-02  1.456E+00  1.890E+00 1.1369243E+01 9.8831804E+00 1.9276864E+01
  0.000E+00  1.388E+00  1.921E+00 1.1117084E+01 8.9186957E+00 2.1156977E+01
  4.318E-02  1.411E+00  1.912E+00 1.1289017E+01 8.9085971E+00 1.9742402E+01
  0.000E+00  1.342E+00  1.940E+00 1.0935664E+01 7.8493200E+00 2.1575816E+01
  4.318E-02  1.365E+00  1.931E+00 1.1083470E+01 7.9087459E+00 2.0156181E+01
  0.000E+00  1.295E+00  1.956E+00 1.0886884E+01 6.7698818E+00 2.1951394E+01
  4.318E-02  1.318E+00  1.948E+00 1.0990171E+01 6.8992080E+00 2.0536336E+01
  0.000E+00  1.247E+00  1.969E+00 1.0807462E+01 5.6702649E+00 2.2261955E+01
  4.318E-02  1.271E+00  1.963E+00 1.0931905E+01 5.8724853E+00 2.0863595E+01
  0.000E+00  1.198E+00  1.980E+00 1.0691074E+01 4.5462159E+00 2.2502287E+01
  4.318E-02  1.223E+00  1.975E+00 1.0825291E+01 4.8187892E+00 2.1119290E+01
  0.000E+00  1.149E+00  1.989E+00 1.0583377E+01 3.4114462E+00 2.2689397E+01
  4.318E-02  1.174E+00  1.985E+00 1.0709041E+01 3.7490464E+00 2.1315260E+01
  0.000E+00  1.100E+00  1.995E+00 1.0513246E+01 2.2749904E+00 2.2829165E+01
  4.318E-02  1.124E+00  1.992E+00 1.0621914E+01 2.6778636E+00 2.1467586E+01
  0.000E+00  1.050E+00  1.999E+00 1.0479524E+01 1.1381683E+00 2.2917303E+01
  4.318E-02  1.075E+00  1.997E+00 1.0570413E+01 1.6078745E+00 2.1576053E+01
  0.000E+00  1.000E+00  2.000E+00 1.0470126E+01 -8.6820772E-08 2.2947587E+01
  4.318E-02  1.025E+00  2.000E+00 1.0548010E+01 5.3632072E-01 2.1632868E+01
  0.000E+00  9.502E-01  1.999E+00 1.0479525E+01 -1.1381689E+00 2.2917303E+01
  4.318E-02  9.751E-01  2.000E+00 1.0548010E+01 -5.3632173E-01 2.1632868E+01
  0.000E+00  9.004E-01  1.995E+00 1.0513249E+01 -2.2749907E+00 2.2829166E+01
  4.318E-02  9.253E-01  1.997E+00 1.0570414E+01 -1.6078775E+00 2.1576052E+01
  0.000E+00  8.510E-01  1.989E+00 1.0583380E+01 -3.4114468E+00 2.2689398E+01
  4.318E-02  8.757E-01  1.992E+00 1.0621916E+01 -2.6778631E+00 2.1467585E+01
  0.000E+00  8.019E-01  1.980E+00 1.0691078E+01 -4.5462161E+00 2.2502289E+01
  4.318E-02  8.264E-01  1.985E+00 1.0709044E+01 -3.7490489E+00 2.1315259E+01
  0.000E+00  7.532E-01  1.969E+00 1.0807468E+01 -5.6702663E+00 2.2261957E+01
  4.318E-02  7.775E-01  1.975E+00 1.0825296E+01 -4.8187896E+00 2.1119288E+01
  0.000E+00  7.052E-01  1.956E+00 1.0886891E+01 -6.7698819E+00 2.1951397E+01
  4.318E-02  7.292E-01  1.963E+00 1.0931909E+01 -5.8724860E+00 2.0863593E+01
  0.000E+00  6.580E-01  1.940E+00 1.0935672E+01 -7.8493199E+00 2.1575819E+01
  4.318E-02  6.815E-01  1.948E+00 1.0990177E+01 -6.8992076E+00 2.0536334E+01
  0.000E+00  6.116E-01  1.921E+00 1.1117093E+01 -8.9187022E+00 2.1156982E+01
  4.318E-02  6.347E-01  1.931E+00 1.1083476E+01 -7.9087479E+00 2.0156179E+01
  0.000E+00  5.661E-01  1.901E+00 1.1266253E+01 -9.9666339E+00 2.0692488E+01
  4.318E-02  5.887E-01  1.912E+00 1.1289023E+01 -8.9085964E+00 1.9742398E+01
  0.000E+00  5.217E-01  1.878E+00 1.1281311E+01 -1.0981573E+01 2.0166155E+01
  4.318E-02  5.438E-01  1.890E+00 1.1369252E+01 -9.8831766E+00 1.9276862E+01
  0.000E+00  4.786E-01  1.853E+00 1.1474404E+01 -1.1972671E+01 1.9592981E+01
  4.318E-02  5.000E-01  1.866E+00 1.1423652E+01 -1.0828114E+01 1.8755440E+01
  0.000E+00  4.367E-01  1.826E+00 1.1505640E+01 -1.2935556E+01 1.8973662E+01
  4.318E-02  4.575E-01  1.840E+00 1.1603955E+01 -1.1750649E+01 1.8194460E+01
  0.000E+00  3.962E-01  1.797E+00 1.1593175E+01 -1.3864189E+01 1.8304720E+01
  4.318E-02  4.163E-01  1.812E+00 1.1595233E+01 -1.2643187E+01 1.7586403E+01
  0.000E+00  3.572E-01  1.766E+00 1.1661447E+01 -1.4760185E+01 1.7592571E+01
  4.318E-02  3.765E-01  1.782E+00 1.1711916E+01 -1.3503802E+01 1.6934753E+01
  0.000E+00  3.198E-01  1.733E+00 1.1641119E+01 -1.5618832E+01 1.6835431E+01
  4.318E-02  3.383E-01  1.750E+00 1.1706776E+01 -1.4331471E+01 1.6241298E+01
  0.000E+00  2.841E-01  1.698E+00 1.1697063E+01 -1.6439775E+01 1.6037740E+01
  4.318E-02  3.018E-01  1.716E+00 1.1774829E+01 -1.5123748E+01 1.5508013E+01
  0.000E+00  2.502E-01  1.662E+00 1.1629608E+01 -1.7219519E+01 1.5199454E+01
  4.318E-02  2.669E-01  1.680E+00 1.1719093E+01 -1.5878486E+01 1.4735857E+01
  0.000E+00  2.182E-01  1.623E+00 1.1635318E+01 -1.7957553E+01 1.4323866E+01
  4.318E-02  2.340E-01  1.643E+00 1.1740368E+01 -1.6595001E+01 1.3928014E+01
  0.000E+00  1.881E-01  1.584E+00 1.1518833E+01 -1.8651061E+01 1.3412581E+01
  4.318E-02  2.029E-01  1.604E+00 1.1671908E+01 -1.7270015E+01 1.3084527E+01
  0.000E+00  1.600E-01  1.543E+00 1.1528365E+01 -1.9298975E+01 1.2467649E+01
  4.318E-02  1.738E-01  1.563E+00 1.1585576E+01 -1.7903394E+01 1.2209225E+01
  0.000E+00  1.340E-01  1.500E+00 1.1348472E+01 -1.9896691E+01 1.1489605E+01
  4.318E-02  1.467E-01  1.521E+00 1.1554024E+01 -1.8490425E+01 1.1301628E+01
  0.000E+00  1.101E-01  1.456E+00 1.1294302E+01 -2.0451637E+01 1.0487067E+01
  4.318E-02  1.218E-01  1.478E+00 1.1362243E+01 -1.9034683E+01 1.0367417E+01
  0.000E+00  8.849E-02  1.411E+00 1.1215421E+01 -2.0948419E+01 9.4546193E+00
  4.318E-02  9.903E-02  1.434E+00 1.1347345E+01 -1.9532637E+01 9.4081076E+00
  0.000E+00  6.913E-02  1.365E+00 1.1009809E+01 -2.1388467E+01 8.3924395E+00
  4.318E-02  7.852E-02  1.388E+00 1.1198277E+01 -1.9969752E+01 8.4170943E+00
  0.000E+00  5.207E-02  1.318E+00 1.0916143E+01 -2.1789142E+01 7.3174775E+00
  4.318E-02  6.031E-02  1.342E+00 1.1018328E+01 -2.0367266E+01 7.4105979E+00
  0.000E+00  3.738E-02  1.271E+00 1.0858997E+01 -2.2135688E+01 6.2286180E+00
  4.318E-02  4.443E-02  1.295E+00 1.0969923E+01 -2.0725282E+01 6.3936951E+00
  0.000E+00  2.507E-02  1.223E+00 1.0753854E+01 -2.2409979E+01 5.1149002E+00
  4.318E-02  3.092E-02  1.247E+00 1.0889507E+01 -2.1017910E+01 5.3528022E+00
  0.000E+00  1.519E-02  1.174E+00 1.0638192E+01 -2.2622171E+01 3.9827581E+00
  4.318E-02  1.983E-02  1.198E+00 1.0772251E+01 -2.1240670E+01 4.2877981E+00
  0.000E+00  7.761E-03  1.124E+00 1.0550573E+01 -2.2786290E+01 2.8458145E+00
  4.318E-02  1.117E-02  1.149E+00 1.0664567E+01 -2.1414674E+01 3.2159496E+00
  0.000E+00  2.796E-03  1.075E+00 1.0498234E+01 -2.2901945E+01 1.7083857E+00
  4.318E-02  4.969E-03  1.100E+00 1.0595167E+01 -2.1546450E+01 2.1447784E+00
  0.000E+00  3.108E-04  1.025E+00 1.0475274E+01 -2.2961737E+01 5.6977381E-01
  4.318E-02  1.243E-03  1.050E+00 1.0562219E+01 -2.1630344E+01 1.0733517E+00
  0.000E+00  3.108E-04  9.751E-01 1.0475274E+01 -2.2961721E+01 -5.6975907E-01
  4.318E-02  0.000E+00  1.000E+00 1.0553118E+01 -2.1659209E+01 8.5743317E-06
  0.000E+00  2.796E-03  9.253E-01 1.0498234E+01 -2.2901897E+01 -1.7083758E+00
  4.318E-02  1.243E-03  9.502E-01 1.0562219E+01 -2.1630313E+01 -1.0733370E+00
  0.000E+00  7.761E-03  8.757E-01 1.0550572E+01 -2.2786234E+01 -2.8458115E+00
  4.318E-02  4.969E-03  9.004E-01 1.0595166E+01 -2.1546395E+01 -2.1447690E+00
  0.000E+00  1.519E-02  8.264E-01 1.0638186E+01 -2.2622187E+01 -3.9827588E+00
  4.318E-02  1.117E-02  8.510E-01 1.0664562E+01 -2.1414661E+01 -3.2159451E+00
  0.000E+00  2.507E-02  7.775E-01 1.0753842E+01 -2.2410113E+01 -5.1149005E+00
  4.318E-02  1.983E-02  8.019E-01 1.0772240E+01 -2.1240772E+01 -4.2877955E+00
  0.000E+00  3.738E-02  7.292E-01 1.0858983E+01 -2.2135761E+01 -6.2286210E+00
  4.318E-02  3.092E-02  7.532E-01 1.0889493E+01 -2.1018048E+01 -5.3528029E+00
  0.000E+00  5.207E-02  6.815E-01 1.0916132E+01 -2.1789019E+01 -7.3174944E+00
  4.318E-02  4.443E-02  7.052E-01 1.0969913E+01 -2.0725246E+01 -6.3937093E+00
  0.000E+00  6.913E-02  6.347E-01 1.1009798E+01 -2.1388506E+01 -8.3924719E+00
  4.318E-02  6.031E-02  6.580E-01 1.1018320E+01 -2.0367201E+01 -7.4106289E+00
  0.000E+00  8.849E-02  5.887E-01 1.1215408E+01 -2.0948596E+01 -9.4546503E+00
  4.318E-02  7.852E-02  6.116E-01 1.1198266E+01 -1.9969936E+01 -8.4171321E+00
  0.000E+00  1.101E-01  5.438E-01 1.1294292E+01 -2.0451531E+01 -1.0487088E+01
  4.318E-02  9.903E-02  5.661E-01 1.1347337E+01 -1.9532674E+01 -9.4081378E+00
  0.000E+00  1.340E-01  5.000E-01 1.1348460E+01 -1.9896669E+01 -1.1489627E+01
  4.318E-02  1.218E-01  5.217E-01 1.1362236E+01 -1.9034577E+01 -1.0367443E+01
  0.000E+00  1.600E-01  4.575E-01 1.1528354E+01 -1.9299040E+01 -1.2467666E+01
  4.318E-02  1.467E-01  4.786E-01 1.1554014E+01 -1.8490509E+01 -1.1301655E+01
  0.000E+00  1.881E-01  4.163E-01 1.1518823E+01 -1.8650989E+01 -1.3412582E+01
  4.318E-02  1.738E-01  4.367E-01 1.1585569E+01 -1.7903369E+01 -1.2209238E+01
  0.000E+00  2.182E-01  3.765E-01 1.1635308E+01 -1.7957578E+01 -1.4323863E+01
  4.318E-02  2.029E-01  3.962E-01 1.1671900E+01 -1.7270002E+01 -1.3084533E+01
  0.000E+00  2.502E-01  3.383E-01 1.1629599E+01 -1.7219501E+01 -1.5199448E+01
  4.318E-02  2.340E-01  3.572E-01 1.1740362E+01 -1.6595023E+01 -1.3928015E+01
  0.000E+00  2.841E-01  3.018E-01 1.1697054E+01 -1.6439782E+01 -1.6037734E+01
  4.318E-02  2.669E-01  3.198E-01 1.1719088E+01 -1.5878473E+01 -1.4735857E+01
  0.000E+00  3.198E-01  2.669E-01 1.1641114E+01 -1.5618844E+01 -1.6835429E+01
  4.318E-02  3.018E-01  2.841E-01 1.1774825E+01 -1.5123776E+01 -1.5508017E+01
  0.000E+00  3.572E-01  2.340E-01 1.1661442E+01 -1.4760193E+01 -1.7592574E+01
  4.318E-02  3.383E-01  2.502E-01 1.1706774E+01 -1.4331476E+01 -1.6241305E+01
  0.000E+00  3.962E-01  2.029E-01 1.1593169E+01 -1.3864203E+01 -1.8304728E+01
  4.318E-02  3.765E-01  2.182E-01 1.1711915E+01 -1.3503824E+01 -1.6934764E+01
  0.000E+00  4.367E-01  1.738E-01 1.1505635E+01 -1.2935569E+01 -1.8973673E+01
  4.318E-02  4.163E-01  1.881E-01 1.1595233E+01 -1.2643196E+01 -1.7586417E+01
  0.000E+00  4.786E-01  1.467E-01 1.1474402E+01 -1.1972684E+01 -1.9592995E+01
  4.318E-02  4.575E-01  1.600E-01 1.1603958E+01 -1.1750666E+01 -1.8194477E+01
  0.000E+00  5.217E-01  1.218E-01 1.1281311E+01 -1.0981582E+01 -2.0166171E+01
  4.318E-02  5.000E-01  1.340E-01 1.1423654E+01 -1.0828127E+01 -1.8755459E+01
  0.000E+00  5.661E-01  9.903E-02 1.1266256E+01 -9.9666541E+00 -2.0692508E+01
  4.318E-02  5.438E-01  1.101E-01 1.1369251E+01 -9.8831991E+00 -1.9276886E+01
  0.000E+00  6.116E-01  7.852E-02 1.1117095E+01 -8.9187102E+00 -2.1157005E+01
  4.318E-02  5.887E-01  8.849E-02 1.1289025E+01 -8.9086160E+00 -1.9742426E+01
  0.000E+00  6.580E-01  6.031E-02 1.0935670E+01 -7.8493350E+00 -2.1575846E+01
  4.318E-02  6.347E-01  6.913E-02 1.1083480E+01 -7.9087648E+00 -2.0156210E+01
  0.000E+00  7.052E-01  4.443E-02 1.0886888E+01 -6.7698980E+00 -2.1951428E+01
  4.318E-02  6.815E-01  5.207E-02 1.0990184E+01 -6.8992266E+00 -2.0536368E+01
  0.000E+00  7.532E-01  3.092E-02 1.0807466E+01 -5.6702829E+00 -2.2261993E+01
  4.318E-02  7.292E-01  3.738E-02 1.0931918E+01 -5.8725015E+00 -2.0863632E+01
  0.000E+00  8.019E-01  1.983E-02 1.0691079E+01 -4.5462353E+00 -2.2502329E+01
  4.318E-02  7.775E-01  2.507E-02 1.0825302E+01 -4.8188010E+00 -2.1119329E+01
  0.000E+00  8.510E-01  1.117E-02 1.0583385E+01 -3.4114647E+00 -2.2689441E+01
  4.318E-02  8.264E-01  1.519E-02 1.0709050E+01 -3.7490542E+00 -2.1315301E+01
  0.000E+00  9.004E-01  4.969E-03 1.0513255E+01 -2.2750058E+00 -2.2829213E+01
  4.318E-02  8.757E-01  7.761E-03 1.0621922E+01 -2.6778695E+00 -2.1467628E+01
  4.318E-02  9.253E-01  2.796E-03 1.0570420E+01 -1.6078800E+00 -2.1576097E+01
  1.000E+01  1.050E+00  1.243E-03 1.0479532E+01 1.1381696E+00 -2.2917356E+01
  1.000E+01  1.000E+00  5.551E-16 1.0470133E+01 -4.9715221E-06 -2.2947639E+01
  9.957E+00  1.025E+00  3.108E-04 1.0377738E+01 5.9974174E-01 -2.4164249E+01
  1.000E+01  9.502E-01  1.243E-03 1.0479532E+01 -1.1381789E+00 -2.2917353E+01
  9.957E+00  9.751E-01  3.108E-04 1.0377738E+01 -5.9975064E-01 -2.4164248E+01
  1.000E+01  9.004E-01  4.969E-03 1.0513255E+01 -2.2750058E+00 -2.2829213E+01
  9.957E+00  9.253E-01  2.796E-03 1.0401267E+01 -1.7989194E+00 -2.4102183E+01
  1.000E+01  8.510E-01  1.117E-02 1.0583385E+01 -3.4114647E+00 -2.2689441E+01
  9.957E+00  8.757E-01  7.761E-03 1.0454503E+01 -2.9977224E+00 -2.3981928E+01
  1.000E+01  8.019E-01  1.983E-02 1.0691079E+01 -4.5462353E+00 -2.2502329E+01
  9.957E+00  8.264E-01  1.519E-02 1.0542775E+01 -4.1956527E+00 -2.3808692E+01
  1.000E+01  7.532E-01  3.092E-02 1.0807466E+01 -5.6702829E+00 -2.2261993E+01
  9.957E+00  7.775E-01  2.507E-02 1.0658328E+01 -5.3850538E+00 -2.3581961E+01
  1.000E+01  7.052E-01  4.443E-02 1.0886888E+01 -6.7698980E+00 -2.1951428E+01
  9.957E+00  7.292E-01  3.738E-02 1.0762547E+01 -6.5528296E+00 -2.3289850E+01
  1.000E+01  6.580E-01  6.031E-02 1.0935670E+01 -7.8493350E+00 -2.1575846E+01
  9.957E+00  6.815E-01  5.207E-02 1.0818987E+01 -7.6971797E+00 -2.2926534E+01
  1.000E+01  6.116E-01  7.852E-02 1.1117095E+01 -8.9187102E+00 -2.1157005E+01
  9.957E+00  6.347E-01  6.913E-02 1.0913543E+01 -8.8316337E+00 -2.2508698E+01
  1.000E+01  5.661E-01  9.903E-02 1.1266256E+01 -9.9666541E+00 -2.0692508E+01
  9.957E+00  5.887E-01  8.849E-02 1.1120155E+01 -9.9505900E+00 -2.2046500E+01
  1.000E+01  5.217E-01  1.218E-01 1.1281311E+01 -1.0981582E+01 -2.0166171E+01
  9.957E+00  5.438E-01  1.101E-01 1.1198622E+01 -1.1035086E+01 -2.1523251E+01
  1.000E+01  4.786E-01  1.467E-01 1.1474402E+01 -1.1972684E+01 -1.9592995E+01
  9.957E+00  5.000E-01  1.340E-01 1.1253702E+01 -1.2090310E+01 -2.0942104E+01
  1.000E+01  4.367E-01  1.738E-01 1.1505635E+01 -1.2935569E+01 -1.8973673E+01
  9.957E+00  4.575E-01  1.600E-01 1.1434250E+01 -1.3121523E+01 -2.0316348E+01
  1.000E+01  3.962E-01  2.029E-01 1.1593169E+01 -1.3864203E+01 -1.8304728E+01
  9.957E+00  4.163E-01  1.881E-01 1.1424710E+01 -1.4117060E+01 -1.9636569E+01
  1.000E+01  3.572E-01  2.340E-01 1.1661442E+01 -1.4760193E+01 -1.7592574E+01
  9.957E+00  3.765E-01  2.182E-01 1.1541838E+01 -1.5078317E+01 -1.8909761E+01
  1.000E+01  3.198E-01  2.669E-01 1.1641114E+01 -1.5618844E+01 -1.6835429E+01
  9.957E+00  3.383E-01  2.502E-01 1.1536394E+01 -1.6002606E+01 -1.8135558E+01
  1.000E+01  2.841E-01  3.018E-01 1.1697054E+01 -1.6439782E+01 -1.6037734E+01
  9.957E+00  3.018E-01  2.841E-01 1.1604265E+01 -1.6887645E+01 -1.7316822E+01
  1.000E+01  2.502E-01  3.383E-01 1.1629599E+01 -1.7219501E+01 -1.5199448E+01
  9.957E+00  2.669E-01  3.198E-01 1.1549129E+01 -1.7730064E+01 -1.6454339E+01
  1.000E+01  2.182E-01  3.765E-01 1.1635308E+01 -1.7957578E+01 -1.4323863E+01
  9.957E+00  2.340E-01  3.572E-01 1.1569507E+01 -1.8530623E+01 -1.5552442E+01
  1.000E+01  1.881E-01  4.163E-01 1.1518823E+01 -1.8650989E+01 -1.3412582E+01
  9.957E+00  2.029E-01  3.962E-01 1.1502467E+01 -1.9283482E+01 -1.4610236E+01
  1.000E+01  1.600E-01  4.575E-01 1.1528354E+01 -1.9299040E+01 -1.2467666E+01
  9.957E+00  1.738E-01  4.367E-01 1.1414448E+01 -1.9991297E+01 -1.3633565E+01
  1.000E+01  1.340E-01  5.000E-01 1.1348460E+01 -1.9896669E+01 -1.1489627E+01
  9.957E+00  1.467E-01  4.786E-01 1.1384624E+01 -2.0646892E+01 -1.2620132E+01
  1.000E+01  1.101E-01  5.438E-01 1.1294292E+01 -2.0451531E+01 -1.0487088E+01
  9.957E+00  1.218E-01  5.217E-01 1.1191307E+01 -2.1252968E+01 -1.1575676E+01
  1.000E+01  8.849E-02  5.887E-01 1.1215408E+01 -2.0948596E+01 -9.4546503E+00
  9.957E+00  9.903E-02  5.661E-01 1.1177175E+01 -2.1810619E+01 -1.0507259E+01
  1.000E+01  6.913E-02  6.347E-01 1.1009798E+01 -2.1388506E+01 -8.3924719E+00
  9.957E+00  7.852E-02  6.116E-01 1.1028803E+01 -2.2302910E+01 -9.4032032E+00
  1.000E+01  5.207E-02  6.815E-01 1.0916132E+01 -2.1789019E+01 -7.3174944E+00
  9.957E+00  6.031E-02  6.580E-01 1.0846773E+01 -2.2742987E+01 -8.2726642E+00
  1.000E+01  3.738E-02  7.292E-01 1.0858983E+01 -2.2135761E+01 -6.2286210E+00
  9.957E+00  4.443E-02  7.052E-01 1.0798552E+01 -2.3137619E+01 -7.1336847E+00
  1.000E+01  2.507E-02  7.775E-01 1.0753842E+01 -2.2410113E+01 -5.1149005E+00
  9.957E+00  3.092E-02  7.532E-01 1.0720423E+01 -2.3467476E+01 -5.9779844E+00
  1.000E+01  1.519E-02  8.264E-01 1.0638186E+01 -2.2622187E+01 -3.9827588E+00
  9.957E+00  1.983E-02  8.019E-01 1.0604802E+01 -2.3724986E+01 -4.7966475E+00
  1.000E+01  7.761E-03  8.757E-01 1.0550572E+01 -2.2786234E+01 -2.8458115E+00
  9.957E+00  1.117E-02  8.510E-01 1.0496769E+01 -2.3924858E+01 -3.6007342E+00
  1.000E+01  2.796E-03  9.253E-01 1.0498234E+01 -2.2901897E+01 -1.7083758E+00
  9.957E+00  4.969E-03  9.004E-01 1.0425793E+01 -2.4072617E+01 -2.4008626E+00
  1.000E+01  3.108E-04  9.751E-01 1.0475274E+01 -2.2961721E+01 -5.6975907E-01
  9.957E+00  1.243E-03  9.502E-01 1.0391338E+01 -2.4165010E+01 -1.2007631E+00
  1.000E+01  3.108E-04  1.025E+00 1.0475274E+01 -2.2961737E+01 5.6977381E-01
  9.957E+00  0.000E+00  1.000E+00 1.0381683E+01 -2.4196492E+01 7.0507853E-06
  1.000E+01  2.796E-03  1.075E+00 1.0498234E+01 -2.2901945E+01 1.7083857E+00
  9.957E+00  1.243E-03  1.050E+00 1.0391338E+01 -2.4165039E+01 1.2007744E+00
  1.000E+01  7.761E-03  1.124E+00 1.0550573E+01 -2.2786290E+01 2.8458145E+00
  9.957E+00  4.969E-03  1.100E+00 1.0425793E+01 -2.4072679E+01 2.4008667E+00
  1.000E+01  1.519E-02  1.174E+00 1.0638192E+01 -2.2622171E+01 3.9827581E+00
  9.957E+00  1.117E-02  1.149E+00 1.0496771E+01 -2.3924902E+01 3.6007308E+00
  1.000E+01  2.507E-02  1.223E+00 1.0753854E+01 -2.2409979E+01 5.1149002E+00
  9.957E+00  1.983E-02  1.198E+00 1.0604810E+01 -2.3724924E+01 4.7966424E+00
  1.000E+01  3.738E-02  1.271E+00 1.0858997E+01 -2.2135688E+01 6.2286180E+00
  9.957E+00  3.092E-02  1.247E+00 1.0720437E+01 -2.3467346E+01 5.9779835E+00
  1.000E+01  5.207E-02  1.318E+00 1.0916143E+01 -2.1789142E+01 7.3174775E+00
  9.957E+00  4.443E-02  1.295E+00 1.0798567E+01 -2.3137656E+01 7.1336799E+00
  1.000E+01  6.913E-02  1.365E+00 1.1009809E+01 -2.1388467E+01 8.3924395E+00
  9.957E+00  6.031E-02  1.342E+00 1.0846785E+01 -2.2743114E+01 8.2726448E+00
  1.000E+01  8.849E-02  1.411E+00 1.1215421E+01 -2.0948419E+01 9.4546193E+00
  9.957E+00  7.852E-02  1.388E+00 1.1028818E+01 -2.2302761E+01 9.4031734E+00
  1.000E+01  1.101E-01  1.456E+00 1.1294302E+01 -2.0451637E+01 1.0487067E+01
  9.957E+00  9.903E-02  1.434E+00 1.1177189E+01 -2.1810568E+01 1.0507239E+01
  1.000E+01  1.340E-01  1.500E+00 1.1348472E+01 -1.9896691E+01 1.1489605E+01
  9.957E+00  1.218E-01  1.478E+00 1.1191318E+01 -2.1253127E+01 1.1575663E+01
  1.000E+01  1.600E-01  1.543E+00 1.1528365E+01 -1.9298975E+01 1.2467649E+01
  9.957E+00  1.467E-01  1.521E+00 1.1384639E+01 -2.0646822E+01 1.2620116E+01
  1.000E+01  1.881E-01  1.584E+00 1.1518833E+01 -1.8651061E+01 1.3412581E+01
  9.957E+00  1.738E-01  1.563E+00 1.1414460E+01 -1.9991328E+01 1.3633562E+01
  1.000E+01  2.182E-01  1.623E+00 1.1635318E+01 -1.7957553E+01 1.4323866E+01
  9.957E+00  2.029E-01  1.604E+00 1.1502479E+01 -1.9283516E+01 1.4610243E+01
  1.000E+01  2.502E-01  1.662E+00 1.1629608E+01 -1.7219519E+01 1.5199454E+01
  9.957E+00  2.340E-01  1.643E+00 1.1569518E+01 -1.8530613E+01 1.5552454E+01
  1.000E+01  2.841E-01  1.698E+00 1.1697063E+01 -1.6439775E+01 1.6037740E+01
  9.957E+00  2.669E-01  1.680E+00 1.1549140E+01 -1.7730097E+01 1.6454353E+01
  1.000E+01  3.198E-01  1.733E+00 1.1641119E+01 -1.5618832E+01 1.6835431E+01
  9.957E+00  3.018E-01  1.716E+00 1.1604276E+01 -1.6887624E+01 1.7316832E+01
  1.000E+01  3.572E-01  1.766E+00 1.1661447E+01 -1.4760185E+01 1.7592571E+01
  9.957E+00  3.383E-01  1.750E+00 1.1536403E+01 -1.6002612E+01 1.8135565E+01
  1.000E+01  3.962E-01  1.797E+00 1.1593175E+01 -1.3864189E+01 1.8304720E+01
  9.957E+00  3.765E-01  1.782E+00 1.1541846E+01 -1.5078309E+01 1.8909763E+01
  1.000E+01  4.367E-01  1.826E+00 1.1505640E+01 -1.2935556E+01 1.8973662E+01
  9.957E+00  4.163E-01  1.812E+00 1.1424717E+01 -1.4117056E+01 1.9636567E+01
  1.000E+01  4.786E-01  1.853E+00 1.1474404E+01 -1.1972671E+01 1.9592981E+01
  9.957E+00  4.575E-01  1.840E+00 1.1434256E+01 -1.3121511E+01 2.0316343E+01
  1.000E+01  5.217E-01  1.878E+00 1.1281311E+01 -1.0981573E+01 2.0166155E+01
  9.957E+00  5.000E-01  1.866E+00 1.1253709E+01 -1.2090308E+01 2.0942096E+01
  1.000E+01  5.661E-01  1.901E+00 1.1266253E+01 -9.9666339E+00 2.0692488E+01
  9.957E+00  5.438E-01  1.890E+00 1.1198630E+01 -1.1035066E+01 2.1523239E+01
  1.000E+01  6.116E-01  1.921E+00 1.1117093E+01 -8.9187022E+00 2.1156982E+01
  9.957E+00  5.887E-01  1.912E+00 1.1120162E+01 -9.9505744E+00 2.2046482E+01
  1.000E+01  6.580E-01  1.940E+00 1.0935672E+01 -7.8493199E+00 2.1575819E+01
  9.957E+00  6.347E-01  1.931E+00 1.0913548E+01 -8.8316242E+00 2.2508678E+01
  1.000E+01  7.052E-01  1.956E+00 1.0886891E+01 -6.7698819E+00 2.1951397E+01
  9.957E+00  6.815E-01  1.948E+00 1.0818988E+01 -7.6971605E+00 2.2926509E+01
  1.000E+01  7.532E-01  1.969E+00 1.0807468E+01 -5.6702663E+00 2.2261957E+01
  9.957E+00  7.292E-01  1.963E+00 1.0762546E+01 -6.5528179E+00 2.3289820E+01
  1.000E+01  8.019E-01  1.980E+00 1.0691078E+01 -4.5462161E+00 2.2502289E+01
  9.957E+00  7.775E-01  1.975E+00 1.0658328E+01 -5.3850438E+00 2.3581928E+01
  1.000E+01  8.510E-01  1.989E+00 1.0583380E+01 -3.4114468E+00 2.2689398E+01
  9.957E+00  8.264E-01  1.985E+00 1.0542777E+01 -4.1956452E+00 2.3808658E+01
  1.000E+01  9.004E-01  1.995E+00 1.0513249E+01 -2.2749907E+00 2.2829166E+01
  9.957E+00  8.757E-01  1.992E+00 1.0454506E+01 -2.9977190E+00 2.3981892E+01
  1.000E+01  9.502E-01  1.999E+00 1.0479525E+01 -1.1381689E+00 2.2917303E+01
  9.957E+00  9.253E-01  1.997E+00 1.0401268E+01 -1.7989138E+00 2.4102145E+01
  1.000E+01  1.000E+00  2.000E+00 1.0470126E+01 -8.6820772E-08 2.2947587E+01
  9.957E+00  9.751E-01  2.000E+00 1.0377739E+01 -5.9974607E-01 2.4164207E+01
  1.000E+01  1.050E+00  1.999E+00 1.0479524E+01 1.1381683E+00 2.2917303E+01
  9.957E+00  1.025E+00  2.000E+00 1.0377738E+01 5.9974663E-01 2.4164206E+01
  1.000E+01  1.100E+00  1.995E+00 1.0513246E+01 2.2749904E+00 2.2829165E+01
  9.957E+00  1.075E+00  1.997E+00 1.0401266E+01 1.7989157E+00 2.4102143E+01
  1.000E+01  1.149E+00  1.989E+00 1.0583377E+01 3.4114462E+00 2.2689397E+01
  9.957E+00  1.124E+00  1.992E+00 1.0454502E+01 2.9977183E+00 2.3981888E+01