# TIME = 14.000000
VARIABLES = X, Y, Z, FX, FY, FZ
ZONE N=29232 E=58212 F=FEPOINT ET=TRIANGLE
  0.000E+00  9.502E-01  1.243E-03 6.4099294E+00 -5.5731583E-02 -1.1245274E+00
  0.000E+00  1.000E+00  0.000E+00 6.3991599E+00 -3.9530489E-06 -1.1259807E+00
  4.318E-02  9.751E-01  3.108E-04 6.4018229E+00 -2.9686459E-02 -1.1994244E+00
  0.000E+00  1.050E+00  1.243E-03 6.4099284E+00 5.5723820E-02 -1.1245267E+00
  4.318E-02  1.025E+00  3.108E-04 6.4018224E+00 2.9678958E-02 -1.1994241E+00
  0.000E+00  1.100E+00  4.969E-03 6.4460041E+00 1.1159243E-01 -1.1203135E+00
  4.318E-02  1.075E+00  2.796E-03 6.4264710E+00 8.9112181E-02 -1.1963769E+00
  0.000E+00  1.149E+00  1.117E-02 6.5144667E+00 1.6776423E-01 -1.1136058E+00
  4.318E-02  1.124E+00  7.761E-03 6.4791193E+00 1.4878851E-01 -1.1905216E+00
  0.000E+00  1.198E+00  1.983E-02 6.6134563E+00 2.2392281E-01 -1.1043820E+00
  4.318E-02  1.174E+00  1.519E-02 6.5622197E+00 2.0874482E-01 -1.1820788E+00
  0.000E+00  1.247E+00  3.092E-02 6.7218060E+00 2.7894743E-01 -1.0920575E+00
  4.318E-02  1.223E+00  2.507E-02 6.6688225E+00 2.6816055E-01 -1.1707136E+00
  0.000E+00  1.295E+00  4.443E-02 6.8110004E+00 3.3197520E-01 -1.0761039E+00
  4.318E-02  1.271E+00  3.738E-02 6.7721375E+00 3.2573212E-01 -1.1556256E+00
  0.000E+00  1.342E+00  6.031E-02 6.8876674E+00 3.8429255E-01 -1.0576479E+00
  4.318E-02  1.318E+00  5.207E-02 6.8495377E+00 3.8157240E-01 -1.1370536E+00
  0.000E+00  1.388E+00  7.852E-02 7.0462069E+00 4.3719580E-01 -1.0377081E+00
  4.318E-02  1.365E+00  6.913E-02 6.9559130E+00 4.3766207E-01 -1.1166245E+00
  0.000E+00  1.434E+00  9.903E-02 7.1790355E+00 4.8901533E-01 -1.0150101E+00
  4.318E-02  1.411E+00  8.849E-02 7.1281740E+00 4.9378961E-01 -1.0941499E+00
  0.000E+00  1.478E+00  1.218E-01 7.2337426E+00 5.3858178E-01 -9.8898828E-01
  4.318E-02  1.456E+00  1.101E-01 7.2180054E+00 5.4773394E-01 -1.0680699E+00
  0.000E+00  1.521E+00  1.467E-01 7.3934628E+00 5.8713004E-01 -9.6090881E-01
  4.318E-02  1.500E+00  1.340E-01 7.2958543E+00 5.9984623E-01 -1.0391153E+00
  0.000E+00  1.563E+00  1.738E-01 7.4390525E+00 6.3447697E-01 -9.3057400E-01
  4.318E-02  1.543E+00  1.600E-01 7.4419548E+00 6.5110601E-01 -1.0081228E+00
  0.000E+00  1.604E+00  2.029E-01 7.5274301E+00 6.7999726E-01 -8.9772845E-01
  4.318E-02  1.584E+00  1.881E-01 7.4657988E+00 7.0057399E-01 -9.7440677E-01
  0.000E+00  1.643E+00  2.340E-01 7.5817734E+00 7.2390464E-01 -8.6271777E-01
  4.318E-02  1.623E+00  2.182E-01 7.5600371E+00 7.4820142E-01 -9.3823202E-01
  0.000E+00  1.680E+00  2.669E-01 7.5841428E+00 7.6601857E-01 -8.2557443E-01
  4.318E-02  1.662E+00  2.502E-01 7.5725914E+00 7.9408769E-01 -8.9979903E-01
  0.000E+00  1.716E+00  3.018E-01 7.6175273E+00 8.0620143E-01 -7.8634322E-01
  4.318E-02  1.698E+00  2.841E-01 7.6190231E+00 8.3791396E-01 -8.5907853E-01
  0.000E+00  1.750E+00  3.383E-01 7.5711040E+00 8.4441661E-01 -7.4521124E-01
  4.318E-02  1.733E+00  3.198E-01 7.5856335E+00 8.7972088E-01 -8.1626162E-01
  0.000E+00  1.782E+00  3.765E-01 7.5585452E+00 8.8048388E-01 -7.0215024E-01
  4.318E-02  1.766E+00  3.572E-01 7.5832706E+00 9.1929601E-01 -7.7138498E-01
  0.000E+00  1.812E+00  4.163E-01 7.4643171E+00 9.1443590E-01 -6.5745276E-01
  4.318E-02  1.797E+00  3.962E-01 7.5289273E+00 9.5660795E-01 -7.2460031E-01
  0.000E+00  1.840E+00  4.575E-01 7.4404603E+00 9.4607443E-01 -6.1102977E-01
  4.318E-02  1.826E+00  4.367E-01 7.4405457E+00 9.9160175E-01 -6.7609124E-01
  0.000E+00  1.866E+00  5.000E-01 7.2943724E+00 9.7516269E-01 -5.6292546E-01
  4.318E-02  1.853E+00  4.786E-01 7.3949656E+00 1.0239291E+00 -6.2563942E-01
  0.000E+00  1.890E+00  5.438E-01 7.2165187E+00 1.0023379E+00 -5.1402037E-01
  4.318E-02  1.878E+00  5.217E-01 7.2352309E+00 1.0538500E+00 -5.7390806E-01
  0.000E+00  1.912E+00  5.887E-01 7.1266826E+00 1.0268067E+00 -4.6339430E-01
  4.318E-02  1.901E+00  5.661E-01 7.1805377E+00 1.0815745E+00 -5.2109291E-01
  0.000E+00  1.931E+00  6.347E-01 6.9544359E+00 1.0479018E+00 -4.1071993E-01
  4.318E-02  1.921E+00  6.116E-01 7.0477047E+00 1.1057653E+00 -4.6587751E-01
  0.000E+00  1.948E+00  6.815E-01 6.8480593E+00 1.0670768E+00 -3.5808420E-01
  4.318E-02  1.940E+00  6.580E-01 6.8891542E+00 1.1270140E+00 -4.0950524E-01
  0.000E+00  1.963E+00  7.292E-01 6.7706528E+00 1.0845039E+00 -3.0568405E-01
  4.318E-02  1.956E+00  7.052E-01 6.8124969E+00 1.1466761E+00 -3.5375337E-01
  0.000E+00  1.975E+00  7.775E-01 6.6673381E+00 1.0986635E+00 -2.5165797E-01
  4.318E-02  1.969E+00  7.532E-01 6.7233083E+00 1.1636749E+00 -2.9724263E-01
  0.000E+00  1.985E+00  8.264E-01 6.5607375E+00 1.1093309E+00 -1.9589919E-01
  4.318E-02  1.980E+00  8.019E-01 6.6149561E+00 1.1768082E+00 -2.3860539E-01
  0.000E+00  1.992E+00  8.757E-01 6.4776379E+00 1.1172548E+00 -1.3963297E-01
  4.318E-02  1.989E+00  8.510E-01 6.5159619E+00 1.1866361E+00 -1.7876395E-01
  0.000E+00  1.997E+00  9.253E-01 6.4249905E+00 1.1227506E+00 -8.3629591E-02
  4.318E-02  1.995E+00  9.004E-01 6.4474981E+00 1.1937825E+00 -1.1891058E-01
  0.000E+00  2.000E+00  9.751E-01 6.4003425E+00 1.1256111E+00 -2.7853281E-02
  4.318E-02  1.999E+00  9.502E-01 6.4114250E+00 1.1982722E+00 -5.9379544E-02
  0.000E+00  2.000E+00  1.025E+00 6.4003425E+00 1.1256111E+00 2.7859712E-02
  4.318E-02  2.000E+00  1.000E+00 6.4006571E+00 1.1998215E+00 3.2964840E-06
  0.000E+00  1.997E+00  1.075E+00 6.4249905E+00 1.1227506E+00 8.3636034E-02
  4.318E-02  1.999E+00  1.050E+00 6.4114250E+00 1.1982722E+00 5.9386129E-02
  0.000E+00  1.992E+00  1.124E+00 6.4776379E+00 1.1172550E+00 1.3963942E-01
  4.318E-02  1.995E+00  1.100E+00 6.4474981E+00 1.1937824E+00 1.1891715E-01
  0.000E+00  1.985E+00  1.174E+00 6.5607376E+00 1.1093327E+00 1.9590563E-01
  4.318E-02  1.989E+00  1.149E+00 6.5159619E+00 1.1866366E+00 1.7877050E-01
  0.000E+00  1.975E+00  1.223E+00 6.6673381E+00 1.0986687E+00 2.5166440E-01
  4.318E-02  1.980E+00  1.198E+00 6.6149562E+00 1.1768116E+00 2.3861194E-01
  0.000E+00  1.963E+00  1.271E+00 6.7706527E+00 1.0845098E+00 3.0569046E-01
  4.318E-02  1.969E+00  1.247E+00 6.7233084E+00 1.1636812E+00 2.9724915E-01
  0.000E+00  1.948E+00  1.318E+00 6.8480593E+00 1.0670779E+00 3.5809061E-01
  4.318E-02  1.956E+00  1.295E+00 6.8124969E+00 1.1466798E+00 3.5375988E-01
  0.000E+00  1.931E+00  1.365E+00 6.9544360E+00 1.0479040E+00 4.1072633E-01
  4.318E-02  1.940E+00  1.342E+00 6.8891543E+00 1.1270134E+00 4.0951172E-01
  0.000E+00  1.912E+00  1.411E+00 7.1266820E+00 1.0268166E+00 4.6340077E-01
  4.318E-02  1.921E+00  1.388E+00 7.0477050E+00 1.1057723E+00 4.6588398E-01
  0.000E+00  1.890E+00  1.456E+00 7.2165187E+00 1.0023425E+00 5.1402675E-01
  4.318E-02  1.901E+00  1.434E+00 7.1805379E+00 1.0815834E+00 5.2109947E-01
  0.000E+00  1.866E+00  1.500E+00 7.2943725E+00 9.7516638E-01 5.6293184E-01
  4.318E-02  1.878E+00  1.478E+00 7.2352310E+00 1.0538512E+00 5.7391448E-01
  0.000E+00  1.840E+00  1.543E+00 7.4404605E+00 9.4608459E-01 6.1103624E-01
  4.318E-02  1.853E+00  1.521E+00 7.3949657E+00 1.0239374E+00 6.2564598E-01
  0.000E+00  1.812E+00  1.584E+00 7.4643172E+00 9.1444144E-01 6.5745908E-01
  4.318E-02  1.826E+00  1.563E+00 7.4405457E+00 9.9160958E-01 6.7609770E-01
  0.000E+00  1.782E+00  1.623E+00 7.5585455E+00 8.8049235E-01 7.0215663E-01
  4.318E-02  1.797E+00  1.604E+00 7.5289272E+00 9.5661425E-01 7.2460681E-01
  0.000E+00  1.750E+00  1.662E+00 7.5711044E+00 8.4442453E-01 7.4521753E-01
  4.318E-02  1.766E+00  1.643E+00 7.5832704E+00 9.1930546E-01 7.7139152E-01
  0.000E+00  1.716E+00  1.698E+00 7.6175276E+00 8.0620950E-01 7.8634951E-01
  4.318E-02  1.733E+00  1.680E+00 7.5856332E+00 8.7972824E-01 8.1626805E-01
  0.000E+00  1.680E+00  1.733E+00 7.5841427E+00 7.6602770E-01 8.2558079E-01
  4.318E-02  1.698E+00  1.716E+00 7.6190229E+00 8.3792324E-01 8.5908495E-01
  0.000E+00  1.643E+00  1.766E+00 7.5817728E+00 7.2391416E-01 8.6272430E-01
  4.318E-02  1.662E+00  1.750E+00 7.5725915E+00 7.9409561E-01 8.9980517E-01
  0.000E+00  1.604E+00  1.797E+00 7.5274295E+00 6.8000708E-01 8.9773485E-01
  4.318E-02  1.623E+00  1.782E+00 7.5600375E+00 7.4820972E-01 9.3823809E-01
  0.000E+00  1.563E+00  1.826E+00 7.4390528E+00 6.3448500E-01 9.3057972E-01
  4.318E-02  1.584E+00  1.812E+00 7.4657991E+00 7.0058264E-01 9.7441293E-01
  0.000E+00  1.521E+00  1.853E+00 7.3934642E+00 5.8713592E-01 9.6091353E-01
  4.318E-02  1.543E+00  1.840E+00 7.4419542E+00 6.5111658E-01 1.0081293E+00
  0.000E+00  1.478E+00  1.878E+00 7.2337442E+00 5.3858826E-01 9.8899274E-01
  4.318E-02  1.500E+00  1.866E+00 7.2958529E+00 5.9985776E-01 1.0391220E+00
  0.000E+00  1.434E+00  1.901E+00 7.1790362E+00 4.8902703E-01 1.0150157E+00
  4.318E-02  1.456E+00  1.890E+00 7.2180037E+00 5.4774412E-01 1.0680759E+00
  0.000E+00  1.388E+00  1.921E+00 7.0462065E+00 4.3721284E-01 1.0377153E+00
  4.318E-02  1.411E+00  1.912E+00 7.1281729E+00 4.9379607E-01 1.0941544E+00
  0.000E+00  1.342E+00  1.940E+00 6.8876659E+00 3.8430950E-01 1.0576557E+00
  4.318E-02  1.365E+00  1.931E+00 6.9559134E+00 4.3766650E-01 1.1166276E+00
  0.000E+00  1.295E+00  1.956E+00 6.8109978E+00 3.3198592E-01 1.0761104E+00
  4.318E-02  1.318E+00  1.948E+00 6.8495398E+00 3.8157953E-01 1.1370563E+00
  0.000E+00  1.247E+00  1.969E+00 6.7218031E+00 2.7895101E-01 1.0920615E+00
  4.318E-02  1.271E+00  1.963E+00 6.7721403E+00 3.2574409E-01 1.1556290E+00
  0.000E+00  1.198E+00  1.980E+00 6.6134546E+00 2.2392380E-01 1.1043835E+00
  4.318E-02  1.223E+00  1.975E+00 6.6688243E+00 2.6817582E-01 1.1707178E+00
  0.000E+00  1.149E+00  1.989E+00 6.5144669E+00 1.6776712E-01 1.1136054E+00
  4.318E-02  1.174E+00  1.985E+00 6.5622195E+00 2.0876012E-01 1.1820836E+00
  0.000E+00  1.100E+00  1.995E+00 6.4460058E+00 1.1159863E-01 1.1203119E+00
  4.318E-02  1.124E+00  1.992E+00 6.4791176E+00 1.4880208E-01 1.1905265E+00
  0.000E+00  1.050E+00  1.999E+00 6.4099307E+00 5.5732422E-02 1.1245241E+00
  4.318E-02  1.075E+00  1.997E+00 6.4264686E+00 8.9123792E-02 1.1963814E+00
  0.000E+00  1.000E+00  2.000E+00 6.3991623E+00 6.1911250E-06 1.1259773E+00
  4.318E-02  1.025E+00  2.000E+00 6.4018200E+00 2.9689470E-02 1.1994280E+00
  0.000E+00  9.502E-01  1.999E+00 6.4099317E+00 -5.5720189E-02 1.1245234E+00
  4.318E-02  9.751E-01  2.000E+00 6.4018205E+00 -2.9676810E-02 1.1994277E+00
  0.000E+00  9.004E-01  1.995E+00 6.4460078E+00 -1.1158636E-01 1.1203105E+00
  4.318E-02  9.253E-01  1.997E+00 6.4264701E+00 -8.9111247E-02 1.1963804E+00
  0.000E+00  8.510E-01  1.989E+00 6.5144699E+00 -1.6775494E-01 1.1136034E+00
  4.318E-02  8.757E-01  1.992E+00 6.4791200E+00 -1.4878948E-01 1.1905248E+00
  0.000E+00  8.019E-01  1.980E+00 6.6134585E+00 -2.2391179E-01 1.1043809E+00
  4.318E-02  8.264E-01  1.985E+00 6.5622229E+00 -2.0874773E-01 1.1820814E+00
  0.000E+00  7.532E-01  1.969E+00 6.7218079E+00 -2.7893907E-01 1.0920583E+00
  4.318E-02  7.775E-01  1.975E+00 6.6688286E+00 -2.6816349E-01 1.1707150E+00
  0.000E+00  7.052E-01  1.956E+00 6.8110035E+00 -3.3197416E-01 1.0761067E+00
  4.318E-02  7.292E-01  1.963E+00 6.7721455E+00 -3.2573194E-01 1.1556256E+00
  0.000E+00  6.580E-01  1.940E+00 6.8876724E+00 -3.8429788E-01 1.0576514E+00
  4.318E-02  6.815E-01  1.948E+00 6.8495458E+00 -3.8156748E-01 1.1370524E+00
  0.000E+00  6.116E-01  1.921E+00 7.0462139E+00 -4.3720159E-01 1.0377106E+00
  4.318E-02  6.347E-01  1.931E+00 6.9559202E+00 -4.3765479E-01 1.1166231E+00
  0.000E+00  5.661E-01  1.901E+00 7.1790442E+00 -4.8901564E-01 1.0150104E+00
  4.318E-02  5.887E-01  1.912E+00 7.1281803E+00 -4.9378451E-01 1.0941494E+00
  0.000E+00  5.217E-01  1.878E+00 7.2337528E+00 -5.3857745E-01 9.8898712E-01
  4.318E-02  5.438E-01  1.890E+00 7.2180120E+00 -5.4773260E-01 1.0680705E+00
  0.000E+00  4.786E-01  1.853E+00 7.3934734E+00 -5.8712515E-01 9.6090752E-01
  4.318E-02  5.000E-01  1.866E+00 7.2958618E+00 -5.9984680E-01 1.0391162E+00
  0.000E+00  4.367E-01  1.826E+00 7.4390626E+00 -6.3447471E-01 9.3057337E-01
  4.318E-02  4.575E-01  1.840E+00 7.4419637E+00 -6.5110560E-01 1.0081232E+00
  0.000E+00  3.962E-01  1.797E+00 7.5274398E+00 -6.7999675E-01 8.9772818E-01
  4.318E-02  4.163E-01  1.812E+00 7.4658090E+00 -7.0057215E-01 9.7440649E-01
  0.000E+00  3.572E-01  1.766E+00 7.5817835E+00 -7.2390441E-01 8.6271733E-01
  4.318E-02  3.765E-01  1.782E+00 7.5600480E+00 -7.4819913E-01 9.3823132E-01
  0.000E+00  3.198E-01  1.733E+00 7.5841539E+00 -7.6601766E-01 8.2557356E-01
  4.318E-02  3.383E-01  1.750E+00 7.5726023E+00 -7.9408579E-01 8.9979816E-01
  0.000E+00  2.841E-01  1.698E+00 7.6175390E+00 -8.0620015E-01 7.8634200E-01
  4.318E-02  3.018E-01  1.716E+00 7.6190341E+00 -8.3791255E-01 8.5907760E-01
  0.000E+00  2.502E-01  1.662E+00 7.5711161E+00 -8.4441537E-01 7.4520980E-01
  4.318E-02  2.669E-01  1.680E+00 7.5856447E+00 -8.7971960E-01 8.1626055E-01
  0.000E+00  2.182E-01  1.623E+00 7.5585574E+00 -8.8048277E-01 7.0214861E-01
  4.318E-02  2.340E-01  1.643E+00 7.5832821E+00 -9.1929473E-01 7.7138369E-01
  0.000E+00  1.881E-01  1.584E+00 7.4643294E+00 -9.1443492E-01 6.5745094E-01
  4.318E-02  2.029E-01  1.604E+00 7.5289392E+00 -9.5660664E-01 7.2459878E-01
  0.000E+00  1.600E-01  1.543E+00 7.4404727E+00 -9.4607351E-01 6.1102775E-01
  4.318E-02  1.738E-01  1.563E+00 7.4405578E+00 -9.9160043E-01 6.7608948E-01
  0.000E+00  1.340E-01  1.500E+00 7.2943848E+00 -9.7516179E-01 5.6292324E-01
  4.318E-02  1.467E-01  1.521E+00 7.3949778E+00 -1.0239278E+00 6.2563744E-01
  0.000E+00  1.101E-01  1.456E+00 7.2165312E+00 -1.0023370E+00 5.1401792E-01
  4.318E-02  1.218E-01  1.478E+00 7.2352433E+00 -1.0538487E+00 5.7390587E-01
  0.000E+00  8.849E-02  1.411E+00 7.1266950E+00 -1.0268058E+00 4.6339171E-01
  4.318E-02  9.903E-02  1.434E+00 7.1805502E+00 -1.0815732E+00 5.2109054E-01
  0.000E+00  6.913E-02  1.365E+00 6.9544485E+00 -1.0479009E+00 4.1071712E-01
  4.318E-02  7.852E-02  1.388E+00 7.0477172E+00 -1.1057640E+00 4.6587490E-01
  0.000E+00  5.207E-02  1.318E+00 6.8480719E+00 -1.0670759E+00 3.5808122E-01
  4.318E-02  6.031E-02  1.342E+00 6.8891668E+00 -1.1270126E+00 4.0950248E-01
  0.000E+00  3.738E-02  1.271E+00 6.7706653E+00 -1.0845030E+00 3.0568090E-01
  4.318E-02  4.443E-02  1.295E+00 6.8125094E+00 -1.1466748E+00 3.5375045E-01
  0.000E+00  2.507E-02  1.223E+00 6.6673507E+00 -1.0986625E+00 2.5165469E-01
  4.318E-02  3.092E-02  1.247E+00 6.7233208E+00 -1.1636735E+00 2.9723956E-01
  0.000E+00  1.519E-02  1.174E+00 6.5607502E+00 -1.1093298E+00 1.9589580E-01
  4.318E-02  1.983E-02  1.198E+00 6.6149686E+00 -1.1768068E+00 2.3860220E-01
  0.000E+00  7.761E-03  1.124E+00 6.4776505E+00 -1.1172537E+00 1.3962950E-01
  4.318E-02  1.117E-02  1.149E+00 6.5159744E+00 -1.1866346E+00 1.7876065E-01
  0.000E+00  2.796E-03  1.075E+00 6.4250031E+00 -1.1227494E+00 8.3626040E-02
  4.318E-02  4.969E-03  1.100E+00 6.4475106E+00 -1.1937810E+00 1.1890721E-01
  0.000E+00  3.108E-04  1.025E+00 6.4003550E+00 -1.1256098E+00 2.7849672E-02
  4.318E-02  1.243E-03  1.050E+00 6.4114375E+00 -1.1982706E+00 5.9376122E-02
  0.000E+00  3.108E-04  9.751E-01 6.4003551E+00 -1.1256098E+00 -2.7863337E-02
  4.318E-02  0.000E+00  1.000E+00 6.4006696E+00 -1.1998199E+00 -6.7482703E-06
  0.000E+00  2.796E-03  9.253E-01 6.4250031E+00 -1.1227492E+00 -8.3639635E-02
  4.318E-02  1.243E-03  9.502E-01 6.4114375E+00 -1.1982705E+00 -5.9389597E-02
  0.000E+00  7.761E-03  8.757E-01 6.4776505E+00 -1.1172535E+00 -1.3964298E-01
  4.318E-02  4.969E-03  9.004E-01 6.4475106E+00 -1.1937807E+00 -1.1892061E-01
  0.000E+00  1.519E-02  8.264E-01 6.5607502E+00 -1.1093311E+00 -1.9590913E-01
  4.318E-02  1.117E-02  8.510E-01 6.5159744E+00 -1.1866348E+00 -1.7877394E-01
  0.000E+00  2.507E-02  7.775E-01 6.6673508E+00 -1.0986671E+00 -2.5166782E-01
  4.318E-02  1.983E-02  8.019E-01 6.6149687E+00 -1.1768097E+00 -2.3861531E-01
  0.000E+00  3.738E-02  7.292E-01 6.7706654E+00 -1.0845081E+00 -3.0569378E-01
  4.318E-02  3.092E-02  7.532E-01 6.7233209E+00 -1.1636793E+00 -2.9725243E-01
  0.000E+00  5.207E-02  6.815E-01 6.8480720E+00 -1.0670760E+00 -3.5809380E-01
  4.318E-02  4.443E-02  7.052E-01 6.8125095E+00 -1.1466778E+00 -3.5376306E-01
  0.000E+00  6.913E-02  6.347E-01 6.9544486E+00 -1.0479021E+00 -4.1072937E-01
  4.318E-02  6.031E-02  6.580E-01 6.8891668E+00 -1.1270113E+00 -4.0951478E-01
  0.000E+00  8.849E-02  5.887E-01 7.1266948E+00 -1.0268147E+00 -4.6340361E-01
  4.318E-02  7.852E-02  6.116E-01 7.0477175E+00 -1.1057702E+00 -4.6588692E-01
  0.000E+00  1.101E-01  5.438E-01 7.2165313E+00 -1.0023404E+00 -5.1402947E-01
  4.318E-02  9.903E-02  5.661E-01 7.1805504E+00 -1.0815812E+00 -5.2110220E-01
  0.000E+00  1.340E-01  5.000E-01 7.2943850E+00 -9.7516425E-01 -5.6293436E-01
  4.318E-02  1.218E-01  5.217E-01 7.2352435E+00 -1.0538489E+00 -5.7391705E-01
  0.000E+00  1.600E-01  4.575E-01 7.4404729E+00 -9.4608240E-01 -6.1103857E-01
  4.318E-02  1.467E-01  4.786E-01 7.3949781E+00 -1.0239351E+00 -6.2564837E-01
  0.000E+00  1.881E-01  4.163E-01 7.4643294E+00 -9.1443925E-01 -6.5746122E-01
  4.318E-02  1.738E-01  4.367E-01 7.4405581E+00 -9.9160713E-01 -6.7609989E-01
  0.000E+00  2.182E-01  3.765E-01 7.5585574E+00 -8.8049019E-01 -7.0215859E-01
  4.318E-02  2.029E-01  3.962E-01 7.5289395E+00 -9.5661170E-01 -7.2460878E-01
  0.000E+00  2.502E-01  3.383E-01 7.5711160E+00 -8.4442241E-01 -7.4521930E-01
  4.318E-02  2.340E-01  3.572E-01 7.5832826E+00 -9.1930280E-01 -7.7139327E-01
  0.000E+00  2.841E-01  3.018E-01 7.6175390E+00 -8.0620733E-01 -7.8635107E-01
  4.318E-02  2.669E-01  3.198E-01 7.5856453E+00 -8.7972549E-01 -8.1626958E-01
  0.000E+00  3.198E-01  2.669E-01 7.5841541E+00 -7.6602508E-01 -8.2558199E-01
  4.318E-02  3.018E-01  2.841E-01 7.6190346E+00 -8.3792052E-01 -8.5908633E-01
  0.000E+00  3.572E-01  2.340E-01 7.5817844E+00 -7.2391077E-01 -8.6272506E-01
  4.318E-02  3.383E-01  2.502E-01 7.5726025E+00 -7.9409328E-01 -8.9980649E-01
  0.000E+00  3.962E-01  2.029E-01 7.5274406E+00 -6.8000388E-01 -8.9773544E-01
  4.318E-02  3.765E-01  2.182E-01 7.5600478E+00 -7.4820768E-01 -9.3823923E-01
  0.000E+00  4.367E-01  1.738E-01 7.4390625E+00 -6.3448346E-01 -9.3058064E-01
  4.318E-02  4.163E-01  1.881E-01 7.4658090E+00 -7.0058007E-01 -9.7441363E-01
  0.000E+00  4.786E-01  1.467E-01 7.3934722E+00 -5.8713691E-01 -9.6091510E-01
  4.318E-02  4.575E-01  1.600E-01 7.4419644E+00 -6.5111248E-01 -1.0081293E+00
  0.000E+00  5.217E-01  1.218E-01 7.2337515E+00 -5.3858860E-01 -9.8899416E-01
  4.318E-02  5.000E-01  1.340E-01 7.2958634E+00 -5.9985260E-01 -1.0391214E+00
  0.000E+00  5.661E-01  9.903E-02 7.1790436E+00 -4.8902261E-01 -1.0150156E+00
  4.318E-02  5.438E-01  1.101E-01 7.2180139E+00 -5.4774077E-01 -1.0680756E+00
  0.000E+00  6.116E-01  7.852E-02 7.0462143E+00 -4.3720291E-01 -1.0377131E+00
  4.318E-02  5.887E-01  8.849E-02 7.1281816E+00 -4.9379648E-01 -1.0941551E+00
  0.000E+00  6.580E-01  6.031E-02 6.8876740E+00 -3.8429995E-01 -1.0576524E+00
  4.318E-02  6.347E-01  6.913E-02 6.9559200E+00 -4.3766892E-01 -1.1166292E+00
  0.000E+00  7.052E-01  4.443E-02 6.8110062E+00 -3.3198266E-01 -1.0761078E+00
  4.318E-02  6.815E-01  5.207E-02 6.8495439E+00 -3.8157953E-01 -1.1370578E+00
  0.000E+00  7.532E-01  3.092E-02 6.7218109E+00 -2.7895502E-01 -1.0920608E+00
  4.318E-02  7.292E-01  3.738E-02 6.7721428E+00 -3.2573928E-01 -1.1556293E+00
  0.000E+00  8.019E-01  1.983E-02 6.6134603E+00 -2.2393043E-01 -1.1043847E+00
  4.318E-02  7.775E-01  2.507E-02 6.6688269E+00 -2.6816784E-01 -1.1707166E+00
  0.000E+00  8.510E-01  1.117E-02 6.5144697E+00 -1.6777198E-01 -1.1136078E+00
  4.318E-02  8.264E-01  1.519E-02 6.5622231E+00 -2.0875212E-01 -1.1820812E+00
  0.000E+00  9.004E-01  4.969E-03 6.4460061E+00 -1.1160024E-01 -1.1203149E+00
  4.318E-02  8.757E-01  7.761E-03 6.4791218E+00 -1.4879599E-01 -1.1905234E+00
  4.318E-02  9.253E-01  2.796E-03 6.4264725E+00 -8.9119581E-02 -1.1963779E+00
  1.000E+01  1.050E+00  1.243E-03 6.4099284E+00 5.5723820E-02 -1.1245267E+00
  1.000E+01  1.000E+00  5.551E-16 6.3991599E+00 -3.9530489E-06 -1.1259807E+00
  9.957E+00  1.025E+00  3.108E-04 6.3992176E+00 2.6031118E-02 -1.0520110E+00
  1.000E+01  9.502E-01  1.243E-03 6.4099294E+00 -5.5731583E-02 -1.1245274E+00
  9.957E+00  9.751E-01  3.108E-04 6.3992181E+00 -2.6039322E-02 -1.0520113E+00
  1.000E+01  9.004E-01  4.969E-03 6.4460061E+00 -1.1160024E-01 -1.1203149E+00
  9.957E+00  9.253E-01  2.796E-03 6.4238683E+00 -7.8167913E-02 -1.0493388E+00
  1.000E+01  8.510E-01  1.117E-02 6.5144697E+00 -1.6777198E-01 -1.1136078E+00
  9.957E+00  8.757E-01  7.761E-03 6.4765164E+00 -1.3050717E-01 -1.0442029E+00
  1.000E+01  8.019E-01  1.983E-02 6.6134603E+00 -2.2393043E-01 -1.1043847E+00
  9.957E+00  8.264E-01  1.519E-02 6.5596133E+00 -1.8309185E-01 -1.0367973E+00
  1.000E+01  7.532E-01  3.092E-02 6.7218109E+00 -2.7895502E-01 -1.0920608E+00
  9.957E+00  7.775E-01  2.507E-02 6.6662106E+00 -2.3520433E-01 -1.0268291E+00
  1.000E+01  7.052E-01  4.443E-02 6.8110062E+00 -3.3198266E-01 -1.0761078E+00
  9.957E+00  7.292E-01  3.738E-02 6.7695275E+00 -2.8569903E-01 -1.0135976E+00
  1.000E+01  6.580E-01  6.031E-02 6.8876740E+00 -3.8429995E-01 -1.0576524E+00
  9.957E+00  6.815E-01  5.207E-02 6.8469442E+00 -3.3467459E-01 -9.9730983E-01
  1.000E+01  6.116E-01  7.852E-02 7.0462143E+00 -4.3720291E-01 -1.0377131E+00
  9.957E+00  6.347E-01  6.913E-02 6.9533240E+00 -3.8386873E-01 -9.7938690E-01
  1.000E+01  5.661E-01  9.903E-02 7.1790436E+00 -4.8902261E-01 -1.0150156E+00
  9.957E+00  5.887E-01  8.849E-02 7.1255605E+00 -4.3309755E-01 -9.5967322E-01
  1.000E+01  5.217E-01  1.218E-01 7.2337515E+00 -5.3858860E-01 -9.8899416E-01
  9.957E+00  5.438E-01  1.101E-01 7.2154041E+00 -4.8041149E-01 -9.3680393E-01
  1.000E+01  4.786E-01  1.467E-01 7.3934722E+00 -5.8713691E-01 -9.6091510E-01
  9.957E+00  5.000E-01  1.340E-01 7.2932652E+00 -5.2611728E-01 -9.1140334E-01
  1.000E+01  4.367E-01  1.738E-01 7.4390625E+00 -6.3448346E-01 -9.3058064E-01
  9.957E+00  4.575E-01  1.600E-01 7.4393438E+00 -5.7107623E-01 -8.8422032E-01
  1.000E+01  3.962E-01  2.029E-01 7.5274406E+00 -6.8000388E-01 -8.9773544E-01
  9.957E+00  4.163E-01  1.881E-01 7.4632114E+00 -6.1446475E-01 -8.5464908E-01
  1.000E+01  3.572E-01  2.340E-01 7.5817844E+00 -7.2391077E-01 -8.6272506E-01
  9.957E+00  3.765E-01  2.182E-01 7.5574342E+00 -6.5624160E-01 -8.2291728E-01
  1.000E+01  3.198E-01  2.669E-01 7.5841541E+00 -7.6602508E-01 -8.2558199E-01
  9.957E+00  3.383E-01  2.502E-01 7.5699998E+00 -6.9648587E-01 -7.8920823E-01
  1.000E+01  2.841E-01  3.018E-01 7.6175390E+00 -8.0620733E-01 -7.8635107E-01
  9.957E+00  3.018E-01  2.841E-01 7.6164195E+00 -7.3493041E-01 -7.5349113E-01
  1.000E+01  2.502E-01  3.383E-01 7.5711160E+00 -8.4442241E-01 -7.4521930E-01
  9.957E+00  2.669E-01  3.198E-01 7.5830415E+00 -7.7159413E-01 -7.1593577E-01
  1.000E+01  2.182E-01  3.765E-01 7.5585574E+00 -8.8049019E-01 -7.0215859E-01
  9.957E+00  2.340E-01  3.572E-01 7.5806690E+00 -8.0631209E-01 -6.7657658E-01
  1.000E+01  1.881E-01  4.163E-01 7.4643294E+00 -9.1443925E-01 -6.5746122E-01
  9.957E+00  2.029E-01  3.962E-01 7.5263278E+00 -8.3902978E-01 -6.3553921E-01
  1.000E+01  1.600E-01  4.575E-01 7.4404729E+00 -9.4608240E-01 -6.1103857E-01
  9.957E+00  1.738E-01  4.367E-01 7.4379557E+00 -8.6973191E-01 -5.9299685E-01
  1.000E+01  1.340E-01  5.000E-01 7.2943850E+00 -9.7516425E-01 -5.6293436E-01
  9.957E+00  1.467E-01  4.786E-01 7.3923587E+00 -8.9807990E-01 -5.4874374E-01
  1.000E+01  1.101E-01  5.438E-01 7.2165313E+00 -1.0023404E+00 -5.1402947E-01
  9.957E+00  1.218E-01  5.217E-01 7.2326509E+00 -9.2432322E-01 -5.0336990E-01
  1.000E+01  8.849E-02  5.887E-01 7.1266948E+00 -1.0268147E+00 -4.6340361E-01
  9.957E+00  9.903E-02  5.661E-01 7.1779336E+00 -9.4864859E-01 -4.5704756E-01
  1.000E+01  6.913E-02  6.347E-01 6.9544486E+00 -1.0479021E+00 -4.1072937E-01
  9.957E+00  7.852E-02  6.116E-01 7.0451075E+00 -9.6986034E-01 -4.0861946E-01
  1.000E+01  5.207E-02  6.815E-01 6.8480720E+00 -1.0670760E+00 -3.5809380E-01
  9.957E+00  6.031E-02  6.580E-01 6.8865754E+00 -9.8849522E-01 -3.5917460E-01
  1.000E+01  3.738E-02  7.292E-01 6.7706654E+00 -1.0845081E+00 -3.0569378E-01
  9.957E+00  4.443E-02  7.052E-01 6.8099005E+00 -1.0057472E+00 -3.1027518E-01
  1.000E+01  2.507E-02  7.775E-01 6.6673508E+00 -1.0986671E+00 -2.5166782E-01
  9.957E+00  3.092E-02  7.532E-01 6.7207032E+00 -1.0206576E+00 -2.6071277E-01
  1.000E+01  1.519E-02  8.264E-01 6.5607502E+00 -1.1093311E+00 -1.9590913E-01
  9.957E+00  1.983E-02  8.019E-01 6.6123559E+00 -1.0321733E+00 -2.0928702E-01
  1.000E+01  7.761E-03  8.757E-01 6.4776505E+00 -1.1172535E+00 -1.3964298E-01
  9.957E+00  1.117E-02  8.510E-01 6.5133694E+00 -1.0407916E+00 -1.5680184E-01
  1.000E+01  2.796E-03  9.253E-01 6.4250031E+00 -1.1227492E+00 -8.3639635E-02
  9.957E+00  4.969E-03  9.004E-01 6.4449085E+00 -1.0470605E+00 -1.0430387E-01
  1.000E+01  3.108E-04  9.751E-01 6.4003551E+00 -1.1256098E+00 -2.7863337E-02
  9.957E+00  1.243E-03  9.502E-01 6.4088329E+00 -1.0509987E+00 -5.2089082E-02
  1.000E+01  3.108E-04  1.025E+00 6.4003550E+00 -1.1256098E+00 2.7849672E-02
  9.957E+00  0.000E+00  1.000E+00 6.3980651E+00 -1.0523580E+00 -6.8931180E-06
  1.000E+01  2.796E-03  1.075E+00 6.4250031E+00 -1.1227494E+00 8.3626040E-02
  9.957E+00  1.243E-03  1.050E+00 6.4088329E+00 -1.0509987E+00 5.2075316E-02
  1.000E+01  7.761E-03  1.124E+00 6.4776505E+00 -1.1172537E+00 1.3962950E-01
  9.957E+00  4.969E-03  1.100E+00 6.4449086E+00 -1.0470607E+00 1.0429018E-01
  1.000E+01  1.519E-02  1.174E+00 6.5607502E+00 -1.1093298E+00 1.9589580E-01
  9.957E+00  1.117E-02  1.149E+00 6.5133694E+00 -1.0407912E+00 1.5678827E-01
  1.000E+01  2.507E-02  1.223E+00 6.6673507E+00 -1.0986625E+00 2.5165469E-01
  9.957E+00  1.983E-02  1.198E+00 6.6123560E+00 -1.0321704E+00 2.0927362E-01
  1.000E+01  3.738E-02  1.271E+00 6.7706653E+00 -1.0845030E+00 3.0568090E-01
  9.957E+00  3.092E-02  1.247E+00 6.7207034E+00 -1.0206522E+00 2.6069961E-01
  1.000E+01  5.207E-02  1.318E+00 6.8480719E+00 -1.0670759E+00 3.5808122E-01
  9.957E+00  4.443E-02  1.295E+00 6.8099007E+00 -1.0057441E+00 3.1026228E-01
  1.000E+01  6.913E-02  1.365E+00 6.9544485E+00 -1.0479009E+00 4.1071712E-01
  9.957E+00  6.031E-02  1.342E+00 6.8865756E+00 -9.8849587E-01 3.5916199E-01
  1.000E+01  8.849E-02  1.411E+00 7.1266950E+00 -1.0268058E+00 4.6339171E-01
  9.957E+00  7.852E-02  1.388E+00 7.0451079E+00 -9.6985450E-01 4.0860700E-01
  1.000E+01  1.101E-01  1.456E+00 7.2165312E+00 -1.0023370E+00 5.1401792E-01
  9.957E+00  9.903E-02  1.434E+00 7.1779339E+00 -9.4864093E-01 4.5703577E-01
  1.000E+01  1.340E-01  1.500E+00 7.2943848E+00 -9.7516179E-01 5.6292324E-01
  9.957E+00  1.218E-01  1.478E+00 7.2326511E+00 -9.2432229E-01 5.0335841E-01
  1.000E+01  1.600E-01  1.543E+00 7.4404727E+00 -9.4607351E-01 6.1102775E-01
  9.957E+00  1.467E-01  1.521E+00 7.3923588E+00 -8.9807277E-01 5.4873252E-01
  1.000E+01  1.881E-01  1.584E+00 7.4643294E+00 -9.1443492E-01 6.5745094E-01
  9.957E+00  1.738E-01  1.563E+00 7.4379559E+00 -8.6972528E-01 5.9298612E-01
  1.000E+01  2.182E-01  1.623E+00 7.5585574E+00 -8.8048277E-01 7.0214861E-01
  9.957E+00  2.029E-01  1.604E+00 7.5263279E+00 -8.3902455E-01 6.3552890E-01
  1.000E+01  2.502E-01  1.662E+00 7.5711161E+00 -8.4441537E-01 7.4520980E-01
  9.957E+00  2.340E-01  1.643E+00 7.5806691E+00 -8.0630420E-01 6.7656669E-01
  1.000E+01  2.841E-01  1.698E+00 7.6175390E+00 -8.0620015E-01 7.8634200E-01
  9.957E+00  2.669E-01  1.680E+00 7.5830415E+00 -7.7158810E-01 7.1592643E-01
  1.000E+01  3.198E-01  1.733E+00 7.5841539E+00 -7.6601766E-01 8.2557356E-01
  9.957E+00  3.018E-01  1.716E+00 7.6164197E+00 -7.3492245E-01 7.5348216E-01
  1.000E+01  3.572E-01  1.766E+00 7.5817835E+00 -7.2390441E-01 8.6271733E-01
  9.957E+00  3.383E-01  1.750E+00 7.5700003E+00 -6.9647821E-01 7.8919967E-01
  1.000E+01  3.962E-01  1.797E+00 7.5274398E+00 -6.7999675E-01 8.9772818E-01
  9.957E+00  3.765E-01  1.782E+00 7.5574349E+00 -6.5623305E-01 8.2290904E-01
  1.000E+01  4.367E-01  1.826E+00 7.4390626E+00 -6.3447471E-01 9.3057337E-01
  9.957E+00  4.163E-01  1.812E+00 7.4632116E+00 -6.1445695E-01 8.5464150E-01
  1.000E+01  4.786E-01  1.853E+00 7.3934734E+00 -5.8712515E-01 9.6090752E-01
  9.957E+00  4.575E-01  1.840E+00 7.4393432E+00 -5.7106954E-01 8.8421378E-01
  1.000E+01  5.217E-01  1.878E+00 7.2337528E+00 -5.3857745E-01 9.8898712E-01
  9.957E+00  5.000E-01  1.866E+00 7.2932646E+00 -5.2611143E-01 9.1139781E-01
  1.000E+01  5.661E-01  1.901E+00 7.1790442E+00 -4.8901564E-01 1.0150104E+00
  9.957E+00  5.438E-01  1.890E+00 7.2154042E+00 -4.8040313E-01 9.3679862E-01
  1.000E+01  6.116E-01  1.921E+00 7.0462139E+00 -4.3720159E-01 1.0377106E+00
  9.957E+00  5.887E-01  1.912E+00 7.1255610E+00 -4.3308541E-01 9.5966726E-01
  1.000E+01  6.580E-01  1.940E+00 6.8876724E+00 -3.8429788E-01 1.0576514E+00
  9.957E+00  6.347E-01  1.931E+00 6.9533246E+00 -3.8385433E-01 9.7938056E-01
  1.000E+01  7.052E-01  1.956E+00 6.8110035E+00 -3.3197416E-01 1.0761067E+00
  9.957E+00  6.815E-01  1.948E+00 6.8469447E+00 -3.3466230E-01 9.9730409E-01
  1.000E+01  7.532E-01  1.969E+00 6.7218079E+00 -2.7893907E-01 1.0920583E+00
  9.957E+00  7.292E-01  1.963E+00 6.7695284E+00 -2.8569157E-01 1.0135935E+00
  1.000E+01  8.019E-01  1.980E+00 6.6134585E+00 -2.2391179E-01 1.1043809E+00
  9.957E+00  7.775E-01  1.975E+00 6.6662118E+00 -2.3520018E-01 1.0268270E+00
  1.000E+01  8.510E-01  1.989E+00 6.5144699E+00 -1.6775494E-01 1.1136034E+00
  9.957E+00  8.264E-01  1.985E+00 6.5596142E+00 -1.8308783E-01 1.0367970E+00
  1.000E+01  9.004E-01  1.995E+00 6.4460078E+00 -1.1158636E-01 1.1203105E+00
  9.957E+00  8.757E-01  1.992E+00 6.4765165E+00 -1.3050095E-01 1.0442040E+00
  1.000E+01  9.502E-01  1.999E+00 6.4099317E+00 -5.5720189E-02 1.1245234E+00
  9.957E+00  9.253E-01  1.997E+00 6.4238677E+00 -7.8159707E-02 1.0493409E+00
  1.000E+01  1.000E+00  2.000E+00 6.3991623E+00 6.1911250E-06 1.1259773E+00
  9.957E+00  9.751E-01  2.000E+00 6.3992171E+00 -2.6029687E-02 1.0520143E+00
  1.000E+01  1.050E+00  1.999E+00 6.4099307E+00 5.5732422E-02 1.1245241E+00
  9.957E+00  1.025E+00  2.000E+00 6.3992166E+00 2.6041677E-02 1.0520147E+00
  1.000E+01  1.100E+00  1.995E+00 6.4460058E+00 1.1159863E-01 1.1203119E+00
  9.957E+00  1.075E+00  1.997E+00 6.4238662E+00 7.8171582E-02 1.0493419E+00
  1.000E+01  1.149E+00  1.989E+00 6.5144669E+00 1.6776712E-01 1.1136054E+00
  9.957E+00  1.124E+00  1.992E+00 6.4765140E+00 1.3051289E-01 1.0442056E+00