# TIME = 16.000000
VARIABLES = X, Y, Z, FX, FY, FZ
ZONE N=29232 E=58212 F=FEPOINT ET=TRIANGLE
  0.000E+00  9.502E-01  1.243E-03 6.4057983E+00 3.7422418E-02 7.5507956E-01
  0.000E+00  1.000E+00  0.000E+00 6.3950262E+00 -1.0454541E-07 7.5605607E-01
  4.318E-02  9.751E-01  3.108E-04 6.3962049E+00 1.6914182E-02 6.8331501E-01
  0.000E+00  1.050E+00  1.243E-03 6.4057977E+00 -3.7422712E-02 7.5508173E-01
  4.318E-02  1.025E+00  3.108E-04 6.3962045E+00 -1.6914424E-02 6.8331610E-01
  0.000E+00  1.100E+00  4.969E-03 6.4418779E+00 -7.4939275E-02 7.5225506E-01
  4.318E-02  1.075E+00  2.796E-03 6.4208560E+00 -5.0780114E-02 6.8158104E-01
  0.000E+00  1.149E+00  1.117E-02 6.5103383E+00 -1.1265679E-01 7.4775255E-01
  4.318E-02  1.124E+00  7.761E-03 6.4735050E+00 -8.4781872E-02 6.7824598E-01
  0.000E+00  1.198E+00  1.983E-02 6.6093179E+00 -1.5036427E-01 7.4156231E-01
  4.318E-02  1.174E+00  1.519E-02 6.5565984E+00 -1.1894047E-01 6.7343633E-01
  0.000E+00  1.247E+00  3.092E-02 6.7176635E+00 -1.8731329E-01 7.3329479E-01
  4.318E-02  1.223E+00  2.507E-02 6.6631894E+00 -1.5278834E-01 6.6696307E-01
  0.000E+00  1.295E+00  4.443E-02 6.8068774E+00 -2.2292799E-01 7.2259314E-01
  4.318E-02  1.271E+00  3.738E-02 6.7665105E+00 -1.8558351E-01 6.5837416E-01
  0.000E+00  1.342E+00  6.031E-02 6.8835773E+00 -2.5806519E-01 7.1020091E-01
  4.318E-02  1.318E+00  5.207E-02 6.8439509E+00 -2.1739341E-01 6.4780064E-01
  0.000E+00  1.388E+00  7.852E-02 7.0420892E+00 -2.9358958E-01 6.9680659E-01
  4.318E-02  1.365E+00  6.913E-02 6.9503374E+00 -2.4934646E-01 6.3615533E-01
  0.000E+00  1.434E+00  9.903E-02 7.1749148E+00 -3.2838098E-01 6.8157641E-01
  4.318E-02  1.411E+00  8.849E-02 7.1225485E+00 -2.8132293E-01 6.2335309E-01
  0.000E+00  1.478E+00  1.218E-01 7.2296649E+00 -3.6165772E-01 6.6410389E-01
  4.318E-02  1.456E+00  1.101E-01 7.2124120E+00 -3.1205880E-01 6.0851053E-01
  0.000E+00  1.521E+00  1.467E-01 7.3893400E+00 -3.9425698E-01 6.4524331E-01
  4.318E-02  1.500E+00  1.340E-01 7.2902867E+00 -3.4174967E-01 5.9200853E-01
  0.000E+00  1.563E+00  1.738E-01 7.4349660E+00 -4.2605432E-01 6.2489000E-01
  4.318E-02  1.543E+00  1.600E-01 7.4363400E+00 -3.7095128E-01 5.7435578E-01
  0.000E+00  1.604E+00  2.029E-01 7.5233242E+00 -4.5661509E-01 6.0282293E-01
  4.318E-02  1.584E+00  1.881E-01 7.4602390E+00 -3.9913200E-01 5.5515094E-01
  0.000E+00  1.643E+00  2.340E-01 7.5776713E+00 -4.8610476E-01 5.7932739E-01
  4.318E-02  1.623E+00  2.182E-01 7.5544430E+00 -4.2627027E-01 5.3453930E-01
  0.000E+00  1.680E+00  2.669E-01 7.5800540E+00 -5.1437844E-01 5.5437755E-01
  4.318E-02  1.662E+00  2.502E-01 7.5670223E+00 -4.5240628E-01 5.1264649E-01
  0.000E+00  1.716E+00  3.018E-01 7.6134225E+00 -5.4136156E-01 5.2804375E-01
  4.318E-02  1.698E+00  2.841E-01 7.6134279E+00 -4.7738252E-01 4.8944736E-01
  0.000E+00  1.750E+00  3.383E-01 7.5670177E+00 -5.6702229E-01 5.0041792E-01
  4.318E-02  1.733E+00  3.198E-01 7.5800601E+00 -5.0119133E-01 4.6505297E-01
  0.000E+00  1.782E+00  3.765E-01 7.5544394E+00 -5.9123790E-01 4.7150975E-01
  4.318E-02  1.766E+00  3.572E-01 7.5776776E+00 -5.2374738E-01 4.3949136E-01
  0.000E+00  1.812E+00  4.163E-01 7.4602358E+00 -6.1403772E-01 4.4149281E-01
  4.318E-02  1.797E+00  3.962E-01 7.5233314E+00 -5.4499039E-01 4.1283154E-01
  0.000E+00  1.840E+00  4.575E-01 7.4363368E+00 -6.3527896E-01 4.1032227E-01
  4.318E-02  1.826E+00  4.367E-01 7.4349738E+00 -5.6494070E-01 3.8520368E-01
  0.000E+00  1.866E+00  5.000E-01 7.2902829E+00 -6.5480733E-01 3.7802210E-01
  4.318E-02  1.853E+00  4.786E-01 7.3893468E+00 -5.8334212E-01 3.5645734E-01
  0.000E+00  1.890E+00  5.438E-01 7.2124098E+00 -6.7306169E-01 3.4518241E-01
  4.318E-02  1.878E+00  5.217E-01 7.2296710E+00 -6.0039605E-01 3.2698405E-01
  0.000E+00  1.912E+00  5.887E-01 7.1225475E+00 -6.8947881E-01 3.1118804E-01
  4.318E-02  1.901E+00  5.661E-01 7.1749199E+00 -6.1619046E-01 2.9689701E-01
  0.000E+00  1.931E+00  6.347E-01 6.9503361E+00 -7.0364295E-01 2.7582018E-01
  4.318E-02  1.921E+00  6.116E-01 7.0420939E+00 -6.2995987E-01 2.6544097E-01
  0.000E+00  1.948E+00  6.815E-01 6.8439500E+00 -7.1652532E-01 2.4047482E-01
  4.318E-02  1.940E+00  6.580E-01 6.8835821E+00 -6.4207131E-01 2.3332401E-01
  0.000E+00  1.963E+00  7.292E-01 6.7665119E+00 -7.2822019E-01 2.0528709E-01
  4.318E-02  1.956E+00  7.052E-01 6.8068821E+00 -6.5327455E-01 2.0155955E-01
  0.000E+00  1.975E+00  7.775E-01 6.6631916E+00 -7.3772088E-01 1.6901100E-01
  4.318E-02  1.969E+00  7.532E-01 6.7176686E+00 -6.6295087E-01 1.6936521E-01
  0.000E+00  1.985E+00  8.264E-01 6.5565991E+00 -7.4488169E-01 1.3157207E-01
  4.318E-02  1.980E+00  8.019E-01 6.6093221E+00 -6.7042788E-01 1.3596349E-01
  0.000E+00  1.992E+00  8.757E-01 6.4735038E+00 -7.5020206E-01 9.3789615E-02
  4.318E-02  1.989E+00  8.510E-01 6.5103413E+00 -6.7602625E-01 1.0187240E-01
  0.000E+00  1.997E+00  9.253E-01 6.4208552E+00 -7.5389202E-01 5.6180764E-02
  4.318E-02  1.995E+00  9.004E-01 6.4418810E+00 -6.8009825E-01 6.7770124E-02
  0.000E+00  2.000E+00  9.751E-01 6.3962046E+00 -7.5581259E-01 1.8723930E-02
  4.318E-02  1.999E+00  9.502E-01 6.4058026E+00 -6.8265532E-01 3.3849831E-02
  0.000E+00  2.000E+00  1.025E+00 6.3962045E+00 -7.5581236E-01 -1.8691533E-02
  4.318E-02  2.000E+00  1.000E+00 6.3950313E+00 -6.8353729E-01 1.6199888E-05
  0.000E+00  1.997E+00  1.075E+00 6.4208550E+00 -7.5389129E-01 -5.6148417E-02
  4.318E-02  1.999E+00  1.050E+00 6.4058025E+00 -6.8265489E-01 -3.3817461E-02
  0.000E+00  1.992E+00  1.124E+00 6.4735035E+00 -7.5020097E-01 -9.3757379E-02
  4.318E-02  1.995E+00  1.100E+00 6.4418806E+00 -6.8009730E-01 -6.7737844E-02
  0.000E+00  1.985E+00  1.174E+00 6.5565987E+00 -7.4488120E-01 -1.3154000E-01
  4.318E-02  1.989E+00  1.149E+00 6.5103408E+00 -6.7602530E-01 -1.0184026E-01
  0.000E+00  1.975E+00  1.223E+00 6.6631910E+00 -7.3772222E-01 -1.6897916E-01
  4.318E-02  1.980E+00  1.198E+00 6.6093215E+00 -6.7042817E-01 -1.3593156E-01
  0.000E+00  1.963E+00  1.271E+00 6.7665111E+00 -7.2822152E-01 -2.0525551E-01
  4.318E-02  1.969E+00  1.247E+00 6.7176679E+00 -6.6295248E-01 -1.6933351E-01
  0.000E+00  1.948E+00  1.318E+00 6.8439491E+00 -7.1652298E-01 -2.4044353E-01
  4.318E-02  1.956E+00  1.295E+00 6.8068813E+00 -6.5327434E-01 -2.0152814E-01
  0.000E+00  1.931E+00  1.365E+00 6.9503351E+00 -7.0364115E-01 -2.7578927E-01
  4.318E-02  1.940E+00  1.342E+00 6.8835812E+00 -6.4206845E-01 -2.3329293E-01
  0.000E+00  1.912E+00  1.411E+00 7.1225457E+00 -6.8948186E-01 -3.1115747E-01
  4.318E-02  1.921E+00  1.388E+00 7.0420932E+00 -6.2996109E-01 -2.6541040E-01
  0.000E+00  1.890E+00  1.456E+00 7.2124085E+00 -6.7306095E-01 -3.4515241E-01
  4.318E-02  1.901E+00  1.434E+00 7.1749190E+00 -6.1619260E-01 -2.9686677E-01
  0.000E+00  1.866E+00  1.500E+00 7.2902816E+00 -6.5480578E-01 -3.7799257E-01
  4.318E-02  1.878E+00  1.478E+00 7.2296698E+00 -6.0039372E-01 -3.2695430E-01
  0.000E+00  1.840E+00  1.543E+00 7.4363354E+00 -6.3528158E-01 -4.1029340E-01
  4.318E-02  1.853E+00  1.521E+00 7.3893457E+00 -5.8334368E-01 -3.5642824E-01
  0.000E+00  1.812E+00  1.584E+00 7.4602345E+00 -6.1403721E-01 -4.4146450E-01
  4.318E-02  1.826E+00  1.563E+00 7.4349725E+00 -5.6494182E-01 -3.8517514E-01
  0.000E+00  1.782E+00  1.623E+00 7.5544381E+00 -5.9123941E-01 -4.7148225E-01
  4.318E-02  1.797E+00  1.604E+00 7.5233299E+00 -5.4499048E-01 -4.1280366E-01
  0.000E+00  1.750E+00  1.662E+00 7.5670164E+00 -5.6702343E-01 -5.0039117E-01
  4.318E-02  1.766E+00  1.643E+00 7.5776760E+00 -5.2374908E-01 -4.3946424E-01
  0.000E+00  1.716E+00  1.698E+00 7.6134210E+00 -5.4136247E-01 -5.2801780E-01
  4.318E-02  1.733E+00  1.680E+00 7.5800584E+00 -5.0119176E-01 -4.6502664E-01
  0.000E+00  1.680E+00  1.733E+00 7.5800520E+00 -5.1437921E-01 -5.5435237E-01
  4.318E-02  1.698E+00  1.716E+00 7.6134263E+00 -4.7738416E-01 -4.8942206E-01
  0.000E+00  1.643E+00  1.766E+00 7.5776688E+00 -4.8610481E-01 -5.7930310E-01
  4.318E-02  1.662E+00  1.750E+00 7.5670210E+00 -4.5240761E-01 -5.1262221E-01
  0.000E+00  1.604E+00  1.797E+00 7.5233223E+00 -4.5661604E-01 -6.0279994E-01
  4.318E-02  1.623E+00  1.782E+00 7.5544418E+00 -4.2627194E-01 -5.3451601E-01
  0.000E+00  1.563E+00  1.826E+00 7.4349653E+00 -4.2605674E-01 -6.2486876E-01
  4.318E-02  1.584E+00  1.812E+00 7.4602371E+00 -3.9913262E-01 -5.5512848E-01
  0.000E+00  1.521E+00  1.853E+00 7.3893397E+00 -3.9426106E-01 -6.4522394E-01
  4.318E-02  1.543E+00  1.840E+00 7.4363373E+00 -3.7095067E-01 -5.7433420E-01
  0.000E+00  1.478E+00  1.878E+00 7.2296633E+00 -3.6166001E-01 -6.6408562E-01
  4.318E-02  1.500E+00  1.866E+00 7.2902839E+00 -3.4174844E-01 -5.9198822E-01
  0.000E+00  1.434E+00  1.901E+00 7.1749114E+00 -3.2837850E-01 -6.8155816E-01
  4.318E-02  1.456E+00  1.890E+00 7.2124099E+00 -3.1205981E-01 -6.0849225E-01
  0.000E+00  1.388E+00  1.921E+00 7.0420859E+00 -2.9358160E-01 -6.9678801E-01
  4.318E-02  1.411E+00  1.912E+00 7.1225471E+00 -2.8132749E-01 -6.2333749E-01
  0.000E+00  1.342E+00  1.940E+00 6.8835752E+00 -2.5805773E-01 -7.1018309E-01
  4.318E-02  1.365E+00  1.931E+00 6.9503361E+00 -2.4935275E-01 -6.3614240E-01
  0.000E+00  1.295E+00  1.956E+00 6.8068757E+00 -2.2292705E-01 -7.2257802E-01
  4.318E-02  1.318E+00  1.948E+00 6.8439498E+00 -2.1739703E-01 -6.4778956E-01
  0.000E+00  1.247E+00  1.969E+00 6.7176610E+00 -1.8732086E-01 -7.3328388E-01
  4.318E-02  1.271E+00  1.963E+00 6.7665099E+00 -1.8558132E-01 -6.5836388E-01
  0.000E+00  1.198E+00  1.980E+00 6.6093148E+00 -1.5037610E-01 -7.4155598E-01
  4.318E-02  1.223E+00  1.975E+00 6.6631888E+00 -1.5278155E-01 -6.6695308E-01
  0.000E+00  1.149E+00  1.989E+00 6.5103357E+00 -1.1266764E-01 -7.4775035E-01
  4.318E-02  1.174E+00  1.985E+00 6.5565968E+00 -1.1893249E-01 -6.7342683E-01
  0.000E+00  1.100E+00  1.995E+00 6.4418763E+00 -7.4946244E-02 -7.5225632E-01
  4.318E-02  1.124E+00  1.992E+00 6.4735023E+00 -8.4775733E-02 -6.7823750E-01
  0.000E+00  1.050E+00  1.999E+00 6.4057968E+00 -3.7425556E-02 -7.5508588E-01
  4.318E-02  1.075E+00  1.997E+00 6.4208525E+00 -5.0776427E-02 -6.8157410E-01
  0.000E+00  1.000E+00  2.000E+00 6.3950255E+00 2.6229218E-07 -7.5606264E-01
  4.318E-02  1.025E+00  2.000E+00 6.3962007E+00 -1.6913026E-02 -6.8331107E-01
  0.000E+00  9.502E-01  1.999E+00 6.4057974E+00 3.7426167E-02 -7.5508812E-01
  4.318E-02  9.751E-01  2.000E+00 6.3962010E+00 1.6913584E-02 -6.8331218E-01
  0.000E+00  9.004E-01  1.995E+00 6.4418774E+00 7.4946740E-02 -7.5226077E-01
  4.318E-02  9.253E-01  1.997E+00 6.4208534E+00 5.0777010E-02 -6.8157744E-01
  0.000E+00  8.510E-01  1.989E+00 6.5103374E+00 1.1266806E-01 -7.4775696E-01
  4.318E-02  8.757E-01  1.992E+00 6.4735037E+00 8.4776153E-02 -6.7824303E-01
  0.000E+00  8.019E-01  1.980E+00 6.6093171E+00 1.5037646E-01 -7.4156471E-01
  4.318E-02  8.264E-01  1.985E+00 6.5565988E+00 1.1893290E-01 -6.7343450E-01
  0.000E+00  7.532E-01  1.969E+00 6.7176639E+00 1.8732103E-01 -7.3329463E-01
  4.318E-02  7.775E-01  1.975E+00 6.6631914E+00 1.5278179E-01 -6.6696281E-01
  0.000E+00  7.052E-01  1.956E+00 6.8068790E+00 2.2292712E-01 -7.2259073E-01
  4.318E-02  7.292E-01  1.963E+00 6.7665130E+00 1.8558144E-01 -6.5837559E-01
  0.000E+00  6.580E-01  1.940E+00 6.8835790E+00 2.5805762E-01 -7.1019764E-01
  4.318E-02  6.815E-01  1.948E+00 6.8439534E+00 2.1739698E-01 -6.4780316E-01
  0.000E+00  6.116E-01  1.921E+00 7.0420903E+00 2.9358150E-01 -6.9680431E-01
  4.318E-02  6.347E-01  1.931E+00 6.9503402E+00 2.4935264E-01 -6.3615778E-01
  0.000E+00  5.661E-01  1.901E+00 7.1749162E+00 3.2837801E-01 -6.8157606E-01
  4.318E-02  5.887E-01  1.912E+00 7.1225513E+00 2.8132710E-01 -6.2335451E-01
  0.000E+00  5.217E-01  1.878E+00 7.2296684E+00 3.6165964E-01 -6.6410503E-01
  4.318E-02  5.438E-01  1.890E+00 7.2124148E+00 3.1205933E-01 -6.0851088E-01
  0.000E+00  4.786E-01  1.853E+00 7.3893452E+00 3.9426046E-01 -6.4524473E-01
  4.318E-02  5.000E-01  1.866E+00 7.2902892E+00 3.4174800E-01 -5.9200831E-01
  0.000E+00  4.367E-01  1.826E+00 7.4349711E+00 4.2605624E-01 -6.2489085E-01
  4.318E-02  4.575E-01  1.840E+00 7.4363430E+00 3.7095004E-01 -5.7435562E-01
  0.000E+00  3.962E-01  1.797E+00 7.5233284E+00 4.5661530E-01 -6.0282320E-01
  4.318E-02  4.163E-01  1.812E+00 7.4602431E+00 3.9913207E-01 -5.5515115E-01
  0.000E+00  3.572E-01  1.766E+00 7.5776752E+00 4.8610427E-01 -5.7932745E-01
  4.318E-02  3.765E-01  1.782E+00 7.5544480E+00 4.2627117E-01 -5.3453980E-01
  0.000E+00  3.198E-01  1.733E+00 7.5800586E+00 5.1437835E-01 -5.5437772E-01
  4.318E-02  3.383E-01  1.750E+00 7.5670275E+00 4.5240714E-01 -5.1264707E-01
  0.000E+00  2.841E-01  1.698E+00 7.6134278E+00 5.4136191E-01 -5.2804406E-01
  4.318E-02  3.018E-01  1.716E+00 7.6134330E+00 4.7738308E-01 -4.8944784E-01
  0.000E+00  2.502E-01  1.662E+00 7.5670234E+00 5.6702286E-01 -5.0041829E-01
  4.318E-02  2.669E-01  1.680E+00 7.5800653E+00 5.0119173E-01 -4.6505335E-01
  0.000E+00  2.182E-01  1.623E+00 7.5544452E+00 5.9123846E-01 -4.7151009E-01
  4.318E-02  2.340E-01  1.643E+00 7.5776831E+00 5.2374777E-01 -4.3949170E-01
  0.000E+00  1.881E-01  1.584E+00 7.4602417E+00 6.1403818E-01 -4.4149311E-01
  4.318E-02  2.029E-01  1.604E+00 7.5233371E+00 5.4499086E-01 -4.1283187E-01
  0.000E+00  1.600E-01  1.543E+00 7.4363428E+00 6.3527937E-01 -4.1032254E-01
  4.318E-02  1.738E-01  1.563E+00 7.4349798E+00 5.6494124E-01 -3.8520402E-01
  0.000E+00  1.340E-01  1.500E+00 7.2902890E+00 6.5480774E-01 -3.7802236E-01
  4.318E-02  1.467E-01  1.521E+00 7.3893531E+00 5.8334268E-01 -3.5645767E-01
  0.000E+00  1.101E-01  1.456E+00 7.2124161E+00 6.7306213E-01 -3.4518268E-01
  4.318E-02  1.218E-01  1.478E+00 7.2296773E+00 6.0039663E-01 -3.2698436E-01
  0.000E+00  8.849E-02  1.411E+00 7.1225538E+00 6.8947923E-01 -3.1118821E-01
  4.318E-02  9.903E-02  1.434E+00 7.1749265E+00 6.1619104E-01 -2.9689728E-01
  0.000E+00  6.913E-02  1.365E+00 6.9503428E+00 7.0364343E-01 -2.7582042E-01
  4.318E-02  7.852E-02  1.388E+00 7.0421007E+00 6.2996042E-01 -2.6544127E-01
  0.000E+00  5.207E-02  1.318E+00 6.8439568E+00 7.1652581E-01 -2.4047504E-01
  4.318E-02  6.031E-02  1.342E+00 6.8835889E+00 6.4207186E-01 -2.3332426E-01
  0.000E+00  3.738E-02  1.271E+00 6.7665189E+00 7.2822071E-01 -2.0528731E-01
  4.318E-02  4.443E-02  1.295E+00 6.8068890E+00 6.5327509E-01 -2.0155978E-01
  0.000E+00  2.507E-02  1.223E+00 6.6631988E+00 7.3772143E-01 -1.6901119E-01
  4.318E-02  3.092E-02  1.247E+00 6.7176756E+00 6.6295139E-01 -1.6936541E-01
  0.000E+00  1.519E-02  1.174E+00 6.5566064E+00 7.4488225E-01 -1.3157224E-01
  4.318E-02  1.983E-02  1.198E+00 6.6093293E+00 6.7042838E-01 -1.3596368E-01
  0.000E+00  7.761E-03  1.124E+00 6.4735113E+00 7.5020260E-01 -9.3789761E-02
  4.318E-02  1.117E-02  1.149E+00 6.5103486E+00 6.7602674E-01 -1.0187256E-01
  0.000E+00  2.796E-03  1.075E+00 6.4208628E+00 7.5389254E-01 -5.6180894E-02
  4.318E-02  4.969E-03  1.100E+00 6.4418885E+00 6.8009874E-01 -6.7770266E-02
  0.000E+00  3.108E-04  1.025E+00 6.3962124E+00 7.5581309E-01 -1.8724045E-02
  4.318E-02  1.243E-03  1.050E+00 6.4058103E+00 6.8265581E-01 -3.3849947E-02
  0.000E+00  3.108E-04  9.751E-01 6.3962125E+00 7.5581284E-01 1.8691437E-02
  4.318E-02  0.000E+00  1.000E+00 6.3950392E+00 6.8353777E-01 -1.6293609E-05
  0.000E+00  2.796E-03  9.253E-01 6.4208631E+00 7.5389173E-01 5.6148345E-02
  4.318E-02  1.243E-03  9.502E-01 6.4058106E+00 6.8265537E-01 3.3817383E-02
  0.000E+00  7.761E-03  8.757E-01 6.4735117E+00 7.5020137E-01 9.3757328E-02
  4.318E-02  4.969E-03  9.004E-01 6.4418889E+00 6.8009779E-01 6.7737779E-02
  0.000E+00  1.519E-02  8.264E-01 6.5566070E+00 7.4488158E-01 1.3153997E-01
  4.318E-02  1.117E-02  8.510E-01 6.5103492E+00 6.7602578E-01 1.0184021E-01
  0.000E+00  2.507E-02  7.775E-01 6.6631996E+00 7.3772261E-01 1.6897914E-01
  4.318E-02  1.983E-02  8.019E-01 6.6093301E+00 6.7042863E-01 1.3593153E-01
  0.000E+00  3.738E-02  7.292E-01 6.7665199E+00 7.2822193E-01 2.0525551E-01
  4.318E-02  3.092E-02  7.532E-01 6.7176766E+00 6.6295291E-01 1.6933349E-01
  0.000E+00  5.207E-02  6.815E-01 6.8439580E+00 7.1652340E-01 2.4044355E-01
  4.318E-02  4.443E-02  7.052E-01 6.8068901E+00 6.5327473E-01 2.0152814E-01
  0.000E+00  6.913E-02  6.347E-01 6.9503442E+00 7.0364156E-01 2.7578930E-01
  4.318E-02  6.031E-02  6.580E-01 6.8835901E+00 6.4206881E-01 2.3329294E-01
  0.000E+00  8.849E-02  5.887E-01 7.1225550E+00 6.8948232E-01 3.1115760E-01
  4.318E-02  7.852E-02  6.116E-01 7.0421022E+00 6.2996142E-01 2.6541038E-01
  0.000E+00  1.101E-01  5.438E-01 7.2124178E+00 6.7306137E-01 3.4515248E-01
  4.318E-02  9.903E-02  5.661E-01 7.1749281E+00 6.1619289E-01 2.9686681E-01
  0.000E+00  1.340E-01  5.000E-01 7.2902909E+00 6.5480620E-01 3.7799268E-01
  4.318E-02  1.218E-01  5.217E-01 7.2296790E+00 6.0039399E-01 3.2695434E-01
  0.000E+00  1.600E-01  4.575E-01 7.4363447E+00 6.3528197E-01 4.1029351E-01
  4.318E-02  1.467E-01  4.786E-01 7.3893549E+00 5.8334393E-01 3.5642829E-01
  0.000E+00  1.881E-01  4.163E-01 7.4602437E+00 6.1403752E-01 4.4146461E-01
  4.318E-02  1.738E-01  4.367E-01 7.4349817E+00 5.6494207E-01 3.8517520E-01
  0.000E+00  2.182E-01  3.765E-01 7.5544471E+00 5.9123959E-01 4.7148233E-01
  4.318E-02  2.029E-01  3.962E-01 7.5233392E+00 5.4499077E-01 4.1280375E-01
  0.000E+00  2.502E-01  3.383E-01 7.5670253E+00 5.6702357E-01 5.0039126E-01
  4.318E-02  2.340E-01  3.572E-01 7.5776854E+00 5.2374941E-01 4.3946435E-01
  0.000E+00  2.841E-01  3.018E-01 7.6134299E+00 5.4136279E-01 5.2801795E-01
  4.318E-02  2.669E-01  3.198E-01 7.5800677E+00 5.0119205E-01 4.6502671E-01
  0.000E+00  3.198E-01  2.669E-01 7.5800612E+00 5.1437994E-01 5.5435266E-01
  4.318E-02  3.018E-01  2.841E-01 7.6134352E+00 4.7738426E-01 4.8942205E-01
  0.000E+00  3.572E-01  2.340E-01 7.5776783E+00 4.8610590E-01 5.7930351E-01
  4.318E-02  3.383E-01  2.502E-01 7.5670294E+00 4.5240737E-01 5.1262210E-01
  0.000E+00  3.962E-01  2.029E-01 7.5233309E+00 4.5661641E-01 6.0280014E-01
  4.318E-02  3.765E-01  2.182E-01 7.5544499E+00 4.2627163E-01 5.3451597E-01
  0.000E+00  4.367E-01  1.738E-01 7.4349724E+00 4.2605535E-01 6.2486839E-01
  4.318E-02  4.163E-01  1.881E-01 7.4602456E+00 3.9913310E-01 5.5512873E-01
  0.000E+00  4.786E-01  1.467E-01 7.3893460E+00 3.9425809E-01 6.4522298E-01
  4.318E-02  4.575E-01  1.600E-01 7.4363462E+00 3.7095243E-01 5.7433481E-01
  0.000E+00  5.217E-01  1.218E-01 7.2296705E+00 3.6165858E-01 6.6408494E-01
  4.318E-02  5.000E-01  1.340E-01 7.2902926E+00 3.4175059E-01 5.9198889E-01
  0.000E+00  5.661E-01  9.903E-02 7.1749199E+00 3.2838196E-01 6.8155892E-01
  4.318E-02  5.438E-01  1.101E-01 7.2124174E+00 3.1205976E-01 6.0849234E-01
  0.000E+00  6.116E-01  7.852E-02 7.0420939E+00 2.9359010E-01 6.9679074E-01
  4.318E-02  5.887E-01  8.849E-02 7.1225533E+00 2.8132362E-01 6.2333640E-01
  0.000E+00  6.580E-01  6.031E-02 6.8835815E+00 2.5806570E-01 7.1018675E-01
  4.318E-02  6.347E-01  6.913E-02 6.9503419E+00 2.4934700E-01 6.3614032E-01
  0.000E+00  7.052E-01  4.443E-02 6.8068810E+00 2.2292830E-01 7.2258078E-01
  4.318E-02  6.815E-01  5.207E-02 6.8439548E+00 2.1739384E-01 6.4778737E-01
  0.000E+00  7.532E-01  3.092E-02 6.7176666E+00 1.8731348E-01 7.3328432E-01
  4.318E-02  7.292E-01  3.738E-02 6.7665139E+00 1.8558375E-01 6.5836274E-01
  0.000E+00  8.019E-01  1.983E-02 6.6093204E+00 1.5036426E-01 7.4155382E-01
  4.318E-02  7.775E-01  2.507E-02 6.6631923E+00 1.5278845E-01 6.6695359E-01
  0.000E+00  8.510E-01  1.117E-02 6.5103402E+00 1.1265670E-01 7.4774612E-01
  4.318E-02  8.264E-01  1.519E-02 6.5566006E+00 1.1894040E-01 6.7342887E-01
  0.000E+00  9.004E-01  4.969E-03 6.4418792E+00 7.4939100E-02 7.5225074E-01
  4.318E-02  8.757E-01  7.761E-03 6.4735066E+00 8.4781779E-02 6.7824060E-01
  4.318E-02  9.253E-01  2.796E-03 6.4208570E+00 5.0779851E-02 6.8157779E-01
  1.000E+01  1.050E+00  1.243E-03 6.4057977E+00 -3.7422712E-02 7.5508173E-01
  1.000E+01  1.000E+00  5.551E-16 6.3950262E+00 -1.0454541E-07 7.5605607E-01
  9.957E+00  1.025E+00  3.108E-04 6.3962297E+00 -2.0503588E-02 8.2836780E-01
  1.000E+01  9.502E-01  1.243E-03 6.4057983E+00 3.7422418E-02 7.5507956E-01
  9.957E+00  9.751E-01  3.108E-04 6.3962300E+00 2.0503327E-02 8.2836672E-01
  1.000E+01  9.004E-01  4.969E-03 6.4418792E+00 7.4939100E-02 7.5225074E-01
  9.957E+00  9.253E-01  2.796E-03 6.4208821E+00 6.1556641E-02 8.2626079E-01
  1.000E+01  8.510E-01  1.117E-02 6.5103402E+00 1.1265670E-01 7.4774612E-01
  9.957E+00  8.757E-01  7.761E-03 6.4735315E+00 1.0277802E-01 8.2221517E-01
  1.000E+01  8.019E-01  1.983E-02 6.6093204E+00 1.5036426E-01 7.4155382E-01
  9.957E+00  8.264E-01  1.519E-02 6.5566260E+00 1.4418886E-01 8.1638209E-01
  1.000E+01  7.532E-01  3.092E-02 6.7176666E+00 1.8731348E-01 7.3328432E-01
  9.957E+00  7.775E-01  2.507E-02 6.6632184E+00 1.8522046E-01 8.0853247E-01
  1.000E+01  7.052E-01  4.443E-02 6.8068810E+00 2.2292830E-01 7.2258078E-01
  9.957E+00  7.292E-01  3.738E-02 6.7665405E+00 2.2497595E-01 7.9811803E-01
  1.000E+01  6.580E-01  6.031E-02 6.8835815E+00 2.5806570E-01 7.1018675E-01
  9.957E+00  6.815E-01  5.207E-02 6.8439808E+00 2.6353916E-01 7.8529735E-01
  1.000E+01  6.116E-01  7.852E-02 7.0420939E+00 2.9359010E-01 6.9679074E-01
  9.957E+00  6.347E-01  6.913E-02 6.9503666E+00 3.0227718E-01 7.7117741E-01
  1.000E+01  5.661E-01  9.903E-02 7.1749199E+00 3.2838196E-01 6.8155892E-01
  9.957E+00  5.887E-01  8.849E-02 7.1225768E+00 3.4104091E-01 7.5565547E-01
  1.000E+01  5.217E-01  1.218E-01 7.2296705E+00 3.6165858E-01 6.6408494E-01
  9.957E+00  5.438E-01  1.101E-01 7.2124410E+00 3.7830040E-01 7.3766018E-01
  1.000E+01  4.786E-01  1.467E-01 7.3893460E+00 3.9425809E-01 6.4522298E-01
  9.957E+00  5.000E-01  1.340E-01 7.2903162E+00 4.1429420E-01 7.1765243E-01
  1.000E+01  4.367E-01  1.738E-01 7.4349724E+00 4.2605535E-01 6.2486839E-01
  9.957E+00  4.575E-01  1.600E-01 7.4363702E+00 4.4969551E-01 6.9625070E-01
  1.000E+01  3.962E-01  2.029E-01 7.5233309E+00 4.5661641E-01 6.0280014E-01
  9.957E+00  4.163E-01  1.881E-01 7.4602693E+00 4.8385749E-01 6.7296802E-01
  1.000E+01  3.572E-01  2.340E-01 7.5776783E+00 4.8610590E-01 5.7930351E-01
  9.957E+00  3.765E-01  2.182E-01 7.5544735E+00 5.1675536E-01 6.4798032E-01
  1.000E+01  3.198E-01  2.669E-01 7.5800612E+00 5.1437994E-01 5.5435266E-01
  9.957E+00  3.383E-01  2.502E-01 7.5670528E+00 5.4843852E-01 6.2143985E-01
  1.000E+01  2.841E-01  3.018E-01 7.6134299E+00 5.4136279E-01 5.2801795E-01
  9.957E+00  3.018E-01  2.841E-01 7.6134586E+00 5.7871696E-01 5.9331535E-01
  1.000E+01  2.502E-01  3.383E-01 7.5670253E+00 5.6702357E-01 5.0039126E-01
  9.957E+00  2.669E-01  3.198E-01 7.5800910E+00 6.0757841E-01 5.6374140E-01
  1.000E+01  2.182E-01  3.765E-01 7.5544471E+00 5.9123959E-01 4.7148233E-01
  9.957E+00  2.340E-01  3.572E-01 7.5777089E+00 6.3492476E-01 5.3275282E-01
  1.000E+01  1.881E-01  4.163E-01 7.4602437E+00 6.1403752E-01 4.4146461E-01
  9.957E+00  2.029E-01  3.962E-01 7.5233628E+00 6.6067577E-01 5.0043220E-01
  1.000E+01  1.600E-01  4.575E-01 7.4363447E+00 6.3528197E-01 4.1029351E-01
  9.957E+00  1.738E-01  4.367E-01 7.4350054E+00 6.8486315E-01 4.6693789E-01
  1.000E+01  1.340E-01  5.000E-01 7.2902909E+00 6.5480620E-01 3.7799268E-01
  9.957E+00  1.467E-01  4.786E-01 7.3893788E+00 7.0717138E-01 4.3208878E-01
  1.000E+01  1.101E-01  5.438E-01 7.2124178E+00 6.7306137E-01 3.4515248E-01
  9.957E+00  1.218E-01  5.217E-01 7.2297030E+00 7.2784085E-01 3.9635952E-01
  1.000E+01  8.849E-02  5.887E-01 7.1225550E+00 6.8948232E-01 3.1115760E-01
  9.957E+00  9.903E-02  5.661E-01 7.1749526E+00 7.4699343E-01 3.5988615E-01
  1.000E+01  6.913E-02  6.347E-01 6.9503442E+00 7.0364156E-01 2.7578930E-01
  9.957E+00  7.852E-02  6.116E-01 7.0421267E+00 7.6368493E-01 3.2175104E-01
  1.000E+01  5.207E-02  6.815E-01 6.8439580E+00 7.1652340E-01 2.4044355E-01
  9.957E+00  6.031E-02  6.580E-01 6.8836148E+00 7.7836293E-01 2.8281723E-01
  1.000E+01  3.738E-02  7.292E-01 6.7665199E+00 7.2822193E-01 2.0525551E-01
  9.957E+00  4.443E-02  7.052E-01 6.8069152E+00 7.9194813E-01 2.4431130E-01
  1.000E+01  2.507E-02  7.775E-01 6.6631996E+00 7.3772261E-01 1.6897914E-01
  9.957E+00  3.092E-02  7.532E-01 6.7177019E+00 8.0368108E-01 2.0528237E-01
  1.000E+01  1.519E-02  8.264E-01 6.5566070E+00 7.4488158E-01 1.3153997E-01
  9.957E+00  1.983E-02  8.019E-01 6.6093555E+00 8.1274402E-01 1.6478766E-01
  1.000E+01  7.761E-03  8.757E-01 6.4735117E+00 7.5020137E-01 9.3757328E-02
  9.957E+00  1.117E-02  8.510E-01 6.5103747E+00 8.1952972E-01 1.2346006E-01
  1.000E+01  2.796E-03  9.253E-01 6.4208631E+00 7.5389173E-01 5.6148345E-02
  9.957E+00  4.969E-03  9.004E-01 6.4419146E+00 8.2446651E-01 8.2120731E-02
  1.000E+01  3.108E-04  9.751E-01 6.3962125E+00 7.5581284E-01 1.8691437E-02
  9.957E+00  1.243E-03  9.502E-01 6.4058351E+00 8.2756703E-01 4.1001240E-02
  1.000E+01  3.108E-04  1.025E+00 6.3962124E+00 7.5581309E-01 -1.8724045E-02
  9.957E+00  0.000E+00  1.000E+00 6.3950649E+00 8.2863703E-01 -1.6307322E-05
  1.000E+01  2.796E-03  1.075E+00 6.4208628E+00 7.5389254E-01 -5.6180894E-02
  9.957E+00  1.243E-03  1.050E+00 6.4058349E+00 8.2756755E-01 -4.1033829E-02
  1.000E+01  7.761E-03  1.124E+00 6.4735113E+00 7.5020260E-01 -9.3789761E-02
  9.957E+00  4.969E-03  1.100E+00 6.4419141E+00 8.2446765E-01 -8.2153238E-02
  1.000E+01  1.519E-02  1.174E+00 6.5566064E+00 7.4488225E-01 -1.3157224E-01
  9.957E+00  1.117E-02  1.149E+00 6.5103741E+00 8.1953087E-01 -1.2349243E-01
  1.000E+01  2.507E-02  1.223E+00 6.6631988E+00 7.3772143E-01 -1.6901119E-01
  9.957E+00  1.983E-02  1.198E+00 6.6093547E+00 8.1274370E-01 -1.6481982E-01
  1.000E+01  3.738E-02  1.271E+00 6.7665189E+00 7.2822071E-01 -2.0528731E-01
  9.957E+00  3.092E-02  1.247E+00 6.7177009E+00 8.0367923E-01 -2.0531429E-01
  1.000E+01  5.207E-02  1.318E+00 6.8439568E+00 7.1652581E-01 -2.4047504E-01
  9.957E+00  4.443E-02  1.295E+00 6.8069141E+00 7.9194856E-01 -2.4434295E-01
  1.000E+01  6.913E-02  1.365E+00 6.9503428E+00 7.0364343E-01 -2.7582042E-01
  9.957E+00  6.031E-02  1.342E+00 6.8836136E+00 7.7836664E-01 -2.8284858E-01
  1.000E+01  8.849E-02  1.411E+00 7.1225538E+00 6.8947923E-01 -3.1118821E-01
  9.957E+00  7.852E-02  1.388E+00 7.0421255E+00 7.6368372E-01 -3.2178212E-01
  1.000E+01  1.101E-01  1.456E+00 7.2124161E+00 6.7306213E-01 -3.4518268E-01
  9.957E+00  9.903E-02  1.434E+00 7.1749512E+00 7.4699130E-01 -3.5991647E-01
  1.000E+01  1.340E-01  1.500E+00 7.2902890E+00 6.5480774E-01 -3.7802236E-01
  9.957E+00  1.218E-01  1.478E+00 7.2297013E+00 7.2784411E-01 -3.9638955E-01
  1.000E+01  1.600E-01  1.543E+00 7.4363428E+00 6.3527937E-01 -4.1032254E-01
  9.957E+00  1.467E-01  1.521E+00 7.3893770E+00 7.0716994E-01 -4.3211817E-01
  1.000E+01  1.881E-01  1.584E+00 7.4602417E+00 6.1403818E-01 -4.4149311E-01
  9.957E+00  1.738E-01  1.563E+00 7.4350035E+00 6.8486223E-01 -4.6696674E-01
  1.000E+01  2.182E-01  1.623E+00 7.5544452E+00 5.9123846E-01 -4.7151009E-01
  9.957E+00  2.029E-01  1.604E+00 7.5233606E+00 6.6067599E-01 -5.0046035E-01
  1.000E+01  2.502E-01  1.662E+00 7.5670234E+00 5.6702286E-01 -5.0041829E-01
  9.957E+00  2.340E-01  1.643E+00 7.5777066E+00 6.3492291E-01 -5.3278018E-01
  1.000E+01  2.841E-01  1.698E+00 7.6134278E+00 5.4136191E-01 -5.2804406E-01
  9.957E+00  2.669E-01  1.680E+00 7.5800886E+00 6.0757821E-01 -5.6376802E-01
  1.000E+01  3.198E-01  1.733E+00 7.5800586E+00 5.1437835E-01 -5.5437772E-01
  9.957E+00  3.018E-01  1.716E+00 7.6134565E+00 5.7871576E-01 -5.9334108E-01
  1.000E+01  3.572E-01  1.766E+00 7.5776752E+00 4.8610427E-01 -5.7932745E-01
  9.957E+00  3.383E-01  1.750E+00 7.5670509E+00 5.4843839E-01 -6.2146479E-01
  1.000E+01  3.962E-01  1.797E+00 7.5233284E+00 4.5661530E-01 -6.0282320E-01
  9.957E+00  3.765E-01  1.782E+00 7.5544715E+00 5.1675476E-01 -6.4800425E-01
  1.000E+01  4.367E-01  1.826E+00 7.4349711E+00 4.2605624E-01 -6.2489085E-01
  9.957E+00  4.163E-01  1.812E+00 7.4602665E+00 4.8385626E-01 -6.7299059E-01
  1.000E+01  4.786E-01  1.853E+00 7.3893452E+00 3.9426046E-01 -6.4524473E-01
  9.957E+00  4.575E-01  1.840E+00 7.4363668E+00 4.4969304E-01 -6.9627153E-01
  1.000E+01  5.217E-01  1.878E+00 7.2296684E+00 3.6165964E-01 -6.6410503E-01
  9.957E+00  5.000E-01  1.866E+00 7.2903133E+00 4.1429189E-01 -7.1767170E-01
  1.000E+01  5.661E-01  1.901E+00 7.1749162E+00 3.2837801E-01 -6.8157606E-01
  9.957E+00  5.438E-01  1.890E+00 7.2124397E+00 3.7830031E-01 -7.3767857E-01
  1.000E+01  6.116E-01  1.921E+00 7.0420903E+00 2.9358150E-01 -6.9680431E-01
  9.957E+00  5.887E-01  1.912E+00 7.1225759E+00 3.4104433E-01 -7.5567358E-01
  1.000E+01  6.580E-01  1.940E+00 6.8835790E+00 2.5805762E-01 -7.1019764E-01
  9.957E+00  6.347E-01  1.931E+00 6.9503646E+00 3.0228259E-01 -7.7119498E-01
  1.000E+01  7.052E-01  1.956E+00 6.8068790E+00 2.2292712E-01 -7.2259073E-01
  9.957E+00  6.815E-01  1.948E+00 6.8439771E+00 2.6354219E-01 -7.8531316E-01
  1.000E+01  7.532E-01  1.969E+00 6.7176639E+00 1.8732103E-01 -7.3329463E-01
  9.957E+00  7.292E-01  1.963E+00 6.7665367E+00 2.2497383E-01 -7.9813082E-01
  1.000E+01  8.019E-01  1.980E+00 6.6093171E+00 1.5037646E-01 -7.4156471E-01
  9.957E+00  7.775E-01  1.975E+00 6.6632159E+00 1.8521396E-01 -8.0854166E-01
  1.000E+01  8.510E-01  1.989E+00 6.5103374E+00 1.1266806E-01 -7.4775696E-01
  9.957E+00  8.264E-01  1.985E+00 6.5566244E+00 1.4418131E-01 -8.1638774E-01
  1.000E+01  9.004E-01  1.995E+00 6.4418774E+00 7.4946740E-02 -7.5226077E-01
  9.957E+00  8.757E-01  1.992E+00 6.4735300E+00 1.0277220E-01 -8.2221762E-01
  1.000E+01  9.502E-01  1.999E+00 6.4057974E+00 3.7426167E-02 -7.5508812E-01
  9.957E+00  9.253E-01  1.997E+00 6.4208801E+00 6.1553654E-02 -8.2626043E-01
  1.000E+01  1.000E+00  2.000E+00 6.3950255E+00 2.6229218E-07 -7.5606264E-01
  9.957E+00  9.751E-01  2.000E+00 6.3962277E+00 2.0502689E-02 -8.2836386E-01
  1.000E+01  1.050E+00  1.999E+00 6.4057968E+00 -3.7425556E-02 -7.5508588E-01
  9.957E+00  1.025E+00  2.000E+00 6.3962274E+00 -2.0502114E-02 -8.2836274E-01
  1.000E+01  1.100E+00  1.995E+00 6.4418763E+00 -7.4946244E-02 -7.5225632E-01
  9.957E+00  1.075E+00  1.997E+00 6.4208793E+00 -6.1553049E-02 -8.2625709E-01
  1.000E+01  1.149E+00  1.989E+00 6.5103357E+00 -1.1266764E-01 -7.4775035E-01
  9.957E+00  1.124E+00  1.992E+00 6.4735285E+00 -1.0277177E-01 -8.2221209E-01
  1.000E+01  1.198E+00  1.980E+00 6.6093148E+00 -1.5037610E-01 -7.4155598E-01
  9.957E+00  1.174E+00  1.985E+00 6.5566224E+00 -1.4418088E-01 -8.1638007E-01