# TIME = 15.000000
VARIABLES = X, Y, Z, FX, FY, FZ
ZONE N=29232 E=58212 F=FEPOINT ET=TRIANGLE
  0.000E+00  9.502E-01  1.243E-03 6.4056899E+00 -8.9779558E-03 -1.8132028E-01
  0.000E+00  1.000E+00  0.000E+00 6.3949190E+00 1.4434552E-06 -1.8155567E-01
  4.318E-02  9.751E-01  3.108E-04 6.3961072E+00 -6.2869390E-03 -2.5420536E-01
  0.000E+00  1.050E+00  1.243E-03 6.4056905E+00 8.9808685E-03 -1.8132186E-01
  4.318E-02  1.025E+00  3.108E-04 6.3961075E+00 6.2899117E-03 -2.5420615E-01
  0.000E+00  1.100E+00  4.969E-03 6.4417694E+00 1.7982445E-02 -1.8064242E-01
  4.318E-02  1.075E+00  2.796E-03 6.4207591E+00 1.8882145E-02 -2.5356001E-01
  0.000E+00  1.149E+00  1.117E-02 6.5102274E+00 2.7033230E-02 -1.7956035E-01
  4.318E-02  1.124E+00  7.761E-03 6.4734079E+00 3.1527312E-02 -2.5231782E-01
  0.000E+00  1.198E+00  1.983E-02 6.6092043E+00 3.6083378E-02 -1.7807295E-01
  4.318E-02  1.174E+00  1.519E-02 6.5565010E+00 4.4231726E-02 -2.5052666E-01
  0.000E+00  1.247E+00  3.092E-02 6.7175476E+00 4.4953318E-02 -1.7608626E-01
  4.318E-02  1.223E+00  2.507E-02 6.6630911E+00 5.6818695E-02 -2.4811614E-01
  0.000E+00  1.295E+00  4.443E-02 6.8067600E+00 5.3503319E-02 -1.7351345E-01
  4.318E-02  1.271E+00  3.738E-02 6.7664100E+00 6.9011951E-02 -2.4491706E-01
  0.000E+00  1.342E+00  6.031E-02 6.8834584E+00 6.1938898E-02 -1.7053434E-01
  4.318E-02  1.318E+00  5.207E-02 6.8438476E+00 8.0838455E-02 -2.4097861E-01
  0.000E+00  1.388E+00  7.852E-02 7.0419670E+00 7.0467690E-02 -1.6731499E-01
  4.318E-02  1.365E+00  6.913E-02 6.9502317E+00 9.2722430E-02 -2.3664320E-01
  0.000E+00  1.434E+00  9.903E-02 7.1747893E+00 7.8818903E-02 -1.6365377E-01
  4.318E-02  1.411E+00  8.849E-02 7.1224391E+00 1.0461737E-01 -2.3187831E-01
  0.000E+00  1.478E+00  1.218E-01 7.2295398E+00 8.6805513E-02 -1.5945382E-01
  4.318E-02  1.456E+00  1.101E-01 7.2122989E+00 1.1605032E-01 -2.2635299E-01
  0.000E+00  1.521E+00  1.467E-01 7.3892137E+00 9.4631754E-02 -1.5492139E-01
  4.318E-02  1.500E+00  1.340E-01 7.2901722E+00 1.2709457E-01 -2.2021011E-01
  0.000E+00  1.563E+00  1.738E-01 7.4348371E+00 1.0226828E-01 -1.5003160E-01
  4.318E-02  1.543E+00  1.600E-01 7.4362233E+00 1.3795735E-01 -2.1363991E-01
  0.000E+00  1.604E+00  2.029E-01 7.5231942E+00 1.0960735E-01 -1.4473010E-01
  4.318E-02  1.584E+00  1.881E-01 7.4601222E+00 1.4843995E-01 -2.0649299E-01
  0.000E+00  1.643E+00  2.340E-01 7.5775392E+00 1.1668936E-01 -1.3908564E-01
  4.318E-02  1.623E+00  2.182E-01 7.5543257E+00 1.5853419E-01 -1.9882266E-01
  0.000E+00  1.680E+00  2.669E-01 7.5799238E+00 1.2347973E-01 -1.3309274E-01
  4.318E-02  1.662E+00  2.502E-01 7.5669051E+00 1.6825822E-01 -1.9067691E-01
  0.000E+00  1.716E+00  3.018E-01 7.6132925E+00 1.2996030E-01 -1.2676720E-01
  4.318E-02  1.698E+00  2.841E-01 7.6133101E+00 1.7755015E-01 -1.8204482E-01
  0.000E+00  1.750E+00  3.383E-01 7.5668900E+00 1.3612435E-01 -1.2013272E-01
  4.318E-02  1.733E+00  3.198E-01 7.5799443E+00 1.8640939E-01 -1.7296875E-01
  0.000E+00  1.782E+00  3.765E-01 7.5543132E+00 1.4194134E-01 -1.1318985E-01
  4.318E-02  1.766E+00  3.572E-01 7.5775623E+00 1.9480236E-01 -1.6345838E-01
  0.000E+00  1.812E+00  4.163E-01 7.4601126E+00 1.4741935E-01 -1.0598221E-01
  4.318E-02  1.797E+00  3.962E-01 7.5232199E+00 2.0270817E-01 -1.5353999E-01
  0.000E+00  1.840E+00  4.575E-01 7.4362159E+00 1.5252281E-01 -9.8497186E-02
  4.318E-02  1.826E+00  4.367E-01 7.4348640E+00 2.1013303E-01 -1.4326171E-01
  0.000E+00  1.866E+00  5.000E-01 7.2901665E+00 1.5721531E-01 -9.0741475E-02
  4.318E-02  1.853E+00  4.786E-01 7.3892413E+00 2.1698155E-01 -1.3256779E-01
  0.000E+00  1.890E+00  5.438E-01 7.2122962E+00 1.6160261E-01 -8.2857760E-02
  4.318E-02  1.878E+00  5.217E-01 7.2295693E+00 2.2332928E-01 -1.2160573E-01
  0.000E+00  1.912E+00  5.887E-01 7.1224385E+00 1.6554879E-01 -7.4696704E-02
  4.318E-02  1.901E+00  5.661E-01 7.1748214E+00 2.2920869E-01 -1.1041572E-01
  0.000E+00  1.931E+00  6.347E-01 6.9502322E+00 1.6895282E-01 -6.6204870E-02
  4.318E-02  1.921E+00  6.116E-01 7.0420008E+00 2.3433462E-01 -9.8714387E-02
  0.000E+00  1.948E+00  6.815E-01 6.8438496E+00 1.7204952E-01 -5.7720447E-02
  4.318E-02  1.940E+00  6.580E-01 6.8834933E+00 2.3884318E-01 -8.6769160E-02
  0.000E+00  1.963E+00  7.292E-01 6.7664151E+00 1.7486220E-01 -4.9276137E-02
  4.318E-02  1.956E+00  7.052E-01 6.8067968E+00 2.4301489E-01 -7.4957989E-02
  0.000E+00  1.975E+00  7.775E-01 6.6630988E+00 1.7714689E-01 -4.0569665E-02
  4.318E-02  1.969E+00  7.532E-01 6.7175872E+00 2.4661882E-01 -6.2986458E-02
  0.000E+00  1.985E+00  8.264E-01 6.5565100E+00 1.7886837E-01 -3.1583126E-02
  4.318E-02  1.980E+00  8.019E-01 6.6092447E+00 2.4940302E-01 -5.0563076E-02
  0.000E+00  1.992E+00  8.757E-01 6.4734179E+00 1.8014757E-01 -2.2514740E-02
  4.318E-02  1.989E+00  8.510E-01 6.5102673E+00 2.5148766E-01 -3.7885004E-02
  0.000E+00  1.997E+00  9.253E-01 6.4207714E+00 1.8103495E-01 -1.3489290E-02
  4.318E-02  1.995E+00  9.004E-01 6.4418096E+00 2.5300408E-01 -2.5204891E-02
  0.000E+00  2.000E+00  9.751E-01 6.3961222E+00 1.8149672E-01 -4.5003698E-03
  4.318E-02  1.999E+00  9.502E-01 6.4057332E+00 2.5395648E-01 -1.2593017E-02
  0.000E+00  2.000E+00  1.025E+00 6.3961227E+00 1.8149628E-01 4.4778584E-03
  4.318E-02  2.000E+00  1.000E+00 6.3949629E+00 2.5428469E-01 -1.1469049E-05
  0.000E+00  1.997E+00  1.075E+00 6.4207729E+00 1.8103362E-01 1.3466820E-02
  4.318E-02  1.999E+00  1.050E+00 6.4057341E+00 2.5395557E-01 1.2570109E-02
  0.000E+00  1.992E+00  1.124E+00 6.4734202E+00 1.8014542E-01 2.2492363E-02
  4.318E-02  1.995E+00  1.100E+00 6.4418115E+00 2.5300223E-01 2.5182068E-02
  0.000E+00  1.985E+00  1.174E+00 6.5565133E+00 1.7886565E-01 3.1560896E-02
  4.318E-02  1.989E+00  1.149E+00 6.5102701E+00 2.5148507E-01 3.7862316E-02
  0.000E+00  1.975E+00  1.223E+00 6.6631030E+00 1.7714390E-01 4.0547631E-02
  4.318E-02  1.980E+00  1.198E+00 6.6092484E+00 2.4940018E-01 5.0540566E-02
  0.000E+00  1.963E+00  1.271E+00 6.7664201E+00 1.7485854E-01 4.9254331E-02
  4.318E-02  1.969E+00  1.247E+00 6.7175918E+00 2.4661580E-01 6.2964160E-02
  0.000E+00  1.948E+00  1.318E+00 6.8438554E+00 1.7204434E-01 5.7698902E-02
  4.318E-02  1.956E+00  1.295E+00 6.8068021E+00 2.4301055E-01 7.4935941E-02
  0.000E+00  1.931E+00  1.365E+00 6.9502389E+00 1.6894720E-01 6.6183606E-02
  4.318E-02  1.940E+00  1.342E+00 6.8834995E+00 2.3883724E-01 8.6747395E-02
  0.000E+00  1.912E+00  1.411E+00 7.1224452E+00 1.6554382E-01 7.4675856E-02
  4.318E-02  1.921E+00  1.388E+00 7.0420080E+00 2.3432965E-01 9.8692904E-02
  0.000E+00  1.890E+00  1.456E+00 7.2123043E+00 1.6159623E-01 8.2837183E-02
  4.318E-02  1.901E+00  1.434E+00 7.1748291E+00 2.2920349E-01 1.1039470E-01
  0.000E+00  1.866E+00  1.500E+00 7.2901752E+00 1.5720827E-01 9.0721303E-02
  4.318E-02  1.878E+00  1.478E+00 7.2295775E+00 2.2332195E-01 1.2158503E-01
  0.000E+00  1.840E+00  1.543E+00 7.4362251E+00 1.5251639E-01 9.8477443E-02
  4.318E-02  1.853E+00  1.521E+00 7.3892502E+00 2.1697524E-01 1.3254752E-01
  0.000E+00  1.812E+00  1.584E+00 7.4601222E+00 1.4741181E-01 1.0596290E-01
  4.318E-02  1.826E+00  1.563E+00 7.4348734E+00 2.1012612E-01 1.4324185E-01
  0.000E+00  1.782E+00  1.623E+00 7.5543232E+00 1.4193402E-01 1.1317105E-01
  4.318E-02  1.797E+00  1.604E+00 7.5232299E+00 2.0270047E-01 1.5352057E-01
  0.000E+00  1.750E+00  1.662E+00 7.5669003E+00 1.3611666E-01 1.2011442E-01
  4.318E-02  1.766E+00  1.643E+00 7.5775728E+00 1.9479487E-01 1.6343945E-01
  0.000E+00  1.716E+00  1.698E+00 7.6133033E+00 1.2995218E-01 1.2674940E-01
  4.318E-02  1.733E+00  1.680E+00 7.5799552E+00 1.8640109E-01 1.7295033E-01
  0.000E+00  1.680E+00  1.733E+00 7.5799352E+00 1.2347095E-01 1.3307533E-01
  4.318E-02  1.698E+00  1.716E+00 7.6133212E+00 1.7754205E-01 1.8202705E-01
  0.000E+00  1.643E+00  1.766E+00 7.5775515E+00 1.1667962E-01 1.3906867E-01
  4.318E-02  1.662E+00  1.750E+00 7.5669161E+00 1.6824999E-01 1.9065983E-01
  0.000E+00  1.604E+00  1.797E+00 7.5232064E+00 1.0959786E-01 1.4471389E-01
  4.318E-02  1.623E+00  1.782E+00 7.5543367E+00 1.5852599E-01 1.9880620E-01
  0.000E+00  1.563E+00  1.826E+00 7.4348483E+00 1.0226023E-01 1.5001668E-01
  4.318E-02  1.584E+00  1.812E+00 7.4601338E+00 1.4843071E-01 2.0647694E-01
  0.000E+00  1.521E+00  1.853E+00 7.3892242E+00 9.4625609E-02 1.5490794E-01
  4.318E-02  1.543E+00  1.840E+00 7.4362358E+00 1.3794644E-01 2.1362415E-01
  0.000E+00  1.478E+00  1.878E+00 7.2295511E+00 8.6797915E-02 1.5944106E-01
  4.318E-02  1.500E+00  1.866E+00 7.2901854E+00 1.2708258E-01 2.2019495E-01
  0.000E+00  1.434E+00  1.901E+00 7.1748019E+00 7.8806073E-02 1.6364046E-01
  4.318E-02  1.456E+00  1.890E+00 7.2123120E+00 1.1604021E-01 2.2633922E-01
  0.000E+00  1.388E+00  1.921E+00 7.0419801E+00 7.0449081E-02 1.6730055E-01
  4.318E-02  1.411E+00  1.912E+00 7.1224516E+00 1.0461082E-01 2.3186666E-01
  0.000E+00  1.342E+00  1.940E+00 6.8834716E+00 6.1920507E-02 1.7051994E-01
  4.318E-02  1.365E+00  1.931E+00 6.9502434E+00 9.2717680E-02 2.3663361E-01
  0.000E+00  1.295E+00  1.956E+00 6.8067736E+00 5.3491422E-02 1.7350105E-01
  4.318E-02  1.318E+00  1.948E+00 6.8438582E+00 8.0830879E-02 2.4097012E-01
  0.000E+00  1.247E+00  1.969E+00 6.7175618E+00 4.4949452E-02 1.7607724E-01
  4.318E-02  1.271E+00  1.963E+00 6.7664200E+00 6.8998697E-02 2.4490857E-01
  0.000E+00  1.198E+00  1.980E+00 6.6092181E+00 3.6082954E-02 1.7806750E-01
  4.318E-02  1.223E+00  1.975E+00 6.6631017E+00 5.6801259E-02 2.4810724E-01
  0.000E+00  1.149E+00  1.989E+00 6.5102400E+00 2.7031235E-02 1.7955791E-01
  4.318E-02  1.174E+00  1.985E+00 6.5565131E+00 4.4213541E-02 2.5051762E-01
  0.000E+00  1.100E+00  1.995E+00 6.4417808E+00 1.7976635E-02 1.8064232E-01
  4.318E-02  1.124E+00  1.992E+00 6.4734214E+00 3.1510937E-02 2.5230917E-01
  0.000E+00  1.050E+00  1.999E+00 6.4057012E+00 8.9715670E-03 1.8132361E-01
  4.318E-02  1.075E+00  1.997E+00 6.4207733E+00 1.8867941E-02 2.5355218E-01
  0.000E+00  1.000E+00  2.000E+00 6.3949295E+00 -1.0350392E-05 1.8155892E-01
  4.318E-02  1.025E+00  2.000E+00 6.3961219E+00 6.2774216E-03 2.5419944E-01
  0.000E+00  9.502E-01  1.999E+00 6.4057006E+00 -8.9922536E-03 1.8132469E-01
  4.318E-02  9.751E-01  2.000E+00 6.3961217E+00 -6.2980105E-03 2.5419998E-01
  0.000E+00  9.004E-01  1.995E+00 6.4417798E+00 -1.7997183E-02 1.8064445E-01
  4.318E-02  9.253E-01  1.997E+00 6.4207725E+00 -1.8888465E-02 2.5355380E-01
  0.000E+00  8.510E-01  1.989E+00 6.5102385E+00 -2.7051582E-02 1.7956108E-01
  4.318E-02  8.757E-01  1.992E+00 6.4734202E+00 -3.1531272E-02 2.5231184E-01
  0.000E+00  8.019E-01  1.980E+00 6.6092161E+00 -3.6103037E-02 1.7807168E-01
  4.318E-02  8.264E-01  1.985E+00 6.5565113E+00 -4.4233660E-02 2.5052132E-01
  0.000E+00  7.532E-01  1.969E+00 6.7175592E+00 -4.4969181E-02 1.7608239E-01
  4.318E-02  7.775E-01  1.975E+00 6.6630995E+00 -5.6821057E-02 2.4811193E-01
  0.000E+00  7.052E-01  1.956E+00 6.8067705E+00 -5.3510772E-02 1.7350711E-01
  4.318E-02  7.292E-01  1.963E+00 6.7664174E+00 -6.9018138E-02 2.4491421E-01
  0.000E+00  6.580E-01  1.940E+00 6.8834681E+00 -6.1939409E-02 1.7052688E-01
  4.318E-02  6.815E-01  1.948E+00 6.8438551E+00 -8.0849892E-02 2.4097667E-01
  0.000E+00  6.116E-01  1.921E+00 7.0419763E+00 -7.0467504E-02 1.6730831E-01
  4.318E-02  6.347E-01  1.931E+00 6.9502399E+00 -9.2736245E-02 2.3664102E-01
  0.000E+00  5.661E-01  1.901E+00 7.1747977E+00 -7.8823942E-02 1.6364899E-01
  4.318E-02  5.887E-01  1.912E+00 7.1224475E+00 -1.0462894E-01 2.3187485E-01
  0.000E+00  5.217E-01  1.878E+00 7.2295464E+00 -8.6815295E-02 1.5945034E-01
  4.318E-02  5.438E-01  1.890E+00 7.2123077E+00 -1.1605769E-01 2.2634817E-01
  0.000E+00  4.786E-01  1.853E+00 7.3892192E+00 -9.4642392E-02 1.5491790E-01
  4.318E-02  5.000E-01  1.866E+00 7.2901808E+00 -1.2709957E-01 2.2020460E-01
  0.000E+00  4.367E-01  1.826E+00 7.4348430E+00 -1.0227648E-01 1.5002728E-01
  4.318E-02  4.575E-01  1.840E+00 7.4362309E+00 -1.3796280E-01 2.1363446E-01
  0.000E+00  3.962E-01  1.797E+00 7.5232008E+00 -1.0961347E-01 1.4472510E-01
  4.318E-02  4.163E-01  1.812E+00 7.4601286E+00 -1.4844653E-01 2.0648788E-01
  0.000E+00  3.572E-01  1.766E+00 7.5775457E+00 -1.1669468E-01 1.3908046E-01
  4.318E-02  3.765E-01  1.782E+00 7.5543312E+00 -1.5854113E-01 1.9881773E-01
  0.000E+00  3.198E-01  1.733E+00 7.5799292E+00 -1.2348531E-01 1.3308768E-01
  4.318E-02  3.383E-01  1.750E+00 7.5669104E+00 -1.6826464E-01 1.9067194E-01
  0.000E+00  2.841E-01  1.698E+00 7.6132970E+00 -1.2996599E-01 1.2676228E-01
  4.318E-02  3.018E-01  1.716E+00 7.6133153E+00 -1.7755584E-01 1.8203968E-01
  0.000E+00  2.502E-01  1.662E+00 7.5668939E+00 -1.3612983E-01 1.2012783E-01
  4.318E-02  2.669E-01  1.680E+00 7.5799491E+00 -1.8641463E-01 1.7296351E-01
  0.000E+00  2.182E-01  1.623E+00 7.5543166E+00 -1.4194644E-01 1.1318496E-01
  4.318E-02  2.340E-01  1.643E+00 7.5775666E+00 -1.9480726E-01 1.6345313E-01
  0.000E+00  1.881E-01  1.584E+00 7.4601155E+00 -1.4742404E-01 1.0597734E-01
  4.318E-02  2.029E-01  1.604E+00 7.5232236E+00 -2.0271282E-01 1.5353477E-01
  0.000E+00  1.600E-01  1.543E+00 7.4362183E+00 -1.5252714E-01 9.8492361E-02
  4.318E-02  1.738E-01  1.563E+00 7.4348669E+00 -2.1013741E-01 1.4325656E-01
  0.000E+00  1.340E-01  1.500E+00 7.2901683E+00 -1.5721933E-01 9.0736737E-02
  4.318E-02  1.467E-01  1.521E+00 7.3892436E+00 -2.1698565E-01 1.3256271E-01
  0.000E+00  1.101E-01  1.456E+00 7.2122973E+00 -1.6160637E-01 8.2853108E-02
  4.318E-02  1.218E-01  1.478E+00 7.2295709E+00 -2.2333309E-01 1.2160074E-01
  0.000E+00  8.849E-02  1.411E+00 7.1224386E+00 -1.6555230E-01 7.4692237E-02
  4.318E-02  9.903E-02  1.434E+00 7.1748224E+00 -2.2921222E-01 1.1041084E-01
  0.000E+00  6.913E-02  1.365E+00 6.9502318E+00 -1.6895610E-01 6.6200480E-02
  4.318E-02  7.852E-02  1.388E+00 7.0420010E+00 -2.3433791E-01 9.8709583E-02
  0.000E+00  5.207E-02  1.318E+00 6.8438484E+00 -1.7205258E-01 5.7716224E-02
  4.318E-02  6.031E-02  1.342E+00 6.8834927E+00 -2.3884624E-01 8.6764515E-02
  0.000E+00  3.738E-02  1.271E+00 6.7664130E+00 -1.7486509E-01 4.9272081E-02
  4.318E-02  4.443E-02  1.295E+00 6.8067953E+00 -2.4301774E-01 7.4953493E-02
  0.000E+00  2.507E-02  1.223E+00 6.6630958E+00 -1.7714963E-01 4.0565785E-02
  4.318E-02  3.092E-02  1.247E+00 6.7175849E+00 -2.4662147E-01 6.2982125E-02
  0.000E+00  1.519E-02  1.174E+00 6.5565061E+00 -1.7887098E-01 3.1579434E-02
  4.318E-02  1.983E-02  1.198E+00 6.6092415E+00 -2.4940551E-01 5.0558922E-02
  0.000E+00  7.761E-03  1.124E+00 6.4734130E+00 -1.8015005E-01 2.2511251E-02
  4.318E-02  1.117E-02  1.149E+00 6.5102632E+00 -2.5149002E-01 3.7881037E-02
  0.000E+00  2.796E-03  1.075E+00 6.4207656E+00 -1.8103734E-01 1.3486018E-02
  4.318E-02  4.969E-03  1.100E+00 6.4418046E+00 -2.5300634E-01 2.5201116E-02
  0.000E+00  3.108E-04  1.025E+00 6.3961154E+00 -1.8149905E-01 4.4973224E-03
  4.318E-02  1.243E-03  1.050E+00 6.4057272E+00 -2.5395866E-01 1.2589440E-02
  0.000E+00  3.108E-04  9.751E-01 6.3961149E+00 -1.8149859E-01 -4.4806854E-03
  4.318E-02  0.000E+00  1.000E+00 6.3949559E+00 -2.5428681E-01 8.1019136E-06
  0.000E+00  2.796E-03  9.253E-01 6.4207641E+00 -1.8103592E-01 -1.3469432E-02
  4.318E-02  1.243E-03  9.502E-01 6.4057262E+00 -2.5395767E-01 -1.2573252E-02
  0.000E+00  7.761E-03  8.757E-01 6.4734105E+00 -1.8014772E-01 -2.2494757E-02
  4.318E-02  4.969E-03  9.004E-01 6.4418025E+00 -2.5300435E-01 -2.5184980E-02
  0.000E+00  1.519E-02  8.264E-01 6.5565026E+00 -1.7886800E-01 -3.1563065E-02
  4.318E-02  1.117E-02  8.510E-01 6.5102602E+00 -2.5148723E-01 -3.7864996E-02
  0.000E+00  2.507E-02  7.775E-01 6.6630913E+00 -1.7714634E-01 -4.0549573E-02
  4.318E-02  1.983E-02  8.019E-01 6.6092376E+00 -2.4940240E-01 -5.0543018E-02
  0.000E+00  3.738E-02  7.292E-01 6.7664076E+00 -1.7486110E-01 -4.9256051E-02
  4.318E-02  3.092E-02  7.532E-01 6.7175800E+00 -2.4661809E-01 -6.2966387E-02
  0.000E+00  5.207E-02  6.815E-01 6.8438420E+00 -1.7204704E-01 -5.7700405E-02
  4.318E-02  4.443E-02  7.052E-01 6.8067895E+00 -2.4301295E-01 -7.4937946E-02
  0.000E+00  6.913E-02  6.347E-01 6.9502248E+00 -1.6895005E-01 -6.6184917E-02
  4.318E-02  6.031E-02  6.580E-01 6.8834861E+00 -2.3883977E-01 -8.6749182E-02
  0.000E+00  8.849E-02  5.887E-01 7.1224305E+00 -1.6554686E-01 -7.4676910E-02
  4.318E-02  7.852E-02  6.116E-01 7.0419938E+00 -2.3433235E-01 -9.8694506E-02
  0.000E+00  1.101E-01  5.438E-01 7.2122887E+00 -1.6159946E-01 -8.2838117E-02
  4.318E-02  9.903E-02  5.661E-01 7.1748143E+00 -2.2920639E-01 -1.1039606E-01
  0.000E+00  1.340E-01  5.000E-01 7.2901591E+00 -1.5721174E-01 -9.0722049E-02
  4.318E-02  1.218E-01  5.217E-01 7.2295621E+00 -2.2332505E-01 -1.2158621E-01
  0.000E+00  1.600E-01  4.575E-01 7.4362086E+00 -1.5252008E-01 -9.8478041E-02
  4.318E-02  1.467E-01  4.786E-01 7.3892343E+00 -2.1697858E-01 -1.3254854E-01
  0.000E+00  1.881E-01  4.163E-01 7.4601053E+00 -1.4741572E-01 -1.0596334E-01
  4.318E-02  1.738E-01  4.367E-01 7.4348569E+00 -2.1012974E-01 -1.4324273E-01
  0.000E+00  2.182E-01  3.765E-01 7.5543060E+00 -1.4193811E-01 -1.1317136E-01
  4.318E-02  2.029E-01  3.962E-01 7.5232130E+00 -2.0270442E-01 -1.5352134E-01
  0.000E+00  2.502E-01  3.383E-01 7.5668830E+00 -1.3612100E-01 -1.2011462E-01
  4.318E-02  2.340E-01  3.572E-01 7.5775555E+00 -1.9479918E-01 -1.6344012E-01
  0.000E+00  2.841E-01  3.018E-01 7.6132856E+00 -1.2995694E-01 -1.2674957E-01
  4.318E-02  2.669E-01  3.198E-01 7.5799376E+00 -1.8640571E-01 -1.7295089E-01
  0.000E+00  3.198E-01  2.669E-01 7.5799170E+00 -1.2347647E-01 -1.3307561E-01
  4.318E-02  3.018E-01  2.841E-01 7.6133036E+00 -1.7754686E-01 -1.8202747E-01
  0.000E+00  3.572E-01  2.340E-01 7.5775327E+00 -1.1668606E-01 -1.3906911E-01
  4.318E-02  3.383E-01  2.502E-01 7.5668988E+00 -1.6825474E-01 -1.9066009E-01
  0.000E+00  3.962E-01  2.029E-01 7.5231880E+00 -1.0960417E-01 -1.4471422E-01
  4.318E-02  3.765E-01  2.182E-01 7.5543196E+00 -1.5853089E-01 -1.9880647E-01
  0.000E+00  4.367E-01  1.738E-01 7.4348312E+00 -1.0226511E-01 -1.5001646E-01
  4.318E-02  4.163E-01  1.881E-01 7.4601164E+00 -1.4843663E-01 -2.0647749E-01
  0.000E+00  4.786E-01  1.467E-01 7.3892081E+00 -9.4628683E-02 -1.5490706E-01
  4.318E-02  4.575E-01  1.600E-01 7.4362178E+00 -1.3795415E-01 -2.1362519E-01
  0.000E+00  5.217E-01  1.218E-01 7.2295346E+00 -8.6802458E-02 -1.5944039E-01
  4.318E-02  5.000E-01  1.340E-01 7.2901670E+00 -1.2709138E-01 -2.2019624E-01
  0.000E+00  5.661E-01  9.903E-02 7.1747845E+00 -7.8815911E-02 -1.6364135E-01
  4.318E-02  5.438E-01  1.101E-01 7.2122942E+00 -1.1604724E-01 -2.2634007E-01
  0.000E+00  6.116E-01  7.852E-02 7.0419626E+00 -7.0464749E-02 -1.6730363E-01
  4.318E-02  5.887E-01  8.849E-02 7.1224345E+00 -1.0461435E-01 -2.3186641E-01
  0.000E+00  6.580E-01  6.031E-02 6.8834545E+00 -6.1935982E-02 -1.7052416E-01
  4.318E-02  6.347E-01  6.913E-02 6.9502278E+00 -9.2719369E-02 -2.3663245E-01
  0.000E+00  7.052E-01  4.443E-02 6.8067566E+00 -5.3500408E-02 -1.7350453E-01
  4.318E-02  6.815E-01  5.207E-02 6.8438441E+00 -8.0835467E-02 -2.4096907E-01
  0.000E+00  7.532E-01  3.092E-02 6.7175447E+00 -4.4950425E-02 -1.7607869E-01
  4.318E-02  7.292E-01  3.738E-02 6.7664070E+00 -6.9008959E-02 -2.4490882E-01
  0.000E+00  8.019E-01  1.983E-02 6.6092019E+00 -3.6080473E-02 -1.7806679E-01
  4.318E-02  7.775E-01  2.507E-02 6.6630886E+00 -5.6815719E-02 -2.4810928E-01
  0.000E+00  8.510E-01  1.117E-02 6.5102257E+00 -2.7030337E-02 -1.7955568E-01
  4.318E-02  8.264E-01  1.519E-02 6.5564990E+00 -4.4228741E-02 -2.5052125E-01
  0.000E+00  9.004E-01  4.969E-03 6.4417683E+00 -1.7979551E-02 -1.8063927E-01
  4.318E-02  8.757E-01  7.761E-03 6.4734065E+00 -3.1524352E-02 -2.5231391E-01
  4.318E-02  9.253E-01  2.796E-03 6.4207582E+00 -1.8879157E-02 -2.5355764E-01
  1.000E+01  1.050E+00  1.243E-03 6.4056905E+00 8.9808685E-03 -1.8132186E-01
  1.000E+01  1.000E+00  5.551E-16 6.3949190E+00 1.4434552E-06 -1.8155567E-01
  9.957E+00  1.025E+00  3.108E-04 6.3961180E+00 2.6931441E-03 -1.0884587E-01
  1.000E+01  9.502E-01  1.243E-03 6.4056899E+00 -8.9779558E-03 -1.8132028E-01
  9.957E+00  9.751E-01  3.108E-04 6.3961177E+00 -2.6902695E-03 -1.0884508E-01
  1.000E+01  9.004E-01  4.969E-03 6.4417683E+00 -1.7979551E-02 -1.8063927E-01
  9.957E+00  9.253E-01  2.796E-03 6.4207688E+00 -8.0797011E-03 -1.0856677E-01
  1.000E+01  8.510E-01  1.117E-02 6.5102257E+00 -2.7030337E-02 -1.7955568E-01
  9.957E+00  8.757E-01  7.761E-03 6.4734168E+00 -1.3490168E-02 -1.0803282E-01
  1.000E+01  8.019E-01  1.983E-02 6.6092019E+00 -3.6080473E-02 -1.7806679E-01
  9.957E+00  8.264E-01  1.519E-02 6.5565088E+00 -1.8926761E-02 -1.0726358E-01
  1.000E+01  7.532E-01  3.092E-02 6.7175447E+00 -4.4950425E-02 -1.7607869E-01
  9.957E+00  7.775E-01  2.507E-02 6.6630974E+00 -2.4314544E-02 -1.0622888E-01
  1.000E+01  7.052E-01  4.443E-02 6.8067566E+00 -5.3500408E-02 -1.7350453E-01
  9.957E+00  7.292E-01  3.738E-02 6.7664152E+00 -2.9532527E-02 -1.0485596E-01
  1.000E+01  6.580E-01  6.031E-02 6.8834545E+00 -6.1935982E-02 -1.7052416E-01
  9.957E+00  6.815E-01  5.207E-02 6.8438526E+00 -3.4591629E-02 -1.0316613E-01
  1.000E+01  6.116E-01  7.852E-02 7.0419626E+00 -7.0464749E-02 -1.6730363E-01
  9.957E+00  6.347E-01  6.913E-02 6.9502370E+00 -3.9676315E-02 -1.0130715E-01
  1.000E+01  5.661E-01  9.903E-02 7.1747845E+00 -7.8815911E-02 -1.6364135E-01
  9.957E+00  5.887E-01  8.849E-02 7.1224440E+00 -4.4769439E-02 -9.9264871E-02
  1.000E+01  5.217E-01  1.218E-01 7.2295346E+00 -8.6802458E-02 -1.5944039E-01
  9.957E+00  5.438E-01  1.101E-01 7.2123043E+00 -4.9664735E-02 -9.6896830E-02
  1.000E+01  4.786E-01  1.467E-01 7.3892081E+00 -9.4628683E-02 -1.5490706E-01
  9.957E+00  5.000E-01  1.340E-01 7.2901763E+00 -5.4392520E-02 -9.4264245E-02
  1.000E+01  4.367E-01  1.738E-01 7.4348312E+00 -1.0226511E-01 -1.5001646E-01
  9.957E+00  4.575E-01  1.600E-01 7.4362265E+00 -5.9042866E-02 -9.1448719E-02
  1.000E+01  3.962E-01  2.029E-01 7.5231880E+00 -1.0960417E-01 -1.4471422E-01
  9.957E+00  4.163E-01  1.881E-01 7.4601252E+00 -6.3531274E-02 -8.8386054E-02
  1.000E+01  3.572E-01  2.340E-01 7.5775327E+00 -1.1668606E-01 -1.3906911E-01
  9.957E+00  3.765E-01  2.182E-01 7.5543284E+00 -6.7853912E-02 -8.5099256E-02
  1.000E+01  3.198E-01  2.669E-01 7.5799170E+00 -1.2347647E-01 -1.3307561E-01
  9.957E+00  3.383E-01  2.502E-01 7.5669076E+00 -7.2018132E-02 -8.1609460E-02
  1.000E+01  2.841E-01  3.018E-01 7.6132856E+00 -1.2995694E-01 -1.2674957E-01
  9.957E+00  3.018E-01  2.841E-01 7.6133125E+00 -7.5997686E-02 -7.7911753E-02
  1.000E+01  2.502E-01  3.383E-01 7.5668830E+00 -1.3612100E-01 -1.2011462E-01
  9.957E+00  2.669E-01  3.198E-01 7.5799463E+00 -7.9791880E-02 -7.4024667E-02
  1.000E+01  2.182E-01  3.765E-01 7.5543060E+00 -1.4193811E-01 -1.1317136E-01
  9.957E+00  2.340E-01  3.572E-01 7.5775645E+00 -8.3386591E-02 -6.9951787E-02
  1.000E+01  1.881E-01  4.163E-01 7.4601053E+00 -1.4741572E-01 -1.0596334E-01
  9.957E+00  2.029E-01  3.962E-01 7.5232216E+00 -8.6772249E-02 -6.5704875E-02
  1.000E+01  1.600E-01  4.575E-01 7.4362086E+00 -1.5252008E-01 -9.8478041E-02
  9.957E+00  1.738E-01  4.367E-01 7.4348662E+00 -8.9953001E-02 -6.1304765E-02
  1.000E+01  1.340E-01  5.000E-01 7.2901591E+00 -1.5721174E-01 -9.0722049E-02
  9.957E+00  1.467E-01  4.786E-01 7.3892431E+00 -9.2886867E-02 -5.6725753E-02
  1.000E+01  1.101E-01  5.438E-01 7.2122887E+00 -1.6159946E-01 -8.2838117E-02
  9.957E+00  1.218E-01  5.217E-01 7.2295714E+00 -9.5606467E-02 -5.2032058E-02
  1.000E+01  8.849E-02  5.887E-01 7.1224305E+00 -1.6554686E-01 -7.4676910E-02
  9.957E+00  9.903E-02  5.661E-01 7.1748237E+00 -9.8127316E-02 -4.7241569E-02
  1.000E+01  6.913E-02  6.347E-01 6.9502248E+00 -1.6895005E-01 -6.6184917E-02
  9.957E+00  7.852E-02  6.116E-01 7.0420029E+00 -1.0032383E-01 -4.2232967E-02
  1.000E+01  5.207E-02  6.815E-01 6.8438420E+00 -1.7204704E-01 -5.7700405E-02
  9.957E+00  6.031E-02  6.580E-01 6.8834956E+00 -1.0225542E-01 -3.7118547E-02
  1.000E+01  3.738E-02  7.292E-01 6.7664076E+00 -1.7486110E-01 -4.9256051E-02
  9.957E+00  4.443E-02  7.052E-01 6.8067991E+00 -1.0404461E-01 -3.2062912E-02
  1.000E+01  2.507E-02  7.775E-01 6.6630913E+00 -1.7714634E-01 -4.0549573E-02
  9.957E+00  3.092E-02  7.532E-01 6.7175896E+00 -1.0559061E-01 -2.6940315E-02
  1.000E+01  1.519E-02  8.264E-01 6.5565026E+00 -1.7886800E-01 -3.1563065E-02
  9.957E+00  1.983E-02  8.019E-01 6.6092471E+00 -1.0678430E-01 -2.1624939E-02
  1.000E+01  7.761E-03  8.757E-01 6.4734105E+00 -1.8014772E-01 -2.2494757E-02
  9.957E+00  1.117E-02  8.510E-01 6.5102697E+00 -1.0767810E-01 -1.6198721E-02
  1.000E+01  2.796E-03  9.253E-01 6.4207641E+00 -1.8103592E-01 -1.3469432E-02
  9.957E+00  4.969E-03  9.004E-01 6.4418122E+00 -1.0832874E-01 -1.0771039E-02
  1.000E+01  3.108E-04  9.751E-01 6.3961149E+00 -1.8149859E-01 -4.4806854E-03
  9.957E+00  1.243E-03  9.502E-01 6.4057345E+00 -1.0873778E-01 -5.3737355E-03
  1.000E+01  3.108E-04  1.025E+00 6.3961154E+00 -1.8149905E-01 4.4973224E-03
  9.957E+00  0.000E+00  1.000E+00 6.3949654E+00 -1.0887919E-01 8.5129581E-06
  1.000E+01  2.796E-03  1.075E+00 6.4207656E+00 -1.8103734E-01 1.3486018E-02
  9.957E+00  1.243E-03  1.050E+00 6.4057356E+00 -1.0873866E-01 5.3907437E-03
  1.000E+01  7.761E-03  1.124E+00 6.4734130E+00 -1.8015005E-01 2.2511251E-02
  9.957E+00  4.969E-03  1.100E+00 6.4418142E+00 -1.0833051E-01 1.0787988E-02
  1.000E+01  1.519E-02  1.174E+00 6.5565061E+00 -1.7887098E-01 3.1579434E-02
  9.957E+00  1.117E-02  1.149E+00 6.5102728E+00 -1.0768065E-01 1.6215563E-02
  1.000E+01  2.507E-02  1.223E+00 6.6630958E+00 -1.7714963E-01 4.0565785E-02
  9.957E+00  1.983E-02  1.198E+00 6.6092511E+00 -1.0678741E-01 2.1641628E-02
  1.000E+01  3.738E-02  1.271E+00 6.7664130E+00 -1.7486509E-01 4.9272081E-02
  9.957E+00  3.092E-02  1.247E+00 6.7175945E+00 -1.0559425E-01 2.6956817E-02
  1.000E+01  5.207E-02  1.318E+00 6.8438484E+00 -1.7205258E-01 5.7716224E-02
  9.957E+00  4.443E-02  1.295E+00 6.8068049E+00 -1.0404924E-01 3.2079204E-02
  1.000E+01  6.913E-02  1.365E+00 6.9502318E+00 -1.6895610E-01 6.6200480E-02
  9.957E+00  6.031E-02  1.342E+00 6.8835022E+00 -1.0226113E-01 3.7134598E-02
  1.000E+01  8.849E-02  1.411E+00 7.1224386E+00 -1.6555230E-01 7.4692237E-02
  9.957E+00  7.852E-02  1.388E+00 7.0420105E+00 -1.0032954E-01 4.2248590E-02
  1.000E+01  1.101E-01  1.456E+00 7.2122973E+00 -1.6160637E-01 8.2853108E-02
  9.957E+00  9.903E-02  1.434E+00 7.1748320E+00 -9.8133302E-02 4.7257204E-02
  1.000E+01  1.340E-01  1.500E+00 7.2901683E+00 -1.5721933E-01 9.0736737E-02
  9.957E+00  1.218E-01  1.478E+00 7.2295802E+00 -9.5613757E-02 5.2047234E-02
  1.000E+01  1.600E-01  1.543E+00 7.4362183E+00 -1.5252714E-01 9.8492361E-02
  9.957E+00  1.467E-01  1.521E+00 7.3892525E+00 -9.2893983E-02 5.6740559E-02
  1.000E+01  1.881E-01  1.584E+00 7.4601155E+00 -1.4742404E-01 1.0597734E-01
  9.957E+00  1.738E-01  1.563E+00 7.4348763E+00 -8.9960586E-02 6.1319202E-02
  1.000E+01  2.182E-01  1.623E+00 7.5543166E+00 -1.4194644E-01 1.1318496E-01
  9.957E+00  2.029E-01  1.604E+00 7.5232322E+00 -8.6780324E-02 6.5718893E-02
  1.000E+01  2.502E-01  1.662E+00 7.5668939E+00 -1.3612983E-01 1.2012783E-01
  9.957E+00  2.340E-01  1.643E+00 7.5775757E+00 -8.3394698E-02 6.9965346E-02
  1.000E+01  2.841E-01  1.698E+00 7.6132970E+00 -1.2996599E-01 1.2676228E-01
  9.957E+00  2.669E-01  1.680E+00 7.5799579E+00 -7.9800556E-02 7.4037757E-02
  1.000E+01  3.198E-01  1.733E+00 7.5799292E+00 -1.2348531E-01 1.3308768E-01
  9.957E+00  3.018E-01  1.716E+00 7.6133242E+00 -7.6006677E-02 7.7924371E-02
  1.000E+01  3.572E-01  1.766E+00 7.5775457E+00 -1.1669468E-01 1.3908046E-01
  9.957E+00  3.383E-01  1.750E+00 7.5669193E+00 -7.2027924E-02 8.1621675E-02
  1.000E+01  3.962E-01  1.797E+00 7.5232008E+00 -1.0961347E-01 1.4472510E-01
  9.957E+00  3.765E-01  1.782E+00 7.5543403E+00 -6.7863981E-02 8.5110986E-02
  1.000E+01  4.367E-01  1.826E+00 7.4348430E+00 -1.0227648E-01 1.5002728E-01
  9.957E+00  4.163E-01  1.812E+00 7.4601380E+00 -6.3540810E-02 8.8396966E-02
  1.000E+01  4.786E-01  1.853E+00 7.3892192E+00 -9.4642392E-02 1.5491790E-01
  9.957E+00  4.575E-01  1.840E+00 7.4362401E+00 -5.9051253E-02 9.1458419E-02
  1.000E+01  5.217E-01  1.878E+00 7.2295464E+00 -8.6815295E-02 1.5945034E-01
  9.957E+00  5.000E-01  1.866E+00 7.2901897E+00 -5.4400693E-02 9.4272840E-02
  1.000E+01  5.661E-01  1.901E+00 7.1747977E+00 -7.8823942E-02 1.6364899E-01
  9.957E+00  5.438E-01  1.890E+00 7.2123165E+00 -4.9675348E-02 9.6905101E-02
  1.000E+01  6.116E-01  1.921E+00 7.0419763E+00 -7.0467504E-02 1.6730831E-01
  9.957E+00  5.887E-01  1.912E+00 7.1224555E+00 -4.4784053E-02 9.9273569E-02
  1.000E+01  6.580E-01  1.940E+00 6.8834681E+00 -6.1939409E-02 1.7052688E-01
  9.957E+00  6.347E-01  1.931E+00 6.9502494E+00 -3.9693045E-02 1.0131602E-01
  1.000E+01  7.052E-01  1.956E+00 6.8067705E+00 -5.3510772E-02 1.7350711E-01
  9.957E+00  6.815E-01  1.948E+00 6.8438660E+00 -3.4606049E-02 1.0317398E-01
  1.000E+01  7.532E-01  1.969E+00 6.7175592E+00 -4.4969181E-02 1.7608239E-01
  9.957E+00  7.292E-01  1.963E+00 6.7664284E+00 -2.9541774E-02 1.0486156E-01
  1.000E+01  8.019E-01  1.980E+00 6.6092161E+00 -3.6103037E-02 1.7807168E-01
  9.957E+00  7.775E-01  1.975E+00 6.6631098E+00 -2.4319800E-02 1.0623177E-01
  1.000E+01  8.510E-01  1.989E+00 6.5102385E+00 -2.7051582E-02 1.7956108E-01
  9.957E+00  8.264E-01  1.985E+00 6.5565208E+00 -1.8931409E-02 1.0726391E-01
  1.000E+01  9.004E-01  1.995E+00 6.4417798E+00 -1.7997183E-02 1.8064445E-01
  9.957E+00  8.757E-01  1.992E+00 6.4734292E+00 -1.3496811E-02 1.0803097E-01
  1.000E+01  9.502E-01  1.999E+00 6.4057006E+00 -8.9922536E-03 1.8132469E-01
  9.957E+00  9.253E-01  1.997E+00 6.4207818E+00 -8.0888537E-03 1.0856311E-01
  1.000E+01  1.000E+00  2.000E+00 6.3949295E+00 -1.0350392E-05 1.8155892E-01
  9.957E+00  9.751E-01  2.000E+00 6.3961310E+00 -2.7013256E-03 1.0883986E-01
  1.000E+01  1.050E+00  1.999E+00 6.4057012E+00 8.9715670E-03 1.8132361E-01
  9.957E+00  1.025E+00  2.000E+00 6.3961313E+00 2.6805586E-03 1.0883932E-01
  1.000E+01  1.100E+00  1.995E+00 6.4417808E+00 1.7976635E-02 1.8064232E-01
  9.957E+00  1.075E+00  1.997E+00 6.4207826E+00 8.0681552E-03 1.0856150E-01
  1.000E+01  1.149E+00  1.989E+00 6.5102400E+00 2.7031235E-02 1.7955791E-01
  9.957E+00  1.124E+00  1.992E+00 6.4734306E+00 1.3476293E-02 1.0802832E-01