# TIME = 0.100000
variables = x, y, z
zone N=5762 E=11520 F=FEPOINT ET=TRIANGLE
 5.0180670E+00 1.4252702E+00 1.6880519E+00
 5.0180670E+00 1.4252702E+00 3.1194803E-01
 5.0180670E+00 5.7472978E-01 1.6880519E+00
 5.0180670E+00 5.7472980E-01 3.1194806E-01
 3.5300990E+00 9.9999998E-01 1.6708463E+00
 6.5048490E+00 9.9999998E-01 1.6689458E+00
 3.5300990E+00 9.9999998E-01 3.2915370E-01
 6.5048490E+00 9.9999998E-01 3.3105417E-01
 4.1945324E+00 1.8297253E+00 9.9999999E-01
 4.1945324E+00 1.7027471E-01 9.9999999E-01
 5.8415796E+00 1.8292704E+00 9.9999999E-01
 5.8415796E+00 1.7072957E-01 9.9999999E-01
 4.9645009E+00 1.4172805E+00 1.6930743E+00
 4.9080605E+00 1.4089869E+00 1.6987211E+00
 4.8492097E+00 1.4004578E+00 1.7049841E+00
 4.7880840E+00 1.3916510E+00 1.7118648E+00
 4.7247497E+00 1.3824753E+00 1.7193586E+00
 4.6593818E+00 1.3728301E+00 1.7273965E+00
 4.5921835E+00 1.3625821E+00 1.7358582E+00
 4.5234075E+00 1.3515743E+00 1.7445587E+00
 4.4533499E+00 1.3396300E+00 1.7532473E+00
 4.3823487E+00 1.3265626E+00 1.7616105E+00
 4.3107821E+00 1.3121891E+00 1.7692814E+00
 4.2390649E+00 1.2963438E+00 1.7758560E+00
 4.1676443E+00 1.2788950E+00 1.7809152E+00
 4.0969935E+00 1.2597592E+00 1.7840506E+00
 4.0276035E+00 1.2389132E+00 1.7848930E+00
 3.9599697E+00 1.2164008E+00 1.7831388E+00
 3.8945756E+00 1.1923343E+00 1.7785725E+00
 3.8318755E+00 1.1668898E+00 1.7710812E+00
 3.7722737E+00 1.1402955E+00 1.7606595E+00
 3.7161092E+00 1.1128183E+00 1.7474059E+00
 3.6636406E+00 1.0847441E+00 1.7315071E+00
 3.6150384E+00 1.0563645E+00 1.7132243E+00
 3.5703566E+00 1.0279379E+00 1.6928608E+00
 4.9627012E+00 6.1049529E-01 1.7090419E+00
 4.9050128E+00 6.1986108E-01 1.7148502E+00
 4.8449057E+00 6.2953212E-01 1.7212869E+00
 4.7824805E+00 6.3957461E-01 1.7283534E+00
 4.7178747E+00 6.5007337E-01 1.7360204E+00
 4.6512762E+00 6.6114206E-01 1.7442051E+00
 4.5829232E+00 6.7291936E-01 1.7527612E+00
 4.5131001E+00 6.8556537E-01 1.7614748E+00
 4.4421365E+00 6.9925328E-01 1.7700619E+00
 4.3704043E+00 7.1415789E-01 1.7781756E+00
 4.2983137E+00 7.3044172E-01 1.7854183E+00
 4.2263091E+00 7.4823875E-01 1.7913628E+00
 4.1548627E+00 7.6763996E-01 1.7955768E+00
 4.0844668E+00 7.8867972E-01 1.7976533E+00
 4.0156228E+00 8.1132786E-01 1.7972387E+00
 3.9488254E+00 8.3548605E-01 1.7940604E+00
 3.8845469E+00 8.6099116E-01 1.7879455E+00
 3.8232172E+00 8.8762496E-01 1.7788319E+00
 3.7652063E+00 9.1512750E-01 1.7667685E+00
 3.7108083E+00 9.4321551E-01 1.7519048E+00
 3.6602366E+00 9.7159554E-01 1.7344790E+00
 3.6135836E+00 9.9999998E-01 1.7147613E+00
 4.9615320E+00 6.3995100E-01 1.7244646E+00
 4.9025789E+00 6.5047962E-01 1.7303752E+00
 4.8412262E+00 6.6138561E-01 1.7368990E+00
 4.7775558E+00 6.7274848E-01 1.7440469E+00
 4.7117373E+00 6.8466135E-01 1.7517722E+00
 4.6439901E+00 6.9724400E-01 1.7599721E+00
 4.5745845E+00 7.1063842E-01 1.7684742E+00
 4.5038396E+00 7.2500222E-01 1.7770338E+00
 4.4321196E+00 7.4049906E-01 1.7853341E+00
 4.3598296E+00 7.5728497E-01 1.7929969E+00
 4.2874109E+00 7.7549361E-01 1.7995986E+00
 4.2153336E+00 7.9522032E-01 1.8046952E+00
 4.1440910E+00 8.1650903E-01 1.8078510E+00
 4.0741870E+00 8.3934147E-01 1.8086696E+00
 4.0061250E+00 8.6363271E-01 1.8068241E+00
 3.9403913E+00 8.8923287E-01 1.8020817E+00
 3.8774368E+00 9.1593417E-01 1.7943191E+00
 3.8176589E+00 9.4348431E-01 1.7835291E+00
 3.7613858E+00 9.7160371E-01 1.7698147E+00
 3.7088630E+00 9.9999998E-01 1.7533751E+00
 3.6602366E+00 1.0284044E+00 1.7344790E+00
 4.9603508E+00 6.7127814E-01 1.7392259E+00
 4.9002407E+00 6.8302441E-01 1.7451282E+00
 4.8377231E+00 6.9523572E-01 1.7516389E+00
 4.7729204E+00 7.0798847E-01 1.7587490E+00
 4.7060261E+00 7.2138394E-01 1.7663980E+00
 4.6372932E+00 7.3554452E-01 1.7744600E+00
 4.5670259E+00 7.5061072E-01 1.7827354E+00
 4.4955778E+00 7.6673183E-01 1.7909490E+00
 4.4233463E+00 7.8405459E-01 1.7987538E+00
 4.3507674E+00 8.0270867E-01 1.8057452E+00
 4.2783083E+00 8.2279137E-01 1.8114812E+00
 4.2064601E+00 8.4435316E-01 1.8155112E+00
 4.1357278E+00 8.6738646E-01 1.8174069E+00
 4.0666188E+00 8.9181931E-01 1.8167953E+00
 3.9996282E+00 9.1751489E-01 1.8133863E+00
 3.9352224E+00 9.4427739E-01 1.8069950E+00
 3.8738219E+00 9.7186362E-01 1.7975530E+00
 3.8157824E+00 9.9999998E-01 1.7851076E+00
 3.7613858E+00 1.0283963E+00 1.7698147E+00
 3.7108083E+00 1.0567845E+00 1.7519048E+00
 4.9592668E+00 7.0449829E-01 1.7531430E+00
 4.8980715E+00 7.1751843E-01 1.7589289E+00
 4.8344977E+00 7.3107874E-01 1.7652977E+00
 4.7686912E+00 7.4526481E-01 1.7722284E+00
 4.7008779E+00 7.6018010E-01 1.7796419E+00
 4.6313440E+00 7.7594674E-01 1.7873890E+00
 4.5604280E+00 7.9269836E-01 1.7952429E+00
 4.4885167E+00 8.1056963E-01 1.8029003E+00
 4.4160382E+00 8.2968339E-01 1.8099883E+00
 4.3434545E+00 8.5013567E-01 1.8160831E+00
 4.2712532E+00 8.7198118E-01 1.8207339E+00
 4.1999378E+00 8.9522111E-01 1.8234946E+00
 4.1300163E+00 9.1979534E-01 1.8239566E+00
 4.0619889E+00 9.4558016E-01 1.8217807E+00
 3.9963323E+00 9.7239256E-01 1.8167228E+00
 3.9334833E+00 9.9999998E-01 1.8086514E+00
 3.8738219E+00 1.0281363E+00 1.7975530E+00
 3.8176589E+00 1.0565157E+00 1.7835291E+00
 3.7652063E+00 1.0848725E+00 1.7667685E+00
 4.9582594E+00 7.3953419E-01 1.7659855E+00
 4.8960876E+00 7.5385560E-01 1.7715282E+00
 4.8315875E+00 7.6879123E-01 1.7776152E+00
 4.7649338E+00 7.8442916E-01 1.7842108E+00
 4.6963854E+00 8.0087308E-01 1.7912163E+00
 4.6262619E+00 8.1823957E-01 1.7984591E+00
 4.5549348E+00 8.3664979E-01 1.8056871E+00
 4.4828214E+00 8.5621733E-01 1.8125728E+00
 4.4103758E+00 8.7703455E-01 1.8187241E+00
 4.3380804E+00 8.9915809E-01 1.8237071E+00
 4.2664352E+00 9.2259611E-01 1.8270729E+00
 4.1959472E+00 9.4729932E-01 1.8283921E+00
 4.1271181E+00 9.7315713E-01 1.8272868E+00
 4.0604304E+00 9.9999998E-01 1.8234611E+00
 3.9963323E+00 1.0276074E+00 1.8167228E+00
 3.9352224E+00 1.0557226E+00 1.8069950E+00
 3.8774368E+00 1.0840658E+00 1.7943191E+00
 3.8232172E+00 1.1123750E+00 1.7788319E+00
 4.9573554E+00 7.7628643E-01 1.7775330E+00
 4.8943307E+00 7.9191388E-01 1.7826946E+00
 4.8290547E+00 8.0822101E-01 1.7883474E+00
 4.7617309E+00 8.2529603E-01 1.7944405E+00
 4.6926513E+00 8.4323868E-01 1.8008555E+00
 4.6221682E+00 8.6215525E-01 1.8073977E+00
 4.5506829E+00 8.8214868E-01 1.8137932E+00
 4.4786389E+00 9.0330561E-01 1.8196961E+00
 4.4065109E+00 9.2568254E-01 1.8247035E+00
 4.3347935E+00 9.4929321E-01 1.8283817E+00
 4.2639909E+00 9.7409825E-01 1.8302954E+00
 4.1946040E+00 9.9999998E-01 1.8300430E+00
 4.1271181E+00 1.0268428E+00 1.8272868E+00
 4.0619889E+00 1.0544198E+00 1.8217807E+00
 3.9996282E+00 1.0824851E+00 1.8133863E+00
 3.9403913E+00 1.1107671E+00 1.8020817E+00
 3.8845469E+00 1.1390088E+00 1.7879455E+00
 4.9565694E+00 8.1460203E-01 1.7875653E+00
 4.8928354E+00 8.3151112E-01 1.7922002E+00
 4.8269523E+00 8.4915369E-01 1.7972605E+00
 4.7591539E+00 8.6761452E-01 1.8026793E+00
 4.6897639E+00 8.8698502E-01 1.8083198E+00
 4.6191642E+00 9.0735646E-01 1.8139682E+00
 4.5477824E+00 9.2880831E-01 1.8193336E+00
 4.4760820E+00 9.5139568E-01 1.8240594E+00
 4.4045505E+00 9.7513634E-01 1.8277415E+00
 4.3336871E+00 9.9999998E-01 1.8299570E+00
 4.2639909E+00 1.0259017E+00 1.8302954E+00
 4.1959472E+00 1.0527007E+00 1.8283921E+00
 4.1300163E+00 1.0802046E+00 1.8239566E+00
 4.0666188E+00 1.1081807E+00 1.8167953E+00
 4.0061250E+00 1.1363673E+00 1.8068241E+00
 3.9488254E+00 1.1645139E+00 1.7940604E+00
 4.9559184E+00 8.5428112E-01 1.7958769E+00
 4.8916341E+00 8.7241623E-01 1.7998377E+00
 4.8253287E+00 8.9132282E-01 1.8041472E+00
 4.7572649E+00 9.1107906E-01 1.8087234E+00
 4.6877957E+00 9.3176420E-01 1.8134133E+00
 4.6173287E+00 9.5344969E-01 1.8179879E+00
 4.5463117E+00 9.7618805E-01 1.8221462E+00
 4.4752215E+00 9.9999998E-01 1.8255292E+00
 4.4045505E+00 1.0248636E+00 1.8277415E+00
 4.3347935E+00 1.0507068E+00 1.8283817E+00
 4.2664352E+00 1.0774039E+00 1.8270729E+00
 4.1999378E+00 1.1047789E+00 1.8234946E+00
 4.1357278E+00 1.1326135E+00 1.8174069E+00
 4.0741870E+00 1.1606585E+00 1.8086696E+00
 4.0156228E+00 1.1886721E+00 1.7972387E+00
 4.9554162E+00 8.9507765E-01 1.8022862E+00
 4.8907547E+00 9.1434996E-01 1.8054303E+00
 4.8242232E+00 9.3441361E-01 1.8088387E+00
 4.7561115E+00 9.5533675E-01 1.8124160E+00
 4.6867984E+00 9.7718253E-01 1.8159962E+00
 4.6167113E+00 9.9999998E-01 1.8193410E+00
 4.5463117E+00 1.0238119E+00 1.8221462E+00
 4.4760820E+00 1.0486043E+00 1.8240594E+00
 4.4065109E+00 1.0743174E+00 1.8247035E+00
 4.3380804E+00 1.1008419E+00 1.8237071E+00
 4.2712532E+00 1.1280188E+00 1.8207339E+00
 4.2064601E+00 1.1556468E+00 1.8155112E+00
 4.1440910E+00 1.1834909E+00 1.8078510E+00
 4.0844668E+00 1.2113203E+00 1.7976533E+00
 4.9550746E+00 9.3670484E-01 1.8066461E+00
 4.8902181E+00 9.5699370E-01 1.8088428E+00
 4.8236632E+00 9.7807369E-01 1.8112155E+00
 4.7557236E+00 9.9999998E-01 1.8136582E+00
 4.6867984E+00 1.0228174E+00 1.8159962E+00
 4.6173287E+00 1.0465503E+00 1.8179879E+00
 4.5477824E+00 1.0711917E+00 1.8193337E+00
 4.4786389E+00 1.0966944E+00 1.8196961E+00
 4.4103758E+00 1.1229654E+00 1.8187241E+00
 4.3434545E+00 1.1498643E+00 1.8160832E+00
 4.2783083E+00 1.1772086E+00 1.8114812E+00
 4.2153336E+00 1.2047796E+00 1.8046953E+00
 4.1548627E+00 1.2323600E+00 1.7955768E+00
 4.9549017E+00 9.7884394E-01 1.8088528E+00
 4.8900378E+00 9.9999998E-01 1.8099899E+00
 4.8236632E+00 1.0219263E+00 1.8112155E+00
 4.7561115E+00 1.0446632E+00 1.8124160E+00
 4.6877957E+00 1.0682358E+00 1.8134133E+00
 4.6191642E+00 1.0926435E+00 1.8139682E+00
 4.5506829E+00 1.1178513E+00 1.8137932E+00
 4.4828214E+00 1.1437826E+00 1.8125728E+00
 4.4160382E+00 1.1703166E+00 1.8099884E+00
 4.3507674E+00 1.1972913E+00 1.8057452E+00
 4.2874109E+00 1.2245064E+00 1.7995986E+00
 4.2263091E+00 1.2517612E+00 1.7913628E+00
 4.9549017E+00 1.0211560E+00 1.8088528E+00
 4.8902181E+00 1.0430063E+00 1.8088428E+00
 4.8242232E+00 1.0655864E+00 1.8088387E+00
 4.7572649E+00 1.0889209E+00 1.8087234E+00
 4.6897639E+00 1.1130150E+00 1.8083199E+00
 4.6221682E+00 1.1378447E+00 1.8073977E+00
 4.5549348E+00 1.1633502E+00 1.8056871E+00
 4.4885167E+00 1.1894303E+00 1.8029003E+00
 4.4233463E+00 1.2159454E+00 1.7987538E+00
 4.3598296E+00 1.2427150E+00 1.7929969E+00
 4.2983137E+00 1.2695583E+00 1.7854183E+00
 4.9550746E+00 1.0632951E+00 1.8066461E+00
 4.8907547E+00 1.0856500E+00 1.8054303E+00
 4.8253287E+00 1.1086772E+00 1.8041472E+00
 4.7591539E+00 1.1323855E+00 1.8026793E+00
 4.6926513E+00 1.1567613E+00 1.8008555E+00
 4.6262619E+00 1.1817604E+00 1.7984591E+00
 4.5604280E+00 1.2073016E+00 1.7952429E+00
 4.4955778E+00 1.2332681E+00 1.7909490E+00
 4.4321196E+00 1.2595009E+00 1.7853341E+00
 4.3704043E+00 1.2858421E+00 1.7781756E+00
 4.9554162E+00 1.1049223E+00 1.8022862E+00
 4.8916341E+00 1.1275837E+00 1.7998377E+00
 4.8269523E+00 1.1508463E+00 1.7972605E+00
 4.7617309E+00 1.1747039E+00 1.7944405E+00
 4.6963854E+00 1.1991269E+00 1.7912163E+00
 4.6313440E+00 1.2240532E+00 1.7873890E+00
 4.5670259E+00 1.2493893E+00 1.7827354E+00
 4.5038396E+00 1.2749978E+00 1.7770338E+00
 4.4421365E+00 1.3007467E+00 1.7700620E+00
 4.9559184E+00 1.1457188E+00 1.7958769E+00
 4.8928354E+00 1.1684889E+00 1.7922002E+00
 4.8290547E+00 1.1917790E+00 1.7883475E+00
 4.7649338E+00 1.2155708E+00 1.7842108E+00
 4.7008779E+00 1.2398199E+00 1.7796420E+00
 4.6372932E+00 1.2644555E+00 1.7744600E+00
 4.5745845E+00 1.2893616E+00 1.7684743E+00
 4.5131001E+00 1.3144346E+00 1.7614749E+00
 4.9565694E+00 1.1853979E+00 1.7875653E+00
 4.8943307E+00 1.2080861E+00 1.7826946E+00
 4.8315875E+00 1.2312087E+00 1.7776152E+00
 4.7686912E+00 1.2547352E+00 1.7722285E+00
 4.7060261E+00 1.2786160E+00 1.7663981E+00
 4.6439901E+00 1.3027560E+00 1.7599721E+00
 4.5829232E+00 1.3270806E+00 1.7527613E+00
 4.9573554E+00 1.2237135E+00 1.7775330E+00
 4.8960876E+00 1.2461444E+00 1.7715282E+00
 4.8344977E+00 1.2689212E+00 1.7652977E+00
 4.7729204E+00 1.2920115E+00 1.7587491E+00
 4.7117373E+00 1.3153386E+00 1.7517723E+00
 4.6512762E+00 1.3388579E+00 1.7442051E+00
 4.9582594E+00 1.2604658E+00 1.7659855E+00
 4.8980715E+00 1.2824815E+00 1.7589290E+00
 4.8377231E+00 1.3047643E+00 1.7516389E+00
 4.7775558E+00 1.3272515E+00 1.7440470E+00
 4.7178747E+00 1.3499266E+00 1.7360204E+00
 4.9592668E+00 1.2955017E+00 1.7531430E+00
 4.9002407E+00 1.3169756E+00 1.7451282E+00
 4.8412262E+00 1.3386144E+00 1.7368990E+00
 4.7824805E+00 1.3604254E+00 1.7283534E+00
 4.9603508E+00 1.3287218E+00 1.7392259E+00
 4.9025789E+00 1.3495204E+00 1.7303752E+00
 4.8449057E+00 1.3704679E+00 1.7212869E+00
 4.9615320E+00 1.3600490E+00 1.7244646E+00
 4.9050128E+00 1.3801389E+00 1.7148503E+00
 4.9627012E+00 1.3895047E+00 1.7090419E+00
 5.0180672E+00 1.3989191E+00 1.7035879E+00
 5.0180673E+00 1.3704995E+00 1.7189980E+00
 5.0180673E+00 1.3403345E+00 1.7337670E+00
 5.0180673E+00 1.3082949E+00 1.7478078E+00
 5.0180673E+00 1.2744732E+00 1.7608842E+00
 5.0180674E+00 1.2389404E+00 1.7727914E+00
 5.0180674E+00 1.2018262E+00 1.7833151E+00
 5.0180674E+00 1.1633014E+00 1.7922528E+00
 5.0180674E+00 1.1235829E+00 1.7994197E+00
 5.0180674E+00 1.0829281E+00 1.8046597E+00
 5.0180675E+00 1.0416284E+00 1.8078536E+00
 5.0180675E+00 9.9999998E-01 1.8089267E+00
 5.0180675E+00 9.5837152E-01 1.8078536E+00
 5.0180674E+00 9.1707188E-01 1.8046597E+00
 5.0180674E+00 8.7641707E-01 1.7994197E+00
 5.0180674E+00 8.3669855E-01 1.7922528E+00
 5.0180674E+00 7.9817381E-01 1.7833151E+00
 5.0180674E+00 7.6105955E-01 1.7727914E+00
 5.0180673E+00 7.2552675E-01 1.7608842E+00
 5.0180673E+00 6.9170502E-01 1.7478078E+00
 5.0180673E+00 6.5966549E-01 1.7337670E+00
 5.0180673E+00 6.2950043E-01 1.7189980E+00
 5.0180672E+00 6.0108089E-01 1.7035879E+00
 5.0716315E+00 5.8261494E-01 1.6932484E+00
 5.1280669E+00 5.9080675E-01 1.6990749E+00
 5.1869096E+00 5.9924238E-01 1.7055135E+00
 5.2480252E+00 6.0797019E-01 1.7125552E+00
 5.3113493E+00 6.1708743E-01 1.7201831E+00
 5.3767093E+00 6.2670070E-01 1.7283140E+00
 5.4439046E+00 6.3694866E-01 1.7368122E+00
 5.5126840E+00 6.4799245E-01 1.7454775E+00
 5.5827516E+00 6.6001043E-01 1.7540455E+00
 5.6537661E+00 6.7318747E-01 1.7621935E+00
 5.7253433E+00 6.8770111E-01 1.7695518E+00
 5.7970584E+00 7.0370679E-01 1.7757234E+00
 5.8684529E+00 7.2132213E-01 1.7803069E+00
 5.9390427E+00 7.4061401E-01 1.7829236E+00
 6.0083297E+00 7.6158899E-01 1.7832427E+00
 6.0758182E+00 7.8418883E-01 1.7810037E+00
 6.1410324E+00 8.0829244E-01 1.7760326E+00
 6.2035341E+00 8.3372182E-01 1.7682506E+00
 6.2629395E+00 8.6025373E-01 1.7576740E+00
 6.3189331E+00 8.8763241E-01 1.7444084E+00
 6.3712772E+00 9.1558666E-01 1.7286340E+00
 6.4198168E+00 9.4384159E-01 1.7105933E+00
 6.4645060E+00 9.7215231E-01 1.6905657E+00
 5.0734315E+00 1.3896059E+00 1.7092260E+00
 5.1311146E+00 1.3803365E+00 1.7152219E+00
 5.1912131E+00 1.3707522E+00 1.7218409E+00
 5.2536279E+00 1.3607814E+00 1.7290732E+00
 5.3182234E+00 1.3503332E+00 1.7368759E+00
 5.3848144E+00 1.3392885E+00 1.7451510E+00
 5.4531650E+00 1.3275041E+00 1.7537360E+00
 5.5229927E+00 1.3148170E+00 1.7624010E+00
 5.5939670E+00 1.3010540E+00 1.7708488E+00
 5.6657127E+00 1.2860436E+00 1.7787241E+00
 5.7378124E+00 1.2696306E+00 1.7856289E+00
 5.8098116E+00 1.2516923E+00 1.7911458E+00
 5.8812265E+00 1.2321521E+00 1.7948645E+00
 5.9515546E+00 1.2109911E+00 1.7964106E+00
 6.0202890E+00 1.1882540E+00 1.7954717E+00
 6.0869363E+00 1.1640494E+00 1.7918184E+00
 6.1510337E+00 1.1385452E+00 1.7853177E+00
 6.2121676E+00 1.1119575E+00 1.7759381E+00
 6.2699886E+00 1.0845379E+00 1.7637454E+00
 6.3242243E+00 1.0565571E+00 1.7488920E+00
 6.3746799E+00 1.0282931E+00 1.7316046E+00
 6.4212762E+00 9.9999998E-01 1.7121353E+00
 5.0746009E+00 1.3601447E+00 1.7246564E+00
 5.1335483E+00 1.3497060E+00 1.7307624E+00
 5.1948923E+00 1.3388795E+00 1.7374751E+00
 5.2585521E+00 1.3275802E+00 1.7447934E+00
 5.3243602E+00 1.3157096E+00 1.7526558E+00
 5.3921002E+00 1.3031432E+00 1.7609432E+00
 5.4615042E+00 1.2897354E+00 1.7694664E+00
 5.5322545E+00 1.2753273E+00 1.7779643E+00
 5.6039859E+00 1.2597566E+00 1.7861076E+00
 5.6762893E+00 1.2428724E+00 1.7935108E+00
 5.7487156E+00 1.2245496E+00 1.7997524E+00
 5.8207841E+00 1.2047050E+00 1.8044015E+00
 5.8919903E+00 1.1833085E+00 1.8070474E+00
 5.9618208E+00 1.1603923E+00 1.8073296E+00
 6.0297679E+00 1.1360528E+00 1.8049632E+00
 6.0953484E+00 1.1104463E+00 1.7997584E+00
 6.1581218E+00 1.0837812E+00 1.7916294E+00
 6.2177075E+00 1.0563041E+00 1.7805952E+00
 6.2737968E+00 1.0282842E+00 1.7667715E+00
 6.3261642E+00 9.9999998E-01 1.7503558E+00
 6.3746799E+00 9.7170685E-01 1.7316046E+00
 5.0757818E+00 1.3288109E+00 1.7394258E+00
 5.1358861E+00 1.3171470E+00 1.7455310E+00
 5.1983948E+00 1.3050067E+00 1.7522368E+00
 5.2631865E+00 1.2923087E+00 1.7595212E+00
 5.3300705E+00 1.2789469E+00 1.7673081E+00
 5.3987965E+00 1.2647949E+00 1.7754542E+00
 5.4690628E+00 1.2497101E+00 1.7837425E+00
 5.5405171E+00 1.2335433E+00 1.7918819E+00
 5.6127607E+00 1.2161507E+00 1.7995131E+00
 5.6853528E+00 1.1974092E+00 1.8062265E+00
 5.7578181E+00 1.1772312E+00 1.8115843E+00
 5.8296548E+00 1.1555784E+00 1.8151523E+00
 5.9003468E+00 1.1324713E+00 1.8165300E+00
 5.9693785E+00 1.1079935E+00 1.8153819E+00
 6.0362513E+00 1.0822898E+00 1.8114605E+00
 6.1005034E+00 1.0555587E+00 1.8046222E+00
 6.1617255E+00 1.0280403E+00 1.7948323E+00
 6.2195777E+00 9.9999998E-01 1.7821607E+00
 6.2737968E+00 9.7171578E-01 1.7667715E+00
 6.3242243E+00 9.4344292E-01 1.7488920E+00
 5.0768658E+00 1.2955833E+00 1.7533504E+00
 5.1380552E+00 1.2826370E+00 1.7593462E+00
 5.2016197E+00 1.2691386E+00 1.7659158E+00
 5.2674151E+00 1.2549977E+00 1.7730242E+00
 5.3352181E+00 1.2401071E+00 1.7805756E+00
 5.4047454E+00 1.2243418E+00 1.7884031E+00
 5.4756611E+00 1.2075673E+00 1.7962622E+00
 5.5475793E+00 1.1896506E+00 1.8038337E+00
 5.6200702E+00 1.1704734E+00 1.8107340E+00
 5.6926668E+00 1.1499475E+00 1.8165359E+00
 5.7648730E+00 1.1280285E+00 1.8207957E+00
 5.8361747E+00 1.1047269E+00 1.8230861E+00
 5.9060533E+00 1.0801143E+00 1.8230284E+00
 5.9740014E+00 1.0543232E+00 1.8203218E+00
 6.0395401E+00 1.0275412E+00 1.8147639E+00
 6.1022379E+00 9.9999998E-01 1.8062618E+00
 6.1617255E+00 9.7195967E-01 1.7948323E+00
 6.2177075E+00 9.4369588E-01 1.7805952E+00
 6.2699886E+00 9.1546210E-01 1.7637454E+00
 5.0778733E+00 1.2605389E+00 1.7662001E+00
 5.1400389E+00 1.2462819E+00 1.7719590E+00
 5.2045294E+00 1.2313981E+00 1.7782518E+00
 5.2711719E+00 1.2157954E+00 1.7850276E+00
 5.3397101E+00 1.1993671E+00 1.7921706E+00
 5.4098273E+00 1.1819951E+00 1.7994899E+00
 5.4811546E+00 1.1635587E+00 1.8067158E+00
 5.5532754E+00 1.1439477E+00 1.8135056E+00
 5.6257337E+00 1.1230757E+00 1.8194580E+00
 5.6980417E+00 1.1008946E+00 1.8241377E+00
 5.7696908E+00 1.0774069E+00 1.8271054E+00
 5.8401637E+00 1.0526727E+00 1.8279524E+00
 5.9089490E+00 1.0268119E+00 1.8263322E+00
 5.9755576E+00 9.9999998E-01 1.8219869E+00
 6.0395401E+00 9.7245876E-01 1.8147639E+00
 6.1005034E+00 9.4444126E-01 1.8046222E+00
 6.1581218E+00 9.1621879E-01 1.7916294E+00
 6.2121676E+00 8.8804248E-01 1.7759381E+00
 5.0787773E+00 1.2237773E+00 1.7777540E+00
 5.1417956E+00 1.2082040E+00 1.7831375E+00
 5.2070618E+00 1.1919378E+00 1.7890002E+00
 5.2743744E+00 1.1748876E+00 1.7952753E+00
 5.3434438E+00 1.1569514E+00 1.8018269E+00
 5.4139209E+00 1.1380230E+00 1.8084418E+00
 5.4854067E+00 1.1180013E+00 1.8148287E+00
 5.5574585E+00 1.0968043E+00 1.8206279E+00
 5.6295993E+00 1.0743828E+00 1.8254288E+00
 5.7013290E+00 1.0507323E+00 1.8287983E+00
 5.7721350E+00 1.0259023E+00 1.8303128E+00
 5.8415064E+00 9.9999998E-01 1.8295928E+00
 5.9089490E+00 9.7318809E-01 1.8263322E+00
 5.9740014E+00 9.4567674E-01 1.8203218E+00
 6.0362513E+00 9.1771017E-01 1.8114605E+00
 6.0953484E+00 8.8955367E-01 1.7997584E+00
 6.1510337E+00 8.6145474E-01 1.7853177E+00
 5.0795633E+00 1.1854514E+00 1.7877921E+00
 5.1432908E+00 1.1685854E+00 1.7926536E+00
 5.2091640E+00 1.1509724E+00 1.7979269E+00
 5.2769510E+00 1.1325256E+00 1.8035287E+00
 5.3463308E+00 1.1131526E+00 1.8093044E+00
 5.4169248E+00 1.0927634E+00 1.8150218E+00
 5.4883074E+00 1.0712820E+00 1.8203736E+00
 5.5600158E+00 1.0486592E+00 1.8249904E+00
 5.6315600E+00 1.0248853E+00 1.8284622E+00
 5.7024355E+00 9.9999998E-01 1.8303688E+00
 5.7721350E+00 9.7409770E-01 1.8303128E+00
 5.8401637E+00 9.4732726E-01 1.8279524E+00
 5.9060533E+00 9.1988565E-01 1.8230284E+00
 5.9693785E+00 8.9200646E-01 1.8153819E+00
 6.0297679E+00 8.6394719E-01 1.8049632E+00
 6.0869363E+00 8.3595053E-01 1.7918184E+00
 5.0802142E+00 1.1457613E+00 1.7961085E+00
 5.1444920E+00 1.1276575E+00 1.8002996E+00
 5.2107873E+00 1.1087687E+00 1.8048241E+00
 5.2788397E+00 1.0890155E+00 1.8095835E+00
 5.3482988E+00 1.0683191E+00 1.8144068E+00
 5.4187602E+00 1.0466106E+00 1.8190473E+00
 5.4897782E+00 1.0238421E+00 1.8231883E+00
 5.5608764E+00 9.9999998E-01 1.8264598E+00
 5.6315600E+00 9.7511469E-01 1.8284622E+00
 5.7013290E+00 9.4926770E-01 1.8287983E+00
 5.7696908E+00 9.2259303E-01 1.8271054E+00
 5.8361747E+00 8.9527304E-01 1.8230861E+00
 5.9003468E+00 8.6752866E-01 1.8165300E+00
 5.9618208E+00 8.3960764E-01 1.8073296E+00
 6.0202890E+00 8.1174599E-01 1.7954716E+00
 5.0807164E+00 1.1049532E+00 1.8025215E+00
 5.1453714E+00 1.0856998E+00 1.8058985E+00
 5.2118927E+00 1.0656419E+00 1.8095229E+00
 5.2799929E+00 1.0447109E+00 1.8132827E+00
 5.3492961E+00 1.0228453E+00 1.8169943E+00
 5.4193776E+00 9.9999998E-01 1.8204023E+00
 5.4897782E+00 9.7615786E-01 1.8231883E+00
 5.5600158E+00 9.5134077E-01 1.8249904E+00
 5.6295993E+00 9.2561717E-01 1.8254288E+00
 5.6980417E+00 8.9910534E-01 1.8241377E+00
 5.7648730E+00 8.7197149E-01 1.8207957E+00
 5.8296548E+00 8.4442159E-01 1.8151523E+00
 5.8919903E+00 8.1669149E-01 1.8070474E+00
 5.9515546E+00 7.8900884E-01 1.7964106E+00
 5.0810580E+00 1.0633138E+00 1.8068839E+00
 5.1459078E+00 1.0430314E+00 1.8093147E+00
 5.2124526E+00 1.0219449E+00 1.8119033E+00
 5.2803808E+00 9.9999998E-01 1.8145270E+00
 5.3492961E+00 9.7715462E-01 1.8169943E+00
 5.4187602E+00 9.5338940E-01 1.8190473E+00
 5.4883074E+00 9.2871795E-01 1.8203736E+00
 5.5574585E+00 9.0319567E-01 1.8206279E+00
 5.6257337E+00 8.7692430E-01 1.8194580E+00
 5.6926668E+00 8.5005248E-01 1.8165359E+00
 5.7578181E+00 8.2276879E-01 1.8115843E+00
 5.8207841E+00 7.9529501E-01 1.8044015E+00
 5.8812265E+00 7.6784789E-01 1.7948645E+00
 5.0812309E+00 1.0211623E+00 1.8090919E+00
 5.1460881E+00 9.9999998E-01 1.8104632E+00
 5.2124526E+00 9.7805509E-01 1.8119033E+00
 5.2799929E+00 9.5528909E-01 1.8132827E+00
 5.3482988E+00 9.3168086E-01 1.8144068E+00
 5.4169248E+00 9.0723654E-01 1.8150218E+00
 5.4854067E+00 8.8199871E-01 1.8148287E+00
 5.5532754E+00 8.5605225E-01 1.8135056E+00
 5.6200702E+00 8.2952656E-01 1.8107340E+00
 5.6853528E+00 8.0259079E-01 1.8062265E+00
 5.7487156E+00 7.7545035E-01 1.7997524E+00
 5.8098116E+00 7.4830766E-01 1.7911458E+00
 5.0812309E+00 9.7883767E-01 1.8090919E+00
 5.1459078E+00 9.5696859E-01 1.8093147E+00
 5.2118927E+00 9.3435811E-01 1.8095229E+00
 5.2788397E+00 9.1098448E-01 1.8095835E+00
 5.3463308E+00 8.8684736E-01 1.8093044E+00
 5.4139209E+00 8.6197700E-01 1.8084418E+00
 5.4811546E+00 8.3644122E-01 1.8067158E+00
 5.5475793E+00 8.1034937E-01 1.8038337E+00
 5.6127607E+00 7.8384928E-01 1.7995131E+00
 5.6762893E+00 7.5712758E-01 1.7935108E+00
 5.7378124E+00 7.3036934E-01 1.7856289E+00
 5.0810580E+00 9.3668614E-01 1.8068839E+00
 5.1453714E+00 9.1430013E-01 1.8058985E+00
 5.2107873E+00 8.9123130E-01 1.8048241E+00
 5.2769510E+00 8.6747440E-01 1.8035287E+00
 5.3434438E+00 8.4304852E-01 1.8018269E+00
 5.4098273E+00 8.1800490E-01 1.7994899E+00
 5.4756611E+00 7.9243263E-01 1.7962622E+00
 5.5405171E+00 7.6645669E-01 1.7918819E+00
 5.6039859E+00 7.4024334E-01 1.7861076E+00
 5.6657127E+00 7.1395633E-01 1.7787241E+00
 5.0807164E+00 8.9504681E-01 1.8025215E+00
 5.1444920E+00 8.7234249E-01 1.8002996E+00
 5.2091640E+00 8.4902755E-01 1.7979269E+00
 5.2743744E+00 8.2511241E-01 1.7952753E+00
 5.3397101E+00 8.0063288E-01 1.7921706E+00
 5.4047454E+00 7.7565813E-01 1.7884031E+00
 5.4690628E+00 7.5028983E-01 1.7837425E+00
 5.5322545E+00 7.2467267E-01 1.7779643E+00
 5.5939670E+00 6.9894593E-01 1.7708488E+00
 5.0802142E+00 8.5423863E-01 1.7961085E+00
 5.1432908E+00 8.3141459E-01 1.7926536E+00
 5.2070618E+00 8.0806213E-01 1.7890002E+00
 5.2711719E+00 7.8420458E-01 1.7850276E+00
 5.3352181E+00 7.5989284E-01 1.7805756E+00
 5.3987965E+00 7.3520505E-01 1.7754542E+00
 5.4615042E+00 7.1026457E-01 1.7694664E+00
 5.5229927E+00 6.8518294E-01 1.7624010E+00
 5.0795633E+00 8.1454852E-01 1.7877921E+00
 5.1417956E+00 7.9179600E-01 1.7831375E+00
 5.2045294E+00 7.6860187E-01 1.7782518E+00
 5.2674151E+00 7.4500223E-01 1.7730242E+00
 5.3300705E+00 7.2105311E-01 1.7673081E+00
 5.3921002E+00 6.9685681E-01 1.7609432E+00
 5.4531650E+00 6.7249591E-01 1.7537360E+00
 5.0787773E+00 7.7622268E-01 1.7777541E+00
 5.1400389E+00 7.5371802E-01 1.7719590E+00
 5.2016197E+00 7.3086141E-01 1.7659158E+00
 5.2631865E+00 7.0769125E-01 1.7595213E+00
 5.3243602E+00 6.8429037E-01 1.7526558E+00
 5.3848144E+00 6.6071149E-01 1.7451510E+00
 5.0778733E+00 7.3946107E-01 1.7662001E+00
 5.1380552E+00 7.1736294E-01 1.7593462E+00
 5.1983948E+00 6.9499321E-01 1.7522369E+00
 5.2585521E+00 6.7241978E-01 1.7447934E+00
 5.3182234E+00 6.4966680E-01 1.7368759E+00
 5.0768658E+00 7.0441669E-01 1.7533504E+00
 5.1358861E+00 6.8285297E-01 1.7455310E+00
 5.1948923E+00 6.6112047E-01 1.7374751E+00
 5.2536279E+00 6.3921860E-01 1.7290732E+00
 5.0757818E+00 6.7118908E-01 1.7394258E+00
 5.1335483E+00 6.5029393E-01 1.7307624E+00
 5.1912131E+00 6.2924771E-01 1.7218409E+00
 5.0746009E+00 6.3985531E-01 1.7246564E+00
 5.1311146E+00 6.1966349E-01 1.7152219E+00
 5.0734315E+00 6.1039409E-01 1.7092260E+00
 4.9849373E+00 1.4460635E+00 1.6747527E+00
 4.9500376E+00 1.4677803E+00 1.6601668E+00
 4.9138125E+00 1.4900577E+00 1.6443398E+00
 4.8762281E+00 1.5128626E+00 1.6271915E+00
 4.8374566E+00 1.5361259E+00 1.6086173E+00
 4.7976498E+00 1.5597423E+00 1.5885273E+00
 4.7570117E+00 1.5835816E+00 1.5668321E+00
 4.7157791E+00 1.6074821E+00 1.5434534E+00
 4.6742224E+00 1.6312516E+00 1.5183289E+00
 4.6326378E+00 1.6546694E+00 1.4914213E+00
 4.5913396E+00 1.6774913E+00 1.4627266E+00
 4.5506499E+00 1.6994578E+00 1.4322820E+00
 4.5108864E+00 1.7203056E+00 1.4001718E+00
 4.4723521E+00 1.7397801E+00 1.3665305E+00
 4.4353231E+00 1.7576489E+00 1.3315420E+00
 4.4000402E+00 1.7737146E+00 1.2954344E+00
 4.3667002E+00 1.7878246E+00 1.2584709E+00
 4.3354531E+00 1.7998781E+00 1.2209393E+00
 4.3063987E+00 1.8098284E+00 1.1831375E+00
 4.2795891E+00 1.8176815E+00 1.1453614E+00
 4.2550302E+00 1.8234919E+00 1.1078910E+00
 4.2326942E+00 1.8273560E+00 1.0709848E+00
 4.2124926E+00 1.8293943E+00 1.0348350E+00
 3.5590019E+00 1.0759429E+00 1.6832361E+00
 3.5500067E+00 1.1258782E+00 1.6708731E+00
 3.5442564E+00 1.1778014E+00 1.6557499E+00
 3.5422539E+00 1.2313192E+00 1.6376979E+00
 3.5444666E+00 1.2859016E+00 1.6166080E+00
 3.5513075E+00 1.3409116E+00 1.5924519E+00
 3.5630981E+00 1.3956258E+00 1.5652972E+00
 3.5800390E+00 1.4492618E+00 1.5353175E+00
 3.6021841E+00 1.5010187E+00 1.5027962E+00
 3.6294250E+00 1.5501237E+00 1.4681200E+00
 3.6614894E+00 1.5958813E+00 1.4317630E+00
 3.6979511E+00 1.6377191E+00 1.3942610E+00
 3.7382563E+00 1.6752217E+00 1.3561795E+00
 3.7817600E+00 1.7081517E+00 1.3180797E+00
 3.8277665E+00 1.7364511E+00 1.2804852E+00
 3.8755713E+00 1.7602277E+00 1.2438558E+00
 3.9244986E+00 1.7797278E+00 1.2085690E+00
 3.9739285E+00 1.7953013E+00 1.1749116E+00
 4.0233166E+00 1.8073644E+00 1.1430797E+00
 4.0722058E+00 1.8163646E+00 1.1131847E+00
 4.1202149E+00 1.8227538E+00 1.0852717E+00
 4.1670874E+00 1.8269545E+00 1.0593008E+00
 3.6058267E+00 1.1052291E+00 1.7033949E+00
 3.5991544E+00 1.1558864E+00 1.6907212E+00
 3.5958753E+00 1.2083422E+00 1.6751540E+00
 3.5964631E+00 1.2621310E+00 1.6565178E+00
 3.6013503E+00 1.3166715E+00 1.6347166E+00
 3.6108989E+00 1.3712788E+00 1.6097445E+00
 3.6253665E+00 1.4251936E+00 1.5817010E+00
 3.6448794E+00 1.4776174E+00 1.5507998E+00
 3.6694105E+00 1.5277572E+00 1.5173690E+00
 3.6987713E+00 1.5748749E+00 1.4818405E+00
 3.7326154E+00 1.6183369E+00 1.4447287E+00
 3.7704592E+00 1.6576540E+00 1.4066005E+00
 3.8117107E+00 1.6925093E+00 1.3680402E+00
 3.8557102E+00 1.7227676E+00 1.3296135E+00
 3.9017706E+00 1.7484687E+00 1.2918357E+00
 3.9492164E+00 1.7698039E+00 1.2551473E+00
 3.9974155E+00 1.7870835E+00 1.2198999E+00
 4.0458012E+00 1.8006995E+00 1.1863512E+00
 4.0938875E+00 1.8110885E+00 1.1546689E+00
 4.1412672E+00 1.8187012E+00 1.1249397E+00
 4.1876475E+00 1.8239714E+00 1.0971762E+00
 3.6567791E+00 1.1342435E+00 1.7213123E+00
 3.6526055E+00 1.1853728E+00 1.7081848E+00
 3.6519387E+00 1.2380501E+00 1.6920298E+00
 3.6552167E+00 1.2917655E+00 1.6726857E+00
 3.6628243E+00 1.3458878E+00 1.6500763E+00
 3.6750621E+00 1.3996966E+00 1.6242258E+00
 3.6921161E+00 1.4524137E+00 1.5952722E+00
 3.7140333E+00 1.5032443E+00 1.5634739E+00
 3.7407069E+00 1.5514254E+00 1.5292049E+00
 3.7718744E+00 1.5962756E+00 1.4929398E+00
 3.8071293E+00 1.6372407E+00 1.4552270E+00
 3.8459459E+00 1.6739271E+00 1.4166552E+00
 3.8877145E+00 1.7061204E+00 1.3778162E+00
 3.9317795E+00 1.7337846E+00 1.3392687E+00
 3.9774796E+00 1.7570455E+00 1.3015088E+00
 4.0241816E+00 1.7761621E+00 1.2649498E+00
 4.0713052E+00 1.7914899E+00 1.2299119E+00
 4.1183440E+00 1.8034437E+00 1.1966203E+00
 4.1648624E+00 1.8124651E+00 1.1652152E+00
 4.2105436E+00 1.8189890E+00 1.1357478E+00
 3.7117506E+00 1.1626951E+00 1.7366864E+00
 3.7102053E+00 1.2139968E+00 1.7229529E+00
 3.7122425E+00 1.2665636E+00 1.7060801E+00
 3.7182513E+00 1.3198413E+00 1.6859242E+00
 3.7285590E+00 1.3731625E+00 1.6624377E+00
 3.7433968E+00 1.4257861E+00 1.6356824E+00
 3.7628747E+00 1.4769347E+00 1.6058405E+00
 3.7869603E+00 1.5258386E+00 1.5732165E+00
 3.8154734E+00 1.5717864E+00 1.5382288E+00
 3.8480890E+00 1.6141714E+00 1.5013884E+00
 3.8843560E+00 1.6525319E+00 1.4632686E+00
 3.9237262E+00 1.6865752E+00 1.4244680E+00
 3.9655898E+00 1.7161863E+00 1.3855734E+00
 4.0093137E+00 1.7414178E+00 1.3471245E+00
 4.0542759E+00 1.7624662E+00 1.3095895E+00
 4.0998934E+00 1.7796387E+00 1.2733476E+00
 4.1456463E+00 1.7933164E+00 1.2386832E+00
 4.1910784E+00 1.8039213E+00 1.2057913E+00
 4.2358507E+00 1.8118796E+00 1.1747695E+00
 3.7705216E+00 1.1902656E+00 1.7492631E+00
 3.7716797E+00 1.2414221E+00 1.7347849E+00
 3.7764486E+00 1.2935312E+00 1.7170821E+00