# TIME = 7.200000
variables = x, y, z
zone N=5762 E=11520 F=FEPOINT ET=TRIANGLE
 6.2146207E+00 1.4262033E+00 1.6892582E+00
 6.2146208E+00 1.4262033E+00 3.1074184E-01
 6.2146208E+00 5.7379670E-01 1.6892583E+00
 6.2146208E+00 5.7379664E-01 3.1074165E-01
 4.7272198E+00 1.0000000E+00 1.6674646E+00
 7.7009617E+00 1.0000000E+00 1.6612802E+00
 4.7272197E+00 1.0000000E+00 3.3253529E-01
 7.7009616E+00 1.0000000E+00 3.3872003E-01
 5.3823864E+00 1.8497081E+00 1.0000000E+00
 5.3823864E+00 1.5029191E-01 1.0000000E+00
 7.0427756E+00 1.8191832E+00 1.0000000E+00
 7.0427756E+00 1.8081686E-01 1.0000000E+00
 6.1617380E+00 1.4189200E+00 1.6950089E+00
 6.1033566E+00 1.4110198E+00 1.7018120E+00
 6.0424060E+00 1.4029838E+00 1.7093614E+00
 5.9791297E+00 1.3947230E+00 1.7177160E+00
 5.9137832E+00 1.3861704E+00 1.7268331E+00
 5.8466403E+00 1.3771901E+00 1.7366239E+00
 5.7779693E+00 1.3676172E+00 1.7469171E+00
 5.7080655E+00 1.3572530E+00 1.7574579E+00
 5.6372399E+00 1.3458769E+00 1.7679077E+00
 5.5658223E+00 1.3332601E+00 1.7778526E+00
 5.4941616E+00 1.3191829E+00 1.7868220E+00
 5.4226274E+00 1.3034539E+00 1.7943140E+00
 5.3516136E+00 1.2859277E+00 1.7998278E+00
 5.2815386E+00 1.2665208E+00 1.8028976E+00
 5.2128441E+00 1.2452218E+00 1.8031258E+00
 5.1459858E+00 1.2220955E+00 1.8002110E+00
 5.0814203E+00 1.1972798E+00 1.7939675E+00
 5.0195889E+00 1.1709764E+00 1.7843349E+00
 4.9609004E+00 1.1434380E+00 1.7713776E+00
 4.9057106E+00 1.1149508E+00 1.7552743E+00
 4.8543298E+00 1.0858367E+00 1.7363111E+00
 4.8070018E+00 1.0564466E+00 1.7148513E+00
 4.7640364E+00 1.0272886E+00 1.6914084E+00
 6.1554735E+00 6.1079356E-01 1.7122433E+00
 6.0952849E+00 6.2043794E-01 1.7196234E+00
 6.0328993E+00 6.2988795E-01 1.7275427E+00
 5.9686534E+00 6.3943040E-01 1.7361193E+00
 5.9025966E+00 6.4933496E-01 1.7454064E+00
 5.8349579E+00 6.5978009E-01 1.7553066E+00
 5.7659928E+00 6.7095150E-01 1.7656292E+00
 5.6959909E+00 6.8303880E-01 1.7760877E+00
 5.6252669E+00 6.9624163E-01 1.7863124E+00
 5.5541558E+00 7.1075653E-01 1.7958644E+00
 5.4830116E+00 7.2676136E-01 1.8042575E+00
 5.4122069E+00 7.4439788E-01 1.8109870E+00
 5.3421345E+00 7.6375683E-01 1.8155626E+00
 5.2732076E+00 7.8486697E-01 1.8175424E+00
 5.2058556E+00 8.0769044E-01 1.8165644E+00
 5.1405154E+00 8.3212443E-01 1.8123705E+00
 5.0776161E+00 8.5800827E-01 1.8048212E+00
 5.0175558E+00 8.8513186E-01 1.7938969E+00
 4.9606704E+00 9.1323948E-01 1.7796842E+00
 4.9071727E+00 9.4202589E-01 1.7623360E+00
 4.8570664E+00 9.7112809E-01 1.7419986E+00
 4.8100184E+00 1.0000000E+00 1.7186928E+00
 6.1532128E+00 6.4142417E-01 1.7281941E+00
 6.0905939E+00 6.5286223E-01 1.7359984E+00
 6.0266870E+00 6.6374588E-01 1.7441169E+00
 5.9612214E+00 6.7470343E-01 1.7528357E+00
 5.8942814E+00 6.8606372E-01 1.7621914E+00
 5.8259935E+00 6.9807021E-01 1.7720909E+00
 5.7565910E+00 7.1091232E-01 1.7823159E+00
 5.6863520E+00 7.2477219E-01 1.7925520E+00
 5.6155923E+00 7.3982630E-01 1.8024012E+00
 5.5446520E+00 7.5623847E-01 1.8114030E+00
 5.4738895E+00 7.7414458E-01 1.8190590E+00
 5.4036798E+00 7.9363828E-01 1.8248648E+00
 5.3344137E+00 8.1475985E-01 1.8283441E+00
 5.2664964E+00 8.3749087E-01 1.8290815E+00
 5.2003414E+00 8.6175534E-01 1.8267510E+00
 5.1363558E+00 8.8742644E-01 1.8211347E+00
 5.0749146E+00 9.1433376E-01 1.8121272E+00
 5.0163099E+00 9.4226367E-01 1.7997182E+00
 4.9606643E+00 9.7094233E-01 1.7839421E+00
 4.9078107E+00 1.0000000E+00 1.7647854E+00
 4.8570665E+00 1.0288719E+00 1.7419986E+00
 6.1516719E+00 6.7356394E-01 1.7432008E+00
 6.0875281E+00 6.8644953E-01 1.7510459E+00
 6.0222415E+00 6.9879148E-01 1.7592124E+00
 5.9556854E+00 7.1120219E-01 1.7679241E+00
 5.8878649E+00 7.2408932E-01 1.7772186E+00
 5.8189127E+00 7.3771026E-01 1.7869739E+00
 5.7490424E+00 7.5226016E-01 1.7969473E+00
 5.6785342E+00 7.6790628E-01 1.8067955E+00
 5.6077083E+00 7.8480089E-01 1.8160959E+00
 5.5369106E+00 8.0307306E-01 1.8243701E+00
 5.4665034E+00 8.2281696E-01 1.8311126E+00
 5.3968618E+00 8.4408057E-01 1.8358249E+00
 5.3283715E+00 8.6685987E-01 1.8380489E+00
 5.2614235E+00 8.9109898E-01 1.8373985E+00
 5.1964027E+00 9.1669637E-01 1.8335827E+00
 5.1336600E+00 9.4351154E-01 1.8264139E+00
 5.0734576E+00 9.7136237E-01 1.8157948E+00
 5.0158737E+00 1.0000000E+00 1.8016720E+00
 4.9606643E+00 1.0290577E+00 1.7839420E+00
 4.9071727E+00 1.0579741E+00 1.7623360E+00
 6.1504708E+00 7.0723485E-01 1.7571371E+00
 6.0851383E+00 7.2143547E-01 1.7648129E+00
 6.0187403E+00 7.3516900E-01 1.7728404E+00
 5.9512300E+00 7.4904537E-01 1.7813913E+00
 5.8826394E+00 7.6347666E-01 1.7904651E+00
 5.8131028E+00 7.7872613E-01 1.7999105E+00
 5.7428424E+00 7.9497852E-01 1.8094548E+00
 5.6721438E+00 8.1238310E-01 1.8187289E+00
 5.6013344E+00 8.3106351E-01 1.8272898E+00
 5.5307644E+00 8.5111311E-01 1.8346475E+00
 5.4607976E+00 8.7258529E-01 1.8402967E+00
 5.3918044E+00 8.9548731E-01 1.8437509E+00
 5.3241574E+00 9.1977946E-01 1.8445757E+00
 5.2582207E+00 9.4538032E-01 1.8424154E+00
 5.1943255E+00 9.7217271E-01 1.8370071E+00
 5.1327169E+00 1.0000000E+00 1.8281754E+00
 5.0734576E+00 1.0286377E+00 1.8157948E+00
 5.0163099E+00 1.0577364E+00 1.7997181E+00
 4.9606704E+00 1.0867605E+00 1.7796841E+00
 6.1494363E+00 7.4246253E-01 1.7698679E+00
 6.0830884E+00 7.5787495E-01 1.7772064E+00
 6.0157634E+00 7.7294680E-01 1.7849305E+00
 5.9474641E+00 7.8826523E-01 1.7931566E+00
 5.8782545E+00 8.0422556E-01 1.8018397E+00
 5.8082847E+00 8.2107671E-01 1.8107940E+00
 5.7377876E+00 8.3898589E-01 1.8197190E+00
 5.6670573E+00 8.5807778E-01 1.8282237E+00
 5.5964261E+00 8.7844532E-01 1.8358511E+00
 5.5262456E+00 9.0014583E-01 1.8421075E+00
 5.4568748E+00 9.2319587E-01 1.8464956E+00
 5.3886714E+00 9.4756964E-01 1.8485478E+00
 5.3219823E+00 9.7320323E-01 1.8478561E+00
 5.2571221E+00 1.0000000E+00 1.8440916E+00
 5.1943255E+00 1.0278273E+00 1.8370071E+00
 5.1336600E+00 1.0564885E+00 1.8264138E+00
 5.0749146E+00 1.0856663E+00 1.8121271E+00
 5.0175558E+00 1.1148681E+00 1.7938967E+00
 6.1485019E+00 7.7918561E-01 1.7812254E+00
 6.0812770E+00 7.9572586E-01 1.7880804E+00
 6.0131876E+00 8.1208180E-01 1.7953473E+00
 5.9442756E+00 8.2879839E-01 1.8030842E+00
 5.8746301E+00 8.4624039E-01 1.8112010E+00
 5.8044173E+00 8.6463075E-01 1.8194788E+00
 5.7338801E+00 8.8411177E-01 1.8275930E+00
 5.6633183E+00 9.0478036E-01 1.8351371E+00
 5.5930652E+00 9.2669757E-01 1.8416477E+00
 5.5234674E+00 9.4988792E-01 1.8466360E+00
 5.4548708E+00 9.7433800E-01 1.8496195E+00
 5.3876086E+00 1.0000000E+00 1.8501538E+00
 5.3219823E+00 1.0267968E+00 1.8478561E+00
 5.2582207E+00 1.0546197E+00 1.8424154E+00
 5.1964027E+00 1.0833036E+00 1.8335826E+00
 5.1363558E+00 1.1125736E+00 1.8211346E+00
 5.0776162E+00 1.1419917E+00 1.8048211E+00
 6.1476699E+00 8.1727443E-01 1.7910302E+00
 6.0797096E+00 8.3486768E-01 1.7972698E+00
 6.0110270E+00 8.5244165E-01 1.8039313E+00
 5.9416919E+00 8.7049057E-01 1.8110164E+00
 5.8718123E+00 8.8933663E-01 1.8183931E+00
 5.8015663E+00 9.0916949E-01 1.8258135E+00
 5.7312030E+00 9.3010232E-01 1.8329349E+00
 5.6610229E+00 9.5220276E-01 1.8393425E+00
 5.5913537E+00 9.7550270E-01 1.8445749E+00
 5.5225288E+00 1.0000000E+00 1.8481547E+00
 5.4548708E+00 1.0256620E+00 1.8496195E+00
 5.3886714E+00 1.0524304E+00 1.8485477E+00
 5.3241574E+00 1.0802206E+00 1.8445757E+00
 5.2614235E+00 1.1089010E+00 1.8373985E+00
 5.2003415E+00 1.1382447E+00 1.8267509E+00
 5.1405154E+00 1.1678756E+00 1.8123704E+00
 6.1469643E+00 8.5655403E-01 1.7991116E+00
 6.0784290E+00 8.7511615E-01 1.8046129E+00
 6.0093384E+00 8.9382481E-01 1.8105272E+00
 5.9397815E+00 9.1311471E-01 1.8168044E+00
 5.8698791E+00 9.3325746E-01 1.8232757E+00
 5.7998155E+00 9.5440462E-01 1.8296706E+00
 5.7298404E+00 9.7663860E-01 1.8356354E+00
 5.6602483E+00 1.0000000E+00 1.8407544E+00
 5.5913537E+00 1.0244973E+00 1.8445749E+00
 5.5234674E+00 1.0501121E+00 1.8466360E+00
 5.4568748E+00 1.0768042E+00 1.8464955E+00
 5.3918044E+00 1.1045127E+00 1.8437508E+00
 5.3283715E+00 1.1331401E+00 1.8380488E+00
 5.2664965E+00 1.1625091E+00 1.8290813E+00
 5.2058556E+00 1.1923095E+00 1.8165643E+00
 6.1464110E+00 8.9680874E-01 1.8053187E+00
 6.0774800E+00 9.1623853E-01 1.8099686E+00
 6.0081786E+00 9.3597673E-01 1.8150038E+00
 5.9386079E+00 9.5639006E-01 1.8203286E+00
 5.8688952E+00 9.7769402E-01 1.8257446E+00
 5.7992249E+00 1.0000000E+00 1.8309660E+00
 5.7298404E+00 1.0233614E+00 1.8356354E+00
 5.6610229E+00 1.0477973E+00 1.8393425E+00
 5.5930652E+00 1.0733024E+00 1.8416477E+00
 5.5262456E+00 1.0998542E+00 1.8421075E+00
 5.4607976E+00 1.1274147E+00 1.8402966E+00
 5.3968618E+00 1.1559194E+00 1.8358248E+00
 5.3344137E+00 1.1852402E+00 1.8283440E+00
 5.2732076E+00 1.2151330E+00 1.8175423E+00
 6.1460306E+00 9.3778755E-01 1.8095291E+00
 6.0768968E+00 9.5796497E-01 1.8132280E+00
 6.0075883E+00 9.7860512E-01 1.8172667E+00
 5.9382121E+00 1.0000000E+00 1.8215121E+00
 5.8688952E+00 1.0223060E+00 1.8257446E+00
 5.7998155E+00 1.0455954E+00 1.8296706E+00
 5.7312030E+00 1.0698977E+00 1.8329349E+00
 5.6633183E+00 1.0952197E+00 1.8351370E+00
 5.5964261E+00 1.1215547E+00 1.8358511E+00
 5.5307644E+00 1.1488869E+00 1.8346475E+00
 5.4665034E+00 1.1771830E+00 1.8311126E+00
 5.4036798E+00 1.2063617E+00 1.8248647E+00
 5.3421345E+00 1.2362432E+00 1.8155625E+00
 6.1458369E+00 9.7921232E-01 1.8116565E+00
 6.0767001E+00 1.0000000E+00 1.8143223E+00
 6.0075883E+00 1.0213949E+00 1.8172667E+00
 5.9386079E+00 1.0436100E+00 1.8203286E+00
 5.8698791E+00 1.0667426E+00 1.8232757E+00
 5.8015663E+00 1.0908305E+00 1.8258135E+00
 5.7338801E+00 1.1158882E+00 1.8275930E+00
 5.6670572E+00 1.1419222E+00 1.8282237E+00
 5.6013344E+00 1.1689365E+00 1.8272898E+00
 5.5369106E+00 1.1969269E+00 1.8243700E+00
 5.4738895E+00 1.2258554E+00 1.8190589E+00
 5.4122069E+00 1.2556021E+00 1.8109869E+00
 6.1458369E+00 1.0207877E+00 1.8116565E+00
 6.0768968E+00 1.0420350E+00 1.8132280E+00
 6.0081786E+00 1.0640233E+00 1.8150038E+00
 5.9397815E+00 1.0868853E+00 1.8168044E+00
 5.8718123E+00 1.1106634E+00 1.8183931E+00
 5.8044172E+00 1.1353693E+00 1.8194787E+00
 5.7377876E+00 1.1610141E+00 1.8197190E+00
 5.6721438E+00 1.1876169E+00 1.8187289E+00
 5.6077083E+00 1.2151991E+00 1.8160959E+00
 5.5446520E+00 1.2437615E+00 1.8114029E+00
 5.4830116E+00 1.2732386E+00 1.8042574E+00
 6.1460306E+00 1.0622125E+00 1.8095290E+00
 6.0774800E+00 1.0837615E+00 1.8099686E+00
 6.0093384E+00 1.1061752E+00 1.8105272E+00
 5.9416919E+00 1.1295094E+00 1.8110164E+00
 5.8746301E+00 1.1537596E+00 1.8112009E+00
 5.8082847E+00 1.1789233E+00 1.8107940E+00
 5.7428424E+00 1.2050215E+00 1.8094547E+00
 5.6785342E+00 1.2320937E+00 1.8067955E+00
 5.6155923E+00 1.2601737E+00 1.8024012E+00
 5.5541558E+00 1.2892435E+00 1.7958643E+00
 6.1464110E+00 1.1031913E+00 1.8053186E+00
 6.0784290E+00 1.1248839E+00 1.8046129E+00
 6.0110269E+00 1.1475584E+00 1.8039313E+00
 5.9442756E+00 1.1712016E+00 1.8030841E+00
 5.8782545E+00 1.1957745E+00 1.8018397E+00
 5.8131027E+00 1.2212739E+00 1.7999105E+00
 5.7490423E+00 1.2477398E+00 1.7969473E+00
 5.6863519E+00 1.2752278E+00 1.7925519E+00
 5.6252669E+00 1.3037584E+00 1.7863123E+00
 6.1469643E+00 1.1434460E+00 1.7991116E+00
 6.0797095E+00 1.1651323E+00 1.7972698E+00
 6.0131876E+00 1.1879182E+00 1.7953473E+00
 5.9474641E+00 1.2117348E+00 1.7931566E+00
 5.8826394E+00 1.2365233E+00 1.7904651E+00
 5.8189127E+00 1.2622897E+00 1.7869739E+00
 5.7565910E+00 1.2890877E+00 1.7823159E+00
 5.6959909E+00 1.3169612E+00 1.7760876E+00
 6.1476699E+00 1.1827256E+00 1.7910302E+00
 6.0812769E+00 1.2042741E+00 1.7880804E+00
 6.0157634E+00 1.2270532E+00 1.7849304E+00
 5.9512300E+00 1.2509546E+00 1.7813913E+00
 5.8878649E+00 1.2759107E+00 1.7772186E+00
 5.8259935E+00 1.3019298E+00 1.7720909E+00
 5.7659928E+00 1.3290485E+00 1.7656292E+00
 6.1485019E+00 1.2208144E+00 1.7812254E+00
 6.0830884E+00 1.2421251E+00 1.7772063E+00
 6.0187403E+00 1.2648310E+00 1.7728403E+00
 5.9556854E+00 1.2887978E+00 1.7679241E+00
 5.8942814E+00 1.3139363E+00 1.7621914E+00
 5.8349579E+00 1.3402199E+00 1.7553065E+00
 6.1494363E+00 1.2575375E+00 1.7698679E+00
 6.0851383E+00 1.2785645E+00 1.7648128E+00
 6.0222415E+00 1.3012085E+00 1.7592123E+00
 5.9612214E+00 1.3252966E+00 1.7528357E+00
 5.9025966E+00 1.3506650E+00 1.7454064E+00
 6.1504707E+00 1.2927651E+00 1.7571371E+00
 6.0875281E+00 1.3135505E+00 1.7510458E+00
 6.0266870E+00 1.3362541E+00 1.7441168E+00
 5.9686533E+00 1.3605696E+00 1.7361192E+00
 6.1516719E+00 1.3264360E+00 1.7432007E+00
 6.0905939E+00 1.3471378E+00 1.7359983E+00
 6.0328993E+00 1.3701120E+00 1.7275426E+00
 6.1532127E+00 1.3585758E+00 1.7281940E+00
 6.0952849E+00 1.3795620E+00 1.7196233E+00
 6.1554735E+00 1.3892064E+00 1.7122432E+00
 6.2146503E+00 1.4006620E+00 1.7043753E+00
 6.2146975E+00 1.3715443E+00 1.7201618E+00
 6.2147368E+00 1.3407641E+00 1.7352387E+00
 6.2147677E+00 1.3082211E+00 1.7494689E+00
 6.2147917E+00 1.2739870E+00 1.7626552E+00
 6.2148111E+00 1.2381835E+00 1.7745896E+00
 6.2148272E+00 1.2009376E+00 1.7850811E+00
 6.2148406E+00 1.1624119E+00 1.7939505E+00
 6.2148513E+00 1.1228068E+00 1.8010364E+00
 6.2148591E+00 1.0823572E+00 1.8062024E+00
 6.2148639E+00 1.0413266E+00 1.8093453E+00
 6.2148655E+00 1.0000000E+00 1.8104003E+00
 6.2148639E+00 9.5867340E-01 1.8093453E+00
 6.2148591E+00 9.1764281E-01 1.8062024E+00
 6.2148513E+00 8.7719316E-01 1.8010364E+00
 6.2148406E+00 8.3758814E-01 1.7939506E+00
 6.2148272E+00 7.9906239E-01 1.7850811E+00
 6.2148111E+00 7.6181648E-01 1.7745896E+00
 6.2147917E+00 7.2601296E-01 1.7626553E+00
 6.2147677E+00 6.9177886E-01 1.7494689E+00
 6.2147368E+00 6.5923585E-01 1.7352388E+00
 6.2146975E+00 6.2845572E-01 1.7201619E+00
 6.2146503E+00 5.9933801E-01 1.7043754E+00
 6.2675018E+00 5.8194150E-01 1.6935751E+00
 6.3258141E+00 5.9076771E-01 1.6987475E+00
 6.3866095E+00 5.9976017E-01 1.7045127E+00
 6.4496256E+00 6.0901578E-01 1.7108989E+00
 6.5146118E+00 6.1860145E-01 1.7178376E+00
 6.5813076E+00 6.2864094E-01 1.7252279E+00
 6.6494689E+00 6.3927483E-01 1.7329107E+00
 6.7188242E+00 6.5066314E-01 1.7406743E+00
 6.7890806E+00 6.6297508E-01 1.7482584E+00
 6.8599163E+00 6.7637901E-01 1.7553623E+00
 6.9309805E+00 6.9103134E-01 1.7616568E+00
 7.0018970E+00 7.0706555E-01 1.7668000E+00
 7.0722694E+00 7.2458246E-01 1.7704539E+00
 7.1416899E+00 7.4364258E-01 1.7723019E+00
 7.2097493E+00 7.6426124E-01 1.7720647E+00
 7.2760482E+00 7.8640706E-01 1.7695136E+00
 7.3402063E+00 8.1000358E-01 1.7644808E+00
 7.4018691E+00 8.3493359E-01 1.7568656E+00
 7.4607099E+00 8.6104504E-01 1.7466385E+00
 7.5164357E+00 8.8816104E-01 1.7338413E+00
 7.5687664E+00 9.1606838E-01 1.7185932E+00
 7.6174557E+00 9.4451303E-01 1.7010739E+00
 7.6621494E+00 9.7304520E-01 1.6815988E+00
 6.2738265E+00 1.3883186E+00 1.7105963E+00
 6.3339228E+00 1.3778019E+00 1.7162449E+00
 6.3961180E+00 1.3674577E+00 1.7222814E+00
 6.4600664E+00 1.3569969E+00 1.7287944E+00
 6.5257266E+00 1.3461545E+00 1.7358055E+00
 6.5928903E+00 1.3347683E+00 1.7432084E+00
 6.6613277E+00 1.3226812E+00 1.7508305E+00
 6.7307738E+00 1.3097433E+00 1.7584370E+00
 6.8009305E+00 1.2958042E+00 1.7657461E+00
 6.8714679E+00 1.2807218E+00 1.7724395E+00
 6.9420273E+00 1.2643710E+00 1.7781778E+00
 7.0122272E+00 1.2466537E+00 1.7826165E+00
 7.0816710E+00 1.2275070E+00 1.7854234E+00
 7.1499564E+00 1.2069081E+00 1.7862964E+00
 7.2166859E+00 1.1848750E+00 1.7849780E+00
 7.2814771E+00 1.1614654E+00 1.7812674E+00
 7.3439735E+00 1.1367717E+00 1.7750276E+00
 7.4038568E+00 1.1109182E+00 1.7661864E+00
 7.4608657E+00 1.0840635E+00 1.7547302E+00
 7.5148461E+00 1.0564126E+00 1.7406786E+00
 7.5658366E+00 1.0282320E+00 1.7240323E+00
 7.6142153E+00 1.0000000E+00 1.7046773E+00
 6.2761677E+00 1.3577354E+00 1.7264428E+00
 6.3386656E+00 1.3454745E+00 1.7324033E+00
 6.4023423E+00 1.3337653E+00 1.7385438E+00
 6.4674699E+00 1.3219732E+00 1.7451026E+00
 6.5339781E+00 1.3097793E+00 1.7520873E+00
 6.6017641E+00 1.2969601E+00 1.7593971E+00
 6.6706223E+00 1.2833567E+00 1.7668378E+00
 6.7402994E+00 1.2688267E+00 1.7741549E+00
 6.8104941E+00 1.2532394E+00 1.7810464E+00
 6.8808689E+00 1.2364777E+00 1.7871796E+00
 6.9510573E+00 1.2184476E+00 1.7922068E+00
 7.0206736E+00 1.1990850E+00 1.7957833E+00
 7.0893223E+00 1.1783620E+00 1.7975852E+00
 7.1566089E+00 1.1562873E+00 1.7973267E+00
 7.2221518E+00 1.1329044E+00 1.7947730E+00
 7.2855975E+00 1.1082854E+00 1.7897484E+00
 7.3466403E+00 1.0825275E+00 1.7821367E+00
 7.4050644E+00 1.0557581E+00 1.7718674E+00
 7.4608223E+00 1.0281573E+00 1.7588784E+00
 7.5141551E+00 1.0000000E+00 1.7430461E+00
 7.5658366E+00 9.7176805E-01 1.7240322E+00
 6.2777760E+00 1.3256564E+00 1.7413684E+00
 6.3417737E+00 1.3120172E+00 1.7472861E+00
 6.4067961E+00 1.2989296E+00 1.7533877E+00
 6.4729794E+00 1.2857807E+00 1.7598524E+00
 6.5403374E+00 1.2721763E+00 1.7666882E+00
 6.6087647E+00 1.2578825E+00 1.7737702E+00
 6.6780771E+00 1.2427358E+00 1.7808858E+00
 6.7480186E+00 1.2266071E+00 1.7877595E+00
 6.8182821E+00 1.2093852E+00 1.7940723E+00
 6.8885213E+00 1.1909796E+00 1.7994798E+00
 6.9583635E+00 1.1713264E+00 1.8036293E+00
 7.0274212E+00 1.1503937E+00 1.8061797E+00
 7.0953037E+00 1.1281836E+00 1.8068189E+00
 7.1616311E+00 1.1047292E+00 1.8052791E+00
 7.2260505E+00 1.0800886E+00 1.8013466E+00
 7.2882635E+00 1.0543405E+00 1.7948628E+00
 7.3480756E+00 1.0275904E+00 1.7857103E+00
 7.4054856E+00 1.0000000E+00 1.7737759E+00
 7.4608223E+00 9.7184273E-01 1.7588784E+00
 7.5148461E+00 9.4358746E-01 1.7406785E+00
 6.2790276E+00 1.2920549E+00 1.7552361E+00
 6.3441933E+00 1.2771797E+00 1.7609137E+00
 6.4103001E+00 1.2627919E+00 1.7668014E+00
 6.4774093E+00 1.2482854E+00 1.7730279E+00
 6.5455124E+00 1.2332655E+00 1.7795663E+00
 6.6145055E+00 1.2174943E+00 1.7862672E+00
 6.6841974E+00 1.2008189E+00 1.7928949E+00
 6.7543264E+00 1.1831254E+00 1.7991554E+00
 6.8245764E+00 1.1643254E+00 1.8047160E+00
 6.8945942E+00 1.1443551E+00 1.8092246E+00
 6.9640042E+00 1.1231801E+00 1.8123289E+00
 7.0324225E+00 1.1007966E+00 1.8136959E+00
 7.0994715E+00 1.0772296E+00 1.8130283E+00
 7.1647986E+00 1.0525269E+00 1.8100769E+00
 7.2281046E+00 1.0267539E+00 1.8046434E+00
 7.2891955E+00 1.0000000E+00 1.7965706E+00
 7.3480756E+00 9.7240961E-01 1.7857103E+00
 7.4050644E+00 9.4424188E-01 1.7718673E+00
 7.4608657E+00 9.1593654E-01 1.7547302E+00
 6.2801006E+00 1.2569037E+00 1.7679058E+00
 6.3462646E+00 1.2409034E+00 1.7731836E+00
 6.4132763E+00 1.2252781E+00 1.7787027E+00
 6.4811514E+00 1.2094483E+00 1.7845383E+00
 6.5498535E+00 1.1930385E+00 1.7906227E+00
 6.6192656E+00 1.1758264E+00 1.7967774E+00
 6.6891870E+00 1.1576753E+00 1.8027456E+00
 6.7593470E+00 1.1384920E+00 1.8082177E+00
 6.8294227E+00 1.1182120E+00 1.8128519E+00
 6.8990581E+00 1.0967985E+00 1.8162944E+00
 6.9678806E+00 1.0742427E+00 1.8181985E+00
 7.0355189E+00 1.0505627E+00 1.8182436E+00
 7.1016212E+00 1.0257970E+00 1.8161490E+00
 7.1658844E+00 1.0000000E+00 1.8116801E+00
 7.2281046E+00 9.7324607E-01 1.8046433E+00
 7.2882635E+00 9.4565953E-01 1.7948628E+00
 7.3466402E+00 9.1747250E-01 1.7821367E+00
 7.4038568E+00 8.8908181E-01 1.7661863E+00
 6.2810659E+00 1.2202637E+00 1.7792078E+00
 6.3480924E+00 1.2032294E+00 1.7839474E+00
 6.4158499E+00 1.1864292E+00 1.7889543E+00
 6.4843190E+00 1.1693290E+00 1.7942471E+00
 6.5534414E+00 1.1515854E+00 1.7997176E+00
 6.6230865E+00 1.1330018E+00 1.8051595E+00
 6.6930442E+00 1.1134643E+00 1.8102978E+00
 6.7630375E+00 1.0929025E+00 1.8148123E+00
 6.8327409E+00 1.0712767E+00 1.8183578E+00
 6.9018020E+00 1.0485737E+00 1.8205843E+00
 6.9698604E+00 1.0248047E+00 1.8211557E+00
 7.0365689E+00 1.0000000E+00 1.8197661E+00
 7.1016212E+00 9.7420297E-01 1.8161490E+00
 7.1647986E+00 9.4747309E-01 1.8100768E+00
 7.2260505E+00 9.1991146E-01 1.8013466E+00
 7.2855975E+00 8.9171464E-01 1.7897484E+00
 7.3439735E+00 8.6322828E-01 1.7750275E+00
 6.2819234E+00 1.1822643E+00 1.7889634E+00
 6.3496728E+00 1.1642778E+00 1.7930414E+00
 6.4180081E+00 1.1463760E+00 1.7973990E+00
 6.4868854E+00 1.1280782E+00 1.8020011E+00
 6.5562307E+00 1.1090843E+00 1.8067015E+00
 6.6259031E+00 1.0892301E+00 1.8112702E+00
 6.6956869E+00 1.0684272E+00 1.8154188E+00
 6.7653031E+00 1.0466294E+00 1.8188221E+00
 6.8344306E+00 1.0238187E+00 1.8211372E+00
 6.9027289E+00 1.0000000E+00 1.8220228E+00
 6.9698604E+00 9.7519527E-01 1.8211557E+00
 7.0355189E+00 9.4943732E-01 1.8182436E+00
 7.0994715E+00 9.2277037E-01 1.8130283E+00
 7.1616311E+00 8.9527085E-01 1.8052791E+00
 7.2221518E+00 8.6709560E-01 1.7947730E+00
 7.2814771E+00 8.3853458E-01 1.7812673E+00
 6.2826499E+00 1.1430800E+00 1.7970033E+00
 6.3509635E+00 1.1242313E+00 1.8003065E+00
 6.4196944E+00 1.1053169E+00 1.8038858E+00
 6.4887826E+00 1.0859178E+00 1.8076569E+00
 6.5581441E+00 1.0657844E+00 1.8114408E+00
 6.6276328E+00 1.0447883E+00 1.8149894E+00
 6.6970320E+00 1.0228685E+00 1.8180067E+00
 6.7660677E+00 1.0000000E+00 1.8201680E+00
 6.8344306E+00 9.7618132E-01 1.8211372E+00
 6.9018020E+00 9.5142629E-01 1.8205843E+00
 6.9678806E+00 9.2575727E-01 1.8181985E+00
 7.0324225E+00 8.9920340E-01 1.8136959E+00
 7.0953037E+00 8.7181641E-01 1.8068189E+00
 7.1566089E+00 8.4371268E-01 1.7973267E+00
 7.2166859E+00 8.1512501E-01 1.7849779E+00
 6.2832193E+00 1.1029259E+00 1.8031778E+00
 6.3519198E+00 1.0833207E+00 1.8056044E+00
 6.4208524E+00 1.0635027E+00 1.8082873E+00
 6.4899481E+00 1.0431221E+00 1.8110997E+00
 6.5591180E+00 1.0219848E+00 1.8138367E+00
 6.6282163E+00 1.0000000E+00 1.8162383E+00
 6.6970320E+00 9.7713151E-01 1.8180067E+00
 6.7653031E+00 9.5337062E-01 1.8188221E+00
 6.8327409E+00 9.2872326E-01 1.8183578E+00
 6.8990581E+00 9.0320153E-01 1.8162944E+00
 6.9640042E+00 8.7681989E-01 1.8123289E+00
 7.0274212E+00 8.4960631E-01 1.8061797E+00
 7.0893223E+00 8.2163805E-01 1.7975852E+00
 7.1499564E+00 7.9309197E-01 1.7862963E+00
 6.2836106E+00 1.0620516E+00 1.8073658E+00
 6.3525073E+00 1.0418129E+00 1.8088282E+00
 6.4214418E+00 1.0212204E+00 1.8105119E+00
 6.4903412E+00 1.0000000E+00 1.8122557E+00
 6.5591180E+00 9.7801525E-01 1.8138367E+00
 6.6276328E+00 9.5521167E-01 1.8149894E+00
 6.6956869E+00 9.3157282E-01 1.8154188E+00
 6.7630375E+00 9.0709747E-01 1.8148123E+00
 6.8294227E+00 8.8178799E-01 1.8128519E+00
 6.8945942E+00 8.5564486E-01 1.8092246E+00
 6.9583635E+00 8.2867366E-01 1.8036293E+00
 7.0206736E+00 8.0091500E-01 1.7957832E+00
 7.0816710E+00 7.7249298E-01 1.7854233E+00
 6.2838097E+00 1.0207338E+00 1.8094819E+00
 6.3527055E+00 1.0000000E+00 1.8099104E+00
 6.4214418E+00 9.7877962E-01 1.8105119E+00
 6.4899481E+00 9.5687791E-01 1.8110997E+00
 6.5581441E+00 9.3421565E-01 1.8114409E+00
 6.6259031E+00 9.1076994E-01 1.8112702E+00
 6.6930442E+00 8.8653572E-01 1.8102978E+00
 6.7593470E+00 8.6150801E-01 1.8082177E+00
 6.8245764E+00 8.3567461E-01 1.8047160E+00
 6.8885213E+00 8.0902040E-01 1.7994798E+00
 6.9510573E+00 7.8155245E-01 1.7922068E+00
 7.0122272E+00 7.5334632E-01 1.7826164E+00
 6.2838097E+00 9.7926624E-01 1.8094819E+00
 6.3525073E+00 9.5818715E-01 1.8088282E+00
 6.4208524E+00 9.3649735E-01 1.8082873E+00
 6.4887826E+00 9.1408219E-01 1.8076569E+00
 6.5562307E+00 8.9091566E-01 1.8067016E+00
 6.6230865E+00 8.6699815E-01 1.8051596E+00
 6.6891870E+00 8.4232470E-01 1.8027456E+00
 6.7543264E+00 8.1687458E-01 1.7991554E+00
 6.8182820E+00 7.9061477E-01 1.7940724E+00
 6.8808689E+00 7.6352229E-01 1.7871797E+00
 6.9420273E+00 7.3562904E-01 1.7781778E+00
 6.2836106E+00 9.3794845E-01 1.8073658E+00
 6.3519198E+00 9.1667933E-01 1.8056044E+00
 6.4196944E+00 8.9468307E-01 1.8038858E+00
 6.4868854E+00 8.7192183E-01 1.8020012E+00
 6.5534414E+00 8.4841462E-01 1.7997177E+00
 6.6192656E+00 8.2417357E-01 1.7967775E+00
 6.6841974E+00 7.9918111E-01 1.7928949E+00
 6.7480186E+00 7.7339286E-01 1.7877595E+00
 6.8104941E+00 7.4676065E-01 1.7810464E+00
 6.8714679E+00 7.1927816E-01 1.7724395E+00
 6.2832193E+00 8.9707414E-01 1.8031778E+00
 6.3509635E+00 8.7576871E-01 1.8003065E+00
 6.4180081E+00 8.5362404E-01 1.7973990E+00
 6.4843190E+00 8.3067101E-01 1.7942472E+00
 6.5498535E+00 8.0696147E-01 1.7906228E+00
 6.6145055E+00 7.8250570E-01 1.7862673E+00
 6.6780771E+00 7.5726417E-01 1.7808859E+00
 6.7402994E+00 7.3117329E-01 1.7741549E+00
 6.8009305E+00 7.0419576E-01 1.7657461E+00
 6.2826499E+00 8.5691997E-01 1.7970033E+00
 6.3496728E+00 8.3572225E-01 1.7930414E+00
 6.4158499E+00 8.1357076E-01 1.7889543E+00
 6.4811514E+00 7.9055170E-01 1.7845384E+00
 6.5455124E+00 7.6673452E-01 1.7795664E+00
 6.6087647E+00 7.4211747E-01 1.7737702E+00
 6.6706223E+00 7.1664327E-01 1.7668379E+00
 6.7307737E+00 6.9025673E-01 1.7584371E+00
 6.2819234E+00 8.1773574E-01 1.7889635E+00
 6.3480924E+00 7.9677055E-01 1.7839474E+00
 6.4132763E+00 7.7472193E-01 1.7787028E+00
 6.4774093E+00 7.5171455E-01 1.7730279E+00
 6.5403374E+00 7.2782368E-01 1.7666883E+00
 6.6017641E+00 7.0303991E-01 1.7593972E+00
 6.6613276E+00 6.7731878E-01 1.7508306E+00
 6.2810659E+00 7.7973630E-01 1.7792079E+00
 6.3462646E+00 7.5909657E-01 1.7731836E+00
 6.4103001E+00 7.3720811E-01 1.7668014E+00
 6.4729794E+00 7.1421927E-01 1.7598525E+00
 6.5339781E+00 6.9022070E-01 1.7520874E+00
 6.5928903E+00 6.6523164E-01 1.7432085E+00
 6.2801006E+00 7.4309625E-01 1.7679058E+00
 6.3441933E+00 7.2282027E-01 1.7609138E+00
 6.4067961E+00 7.0107041E-01 1.7533878E+00
 6.4674699E+00 6.7802679E-01 1.7451027E+00
 6.5257266E+00 6.5384550E-01 1.7358056E+00
 6.2790276E+00 7.0794506E-01 1.7552362E+00
 6.3417737E+00 6.8798280E-01 1.7472862E+00
 6.4023423E+00 6.6623463E-01 1.7385439E+00
 6.4600664E+00 6.4300305E-01 1.7287945E+00
 6.2777760E+00 6.7434363E-01 1.7413685E+00
 6.3386656E+00 6.5452550E-01 1.7324034E+00
 6.3961180E+00 6.3254231E-01 1.7222815E+00
 6.2761677E+00 6.4226462E-01 1.7264429E+00
 6.3339228E+00 6.2219808E-01 1.7162450E+00
 6.2738265E+00 6.1168137E-01 1.7105964E+00
 6.1820623E+00 1.4465754E+00 1.6769616E+00
 6.1458424E+00 1.4691057E+00 1.6626724E+00
 6.1081889E+00 1.4923003E+00 1.6471490E+00
 6.0692703E+00 1.5160472E+00 1.6303331E+00
 6.0291932E+00 1.5402600E+00 1.6121499E+00
 5.9881968E+00 1.5648308E+00 1.5925105E+00
 5.9465120E+00 1.5896374E+00 1.5713147E+00
 5.9043888E+00 1.6145241E+00 1.5484680E+00
 5.8621011E+00 1.6393030E+00 1.5238872E+00
 5.8199415E+00 1.6637535E+00 1.4975100E+00
 5.7782143E+00 1.6876276E+00 1.4693059E+00
 5.7372243E+00 1.7106586E+00 1.4392839E+00
 5.6972669E+00 1.7325736E+00 1.4075002E+00
 5.6586168E+00 1.7531069E+00 1.3740600E+00
 5.6215197E+00 1.7720145E+00 1.3391181E+00
 5.5861868E+00 1.7890858E+00 1.3028725E+00
 5.5527919E+00 1.8041543E+00 1.2655572E+00
 5.5214746E+00 1.8171020E+00 1.2274322E+00
 5.4923468E+00 1.8278625E+00 1.1887731E+00
 5.4655035E+00 1.8364199E+00 1.1498606E+00
 5.4410292E+00 1.8428024E+00 1.1109939E+00
 5.4189493E+00 1.8470785E+00 1.0724686E+00
 5.3992780E+00 1.8493502E+00 1.0348316E+00
 4.7554419E+00 1.0793207E+00 1.6820759E+00
 4.7475815E+00 1.1309660E+00 1.6690102E+00
 4.7424787E+00 1.1835820E+00 1.6531355E+00
 4.7409153E+00 1.2371698E+00 1.6346129E+00
 4.7433681E+00 1.2914345E+00 1.6134597E+00
 4.7501793E+00 1.3459096E+00 1.5896930E+00
 4.7615830E+00 1.4000232E+00 1.5633672E+00
 4.7777186E+00 1.4531464E+00 1.5346000E+00
 4.7986255E+00 1.5046229E+00 1.5035852E+00
 4.8242330E+00 1.5537992E+00 1.4705949E+00
 4.8543532E+00 1.6000582E+00 1.4359734E+00
 4.8886811E+00 1.6428535E+00 1.4001234E+00
 4.9268062E+00 1.6817411E+00 1.3634882E+00
 4.9682320E+00 1.7164037E+00 1.3265286E+00
 5.0124037E+00 1.7466651E+00 1.2897008E+00
 5.0587392E+00 1.7724930E+00 1.2534337E+00
 5.1066594E+00 1.7939900E+00 1.2181106E+00
 5.1556143E+00 1.8113756E+00 1.1840538E+00
 5.2050947E+00 1.8249615E+00 1.1515095E+00
 5.2546456E+00 1.8351262E+00 1.1206163E+00
 5.3038691E+00 1.8422898E+00 1.0913412E+00
 5.3523272E+00 1.8468867E+00 1.0633533E+00
 4.8010359E+00 1.1109048E+00 1.7051832E+00
 4.7960649E+00 1.1644783E+00 1.6918517E+00
 4.7937044E+00 1.2180966E+00 1.6755253E+00
 4.7948450E+00 1.2720401E+00 1.6564277E+00
 4.8000171E+00 1.3261489E+00 1.6346245E+00
 4.8095417E+00 1.3800156E+00 1.6101518E+00
 4.8235962E+00 1.4330957E+00 1.5830782E+00
 4.8422479E+00 1.4847740E+00 1.5535404E+00
 4.8654606E+00 1.5344132E+00 1.5217575E+00
 4.8930914E+00 1.5813941E+00 1.4880305E+00
 4.9248881E+00 1.6251522E+00 1.4527325E+00
 4.9604957E+00 1.6652123E+00 1.4162911E+00
 4.9994721E+00 1.7012161E+00 1.3791676E+00
 5.0413127E+00 1.7329402E+00 1.3418322E+00
 5.0854802E+00 1.7603035E+00 1.3047403E+00
 5.1314361E+00 1.7833621E+00 1.2683093E+00
 5.1786688E+00 1.8022950E+00 1.2328955E+00
 5.2267122E+00 1.8173824E+00 1.1987632E+00
 5.2751529E+00 1.8289834E+00 1.1660294E+00
 5.3236158E+00 1.8375097E+00 1.1345769E+00
 5.3717519E+00 1.8434001E+00 1.1038381E+00
 4.8507997E+00 1.1412731E+00 1.7260403E+00
 4.8485324E+00 1.1957481E+00 1.7122057E+00
 4.8488595E+00 1.2498672E+00 1.6952929E+00
 4.8526611E+00 1.3038500E+00 1.6755131E+00
 4.8604777E+00 1.3575606E+00 1.6529510E+00
 4.8725965E+00 1.4106097E+00 1.6276606E+00
 4.8891368E+00 1.4624654E+00 1.5997321E+00
 4.9100986E+00 1.5125297E+00 1.5693301E+00
 4.9353780E+00 1.5601943E+00 1.5367061E+00
 4.9647690E+00 1.6048847E+00 1.5021947E+00
 4.9979678E+00 1.6460999E+00 1.4661996E+00
 5.0345840E+00 1.6834431E+00 1.4291729E+00
 5.0741613E+00 1.7166453E+00 1.3915907E+00
 5.1162053E+00 1.7455762E+00 1.3539270E+00
 5.1602150E+00 1.7702440E+00 1.3166269E+00
 5.2057123E+00 1.7907848E+00 1.2800785E+00
 5.2522609E+00 1.8074451E+00 1.2445728E+00
 5.2994652E+00 1.8205607E+00 1.2102434E+00
 5.3469526E+00 1.8305358E+00 1.1769571E+00
 5.3943304E+00 1.8378087E+00 1.1442030E+00
 4.9045051E+00 1.1706404E+00 1.7442081E+00
 4.9048021E+00 1.2253567E+00 1.7296784E+00
 4.9077252E+00 1.2794756E+00 1.7120335E+00
 4.9141154E+00 1.3331194E+00 1.6914578E+00
 4.9244769E+00 1.3861113E+00 1.6680398E+00
 4.9390463E+00 1.4380549E+00 1.6418515E+00
 4.9578817E+00 1.4884266E+00 1.6130114E+00
 4.9809190E+00 1.5366517E+00 1.5817184E+00
 5.0079942E+00 1.5821616E+00 1.5482607E+00
 5.0388503E+00 1.6244395E+00 1.5130071E+00
 5.0731464E+00 1.6630573E+00 1.4763897E+00
 5.1104744E+00 1.6977035E+00 1.4388795E+00
 5.1503839E+00 1.7281993E+00 1.4009592E+00
 5.1924114E+00 1.7545034E+00 1.3630945E+00
 5.2361100E+00 1.7767055E+00 1.3257016E+00
 5.2810672E+00 1.7950120E+00 1.2891057E+00
 5.3269010E+00 1.8097306E+00 1.2534741E+00
 5.3732268E+00 1.8212494E+00 1.2187240E+00
 5.4196095E+00 1.8300052E+00 1.1844353E+00
 4.9619224E+00 1.1989274E+00 1.7593580E+00
 4.9646485E+00 1.2534127E+00 1.7439659E+00
 4.9700642E+00 1.3071065E+00 1.7254592E+00