# TIME = 2.000000
VARIABLES = X, Y, Z, FX, FY, FZ
ZONE N=29232 E=58212 F=FEPOINT ET=TRIANGLE
  0.000E+00  9.502E-01  1.243E-03 3.4436812E+00 2.8521450E-02 5.7351794E-01
  0.000E+00  1.000E+00  0.000E+00 3.4422887E+00 5.8965704E-06 5.7424977E-01
  4.318E-02  9.751E-01  3.108E-04 3.4420690E+00 1.3898848E-02 5.5942630E-01
  0.000E+00  1.050E+00  1.243E-03 3.4436813E+00 -2.8509669E-02 5.7351858E-01
  4.318E-02  1.025E+00  3.108E-04 3.4420691E+00 -1.3887093E-02 5.5942662E-01
  0.000E+00  1.100E+00  4.969E-03 3.4491399E+00 -5.7051558E-02 5.7138263E-01
  4.318E-02  1.075E+00  2.796E-03 3.4454611E+00 -4.1684975E-02 5.5801915E-01
  0.000E+00  1.149E+00  1.117E-02 3.4610986E+00 -8.5623904E-02 5.6793698E-01
  4.318E-02  1.124E+00  7.761E-03 3.4543432E+00 -6.9519936E-02 5.5529185E-01
  0.000E+00  1.198E+00  1.983E-02 3.4789663E+00 -1.1404115E-01 5.6311867E-01
  4.318E-02  1.174E+00  1.519E-02 3.4699873E+00 -9.7327033E-02 5.5128530E-01
  0.000E+00  1.247E+00  3.092E-02 3.4954876E+00 -1.4192900E-01 5.5670916E-01
  4.318E-02  1.223E+00  2.507E-02 3.4883220E+00 -1.2480808E-01 5.4584361E-01
  0.000E+00  1.295E+00  4.443E-02 3.5021998E+00 -1.6919694E-01 5.4872600E-01
  4.318E-02  1.271E+00  3.738E-02 3.4999907E+00 -1.5165268E-01 5.3879314E-01
  0.000E+00  1.342E+00  6.031E-02 3.5130334E+00 -1.9623937E-01 5.3956027E-01
  4.318E-02  1.318E+00  5.207E-02 3.5026945E+00 -1.7806231E-01 5.3039003E-01
  0.000E+00  1.388E+00  7.852E-02 3.5473946E+00 -2.2309900E-01 5.2927398E-01
  4.318E-02  1.365E+00  6.913E-02 3.5317161E+00 -2.0437969E-01 5.2095346E-01
  0.000E+00  1.434E+00  9.903E-02 3.5551758E+00 -2.4923035E-01 5.1748670E-01
  4.318E-02  1.411E+00  8.849E-02 3.5577949E+00 -2.3024621E-01 5.1022054E-01
  0.000E+00  1.478E+00  1.218E-01 3.5727884E+00 -2.7464250E-01 5.0436214E-01
  4.318E-02  1.456E+00  1.101E-01 3.5544394E+00 -2.5532617E-01 4.9803655E-01
  0.000E+00  1.521E+00  1.467E-01 3.5989384E+00 -2.9946762E-01 4.9007468E-01
  4.318E-02  1.500E+00  1.340E-01 3.5892316E+00 -2.7981658E-01 4.8468795E-01
  0.000E+00  1.563E+00  1.738E-01 3.5949438E+00 -3.2352550E-01 4.7453433E-01
  4.318E-02  1.543E+00  1.600E-01 3.5879281E+00 -3.0365394E-01 4.7015758E-01
  0.000E+00  1.604E+00  2.029E-01 3.6164139E+00 -3.4677177E-01 4.5781293E-01
  4.318E-02  1.584E+00  1.881E-01 3.6199036E+00 -3.2670100E-01 4.5442445E-01
  0.000E+00  1.643E+00  2.340E-01 3.6238518E+00 -3.6916492E-01 4.3996316E-01
  4.318E-02  1.623E+00  2.182E-01 3.6097964E+00 -3.4894982E-01 4.3757865E-01
  0.000E+00  1.680E+00  2.669E-01 3.6251934E+00 -3.9063474E-01 4.2101374E-01
  4.318E-02  1.662E+00  2.502E-01 3.6266931E+00 -3.7032730E-01 4.1964153E-01
  0.000E+00  1.716E+00  3.018E-01 3.6264278E+00 -4.1113535E-01 4.0101848E-01
  4.318E-02  1.698E+00  2.841E-01 3.6264375E+00 -3.9078407E-01 4.0065992E-01
  0.000E+00  1.750E+00  3.383E-01 3.6266835E+00 -4.3061400E-01 3.8002677E-01
  4.318E-02  1.733E+00  3.198E-01 3.6252032E+00 -4.1026973E-01 3.8068237E-01
  0.000E+00  1.782E+00  3.765E-01 3.6097871E+00 -4.4902097E-01 3.5809030E-01
  4.318E-02  1.766E+00  3.572E-01 3.6238617E+00 -4.2873637E-01 3.5976039E-01
  0.000E+00  1.812E+00  4.163E-01 3.6198946E+00 -4.6630820E-01 3.3525976E-01
  4.318E-02  1.797E+00  3.962E-01 3.6164240E+00 -4.4613152E-01 3.3793869E-01
  0.000E+00  1.840E+00  4.575E-01 3.5879192E+00 -4.8245343E-01 3.1160995E-01
  4.318E-02  1.826E+00  4.367E-01 3.5949541E+00 -4.6242715E-01 3.1528570E-01
  0.000E+00  1.866E+00  5.000E-01 3.5892228E+00 -4.9736424E-01 2.8714900E-01
  4.318E-02  1.853E+00  4.786E-01 3.5989486E+00 -4.7757140E-01 2.9184149E-01
  0.000E+00  1.890E+00  5.438E-01 3.5544309E+00 -5.1106277E-01 2.6201799E-01
  4.318E-02  1.878E+00  5.217E-01 3.5727986E+00 -4.9149493E-01 2.6764945E-01
  0.000E+00  1.912E+00  5.887E-01 3.5577869E+00 -5.2356629E-01 2.3628226E-01
  4.318E-02  1.901E+00  5.661E-01 3.5551860E+00 -5.0428538E-01 2.4288536E-01
  0.000E+00  1.931E+00  6.347E-01 3.5317083E+00 -5.3458078E-01 2.0973920E-01
  4.318E-02  1.921E+00  6.116E-01 3.5474048E+00 -5.1577275E-01 2.1742074E-01
  0.000E+00  1.948E+00  6.815E-01 3.5026864E+00 -5.4426489E-01 1.8273318E-01
  4.318E-02  1.940E+00  6.580E-01 3.5130439E+00 -5.2579764E-01 1.9124668E-01
  0.000E+00  1.963E+00  7.292E-01 3.4999824E+00 -5.5288823E-01 1.5563235E-01
  4.318E-02  1.956E+00  7.052E-01 3.5022105E+00 -5.3473015E-01 1.6489432E-01
  0.000E+00  1.975E+00  7.775E-01 3.4883137E+00 -5.6012362E-01 1.2808522E-01
  4.318E-02  1.969E+00  7.532E-01 3.4954983E+00 -5.4251010E-01 1.3832186E-01
  0.000E+00  1.985E+00  8.264E-01 3.4699793E+00 -5.6570835E-01 9.9885195E-02
  4.318E-02  1.980E+00  8.019E-01 3.4789769E+00 -5.4875676E-01 1.1114495E-01
  0.000E+00  1.992E+00  8.757E-01 3.4543356E+00 -5.6982046E-01 7.1350682E-02
  4.318E-02  1.989E+00  8.510E-01 3.4611091E+00 -5.5345294E-01 8.3452076E-02
  0.000E+00  1.997E+00  9.253E-01 3.4454538E+00 -5.7261986E-01 4.2787544E-02
  4.318E-02  1.995E+00  9.004E-01 3.4491506E+00 -5.5681146E-01 5.5608183E-02
  0.000E+00  2.000E+00  9.751E-01 3.4420621E+00 -5.7406486E-01 1.4262376E-02
  4.318E-02  1.999E+00  9.502E-01 3.4436922E+00 -5.5889364E-01 2.7794155E-02
  0.000E+00  2.000E+00  1.025E+00 3.4420621E+00 -5.7406517E-01 -1.4250591E-02
  4.318E-02  2.000E+00  1.000E+00 3.4422996E+00 -5.5960683E-01 5.8934441E-06
  0.000E+00  1.997E+00  1.075E+00 3.4454539E+00 -5.7262077E-01 -4.2775782E-02
  4.318E-02  1.999E+00  1.050E+00 3.4436922E+00 -5.5889425E-01 -2.7782381E-02
  0.000E+00  1.992E+00  1.124E+00 3.4543357E+00 -5.6982199E-01 -7.1338969E-02
  4.318E-02  1.995E+00  1.100E+00 3.4491507E+00 -5.5681268E-01 -5.5596448E-02
  0.000E+00  1.985E+00  1.174E+00 3.4699794E+00 -5.6571056E-01 -9.9873557E-02
  4.318E-02  1.989E+00  1.149E+00 3.4611092E+00 -5.5345481E-01 -8.3440405E-02
  0.000E+00  1.975E+00  1.223E+00 3.4883139E+00 -5.6012655E-01 -1.2807369E-01
  4.318E-02  1.980E+00  1.198E+00 3.4789771E+00 -5.4875935E-01 -1.1113337E-01
  0.000E+00  1.963E+00  1.271E+00 3.4999825E+00 -5.5289169E-01 -1.5562093E-01
  4.318E-02  1.969E+00  1.247E+00 3.4954986E+00 -5.4251335E-01 -1.3831039E-01
  0.000E+00  1.948E+00  1.318E+00 3.5026866E+00 -5.4426874E-01 -1.8272191E-01
  4.318E-02  1.956E+00  1.295E+00 3.5022108E+00 -5.3473381E-01 -1.6488299E-01
  0.000E+00  1.931E+00  1.365E+00 3.5317085E+00 -5.3458546E-01 -2.0972811E-01
  4.318E-02  1.940E+00  1.342E+00 3.5130443E+00 -5.2580187E-01 -1.9123550E-01
  0.000E+00  1.912E+00  1.411E+00 3.5577871E+00 -5.2357159E-01 -2.3627137E-01
  4.318E-02  1.921E+00  1.388E+00 3.5474052E+00 -5.1577784E-01 -2.1740975E-01
  0.000E+00  1.890E+00  1.456E+00 3.5544311E+00 -5.1106833E-01 -2.6200732E-01
  4.318E-02  1.901E+00  1.434E+00 3.5551865E+00 -5.0429081E-01 -2.4287458E-01
  0.000E+00  1.866E+00  1.500E+00 3.5892231E+00 -4.9737059E-01 -2.8713858E-01
  4.318E-02  1.878E+00  1.478E+00 3.5727992E+00 -4.9150092E-01 -2.6763892E-01
  0.000E+00  1.840E+00  1.543E+00 3.5879196E+00 -4.8246019E-01 -3.1159980E-01
  4.318E-02  1.853E+00  1.521E+00 3.5989492E+00 -4.7757807E-01 -2.9183122E-01
  0.000E+00  1.812E+00  1.584E+00 3.6198951E+00 -4.6631546E-01 -3.3524992E-01
  4.318E-02  1.826E+00  1.563E+00 3.5949546E+00 -4.6243417E-01 -3.1527572E-01
  0.000E+00  1.782E+00  1.623E+00 3.6097878E+00 -4.4902872E-01 -3.5808078E-01
  4.318E-02  1.797E+00  1.604E+00 3.6164245E+00 -4.4613913E-01 -3.3792903E-01
  0.000E+00  1.750E+00  1.662E+00 3.6266843E+00 -4.3062218E-01 -3.8001761E-01
  4.318E-02  1.766E+00  1.643E+00 3.6238622E+00 -4.2874437E-01 -3.5975108E-01
  0.000E+00  1.716E+00  1.698E+00 3.6264285E+00 -4.1114397E-01 -4.0100970E-01
  4.318E-02  1.733E+00  1.680E+00 3.6252036E+00 -4.1027819E-01 -3.8067344E-01
  0.000E+00  1.680E+00  1.733E+00 3.6251941E+00 -3.9064375E-01 -4.2100537E-01
  4.318E-02  1.698E+00  1.716E+00 3.6264380E+00 -3.9079289E-01 -4.0065139E-01
  0.000E+00  1.643E+00  1.766E+00 3.6238525E+00 -3.6917429E-01 -4.3995522E-01
  4.318E-02  1.662E+00  1.750E+00 3.6266937E+00 -3.7033652E-01 -4.1963342E-01
  0.000E+00  1.604E+00  1.797E+00 3.6164146E+00 -3.4678151E-01 -4.5780546E-01
  4.318E-02  1.623E+00  1.782E+00 3.6097970E+00 -3.4895939E-01 -4.3757097E-01
  0.000E+00  1.563E+00  1.826E+00 3.5949446E+00 -3.2353564E-01 -4.7452738E-01
  4.318E-02  1.584E+00  1.812E+00 3.6199043E+00 -3.2671088E-01 -4.5441722E-01
  0.000E+00  1.521E+00  1.853E+00 3.5989393E+00 -2.9947810E-01 -4.9006824E-01
  4.318E-02  1.543E+00  1.840E+00 3.5879287E+00 -3.0366405E-01 -4.7015081E-01
  0.000E+00  1.478E+00  1.878E+00 3.5727892E+00 -2.7465305E-01 -5.0435617E-01
  4.318E-02  1.500E+00  1.866E+00 3.5892322E+00 -2.7982699E-01 -4.8468172E-01
  0.000E+00  1.434E+00  1.901E+00 3.5551762E+00 -2.4924079E-01 -5.1748117E-01
  4.318E-02  1.456E+00  1.890E+00 3.5544402E+00 -2.5533701E-01 -4.9803091E-01
  0.000E+00  1.388E+00  1.921E+00 3.5473948E+00 -2.2310961E-01 -5.2926900E-01
  4.318E-02  1.411E+00  1.912E+00 3.5577959E+00 -2.3025746E-01 -5.1021548E-01
  0.000E+00  1.342E+00  1.940E+00 3.5130341E+00 -1.9625076E-01 -5.3955600E-01
  4.318E-02  1.365E+00  1.931E+00 3.5317173E+00 -2.0439101E-01 -5.2094890E-01
  0.000E+00  1.295E+00  1.956E+00 3.5022012E+00 -1.6920929E-01 -5.4872254E-01
  4.318E-02  1.318E+00  1.948E+00 3.5026952E+00 -1.7807333E-01 -5.3038592E-01
  0.000E+00  1.247E+00  1.969E+00 3.4954893E+00 -1.4194183E-01 -5.5670646E-01
  4.318E-02  1.271E+00  1.963E+00 3.4999909E+00 -1.5166339E-01 -5.3878952E-01
  0.000E+00  1.198E+00  1.980E+00 3.4789677E+00 -1.1405378E-01 -5.6311663E-01
  4.318E-02  1.223E+00  1.975E+00 3.4883222E+00 -1.2481884E-01 -5.4584054E-01
  0.000E+00  1.149E+00  1.989E+00 3.4610993E+00 -8.5636027E-02 -5.6793554E-01
  4.318E-02  1.174E+00  1.985E+00 3.4699878E+00 -9.7338205E-02 -5.5128285E-01
  0.000E+00  1.100E+00  1.995E+00 3.4491403E+00 -5.7063312E-02 -5.7138178E-01
  4.318E-02  1.124E+00  1.992E+00 3.4543441E+00 -6.9531551E-02 -5.5529004E-01
  0.000E+00  1.050E+00  1.999E+00 3.4436816E+00 -2.8521359E-02 -5.7351835E-01
  4.318E-02  1.075E+00  1.997E+00 3.4454622E+00 -4.1696834E-02 -5.5801799E-01
  0.000E+00  1.000E+00  2.000E+00 3.4422889E+00 -5.9266880E-06 -5.7425017E-01
  4.318E-02  1.025E+00  2.000E+00 3.4420703E+00 -1.3898963E-02 -5.5942610E-01
  0.000E+00  9.502E-01  1.999E+00 3.4436815E+00 2.8509518E-02 -5.7351899E-01
  4.318E-02  9.751E-01  2.000E+00 3.4420702E+00 1.3887077E-02 -5.5942641E-01
  0.000E+00  9.004E-01  1.995E+00 3.4491400E+00 5.7051508E-02 -5.7138305E-01
  4.318E-02  9.253E-01  1.997E+00 3.4454620E+00 4.1684973E-02 -5.5801894E-01
  0.000E+00  8.510E-01  1.989E+00 3.4610989E+00 8.5624286E-02 -5.6793744E-01
  4.318E-02  8.757E-01  1.992E+00 3.4543437E+00 6.9519740E-02 -5.5529162E-01
  0.000E+00  8.019E-01  1.980E+00 3.4789671E+00 1.1404213E-01 -5.6311915E-01
  4.318E-02  8.264E-01  1.985E+00 3.4699873E+00 9.7326469E-02 -5.5128506E-01
  0.000E+00  7.532E-01  1.969E+00 3.4954885E+00 1.4193029E-01 -5.5670959E-01
  4.318E-02  7.775E-01  1.975E+00 3.4883215E+00 1.2480721E-01 -5.4584337E-01
  0.000E+00  7.052E-01  1.956E+00 3.5022003E+00 1.6919789E-01 -5.4872628E-01
  4.318E-02  7.292E-01  1.963E+00 3.4999901E+00 1.5165188E-01 -5.3879295E-01
  0.000E+00  6.580E-01  1.940E+00 3.5130330E+00 1.9623952E-01 -5.3956033E-01
  4.318E-02  6.815E-01  1.948E+00 3.5026942E+00 1.7806197E-01 -5.3038995E-01
  0.000E+00  6.116E-01  1.921E+00 3.5473936E+00 2.2309855E-01 -5.2927390E-01
  4.318E-02  6.347E-01  1.931E+00 3.5317161E+00 2.0437982E-01 -5.2095351E-01
  0.000E+00  5.661E-01  1.901E+00 3.5551749E+00 2.4922995E-01 -5.1748663E-01
  4.318E-02  5.887E-01  1.912E+00 3.5577947E+00 2.3024646E-01 -5.1022065E-01
  0.000E+00  5.217E-01  1.878E+00 3.5727877E+00 2.7464245E-01 -5.0436216E-01
  4.318E-02  5.438E-01  1.890E+00 3.5544388E+00 2.5532625E-01 -4.9803663E-01
  0.000E+00  4.786E-01  1.853E+00 3.5989377E+00 2.9946776E-01 -4.9007475E-01
  4.318E-02  5.000E-01  1.866E+00 3.5892307E+00 2.7981647E-01 -4.8468797E-01
  0.000E+00  4.367E-01  1.826E+00 3.5949429E+00 3.2352560E-01 -4.7453439E-01
  4.318E-02  4.575E-01  1.840E+00 3.5879270E+00 3.0365383E-01 -4.7015757E-01
  0.000E+00  3.962E-01  1.797E+00 3.6164128E+00 3.4677178E-01 -4.5781295E-01
  4.318E-02  4.163E-01  1.812E+00 3.6199025E+00 3.2670095E-01 -4.5442447E-01
  0.000E+00  3.572E-01  1.766E+00 3.6238506E+00 3.6916490E-01 -4.3996317E-01
  4.318E-02  3.765E-01  1.782E+00 3.6097952E+00 3.4894980E-01 -4.3757869E-01
  0.000E+00  3.198E-01  1.733E+00 3.6251921E+00 3.9063474E-01 -4.2101375E-01
  4.318E-02  3.383E-01  1.750E+00 3.6266917E+00 3.7032728E-01 -4.1964158E-01
  0.000E+00  2.841E-01  1.698E+00 3.6264264E+00 4.1113534E-01 -4.0101848E-01
  4.318E-02  3.018E-01  1.716E+00 3.6264359E+00 3.9078404E-01 -4.0065997E-01
  0.000E+00  2.502E-01  1.662E+00 3.6266821E+00 4.3061398E-01 -3.8002677E-01
  4.318E-02  2.669E-01  1.680E+00 3.6252015E+00 4.1026971E-01 -3.8068242E-01
  0.000E+00  2.182E-01  1.623E+00 3.6097855E+00 4.4902094E-01 -3.5809030E-01
  4.318E-02  2.340E-01  1.643E+00 3.6238600E+00 4.2873637E-01 -3.5976043E-01
  0.000E+00  1.881E-01  1.584E+00 3.6198927E+00 4.6630816E-01 -3.3525977E-01
  4.318E-02  2.029E-01  1.604E+00 3.6164222E+00 4.4613152E-01 -3.3793872E-01
  0.000E+00  1.600E-01  1.543E+00 3.5879172E+00 4.8245340E-01 -3.1160996E-01
  4.318E-02  1.738E-01  1.563E+00 3.5949522E+00 4.6242715E-01 -3.1528573E-01
  0.000E+00  1.340E-01  1.500E+00 3.5892206E+00 4.9736422E-01 -2.8714901E-01
  4.318E-02  1.467E-01  1.521E+00 3.5989467E+00 4.7757139E-01 -2.9184152E-01
  0.000E+00  1.101E-01  1.456E+00 3.5544286E+00 5.1106274E-01 -2.6201801E-01
  4.318E-02  1.218E-01  1.478E+00 3.5727966E+00 4.9149491E-01 -2.6764949E-01
  0.000E+00  8.849E-02  1.411E+00 3.5577844E+00 5.2356627E-01 -2.3628228E-01
  4.318E-02  9.903E-02  1.434E+00 3.5551839E+00 5.0428535E-01 -2.4288539E-01
  0.000E+00  6.913E-02  1.365E+00 3.5317058E+00 5.3458076E-01 -2.0973922E-01
  4.318E-02  7.852E-02  1.388E+00 3.5474026E+00 5.1577272E-01 -2.1742077E-01
  0.000E+00  5.207E-02  1.318E+00 3.5026839E+00 5.4426487E-01 -1.8273321E-01
  4.318E-02  6.031E-02  1.342E+00 3.5130416E+00 5.2579760E-01 -1.9124671E-01
  0.000E+00  3.738E-02  1.271E+00 3.4999798E+00 5.5288821E-01 -1.5563237E-01
  4.318E-02  4.443E-02  1.295E+00 3.5022081E+00 5.3473011E-01 -1.6489436E-01
  0.000E+00  2.507E-02  1.223E+00 3.4883111E+00 5.6012360E-01 -1.2808525E-01
  4.318E-02  3.092E-02  1.247E+00 3.4954958E+00 5.4251006E-01 -1.3832189E-01
  0.000E+00  1.519E-02  1.174E+00 3.4699767E+00 5.6570832E-01 -9.9885223E-02
  4.318E-02  1.983E-02  1.198E+00 3.4789743E+00 5.4875672E-01 -1.1114499E-01
  0.000E+00  7.761E-03  1.124E+00 3.4543329E+00 5.6982044E-01 -7.1350711E-02
  4.318E-02  1.117E-02  1.149E+00 3.4611065E+00 5.5345289E-01 -8.3452113E-02
  0.000E+00  2.796E-03  1.075E+00 3.4454511E+00 5.7261983E-01 -4.2787576E-02
  4.318E-02  4.969E-03  1.100E+00 3.4491479E+00 5.5681141E-01 -5.5608220E-02
  0.000E+00  3.108E-04  1.025E+00 3.4420593E+00 5.7406483E-01 -1.4262410E-02
  4.318E-02  1.243E-03  1.050E+00 3.4436894E+00 5.5889358E-01 -2.7794191E-02
  0.000E+00  3.108E-04  9.751E-01 3.4420593E+00 5.7406514E-01 1.4250555E-02
  4.318E-02  0.000E+00  1.000E+00 3.4422968E+00 5.5960676E-01 -5.9296551E-06
  0.000E+00  2.796E-03  9.253E-01 3.4454510E+00 5.7262074E-01 4.2775747E-02
  4.318E-02  1.243E-03  9.502E-01 3.4436894E+00 5.5889418E-01 2.7782343E-02
  0.000E+00  7.761E-03  8.757E-01 3.4543328E+00 5.6982195E-01 7.1338933E-02
  4.318E-02  4.969E-03  9.004E-01 3.4491478E+00 5.5681261E-01 5.5596408E-02
  0.000E+00  1.519E-02  8.264E-01 3.4699765E+00 5.6571052E-01 9.9873521E-02
  4.318E-02  1.117E-02  8.510E-01 3.4611063E+00 5.5345473E-01 8.3440362E-02
  0.000E+00  2.507E-02  7.775E-01 3.4883110E+00 5.6012651E-01 1.2807365E-01
  4.318E-02  1.983E-02  8.019E-01 3.4789742E+00 5.4875927E-01 1.1113333E-01
  0.000E+00  3.738E-02  7.292E-01 3.4999796E+00 5.5289165E-01 1.5562089E-01
  4.318E-02  3.092E-02  7.532E-01 3.4954956E+00 5.4251326E-01 1.3831034E-01
  0.000E+00  5.207E-02  6.815E-01 3.5026837E+00 5.4426870E-01 1.8272188E-01
  4.318E-02  4.443E-02  7.052E-01 3.5022078E+00 5.3473372E-01 1.6488294E-01
  0.000E+00  6.913E-02  6.347E-01 3.5317056E+00 5.3458541E-01 2.0972807E-01
  4.318E-02  6.031E-02  6.580E-01 3.5130412E+00 5.2580178E-01 1.9123545E-01
  0.000E+00  8.849E-02  5.887E-01 3.5577843E+00 5.2357154E-01 2.3627133E-01
  4.318E-02  7.852E-02  6.116E-01 3.5474021E+00 5.1577774E-01 2.1740970E-01
  0.000E+00  1.101E-01  5.438E-01 3.5544284E+00 5.1106829E-01 2.6200728E-01
  4.318E-02  9.903E-02  5.661E-01 3.5551834E+00 5.0429070E-01 2.4287454E-01
  0.000E+00  1.340E-01  5.000E-01 3.5892203E+00 4.9737056E-01 2.8713854E-01
  4.318E-02  1.218E-01  5.217E-01 3.5727961E+00 4.9150081E-01 2.6763887E-01
  0.000E+00  1.600E-01  4.575E-01 3.5879168E+00 4.8246016E-01 3.1159977E-01
  4.318E-02  1.467E-01  4.786E-01 3.5989462E+00 4.7757795E-01 2.9183118E-01
  0.000E+00  1.881E-01  4.163E-01 3.6198922E+00 4.6631543E-01 3.3524989E-01
  4.318E-02  1.738E-01  4.367E-01 3.5949516E+00 4.6243404E-01 3.1527567E-01
  0.000E+00  2.182E-01  3.765E-01 3.6097848E+00 4.4902869E-01 3.5808075E-01
  4.318E-02  2.029E-01  3.962E-01 3.6164217E+00 4.4613900E-01 3.3792898E-01
  0.000E+00  2.502E-01  3.383E-01 3.6266813E+00 4.3062214E-01 3.8001759E-01
  4.318E-02  2.340E-01  3.572E-01 3.6238595E+00 4.2874425E-01 3.5975102E-01
  0.000E+00  2.841E-01  3.018E-01 3.6264256E+00 4.1114392E-01 4.0100967E-01
  4.318E-02  2.669E-01  3.198E-01 3.6252010E+00 4.1027807E-01 3.8067337E-01
  0.000E+00  3.198E-01  2.669E-01 3.6251913E+00 3.9064370E-01 4.2100534E-01
  4.318E-02  3.018E-01  2.841E-01 3.6264354E+00 3.9079279E-01 4.0065132E-01
  0.000E+00  3.572E-01  2.340E-01 3.6238499E+00 3.6917424E-01 4.3995519E-01
  4.318E-02  3.383E-01  2.502E-01 3.6266911E+00 3.7033642E-01 4.1963335E-01
  0.000E+00  3.962E-01  2.029E-01 3.6164121E+00 3.4678144E-01 4.5780542E-01
  4.318E-02  3.765E-01  2.182E-01 3.6097945E+00 3.4895928E-01 4.3757090E-01
  0.000E+00  4.367E-01  1.738E-01 3.5949421E+00 3.2353548E-01 4.7452730E-01
  4.318E-02  4.163E-01  1.881E-01 3.6199018E+00 3.2671080E-01 4.5441718E-01
  0.000E+00  4.786E-01  1.467E-01 3.5989368E+00 2.9947789E-01 4.9006814E-01
  4.318E-02  4.575E-01  1.600E-01 3.5879264E+00 3.0366404E-01 4.7015079E-01
  0.000E+00  5.217E-01  1.218E-01 3.5727870E+00 2.7465304E-01 5.0435612E-01
  4.318E-02  5.000E-01  1.340E-01 3.5892301E+00 2.7982697E-01 4.8468168E-01
  0.000E+00  5.661E-01  9.903E-02 3.5551745E+00 2.4924113E-01 5.1748122E-01
  4.318E-02  5.438E-01  1.101E-01 3.5544380E+00 2.5533680E-01 4.9803081E-01
  0.000E+00  6.116E-01  7.852E-02 3.5473934E+00 2.2310999E-01 5.2926906E-01
  4.318E-02  5.887E-01  8.849E-02 3.5577936E+00 2.3025707E-01 5.1021535E-01
  0.000E+00  6.580E-01  6.031E-02 3.5130324E+00 1.9625056E-01 5.3955592E-01
  4.318E-02  6.347E-01  6.913E-02 3.5317150E+00 2.0439075E-01 5.2094884E-01
  0.000E+00  7.052E-01  4.443E-02 3.5021989E+00 1.6920828E-01 5.4872225E-01
  4.318E-02  6.815E-01  5.207E-02 3.5026935E+00 1.7807354E-01 5.3038599E-01
  0.000E+00  7.532E-01  3.092E-02 3.4954869E+00 1.4194048E-01 5.5670602E-01
  4.318E-02  7.292E-01  3.738E-02 3.4999898E+00 1.5166407E-01 5.3878970E-01
  0.000E+00  8.019E-01  1.983E-02 3.4789657E+00 1.1405274E-01 5.6311614E-01
  4.318E-02  7.775E-01  2.507E-02 3.4883213E+00 1.2481958E-01 5.4584077E-01
  0.000E+00  8.510E-01  1.117E-02 3.4610981E+00 8.5635585E-02 5.6793507E-01
  4.318E-02  8.264E-01  1.519E-02 3.4699867E+00 9.7338638E-02 5.5128308E-01
  0.000E+00  9.004E-01  4.969E-03 3.4491396E+00 5.7063301E-02 5.7138135E-01
  4.318E-02  8.757E-01  7.761E-03 3.4543428E+00 6.9531616E-02 5.5529026E-01
  4.318E-02  9.253E-01  2.796E-03 3.4454609E+00 4.1696706E-02 5.5801820E-01
  1.000E+01  1.050E+00  1.243E-03 3.4436813E+00 -2.8509669E-02 5.7351858E-01
  1.000E+01  1.000E+00  5.551E-16 3.4422887E+00 5.8965704E-06 5.7424977E-01
  9.957E+00  1.025E+00  3.108E-04 3.4420672E+00 -1.4615138E-02 5.8874832E-01
  1.000E+01  9.502E-01  1.243E-03 3.4436812E+00 2.8521450E-02 5.7351794E-01
  9.957E+00  9.751E-01  3.108E-04 3.4420671E+00 1.4626963E-02 5.8874800E-01
  1.000E+01  9.004E-01  4.969E-03 3.4491396E+00 5.7063301E-02 5.7138135E-01
  9.957E+00  9.253E-01  2.796E-03 3.4454589E+00 4.3881628E-02 5.8726605E-01
  1.000E+01  8.510E-01  1.117E-02 3.4610981E+00 8.5635585E-02 5.6793507E-01
  9.957E+00  8.757E-01  7.761E-03 3.4543407E+00 7.3175375E-02 5.8439510E-01
  1.000E+01  8.019E-01  1.983E-02 3.4789657E+00 1.1405274E-01 5.6311614E-01
  9.957E+00  8.264E-01  1.519E-02 3.4699846E+00 1.0243995E-01 5.8017792E-01
  1.000E+01  7.532E-01  3.092E-02 3.4954869E+00 1.4194048E-01 5.5670602E-01
  9.957E+00  7.775E-01  2.507E-02 3.4883192E+00 1.3136160E-01 5.7445050E-01
  1.000E+01  7.052E-01  4.443E-02 3.5021989E+00 1.6920828E-01 5.4872225E-01
  9.957E+00  7.292E-01  3.738E-02 3.4999879E+00 1.5961352E-01 5.6703001E-01
  1.000E+01  6.580E-01  6.031E-02 3.5130324E+00 1.9625056E-01 5.3955592E-01
  9.957E+00  6.815E-01  5.207E-02 3.5026917E+00 1.8740737E-01 5.5818577E-01
  1.000E+01  6.116E-01  7.852E-02 3.5473934E+00 2.2310999E-01 5.2926906E-01
  9.957E+00  6.347E-01  6.913E-02 3.5317131E+00 2.1510368E-01 5.4825374E-01
  1.000E+01  5.661E-01  9.903E-02 3.5551745E+00 2.4924113E-01 5.1748122E-01
  9.957E+00  5.887E-01  8.849E-02 3.5577916E+00 2.4232536E-01 5.3695753E-01
  1.000E+01  5.217E-01  1.218E-01 3.5727870E+00 2.7465304E-01 5.0435612E-01
  9.957E+00  5.438E-01  1.101E-01 3.5544359E+00 2.6871945E-01 5.2413436E-01
  1.000E+01  4.786E-01  1.467E-01 3.5989368E+00 2.9947789E-01 4.9006814E-01
  9.957E+00  5.000E-01  1.340E-01 3.5892281E+00 2.9449350E-01 5.1008578E-01
  1.000E+01  4.367E-01  1.738E-01 3.5949421E+00 3.2353548E-01 4.7452730E-01
  9.957E+00  4.575E-01  1.600E-01 3.5879245E+00 3.1958012E-01 4.9479350E-01
  1.000E+01  3.962E-01  2.029E-01 3.6164121E+00 3.4678144E-01 4.5780542E-01
  9.957E+00  4.163E-01  1.881E-01 3.6198999E+00 3.4383467E-01 4.7823516E-01
  1.000E+01  3.572E-01  2.340E-01 3.6238499E+00 3.6917424E-01 4.3995519E-01
  9.957E+00  3.765E-01  2.182E-01 3.6097925E+00 3.6724909E-01 4.6050582E-01
  1.000E+01  3.198E-01  2.669E-01 3.6251913E+00 3.9064370E-01 4.2100534E-01
  9.957E+00  3.383E-01  2.502E-01 3.6266891E+00 3.8974669E-01 4.4162811E-01
  1.000E+01  2.841E-01  3.018E-01 3.6264256E+00 4.1114392E-01 4.0100967E-01
  9.957E+00  3.018E-01  2.841E-01 3.6264334E+00 4.1127527E-01 4.2165126E-01
  1.000E+01  2.502E-01  3.383E-01 3.6266813E+00 4.3062214E-01 3.8001759E-01
  9.957E+00  2.669E-01  3.198E-01 3.6251990E+00 4.3178195E-01 4.0062626E-01
  1.000E+01  2.182E-01  3.765E-01 3.6097848E+00 4.4902869E-01 3.5808075E-01
  9.957E+00  2.340E-01  3.572E-01 3.6238575E+00 4.5121608E-01 3.7860730E-01
  1.000E+01  1.881E-01  4.163E-01 3.6198922E+00 4.6631543E-01 3.3524989E-01
  9.957E+00  2.029E-01  3.962E-01 3.6164197E+00 4.6952252E-01 3.5564146E-01
  1.000E+01  1.600E-01  4.575E-01 3.5879168E+00 4.8246016E-01 3.1159977E-01
  9.957E+00  1.738E-01  4.367E-01 3.5949496E+00 4.8667153E-01 3.3180055E-01
  1.000E+01  1.340E-01  5.000E-01 3.5892203E+00 4.9737056E-01 2.8713854E-01
  9.957E+00  1.467E-01  4.786E-01 3.5989442E+00 5.0260930E-01 3.0712729E-01
  1.000E+01  1.101E-01  5.438E-01 3.5544284E+00 5.1106829E-01 2.6200728E-01
  9.957E+00  1.218E-01  5.217E-01 3.5727942E+00 5.1726217E-01 2.8166719E-01
  1.000E+01  8.849E-02  5.887E-01 3.5577843E+00 5.2357154E-01 2.3627133E-01
  9.957E+00  9.903E-02  5.661E-01 3.5551815E+00 5.3072265E-01 2.5560503E-01
  1.000E+01  6.913E-02  6.347E-01 3.5317056E+00 5.3458541E-01 2.0972807E-01
  9.957E+00  7.852E-02  6.116E-01 3.5474002E+00 5.4281163E-01 2.2880519E-01
  1.000E+01  5.207E-02  6.815E-01 3.5026837E+00 5.4426870E-01 1.8272188E-01
  9.957E+00  6.031E-02  6.580E-01 3.5130392E+00 5.5336083E-01 2.0125870E-01
  1.000E+01  3.738E-02  7.292E-01 3.4999796E+00 5.5289165E-01 1.5562089E-01
  9.957E+00  4.443E-02  7.052E-01 3.5022058E+00 5.6276088E-01 1.7352493E-01
  1.000E+01  2.507E-02  7.775E-01 3.4883110E+00 5.6012651E-01 1.2807365E-01
  9.957E+00  3.092E-02  7.532E-01 3.4954936E+00 5.7094827E-01 1.4555980E-01
  1.000E+01  1.519E-02  8.264E-01 3.4699765E+00 5.6571052E-01 9.9873521E-02
  9.957E+00  1.983E-02  8.019E-01 3.4789722E+00 5.7752180E-01 1.1695866E-01
  1.000E+01  7.761E-03  8.757E-01 3.4543328E+00 5.6982195E-01 7.1338933E-02
  9.957E+00  1.117E-02  8.510E-01 3.4611044E+00 5.8246347E-01 8.7814413E-02
  1.000E+01  2.796E-03  9.253E-01 3.4454510E+00 5.7262074E-01 4.2775747E-02
  9.957E+00  4.969E-03  9.004E-01 3.4491458E+00 5.8599738E-01 5.8511072E-02
  1.000E+01  3.108E-04  9.751E-01 3.4420593E+00 5.7406514E-01 1.4250555E-02
  9.957E+00  1.243E-03  9.502E-01 3.4436874E+00 5.8818803E-01 2.9239043E-02
  1.000E+01  3.108E-04  1.025E+00 3.4420593E+00 5.7406483E-01 -1.4262410E-02
  9.957E+00  0.000E+00  1.000E+00 3.4422948E+00 5.8893796E-01 -5.9284506E-06
  1.000E+01  2.796E-03  1.075E+00 3.4454511E+00 5.7261983E-01 -4.2787576E-02
  9.957E+00  1.243E-03  1.050E+00 3.4436874E+00 5.8818744E-01 -2.9250888E-02
  1.000E+01  7.761E-03  1.124E+00 3.4543329E+00 5.6982044E-01 -7.1350711E-02
  9.957E+00  4.969E-03  1.100E+00 3.4491459E+00 5.8599618E-01 -5.8522880E-02
  1.000E+01  1.519E-02  1.174E+00 3.4699767E+00 5.6570832E-01 -9.9885223E-02
  9.957E+00  1.117E-02  1.149E+00 3.4611045E+00 5.8246164E-01 -8.7826158E-02
  1.000E+01  2.507E-02  1.223E+00 3.4883111E+00 5.6012360E-01 -1.2808525E-01
  9.957E+00  1.983E-02  1.198E+00 3.4789724E+00 5.7751925E-01 -1.1697032E-01
  1.000E+01  3.738E-02  1.271E+00 3.4999798E+00 5.5288821E-01 -1.5563237E-01
  9.957E+00  3.092E-02  1.247E+00 3.4954938E+00 5.7094507E-01 -1.4557134E-01
  1.000E+01  5.207E-02  1.318E+00 3.5026839E+00 5.4426487E-01 -1.8273321E-01
  9.957E+00  4.443E-02  1.295E+00 3.5022061E+00 5.6275728E-01 -1.7353633E-01
  1.000E+01  6.913E-02  1.365E+00 3.5317058E+00 5.3458076E-01 -2.0973922E-01
  9.957E+00  6.031E-02  1.342E+00 3.5130396E+00 5.5335666E-01 -2.0126994E-01
  1.000E+01  8.849E-02  1.411E+00 3.5577844E+00 5.2356627E-01 -2.3628228E-01
  9.957E+00  7.852E-02  1.388E+00 3.5474006E+00 5.4280660E-01 -2.2881625E-01
  1.000E+01  1.101E-01  1.456E+00 3.5544286E+00 5.1106274E-01 -2.6201801E-01
  9.957E+00  9.903E-02  1.434E+00 3.5551820E+00 5.3071731E-01 -2.5561588E-01
  1.000E+01  1.340E-01  1.500E+00 3.5892206E+00 4.9736422E-01 -2.8714901E-01
  9.957E+00  1.218E-01  1.478E+00 3.5727947E+00 5.1725628E-01 -2.8167780E-01
  1.000E+01  1.600E-01  1.543E+00 3.5879172E+00 4.8245340E-01 -3.1160996E-01
  9.957E+00  1.467E-01  1.521E+00 3.5989447E+00 5.0260273E-01 -3.0713764E-01
  1.000E+01  1.881E-01  1.584E+00 3.6198927E+00 4.6630816E-01 -3.3525977E-01
  9.957E+00  1.738E-01  1.563E+00 3.5949501E+00 4.8666462E-01 -3.3181063E-01
  1.000E+01  2.182E-01  1.623E+00 3.6097855E+00 4.4902094E-01 -3.5809030E-01
  9.957E+00  2.029E-01  1.604E+00 3.6164202E+00 4.6951502E-01 -3.5565122E-01
  1.000E+01  2.502E-01  1.662E+00 3.6266821E+00 4.3061398E-01 -3.8002677E-01
  9.957E+00  2.340E-01  1.643E+00 3.6238580E+00 4.5120819E-01 -3.7861672E-01
  1.000E+01  2.841E-01  1.698E+00 3.6264264E+00 4.1113534E-01 -4.0101848E-01
  9.957E+00  2.669E-01  1.680E+00 3.6251995E+00 4.3177359E-01 -4.0063530E-01
  1.000E+01  3.198E-01  1.733E+00 3.6251921E+00 3.9063474E-01 -4.2101375E-01
  9.957E+00  3.018E-01  1.716E+00 3.6264339E+00 4.1126654E-01 -4.2165990E-01
  1.000E+01  3.572E-01  1.766E+00 3.6238506E+00 3.6916490E-01 -4.3996317E-01
  9.957E+00  3.383E-01  1.750E+00 3.6266897E+00 3.8973756E-01 -4.4163633E-01
  1.000E+01  3.962E-01  1.797E+00 3.6164128E+00 3.4677178E-01 -4.5781295E-01
  9.957E+00  3.765E-01  1.782E+00 3.6097932E+00 3.6723961E-01 -4.6051360E-01
  1.000E+01  4.367E-01  1.826E+00 3.5949429E+00 3.2352560E-01 -4.7453439E-01
  9.957E+00  4.163E-01  1.812E+00 3.6199005E+00 3.4382480E-01 -4.7824246E-01
  1.000E+01  4.786E-01  1.853E+00 3.5989377E+00 2.9946776E-01 -4.9007475E-01
  9.957E+00  4.575E-01  1.840E+00 3.5879251E+00 3.1956990E-01 -4.9480028E-01
  1.000E+01  5.217E-01  1.878E+00 3.5727877E+00 2.7464245E-01 -5.0436216E-01
  9.957E+00  5.000E-01  1.866E+00 3.5892287E+00 2.9448303E-01 -5.1009204E-01
  1.000E+01  5.661E-01  1.901E+00 3.5551749E+00 2.4922995E-01 -5.1748663E-01
  9.957E+00  5.438E-01  1.890E+00 3.5544368E+00 2.6870897E-01 -5.2414014E-01
  1.000E+01  6.116E-01  1.921E+00 3.5473936E+00 2.2309855E-01 -5.2927390E-01
  9.957E+00  5.887E-01  1.912E+00 3.5577926E+00 2.4231479E-01 -5.3696281E-01
  1.000E+01  6.580E-01  1.940E+00 3.5130330E+00 1.9623952E-01 -5.3956033E-01
  9.957E+00  6.347E-01  1.931E+00 3.5317141E+00 2.1509266E-01 -5.4825844E-01
  1.000E+01  7.052E-01  1.956E+00 3.5022003E+00 1.6919789E-01 -5.4872628E-01
  9.957E+00  6.815E-01  1.948E+00 3.5026922E+00 1.8739564E-01 -5.5818977E-01
  1.000E+01  7.532E-01  1.969E+00 3.4954885E+00 1.4193029E-01 -5.5670959E-01
  9.957E+00  7.292E-01  1.963E+00 3.4999881E+00 1.5960127E-01 -5.6703326E-01
  1.000E+01  8.019E-01  1.980E+00 3.4789671E+00 1.1404213E-01 -5.6311915E-01
  9.957E+00  7.775E-01  1.975E+00 3.4883196E+00 1.3134930E-01 -5.7445307E-01
  1.000E+01  8.510E-01  1.989E+00 3.4610989E+00 8.5624286E-02 -5.6793744E-01
  9.957E+00  8.264E-01  1.985E+00 3.4699854E+00 1.0242790E-01 -5.8017987E-01
  1.000E+01  9.004E-01  1.995E+00 3.4491400E+00 5.7051508E-02 -5.7138305E-01
  9.957E+00  8.757E-01  1.992E+00 3.4543417E+00 7.3163582E-02 -5.8439645E-01
  1.000E+01  9.502E-01  1.999E+00 3.4436815E+00 2.8509518E-02 -5.7351899E-01
  9.957E+00  9.253E-01  1.997E+00 3.4454600E+00 4.3869923E-02 -5.8726680E-01
  1.000E+01  1.000E+00  2.000E+00 3.4422889E+00 -5.9266880E-06 -5.7425017E-01
  9.957E+00  9.751E-01  2.000E+00 3.4420682E+00 1.4615195E-02 -5.8874812E-01
  1.000E+01  1.050E+00  1.999E+00 3.4436816E+00 -2.8521359E-02 -5.7351835E-01
  9.957E+00  1.025E+00  2.000E+00 3.4420683E+00 -1.4627010E-02 -5.8874780E-01
  1.000E+01  1.100E+00  1.995E+00 3.4491403E+00 -5.7063312E-02 -5.7138178E-01
  9.957E+00  1.075E+00  1.997E+00 3.4454602E+00 -4.3881713E-02 -5.8726584E-01
  1.000E+01  1.149E+00  1.989E+00 3.4610993E+00 -8.5636027E-02 -5.6793554E-01
  9.957E+00  1.124E+00  1.992E+00 3.4543421E+00 -7.3175323E-02 -5.8439487E-01
  1.000E+01  1.198E+00  1.980E+00 3.4789677E+00 -1.1405378E-01 -5.6311663E-01
  9.957E+00  1.174E+00  1.985E+00 3.4699859E+00 -1.0243957E-01 -5.8017766E-01