# TIME = 0.000000
VARIABLES = X, Y, Z, FX, FY, FZ
ZONE N=29232 E=58212 F=FEPOINT ET=TRIANGLE
  0.000E+00  9.502E-01  1.243E-03 3.5838999E+00 8.3711836E-02 1.6838767E+00
  0.000E+00  1.000E+00  0.000E+00 3.5825208E+00 -5.4733837E-06 1.6860274E+00
  4.318E-02  9.751E-01  3.108E-04 3.5823983E+00 4.1853039E-02 1.6855942E+00
  0.000E+00  1.050E+00  1.243E-03 3.5838999E+00 -8.3722784E-02 1.6838761E+00
  4.318E-02  1.025E+00  3.108E-04 3.5823983E+00 -4.1864178E-02 1.6855939E+00
  0.000E+00  1.100E+00  4.969E-03 3.5893633E+00 -1.6752687E-01 1.6776011E+00
  4.318E-02  1.075E+00  2.796E-03 3.5857281E+00 -1.2562000E-01 1.6813452E+00
  0.000E+00  1.149E+00  1.117E-02 3.6014057E+00 -2.5142763E-01 1.6674853E+00
  4.318E-02  1.124E+00  7.761E-03 3.5945781E+00 -2.0949574E-01 1.6731270E+00
  0.000E+00  1.198E+00  1.983E-02 3.6193865E+00 -3.3486384E-01 1.6533357E+00
  4.318E-02  1.174E+00  1.519E-02 3.6102922E+00 -2.9328749E-01 1.6610578E+00
  0.000E+00  1.247E+00  3.092E-02 3.6359093E+00 -4.1673448E-01 1.6345071E+00
  4.318E-02  1.223E+00  2.507E-02 3.6287406E+00 -3.7608001E-01 1.6446491E+00
  0.000E+00  1.295E+00  4.443E-02 3.6419196E+00 -4.9680039E-01 1.6110750E+00
  4.318E-02  1.271E+00  3.738E-02 3.6402678E+00 -4.5696298E-01 1.6234057E+00
  0.000E+00  1.342E+00  6.031E-02 3.6524614E+00 -5.7620490E-01 1.5841701E+00
  4.318E-02  1.318E+00  5.207E-02 3.6422460E+00 -5.3655130E-01 1.5981000E+00
  0.000E+00  1.388E+00  7.852E-02 3.6876058E+00 -6.5504510E-01 1.5539444E+00
  4.318E-02  1.365E+00  6.913E-02 3.6713140E+00 -6.1583602E-01 1.5696502E+00
  0.000E+00  1.434E+00  9.903E-02 3.6944335E+00 -7.3178547E-01 1.5193578E+00
  4.318E-02  1.411E+00  8.849E-02 3.6975272E+00 -6.9377072E-01 1.5373080E+00
  0.000E+00  1.478E+00  1.218E-01 3.7117530E+00 -8.0640064E-01 1.4808184E+00
  4.318E-02  1.456E+00  1.101E-01 3.6937074E+00 -7.6935725E-01 1.5006171E+00
  0.000E+00  1.521E+00  1.467E-01 3.7377966E+00 -8.7926912E-01 1.4388543E+00
  4.318E-02  1.500E+00  1.340E-01 3.7291454E+00 -8.4313447E-01 1.4603746E+00
  0.000E+00  1.563E+00  1.738E-01 3.7342624E+00 -9.4990879E-01 1.3932354E+00
  4.318E-02  1.543E+00  1.600E-01 3.7271297E+00 -9.1494775E-01 1.4165943E+00
  0.000E+00  1.604E+00  2.029E-01 3.7556323E+00 -1.0181616E+00 1.3441395E+00
  4.318E-02  1.584E+00  1.881E-01 3.7583442E+00 -9.8439881E-01 1.3691915E+00
  0.000E+00  1.643E+00  2.340E-01 3.7621506E+00 -1.0839019E+00 1.2917277E+00
  4.318E-02  1.623E+00  2.182E-01 3.7492116E+00 -1.0514290E+00 1.3184335E+00
  0.000E+00  1.680E+00  2.669E-01 3.7642944E+00 -1.1469393E+00 1.2360951E+00
  4.318E-02  1.662E+00  2.502E-01 3.7657308E+00 -1.1158408E+00 1.2643858E+00
  0.000E+00  1.716E+00  3.018E-01 3.7651529E+00 -1.2071249E+00 1.1773839E+00
  4.318E-02  1.698E+00  2.841E-01 3.7651616E+00 -1.1774724E+00 1.2071930E+00
  0.000E+00  1.750E+00  3.383E-01 3.7657216E+00 -1.2643108E+00 1.1157535E+00
  4.318E-02  1.733E+00  3.198E-01 3.7643028E+00 -1.2361843E+00 1.1470004E+00
  0.000E+00  1.782E+00  3.765E-01 3.7492024E+00 -1.3183519E+00 1.0513436E+00
  4.318E-02  1.766E+00  3.572E-01 3.7621594E+00 -1.2918174E+00 1.0839563E+00
  0.000E+00  1.812E+00  4.163E-01 3.7583330E+00 -1.3691035E+00 9.8431612E-01
  4.318E-02  1.797E+00  3.962E-01 3.7556409E+00 -1.3442295E+00 1.0182098E+00
  0.000E+00  1.840E+00  4.575E-01 3.7271188E+00 -1.4164994E+00 9.1486801E-01
  4.318E-02  1.826E+00  4.367E-01 3.7342704E+00 -1.3933252E+00 9.4995092E-01
  0.000E+00  1.866E+00  5.000E-01 3.7291329E+00 -1.4602726E+00 8.4305805E-01
  4.318E-02  1.853E+00  4.786E-01 3.7378050E+00 -1.4389427E+00 8.7930508E-01
  0.000E+00  1.890E+00  5.438E-01 3.6936935E+00 -1.5005093E+00 7.6928482E-01
  4.318E-02  1.878E+00  5.217E-01 3.7117613E+00 -1.4809060E+00 8.0643075E-01
  0.000E+00  1.912E+00  5.887E-01 3.6975120E+00 -1.5371946E+00 6.9370325E-01
  4.318E-02  1.901E+00  5.661E-01 3.6944431E+00 -1.5194448E+00 7.3181033E-01
  0.000E+00  1.931E+00  6.347E-01 3.6712982E+00 -1.5695316E+00 6.1577394E-01
  4.318E-02  1.921E+00  6.116E-01 3.6876160E+00 -1.5540305E+00 6.5506521E-01
  0.000E+00  1.948E+00  6.815E-01 3.6422297E+00 -1.5979765E+00 5.3649491E-01
  4.318E-02  1.940E+00  6.580E-01 3.6524718E+00 -1.5842553E+00 5.7622039E-01
  0.000E+00  1.963E+00  7.292E-01 3.6402512E+00 -1.6232770E+00 4.5691261E-01
  4.318E-02  1.956E+00  7.052E-01 3.6419294E+00 -1.6111584E+00 4.9681122E-01
  0.000E+00  1.975E+00  7.775E-01 3.6287234E+00 -1.6445162E+00 3.7603600E-01
  4.318E-02  1.969E+00  7.532E-01 3.6359185E+00 -1.6345884E+00 4.1674083E-01
  0.000E+00  1.985E+00  8.264E-01 3.6102745E+00 -1.6609215E+00 2.9325003E-01
  4.318E-02  1.980E+00  8.019E-01 3.6193957E+00 -1.6534159E+00 3.3486618E-01
  0.000E+00  1.992E+00  8.757E-01 3.5945606E+00 -1.6729880E+00 2.0946480E-01
  4.318E-02  1.989E+00  8.510E-01 3.6014147E+00 -1.6675649E+00 2.5142684E-01
  0.000E+00  1.997E+00  9.253E-01 3.5857115E+00 -1.6812037E+00 1.2559601E-01
  4.318E-02  1.995E+00  9.004E-01 3.5893718E+00 -1.6776804E+00 1.6752358E-01
  0.000E+00  2.000E+00  9.751E-01 3.5823838E+00 -1.6854507E+00 4.1848319E-02
  4.318E-02  1.999E+00  9.502E-01 3.5839072E+00 -1.6839552E+00 8.3716335E-02
  0.000E+00  2.000E+00  1.025E+00 3.5823863E+00 -1.6854504E+00 -4.1860032E-02
  4.318E-02  2.000E+00  1.000E+00 3.5825264E+00 -1.6861061E+00 -5.6715875E-06
  0.000E+00  1.997E+00  1.075E+00 3.5857177E+00 -1.6812027E+00 -1.2560769E-01
  4.318E-02  1.999E+00  1.050E+00 3.5839042E+00 -1.6839545E+00 -8.3727779E-02
  0.000E+00  1.992E+00  1.124E+00 3.5945679E+00 -1.6729863E+00 -2.0947643E-01
  4.318E-02  1.995E+00  1.100E+00 3.5893674E+00 -1.6776790E+00 -1.6753522E-01
  0.000E+00  1.985E+00  1.174E+00 3.6102811E+00 -1.6609194E+00 -2.9326157E-01
  4.318E-02  1.989E+00  1.149E+00 3.6014103E+00 -1.6675629E+00 -2.5143856E-01
  0.000E+00  1.975E+00  1.223E+00 3.6287291E+00 -1.6445137E+00 -3.7604743E-01
  4.318E-02  1.980E+00  1.198E+00 3.6193919E+00 -1.6534136E+00 -3.3487783E-01
  0.000E+00  1.963E+00  1.271E+00 3.6402563E+00 -1.6232737E+00 -4.5692390E-01
  4.318E-02  1.969E+00  1.247E+00 3.6359152E+00 -1.6345856E+00 -4.1675232E-01
  0.000E+00  1.948E+00  1.318E+00 3.6422346E+00 -1.5979721E+00 -5.3650603E-01
  4.318E-02  1.956E+00  1.295E+00 3.6419264E+00 -1.6111544E+00 -4.9682255E-01
  0.000E+00  1.931E+00  1.365E+00 3.6713029E+00 -1.5695272E+00 -6.1578487E-01
  4.318E-02  1.940E+00  1.342E+00 3.6524689E+00 -1.5842507E+00 -5.7623152E-01
  0.000E+00  1.912E+00  1.411E+00 3.6975163E+00 -1.5371898E+00 -6.9371395E-01
  4.318E-02  1.921E+00  1.388E+00 3.6876133E+00 -1.5540261E+00 -6.5507615E-01
  0.000E+00  1.890E+00  1.456E+00 3.6936971E+00 -1.5005032E+00 -7.6929526E-01
  4.318E-02  1.901E+00  1.434E+00 3.6944408E+00 -1.5194392E+00 -7.3182105E-01
  0.000E+00  1.866E+00  1.500E+00 3.7291354E+00 -1.4602666E+00 -8.4306822E-01
  4.318E-02  1.878E+00  1.478E+00 3.7117596E+00 -1.4808999E+00 -8.0644125E-01
  0.000E+00  1.840E+00  1.543E+00 3.7271198E+00 -1.4164927E+00 -9.1487787E-01
  4.318E-02  1.853E+00  1.521E+00 3.7378042E+00 -1.4389364E+00 -8.7931530E-01
  0.000E+00  1.812E+00  1.584E+00 3.7583325E+00 -1.3690963E+00 -9.8432566E-01
  4.318E-02  1.826E+00  1.563E+00 3.7342706E+00 -1.3933181E+00 -9.4996081E-01
  0.000E+00  1.782E+00  1.623E+00 3.7492008E+00 -1.3183443E+00 -1.0513528E+00
  4.318E-02  1.797E+00  1.604E+00 3.7556420E+00 -1.3442221E+00 -1.0182193E+00
  0.000E+00  1.750E+00  1.662E+00 3.7657196E+00 -1.2643027E+00 -1.1157623E+00
  4.318E-02  1.766E+00  1.643E+00 3.7621610E+00 -1.2918094E+00 -1.0839654E+00
  0.000E+00  1.716E+00  1.698E+00 3.7651513E+00 -1.2071164E+00 -1.1773923E+00
  4.318E-02  1.733E+00  1.680E+00 3.7643044E+00 -1.2361760E+00 -1.1470090E+00
  0.000E+00  1.680E+00  1.733E+00 3.7642937E+00 -1.1469303E+00 -1.2361031E+00
  4.318E-02  1.698E+00  1.716E+00 3.7651627E+00 -1.1774637E+00 -1.2072012E+00
  0.000E+00  1.643E+00  1.766E+00 3.7621507E+00 -1.0838925E+00 -1.2917352E+00
  4.318E-02  1.662E+00  1.750E+00 3.7657315E+00 -1.1158316E+00 -1.2643935E+00
  0.000E+00  1.604E+00  1.797E+00 3.7556325E+00 -1.0181519E+00 -1.3441465E+00
  4.318E-02  1.623E+00  1.782E+00 3.7492119E+00 -1.0514194E+00 -1.3184408E+00
  0.000E+00  1.563E+00  1.826E+00 3.7342618E+00 -9.4989872E-01 -1.3932420E+00
  4.318E-02  1.584E+00  1.812E+00 3.7583448E+00 -9.8438882E-01 -1.3691984E+00
  0.000E+00  1.521E+00  1.853E+00 3.7377950E+00 -8.7925875E-01 -1.4388603E+00
  4.318E-02  1.543E+00  1.840E+00 3.7271309E+00 -9.1493740E-01 -1.4166007E+00
  0.000E+00  1.478E+00  1.878E+00 3.7117516E+00 -8.0638998E-01 -1.4808239E+00
  4.318E-02  1.500E+00  1.866E+00 3.7291470E+00 -8.4312393E-01 -1.4603804E+00
  0.000E+00  1.434E+00  1.901E+00 3.6944337E+00 -7.3177453E-01 -1.5193628E+00
  4.318E-02  1.456E+00  1.890E+00 3.6937083E+00 -7.6934650E-01 -1.5006224E+00
  0.000E+00  1.388E+00  1.921E+00 3.6876075E+00 -6.5503390E-01 -1.5539488E+00
  4.318E-02  1.411E+00  1.912E+00 3.6975271E+00 -6.9375976E-01 -1.5373127E+00
  0.000E+00  1.342E+00  1.940E+00 3.6524633E+00 -5.7619340E-01 -1.5841739E+00
  4.318E-02  1.365E+00  1.931E+00 3.6713133E+00 -6.1582477E-01 -1.5696543E+00
  0.000E+00  1.295E+00  1.956E+00 3.6419209E+00 -4.9678855E-01 -1.6110782E+00
  4.318E-02  1.318E+00  1.948E+00 3.6422454E+00 -5.3653985E-01 -1.5981037E+00
  0.000E+00  1.247E+00  1.969E+00 3.6359100E+00 -4.1672225E-01 -1.6345096E+00
  4.318E-02  1.271E+00  1.963E+00 3.6402678E+00 -4.5695148E-01 -1.6234088E+00
  0.000E+00  1.198E+00  1.980E+00 3.6193866E+00 -3.3485160E-01 -1.6533376E+00
  4.318E-02  1.223E+00  1.975E+00 3.6287410E+00 -3.7606845E-01 -1.6446516E+00
  0.000E+00  1.149E+00  1.989E+00 3.6014049E+00 -2.5141650E-01 -1.6674867E+00
  4.318E-02  1.174E+00  1.985E+00 3.6102931E+00 -2.9327542E-01 -1.6610596E+00
  0.000E+00  1.100E+00  1.995E+00 3.5893611E+00 -1.6751755E-01 -1.6776021E+00
  4.318E-02  1.124E+00  1.992E+00 3.5945798E+00 -2.0948239E-01 -1.6731281E+00
  0.000E+00  1.050E+00  1.999E+00 3.5838961E+00 -8.3713626E-02 -1.6838769E+00
  4.318E-02  1.075E+00  1.997E+00 3.5857306E+00 -1.2560569E-01 -1.6813454E+00
  0.000E+00  1.000E+00  2.000E+00 3.5825162E+00 6.5752026E-06 -1.6860277E+00
  4.318E-02  1.025E+00  2.000E+00 3.5824014E+00 -4.1850868E-02 -1.6855934E+00
  0.000E+00  9.502E-01  1.999E+00 3.5838960E+00 8.3726777E-02 -1.6838762E+00
  4.318E-02  9.751E-01  2.000E+00 3.5824014E+00 4.1864072E-02 -1.6855930E+00
  0.000E+00  9.004E-01  1.995E+00 3.5893611E+00 1.6753069E-01 -1.6776009E+00
  4.318E-02  9.253E-01  1.997E+00 3.5857306E+00 1.2561885E-01 -1.6813445E+00
  0.000E+00  8.510E-01  1.989E+00 3.6014048E+00 2.5142957E-01 -1.6674849E+00
  4.318E-02  8.757E-01  1.992E+00 3.5945798E+00 2.0949548E-01 -1.6731266E+00
  0.000E+00  8.019E-01  1.980E+00 3.6193865E+00 3.3486456E-01 -1.6533352E+00
  4.318E-02  8.264E-01  1.985E+00 3.6102930E+00 2.9328842E-01 -1.6610574E+00
  0.000E+00  7.532E-01  1.969E+00 3.6359099E+00 4.1673507E-01 -1.6345065E+00
  4.318E-02  7.775E-01  1.975E+00 3.6287409E+00 3.7608134E-01 -1.6446488E+00
  0.000E+00  7.052E-01  1.956E+00 3.6419208E+00 4.9680122E-01 -1.6110745E+00
  4.318E-02  7.292E-01  1.963E+00 3.6402677E+00 4.5696423E-01 -1.6234054E+00
  0.000E+00  6.580E-01  1.940E+00 3.6524632E+00 5.7620588E-01 -1.5841696E+00
  4.318E-02  6.815E-01  1.948E+00 3.6422453E+00 5.3655243E-01 -1.5980997E+00
  0.000E+00  6.116E-01  1.921E+00 3.6876074E+00 6.5504616E-01 -1.5539440E+00
  4.318E-02  6.347E-01  1.931E+00 3.6713132E+00 6.1583714E-01 -1.5696498E+00
  0.000E+00  5.661E-01  1.901E+00 3.6944336E+00 7.3178656E-01 -1.5193574E+00
  4.318E-02  5.887E-01  1.912E+00 3.6975269E+00 6.9377190E-01 -1.5373076E+00
  0.000E+00  5.217E-01  1.878E+00 3.7117515E+00 8.0640173E-01 -1.4808180E+00
  4.318E-02  5.438E-01  1.890E+00 3.6937082E+00 7.6935840E-01 -1.5006167E+00
  0.000E+00  4.786E-01  1.853E+00 3.7377949E+00 8.7927021E-01 -1.4388539E+00
  4.318E-02  5.000E-01  1.866E+00 3.7291469E+00 8.4313551E-01 -1.4603742E+00
  0.000E+00  4.367E-01  1.826E+00 3.7342617E+00 9.4990987E-01 -1.3932350E+00
  4.318E-02  4.575E-01  1.840E+00 3.7271308E+00 9.1494870E-01 -1.4165939E+00
  0.000E+00  3.962E-01  1.797E+00 3.7556324E+00 1.0181627E+00 -1.3441391E+00
  4.318E-02  4.163E-01  1.812E+00 3.7583447E+00 9.8439976E-01 -1.3691912E+00
  0.000E+00  3.572E-01  1.766E+00 3.7621506E+00 1.0839030E+00 -1.2917273E+00
  4.318E-02  3.765E-01  1.782E+00 3.7492118E+00 1.0514300E+00 -1.3184331E+00
  0.000E+00  3.198E-01  1.733E+00 3.7642936E+00 1.1469403E+00 -1.2360947E+00
  4.318E-02  3.383E-01  1.750E+00 3.7657313E+00 1.1158418E+00 -1.2643853E+00
  0.000E+00  2.841E-01  1.698E+00 3.7651512E+00 1.2071260E+00 -1.1773835E+00
  4.318E-02  3.018E-01  1.716E+00 3.7651626E+00 1.1774735E+00 -1.2071925E+00
  0.000E+00  2.502E-01  1.662E+00 3.7657195E+00 1.2643118E+00 -1.1157531E+00
  4.318E-02  2.669E-01  1.680E+00 3.7643043E+00 1.2361853E+00 -1.1469999E+00
  0.000E+00  2.182E-01  1.623E+00 3.7492007E+00 1.3183529E+00 -1.0513432E+00
  4.318E-02  2.340E-01  1.643E+00 3.7621609E+00 1.2918183E+00 -1.0839560E+00
  0.000E+00  1.881E-01  1.584E+00 3.7583324E+00 1.3691045E+00 -9.8431573E-01
  4.318E-02  2.029E-01  1.604E+00 3.7556419E+00 1.3442304E+00 -1.0182095E+00
  0.000E+00  1.600E-01  1.543E+00 3.7271197E+00 1.4165004E+00 -9.1486762E-01
  4.318E-02  1.738E-01  1.563E+00 3.7342705E+00 1.3933261E+00 -9.4995063E-01
  0.000E+00  1.340E-01  1.500E+00 3.7291353E+00 1.4602736E+00 -8.4305766E-01
  4.318E-02  1.467E-01  1.521E+00 3.7378041E+00 1.4389436E+00 -8.7930480E-01
  0.000E+00  1.101E-01  1.456E+00 3.6936971E+00 1.5005103E+00 -7.6928443E-01
  4.318E-02  1.218E-01  1.478E+00 3.7117596E+00 1.4809069E+00 -8.0643045E-01
  0.000E+00  8.849E-02  1.411E+00 3.6975163E+00 1.5371956E+00 -6.9370286E-01
  4.318E-02  9.903E-02  1.434E+00 3.6944407E+00 1.5194457E+00 -7.3181000E-01
  0.000E+00  6.913E-02  1.365E+00 3.6713029E+00 1.5695326E+00 -6.1577356E-01
  4.318E-02  7.852E-02  1.388E+00 3.6876133E+00 1.5540314E+00 -6.5506486E-01
  0.000E+00  5.207E-02  1.318E+00 3.6422346E+00 1.5979775E+00 -5.3649453E-01
  4.318E-02  6.031E-02  1.342E+00 3.6524688E+00 1.5842562E+00 -5.7622002E-01
  0.000E+00  3.738E-02  1.271E+00 3.6402563E+00 1.6232780E+00 -4.5691222E-01
  4.318E-02  4.443E-02  1.295E+00 3.6419264E+00 1.6111593E+00 -4.9681086E-01
  0.000E+00  2.507E-02  1.223E+00 3.6287291E+00 1.6445171E+00 -3.7603561E-01
  4.318E-02  3.092E-02  1.247E+00 3.6359152E+00 1.6345893E+00 -4.1674048E-01
  0.000E+00  1.519E-02  1.174E+00 3.6102811E+00 1.6609225E+00 -2.9324964E-01
  4.318E-02  1.983E-02  1.198E+00 3.6193919E+00 1.6534167E+00 -3.3486586E-01
  0.000E+00  7.761E-03  1.124E+00 3.5945679E+00 1.6729890E+00 -2.0946440E-01
  4.318E-02  1.117E-02  1.149E+00 3.6014103E+00 1.6675658E+00 -2.5142649E-01
  0.000E+00  2.796E-03  1.075E+00 3.5857178E+00 1.6812047E+00 -1.2559561E-01
  4.318E-02  4.969E-03  1.100E+00 3.5893673E+00 1.6776813E+00 -1.6752308E-01
  0.000E+00  3.108E-04  1.025E+00 3.5823863E+00 1.6854517E+00 -4.1847919E-02
  4.318E-02  1.243E-03  1.050E+00 3.5839042E+00 1.6839561E+00 -8.3715599E-02
  0.000E+00  3.108E-04  9.751E-01 3.5823838E+00 1.6854513E+00 4.1860435E-02
  4.318E-02  0.000E+00  1.000E+00 3.5825264E+00 1.6861069E+00 6.5222276E-06
  0.000E+00  2.796E-03  9.253E-01 3.5857116E+00 1.6812036E+00 1.2560810E-01
  4.318E-02  1.243E-03  9.502E-01 3.5839072E+00 1.6839553E+00 8.3728514E-02
  0.000E+00  7.761E-03  8.757E-01 3.5945607E+00 1.6729872E+00 2.0947683E-01
  4.318E-02  4.969E-03  9.004E-01 3.5893718E+00 1.6776797E+00 1.6753572E-01
  0.000E+00  1.519E-02  8.264E-01 3.6102746E+00 1.6609203E+00 2.9326198E-01
  4.318E-02  1.117E-02  8.510E-01 3.6014147E+00 1.6675637E+00 2.5143890E-01
  0.000E+00  2.507E-02  7.775E-01 3.6287234E+00 1.6445146E+00 3.7604784E-01
  4.318E-02  1.983E-02  8.019E-01 3.6193957E+00 1.6534143E+00 3.3487814E-01
  0.000E+00  3.738E-02  7.292E-01 3.6402512E+00 1.6232746E+00 4.5692432E-01
  4.318E-02  3.092E-02  7.532E-01 3.6359185E+00 1.6345864E+00 4.1675266E-01
  0.000E+00  5.207E-02  6.815E-01 3.6422297E+00 1.5979730E+00 5.3650645E-01
  4.318E-02  4.443E-02  7.052E-01 3.6419294E+00 1.6111552E+00 4.9682290E-01
  0.000E+00  6.913E-02  6.347E-01 3.6712982E+00 1.5695282E+00 6.1578529E-01
  4.318E-02  6.031E-02  6.580E-01 3.6524717E+00 1.5842515E+00 5.7623188E-01
  0.000E+00  8.849E-02  5.887E-01 3.6975119E+00 1.5371907E+00 6.9371437E-01
  4.318E-02  7.852E-02  6.116E-01 3.6876159E+00 1.5540269E+00 6.5507650E-01
  0.000E+00  1.101E-01  5.438E-01 3.6936935E+00 1.5005041E+00 7.6929569E-01
  4.318E-02  9.903E-02  5.661E-01 3.6944431E+00 1.5194401E+00 7.3182137E-01
  0.000E+00  1.340E-01  5.000E-01 3.7291328E+00 1.4602676E+00 8.4306865E-01
  4.318E-02  1.218E-01  5.217E-01 3.7117613E+00 1.4809007E+00 8.0644153E-01
  0.000E+00  1.600E-01  4.575E-01 3.7271187E+00 1.4164936E+00 9.1487830E-01
  4.318E-02  1.467E-01  4.786E-01 3.7378049E+00 1.4389373E+00 8.7931557E-01
  0.000E+00  1.881E-01  4.163E-01 3.7583329E+00 1.3690973E+00 9.8432608E-01
  4.318E-02  1.738E-01  4.367E-01 3.7342703E+00 1.3933189E+00 9.4996108E-01
  0.000E+00  2.182E-01  3.765E-01 3.7492024E+00 1.3183452E+00 1.0513532E+00
  4.318E-02  2.029E-01  3.962E-01 3.7556408E+00 1.3442230E+00 1.0182196E+00
  0.000E+00  2.502E-01  3.383E-01 3.7657215E+00 1.2643036E+00 1.1157627E+00
  4.318E-02  2.340E-01  3.572E-01 3.7621593E+00 1.2918103E+00 1.0839658E+00
  0.000E+00  2.841E-01  3.018E-01 3.7651528E+00 1.2071173E+00 1.1773927E+00
  4.318E-02  2.669E-01  3.198E-01 3.7643026E+00 1.2361768E+00 1.1470094E+00
  0.000E+00  3.198E-01  2.669E-01 3.7642943E+00 1.1469313E+00 1.2361035E+00
  4.318E-02  3.018E-01  2.841E-01 3.7651614E+00 1.1774645E+00 1.2072016E+00
  0.000E+00  3.572E-01  2.340E-01 3.7621505E+00 1.0838935E+00 1.2917356E+00
  4.318E-02  3.383E-01  2.502E-01 3.7657307E+00 1.1158324E+00 1.2643940E+00
  0.000E+00  3.962E-01  2.029E-01 3.7556322E+00 1.0181529E+00 1.3441470E+00
  4.318E-02  3.765E-01  2.182E-01 3.7492115E+00 1.0514203E+00 1.3184412E+00
  0.000E+00  4.367E-01  1.738E-01 3.7342623E+00 9.4989971E-01 1.3932424E+00
  4.318E-02  4.163E-01  1.881E-01 3.7583440E+00 9.8438976E-01 1.3691988E+00
  0.000E+00  4.786E-01  1.467E-01 3.7377965E+00 8.7925975E-01 1.4388607E+00
  4.318E-02  4.575E-01  1.600E-01 3.7271295E+00 9.1493837E-01 1.4166010E+00
  0.000E+00  5.217E-01  1.218E-01 3.7117529E+00 8.0639099E-01 1.4808243E+00
  4.318E-02  5.000E-01  1.340E-01 3.7291453E+00 8.4312482E-01 1.4603808E+00
  0.000E+00  5.661E-01  9.903E-02 3.6944334E+00 7.3177556E-01 1.5193632E+00
  4.318E-02  5.438E-01  1.101E-01 3.6937072E+00 7.6934731E-01 1.5006228E+00
  0.000E+00  6.116E-01  7.852E-02 3.6876057E+00 6.5503497E-01 1.5539493E+00
  4.318E-02  5.887E-01  8.849E-02 3.6975271E+00 6.9376056E-01 1.5373132E+00
  0.000E+00  6.580E-01  6.031E-02 3.6524613E+00 5.7619456E-01 1.5841743E+00
  4.318E-02  6.347E-01  6.913E-02 3.6713139E+00 6.1582565E-01 1.5696547E+00
  0.000E+00  7.052E-01  4.443E-02 3.6419195E+00 4.9678989E-01 1.6110787E+00
  4.318E-02  6.815E-01  5.207E-02 3.6422458E+00 5.3654074E-01 1.5981040E+00
  0.000E+00  7.532E-01  3.092E-02 3.6359093E+00 4.1672383E-01 1.6345101E+00
  4.318E-02  7.292E-01  3.738E-02 3.6402677E+00 4.5695226E-01 1.6234091E+00
  0.000E+00  8.019E-01  1.983E-02 3.6193864E+00 3.3485306E-01 1.6533382E+00
  4.318E-02  7.775E-01  2.507E-02 3.6287405E+00 3.7606916E-01 1.6446519E+00
  0.000E+00  8.510E-01  1.117E-02 3.6014056E+00 2.5141676E-01 1.6674872E+00
  4.318E-02  8.264E-01  1.519E-02 3.6102921E+00 2.9327654E-01 1.6610599E+00
  0.000E+00  9.004E-01  4.969E-03 3.5893633E+00 1.6751594E-01 1.6776023E+00
  4.318E-02  8.757E-01  7.761E-03 3.5945780E+00 2.0948471E-01 1.6731286E+00
  4.318E-02  9.253E-01  2.796E-03 3.5857280E+00 1.2560890E-01 1.6813461E+00
  1.000E+01  1.050E+00  1.243E-03 3.5838999E+00 -8.3722784E-02 1.6838761E+00
  1.000E+01  1.000E+00  5.551E-16 3.5825208E+00 -5.4733837E-06 1.6860274E+00
  9.957E+00  1.025E+00  3.108E-04 3.5823882E+00 -4.1861156E-02 1.6854852E+00
  1.000E+01  9.502E-01  1.243E-03 3.5838999E+00 8.3711836E-02 1.6838767E+00
  9.957E+00  9.751E-01  3.108E-04 3.5823882E+00 4.1850345E-02 1.6854855E+00
  1.000E+01  9.004E-01  4.969E-03 3.5893633E+00 1.6751594E-01 1.6776023E+00
  9.957E+00  9.253E-01  2.796E-03 3.5857186E+00 1.2560057E-01 1.6812376E+00
  1.000E+01  8.510E-01  1.117E-02 3.6014056E+00 2.5141676E-01 1.6674872E+00
  9.957E+00  8.757E-01  7.761E-03 3.5945690E+00 2.0947090E-01 1.6730206E+00
  1.000E+01  8.019E-01  1.983E-02 3.6193864E+00 3.3485306E-01 1.6533382E+00
  9.957E+00  8.264E-01  1.519E-02 3.6102828E+00 2.9325747E-01 1.6609528E+00
  1.000E+01  7.532E-01  3.092E-02 3.6359093E+00 4.1672383E-01 1.6345101E+00
  9.957E+00  7.775E-01  2.507E-02 3.6287315E+00 3.7604508E-01 1.6445459E+00
  1.000E+01  7.052E-01  4.443E-02 3.6419195E+00 4.9678989E-01 1.6110787E+00
  9.957E+00  7.292E-01  3.738E-02 3.6402594E+00 4.5692333E-01 1.6233046E+00
  1.000E+01  6.580E-01  6.031E-02 3.6524613E+00 5.7619456E-01 1.5841743E+00
  9.957E+00  6.815E-01  5.207E-02 3.6422380E+00 5.3650678E-01 1.5980011E+00
  1.000E+01  6.116E-01  7.852E-02 3.6876057E+00 6.5503497E-01 1.5539493E+00
  9.957E+00  6.347E-01  6.913E-02 3.6713062E+00 6.1578633E-01 1.5695534E+00
  1.000E+01  5.661E-01  9.903E-02 3.6944334E+00 7.3177556E-01 1.5193632E+00
  9.957E+00  5.887E-01  8.849E-02 3.6975192E+00 6.9371591E-01 1.5372138E+00
  1.000E+01  5.217E-01  1.218E-01 3.7117529E+00 8.0639099E-01 1.4808243E+00
  9.957E+00  5.438E-01  1.101E-01 3.6937005E+00 7.6929765E-01 1.5005258E+00
  1.000E+01  4.786E-01  1.467E-01 3.7377965E+00 8.7925975E-01 1.4388607E+00
  9.957E+00  5.000E-01  1.340E-01 3.7291392E+00 8.4307066E-01 1.4602866E+00
  1.000E+01  4.367E-01  1.738E-01 3.7342623E+00 9.4989971E-01 1.3932424E+00
  9.957E+00  4.575E-01  1.600E-01 3.7271248E+00 9.1487966E-01 1.4165098E+00
  1.000E+01  3.962E-01  2.029E-01 3.7556322E+00 1.0181529E+00 1.3441470E+00
  9.957E+00  4.163E-01  1.881E-01 3.7583372E+00 9.8432635E-01 1.3691106E+00
  1.000E+01  3.572E-01  2.340E-01 3.7621505E+00 1.0838935E+00 1.2917356E+00
  9.957E+00  3.765E-01  2.182E-01 3.7492076E+00 1.0513524E+00 1.3183562E+00
  1.000E+01  3.198E-01  2.669E-01 3.7642943E+00 1.1469313E+00 1.2361035E+00
  9.957E+00  3.383E-01  2.502E-01 3.7657256E+00 1.1157605E+00 1.2643124E+00
  1.000E+01  2.841E-01  3.018E-01 3.7651528E+00 1.2071173E+00 1.1773927E+00
  9.957E+00  3.018E-01  2.841E-01 3.7651568E+00 1.1773886E+00 1.2071237E+00
  1.000E+01  2.502E-01  3.383E-01 3.7657215E+00 1.2643036E+00 1.1157627E+00
  9.957E+00  2.669E-01  3.198E-01 3.7642984E+00 1.2360971E+00 1.1469355E+00
  1.000E+01  2.182E-01  3.765E-01 3.7492024E+00 1.3183452E+00 1.0513532E+00
  9.957E+00  2.340E-01  3.572E-01 3.7621544E+00 1.2917269E+00 1.0838961E+00
  1.000E+01  1.881E-01  4.163E-01 3.7583329E+00 1.3690973E+00 9.8432608E-01
  9.957E+00  2.029E-01  3.962E-01 3.7556366E+00 1.3441362E+00 1.0181542E+00
  1.000E+01  1.600E-01  4.575E-01 3.7271187E+00 1.4164936E+00 9.1487830E-01
  9.957E+00  1.738E-01  4.367E-01 3.7342669E+00 1.3932289E+00 9.4989976E-01
  1.000E+01  1.340E-01  5.000E-01 3.7291328E+00 1.4602676E+00 8.4306865E-01
  9.957E+00  1.467E-01  4.786E-01 3.7377997E+00 1.4388444E+00 8.7925883E-01
  1.000E+01  1.101E-01  5.438E-01 3.6936935E+00 1.5005041E+00 7.6929569E-01
  9.957E+00  1.218E-01  5.217E-01 3.7117566E+00 1.4808053E+00 8.0638978E-01
  1.000E+01  8.849E-02  5.887E-01 3.6975119E+00 1.5371907E+00 6.9371437E-01
  9.957E+00  9.903E-02  5.661E-01 3.6944380E+00 1.5193423E+00 7.3177462E-01
  1.000E+01  6.913E-02  6.347E-01 3.6712982E+00 1.5695282E+00 6.1578529E-01
  9.957E+00  7.852E-02  6.116E-01 3.6876114E+00 1.5539268E+00 6.5503432E-01
  1.000E+01  5.207E-02  6.815E-01 3.6422297E+00 1.5979730E+00 5.3650645E-01
  9.957E+00  6.031E-02  6.580E-01 3.6524666E+00 1.5841493E+00 5.7619434E-01
  1.000E+01  3.738E-02  7.292E-01 3.6402512E+00 1.6232746E+00 4.5692432E-01
  9.957E+00  4.443E-02  7.052E-01 3.6419238E+00 1.6110512E+00 4.9679043E-01
  1.000E+01  2.507E-02  7.775E-01 3.6287234E+00 1.6445146E+00 3.7604784E-01
  9.957E+00  3.092E-02  7.532E-01 3.6359131E+00 1.6344809E+00 4.1672562E-01
  1.000E+01  1.519E-02  8.264E-01 3.6102746E+00 1.6609203E+00 2.9326198E-01
  9.957E+00  1.983E-02  8.019E-01 3.6193899E+00 1.6533078E+00 3.3485671E-01
  1.000E+01  7.761E-03  8.757E-01 3.5945607E+00 1.6729872E+00 2.0947683E-01
  9.957E+00  1.117E-02  8.510E-01 3.6014091E+00 1.6674563E+00 2.5142300E-01
  1.000E+01  2.796E-03  9.253E-01 3.5857116E+00 1.6812036E+00 1.2560810E-01
  9.957E+00  4.969E-03  9.004E-01 3.5893661E+00 1.6775718E+00 1.6752506E-01
  1.000E+01  3.108E-04  9.751E-01 3.5823838E+00 1.6854513E+00 4.1860435E-02
  9.957E+00  1.243E-03  9.502E-01 3.5839010E+00 1.6838469E+00 8.3722891E-02
  1.000E+01  3.108E-04  1.025E+00 3.5823863E+00 1.6854517E+00 -4.1847919E-02
  9.957E+00  0.000E+00  1.000E+00 3.5825198E+00 1.6859982E+00 5.9747363E-06
  1.000E+01  2.796E-03  1.075E+00 3.5857178E+00 1.6812047E+00 -1.2559561E-01
  9.957E+00  1.243E-03  1.050E+00 3.5838980E+00 1.6838476E+00 -8.3710840E-02
  1.000E+01  7.761E-03  1.124E+00 3.5945679E+00 1.6729890E+00 -2.0946440E-01
  9.957E+00  4.969E-03  1.100E+00 3.5893617E+00 1.6775732E+00 -1.6751282E-01
  1.000E+01  1.519E-02  1.174E+00 3.6102811E+00 1.6609225E+00 -2.9324964E-01
  9.957E+00  1.117E-02  1.149E+00 3.6014047E+00 1.6674583E+00 -2.5141067E-01
  1.000E+01  2.507E-02  1.223E+00 3.6287291E+00 1.6445171E+00 -3.7603561E-01
  9.957E+00  1.983E-02  1.198E+00 3.6193861E+00 1.6533101E+00 -3.3484446E-01
  1.000E+01  3.738E-02  1.271E+00 3.6402563E+00 1.6232780E+00 -4.5691222E-01
  9.957E+00  3.092E-02  1.247E+00 3.6359098E+00 1.6344837E+00 -4.1671351E-01
  1.000E+01  5.207E-02  1.318E+00 3.6422346E+00 1.5979775E+00 -5.3649453E-01
  9.957E+00  4.443E-02  1.295E+00 3.6419208E+00 1.6110552E+00 -4.9677850E-01
  1.000E+01  6.913E-02  1.365E+00 3.6713029E+00 1.5695326E+00 -6.1577356E-01
  9.957E+00  6.031E-02  1.342E+00 3.6524637E+00 1.5841539E+00 -5.7618260E-01
  1.000E+01  8.849E-02  1.411E+00 3.6975163E+00 1.5371956E+00 -6.9370286E-01
  9.957E+00  7.852E-02  1.388E+00 3.6876087E+00 1.5539312E+00 -6.5502277E-01
  1.000E+01  1.101E-01  1.456E+00 3.6936971E+00 1.5005103E+00 -7.6928443E-01
  9.957E+00  9.903E-02  1.434E+00 3.6944357E+00 1.5193480E+00 -7.3176328E-01
  1.000E+01  1.340E-01  1.500E+00 3.7291353E+00 1.4602736E+00 -8.4305766E-01
  9.957E+00  1.218E-01  1.478E+00 3.7117549E+00 1.4808115E+00 -8.0637866E-01
  1.000E+01  1.600E-01  1.543E+00 3.7271197E+00 1.4165004E+00 -9.1486762E-01
  9.957E+00  1.467E-01  1.521E+00 3.7377989E+00 1.4388507E+00 -8.7924799E-01
  1.000E+01  1.881E-01  1.584E+00 3.7583324E+00 1.3691045E+00 -9.8431573E-01
  9.957E+00  1.738E-01  1.563E+00 3.7342671E+00 1.3932361E+00 -9.4988924E-01
  1.000E+01  2.182E-01  1.623E+00 3.7492007E+00 1.3183529E+00 -1.0513432E+00
  9.957E+00  2.029E-01  1.604E+00 3.7556377E+00 1.3441436E+00 -1.0181440E+00
  1.000E+01  2.502E-01  1.662E+00 3.7657195E+00 1.2643118E+00 -1.1157531E+00
  9.957E+00  2.340E-01  1.643E+00 3.7621560E+00 1.2917349E+00 -1.0838864E+00
  1.000E+01  2.841E-01  1.698E+00 3.7651512E+00 1.2071260E+00 -1.1773835E+00
  9.957E+00  2.669E-01  1.680E+00 3.7643000E+00 1.2361054E+00 -1.1469262E+00
  1.000E+01  3.198E-01  1.733E+00 3.7642936E+00 1.1469403E+00 -1.2360947E+00
  9.957E+00  3.018E-01  1.716E+00 3.7651580E+00 1.1773973E+00 -1.2071149E+00
  1.000E+01  3.572E-01  1.766E+00 3.7621506E+00 1.0839030E+00 -1.2917273E+00
  9.957E+00  3.383E-01  1.750E+00 3.7657263E+00 1.1157696E+00 -1.2643040E+00
  1.000E+01  3.962E-01  1.797E+00 3.7556324E+00 1.0181627E+00 -1.3441391E+00
  9.957E+00  3.765E-01  1.782E+00 3.7492079E+00 1.0513619E+00 -1.3183482E+00
  1.000E+01  4.367E-01  1.826E+00 3.7342617E+00 9.4990987E-01 -1.3932350E+00
  9.957E+00  4.163E-01  1.812E+00 3.7583378E+00 9.8433631E-01 -1.3691031E+00
  1.000E+01  4.786E-01  1.853E+00 3.7377949E+00 8.7927021E-01 -1.4388539E+00
  9.957E+00  4.575E-01  1.840E+00 3.7271261E+00 9.1488997E-01 -1.4165028E+00
  1.000E+01  5.217E-01  1.878E+00 3.7117515E+00 8.0640173E-01 -1.4808180E+00
  9.957E+00  5.000E-01  1.866E+00 3.7291408E+00 8.4308114E-01 -1.4602801E+00
  1.000E+01  5.661E-01  1.901E+00 3.6944336E+00 7.3178656E-01 -1.5193574E+00
  9.957E+00  5.438E-01  1.890E+00 3.6937015E+00 7.6930834E-01 -1.5005198E+00
  1.000E+01  6.116E-01  1.921E+00 3.6876074E+00 6.5504616E-01 -1.5539440E+00
  9.957E+00  5.887E-01  1.912E+00 3.6975191E+00 6.9372683E-01 -1.5372084E+00
  1.000E+01  6.580E-01  1.940E+00 3.6524632E+00 5.7620588E-01 -1.5841696E+00
  9.957E+00  6.347E-01  1.931E+00 3.6713055E+00 6.1579759E-01 -1.5695485E+00
  1.000E+01  7.052E-01  1.956E+00 3.6419208E+00 4.9680122E-01 -1.6110745E+00
  9.957E+00  6.815E-01  1.948E+00 3.6422375E+00 5.3651838E-01 -1.5979968E+00
  1.000E+01  7.532E-01  1.969E+00 3.6359099E+00 4.1673507E-01 -1.6345065E+00
  9.957E+00  7.292E-01  1.963E+00 3.6402594E+00 4.5693523E-01 -1.6233009E+00
  1.000E+01  8.019E-01  1.980E+00 3.6193865E+00 3.3486456E-01 -1.6533352E+00
  9.957E+00  7.775E-01  1.975E+00 3.6287318E+00 3.7605718E-01 -1.6445429E+00
  1.000E+01  8.510E-01  1.989E+00 3.6014048E+00 2.5142957E-01 -1.6674849E+00
  9.957E+00  8.264E-01  1.985E+00 3.6102834E+00 2.9326933E-01 -1.6609503E+00
  1.000E+01  9.004E-01  1.995E+00 3.5893611E+00 1.6753069E-01 -1.6776009E+00
  9.957E+00  8.757E-01  1.992E+00 3.5945703E+00 2.0948176E-01 -1.6730186E+00
  1.000E+01  9.502E-01  1.999E+00 3.5838960E+00 8.3726777E-02 -1.6838762E+00
  9.957E+00  9.253E-01  1.997E+00 3.5857212E+00 1.2561062E-01 -1.6812360E+00
  1.000E+01  1.000E+00  2.000E+00 3.5825162E+00 6.5752026E-06 -1.6860277E+00
  9.957E+00  9.751E-01  2.000E+00 3.5823920E+00 4.1861319E-02 -1.6854844E+00
  1.000E+01  1.050E+00  1.999E+00 3.5838961E+00 -8.3713626E-02 -1.6838769E+00
  9.957E+00  1.025E+00  2.000E+00 3.5823920E+00 -4.1848170E-02 -1.6854847E+00
  1.000E+01  1.100E+00  1.995E+00 3.5893611E+00 -1.6751755E-01 -1.6776021E+00
  9.957E+00  1.075E+00  1.997E+00 3.5857212E+00 -1.2559751E-01 -1.6812370E+00
  1.000E+01  1.149E+00  1.989E+00 3.6014049E+00 -2.5141650E-01 -1.6674867E+00
  9.957E+00  1.124E+00  1.992E+00 3.5945703E+00 -2.0946872E-01 -1.6730201E+00
  1.000E+01  1.198E+00  1.980E+00 3.6193866E+00 -3.3485160E-01 -1.6533376E+00
  9.957E+00  1.174E+00  1.985E+00 3.6102835E+00 -2.9325638E-01 -1.6609524E+00