# TIME = 5.000000
VARIABLES = X, Y, Z, FX, FY, FZ
ZONE N=29232 E=58212 F=FEPOINT ET=TRIANGLE
  0.000E+00  9.502E-01  1.243E-03 3.4406514E+00 3.5441019E-02 7.1270110E-01
  0.000E+00  1.000E+00  0.000E+00 3.4392582E+00 5.7545905E-06 7.1361043E-01
  4.318E-02  9.751E-01  3.108E-04 3.4390423E+00 1.7350895E-02 6.9842817E-01
  0.000E+00  1.050E+00  1.243E-03 3.4406517E+00 -3.5429521E-02 7.1270173E-01
  4.318E-02  1.025E+00  3.108E-04 3.4390424E+00 -1.7339346E-02 6.9842848E-01
  0.000E+00  1.100E+00  4.969E-03 3.4461114E+00 -7.0897755E-02 7.1004738E-01
  4.318E-02  1.075E+00  2.796E-03 3.4424353E+00 -5.2044410E-02 6.9667118E-01
  0.000E+00  1.149E+00  1.117E-02 3.4580693E+00 -1.0640432E-01 7.0576553E-01
  4.318E-02  1.124E+00  7.761E-03 3.4513171E+00 -8.6795522E-02 6.9326607E-01
  0.000E+00  1.198E+00  1.983E-02 3.4759345E+00 -1.4171864E-01 6.9977792E-01
  4.318E-02  1.174E+00  1.519E-02 3.4669584E+00 -1.2151152E-01 6.8826383E-01
  0.000E+00  1.247E+00  3.092E-02 3.4924567E+00 -1.7637520E-01 6.9181293E-01
  4.318E-02  1.223E+00  2.507E-02 3.4852906E+00 -1.5582026E-01 6.8146986E-01
  0.000E+00  1.295E+00  4.443E-02 3.4991799E+00 -2.1026079E-01 6.8189224E-01
  4.318E-02  1.271E+00  3.738E-02 3.4969650E+00 -1.8933464E-01 6.7266745E-01
  0.000E+00  1.342E+00  6.031E-02 3.5100227E+00 -2.4386528E-01 6.7050182E-01
  4.318E-02  1.318E+00  5.207E-02 3.4996850E+00 -2.2230647E-01 6.6217637E-01
  0.000E+00  1.388E+00  7.852E-02 3.5443726E+00 -2.7724232E-01 6.5771886E-01
  4.318E-02  1.365E+00  6.913E-02 3.5287015E+00 -2.5516346E-01 6.5039508E-01
  0.000E+00  1.434E+00  9.903E-02 3.5521650E+00 -3.0971495E-01 6.4307084E-01
  4.318E-02  1.411E+00  8.849E-02 3.5547759E+00 -2.8745738E-01 6.3699533E-01
  0.000E+00  1.478E+00  1.218E-01 3.5697821E+00 -3.4129439E-01 6.2676112E-01
  4.318E-02  1.456E+00  1.101E-01 3.5514414E+00 -3.1876893E-01 6.2178388E-01
  0.000E+00  1.521E+00  1.467E-01 3.5959250E+00 -3.7214439E-01 6.0900633E-01
  4.318E-02  1.500E+00  1.340E-01 3.5862211E+00 -3.4934429E-01 6.0511837E-01
  0.000E+00  1.563E+00  1.738E-01 3.5919479E+00 -4.0204070E-01 5.8969452E-01
  4.318E-02  1.543E+00  1.600E-01 3.5849331E+00 -3.7910446E-01 5.8697750E-01
  0.000E+00  1.604E+00  2.029E-01 3.6134104E+00 -4.3092831E-01 5.6891500E-01
  4.318E-02  1.584E+00  1.881E-01 3.6168955E+00 -4.0787803E-01 5.6733502E-01
  0.000E+00  1.643E+00  2.340E-01 3.6208512E+00 -4.5875580E-01 5.4673328E-01
  4.318E-02  1.623E+00  2.182E-01 3.6068049E+00 -4.3565505E-01 5.4630344E-01
  0.000E+00  1.680E+00  2.669E-01 3.6221946E+00 -4.8543596E-01 5.2318509E-01
  4.318E-02  1.662E+00  2.502E-01 3.6236944E+00 -4.6234420E-01 5.2390937E-01
  0.000E+00  1.716E+00  3.018E-01 3.6234302E+00 -5.1091166E-01 4.9833723E-01
  4.318E-02  1.698E+00  2.841E-01 3.6234420E+00 -4.8788385E-01 5.0021129E-01
  0.000E+00  1.750E+00  3.383E-01 3.6236828E+00 -5.3511740E-01 4.7225114E-01
  4.318E-02  1.733E+00  3.198E-01 3.6222067E+00 -5.1221113E-01 4.7526981E-01
  0.000E+00  1.782E+00  3.765E-01 3.6067937E+00 -5.5799139E-01 4.4499101E-01
  4.318E-02  1.766E+00  3.572E-01 3.6208635E+00 -5.3526618E-01 4.4914922E-01
  0.000E+00  1.812E+00  4.163E-01 3.6168847E+00 -5.7947387E-01 4.1661984E-01
  4.318E-02  1.797E+00  3.962E-01 3.6134230E+00 -5.5698349E-01 4.2190537E-01
  0.000E+00  1.840E+00  4.575E-01 3.5849226E+00 -5.9953724E-01 3.8723059E-01
  4.318E-02  1.826E+00  4.367E-01 3.5919607E+00 -5.7732807E-01 3.9362366E-01
  0.000E+00  1.866E+00  5.000E-01 3.5862108E+00 -6.1806659E-01 3.5683335E-01
  4.318E-02  1.853E+00  4.786E-01 3.5959379E+00 -5.9623520E-01 3.6435418E-01
  0.000E+00  1.890E+00  5.438E-01 3.5514313E+00 -6.3508948E-01 3.2560346E-01
  4.318E-02  1.878E+00  5.217E-01 3.5697952E+00 -6.1361832E-01 3.3415109E-01
  0.000E+00  1.912E+00  5.887E-01 3.5547662E+00 -6.5062732E-01 2.9362208E-01
  4.318E-02  1.901E+00  5.661E-01 3.5521785E+00 -6.2958682E-01 3.0323381E-01
  0.000E+00  1.931E+00  6.347E-01 3.5286921E+00 -6.6431478E-01 2.6063748E-01
  4.318E-02  1.921E+00  6.116E-01 3.5443862E+00 -6.4392839E-01 2.7144189E-01
  0.000E+00  1.948E+00  6.815E-01 3.4996757E+00 -6.7634901E-01 2.2707757E-01
  4.318E-02  1.940E+00  6.580E-01 3.5100363E+00 -6.5644411E-01 2.3876427E-01
  0.000E+00  1.963E+00  7.292E-01 3.4969560E+00 -6.8706502E-01 1.9339983E-01
  4.318E-02  1.956E+00  7.052E-01 3.4991933E+00 -6.6759604E-01 2.0586409E-01
  0.000E+00  1.975E+00  7.775E-01 3.4852817E+00 -6.9605624E-01 1.5916752E-01
  4.318E-02  1.969E+00  7.532E-01 3.4924702E+00 -6.7730903E-01 1.7268915E-01
  0.000E+00  1.985E+00  8.264E-01 3.4669496E+00 -7.0299622E-01 1.2412386E-01
  4.318E-02  1.980E+00  8.019E-01 3.4759483E+00 -6.8510775E-01 1.3875961E-01
  0.000E+00  1.992E+00  8.757E-01 3.4513085E+00 -7.0810620E-01 8.8664547E-02
  4.318E-02  1.989E+00  8.510E-01 3.4580835E+00 -6.9097074E-01 1.0418588E-01
  0.000E+00  1.997E+00  9.253E-01 3.4424270E+00 -7.1158490E-01 5.3169666E-02
  4.318E-02  1.995E+00  9.004E-01 3.4461261E+00 -6.9516369E-01 6.9423584E-02
  0.000E+00  2.000E+00  9.751E-01 3.4390344E+00 -7.1338050E-01 1.7721974E-02
  4.318E-02  1.999E+00  9.502E-01 3.4406667E+00 -6.9776314E-01 3.4698565E-02
  0.000E+00  2.000E+00  1.025E+00 3.4390344E+00 -7.1338079E-01 -1.7710551E-02
  4.318E-02  2.000E+00  1.000E+00 3.4392734E+00 -6.9865344E-01 5.7097671E-06
  0.000E+00  1.997E+00  1.075E+00 3.4424271E+00 -7.1158578E-01 -5.3158268E-02
  4.318E-02  1.999E+00  1.050E+00 3.4406668E+00 -6.9776373E-01 -3.4687156E-02
  0.000E+00  1.992E+00  1.124E+00 3.4513088E+00 -7.0810769E-01 -8.8653199E-02
  4.318E-02  1.995E+00  1.100E+00 3.4461263E+00 -6.9516486E-01 -6.9412212E-02
  0.000E+00  1.985E+00  1.174E+00 3.4669499E+00 -7.0299839E-01 -1.2411259E-01
  4.318E-02  1.989E+00  1.149E+00 3.4580838E+00 -6.9097255E-01 -1.0417456E-01
  0.000E+00  1.975E+00  1.223E+00 3.4852821E+00 -6.9605915E-01 -1.5915634E-01
  4.318E-02  1.980E+00  1.198E+00 3.4759487E+00 -6.8511030E-01 -1.3874838E-01
  0.000E+00  1.963E+00  1.271E+00 3.4969565E+00 -6.8706843E-01 -1.9338877E-01
  4.318E-02  1.969E+00  1.247E+00 3.4924706E+00 -6.7731223E-01 -1.7267803E-01
  0.000E+00  1.948E+00  1.318E+00 3.4996763E+00 -6.7635275E-01 -2.2706665E-01
  4.318E-02  1.956E+00  1.295E+00 3.4991939E+00 -6.6759959E-01 -2.0585311E-01
  0.000E+00  1.931E+00  1.365E+00 3.5286927E+00 -6.6431939E-01 -2.6062673E-01
  4.318E-02  1.940E+00  1.342E+00 3.5100370E+00 -6.5644822E-01 -2.3875344E-01
  0.000E+00  1.912E+00  1.411E+00 3.5547668E+00 -6.5063256E-01 -2.9361154E-01
  4.318E-02  1.921E+00  1.388E+00 3.5443870E+00 -6.4393341E-01 -2.7143125E-01
  0.000E+00  1.890E+00  1.456E+00 3.5514320E+00 -6.3509491E-01 -3.2559313E-01
  4.318E-02  1.901E+00  1.434E+00 3.5521794E+00 -6.2959210E-01 -3.0322338E-01
  0.000E+00  1.866E+00  1.500E+00 3.5862115E+00 -6.1807287E-01 -3.5682327E-01
  4.318E-02  1.878E+00  1.478E+00 3.5697962E+00 -6.1362414E-01 -3.3414089E-01
  0.000E+00  1.840E+00  1.543E+00 3.5849233E+00 -5.9954390E-01 -3.8722078E-01
  4.318E-02  1.853E+00  1.521E+00 3.5959390E+00 -5.9624173E-01 -3.6434424E-01
  0.000E+00  1.812E+00  1.584E+00 3.6168855E+00 -5.7948102E-01 -4.1661034E-01
  4.318E-02  1.826E+00  1.563E+00 3.5919619E+00 -5.7733489E-01 -3.9361399E-01
  0.000E+00  1.782E+00  1.623E+00 3.6067947E+00 -5.5799902E-01 -4.4498182E-01
  4.318E-02  1.797E+00  1.604E+00 3.6134242E+00 -5.5699093E-01 -4.2189602E-01
  0.000E+00  1.750E+00  1.662E+00 3.6236839E+00 -5.3512541E-01 -4.7224230E-01
  4.318E-02  1.766E+00  1.643E+00 3.6208648E+00 -5.3527398E-01 -4.4914019E-01
  0.000E+00  1.716E+00  1.698E+00 3.6234315E+00 -5.1092010E-01 -4.9832876E-01
  4.318E-02  1.733E+00  1.680E+00 3.6222080E+00 -5.1221942E-01 -4.7526115E-01
  0.000E+00  1.680E+00  1.733E+00 3.6221960E+00 -4.8544476E-01 -5.2317701E-01
  4.318E-02  1.698E+00  1.716E+00 3.6234433E+00 -4.8789249E-01 -5.0020302E-01
  0.000E+00  1.643E+00  1.766E+00 3.6208527E+00 -4.5876496E-01 -5.4672561E-01
  4.318E-02  1.662E+00  1.750E+00 3.6236957E+00 -4.6235323E-01 -5.2390151E-01
  0.000E+00  1.604E+00  1.797E+00 3.6134119E+00 -4.3093776E-01 -5.6890775E-01
  4.318E-02  1.623E+00  1.782E+00 3.6068062E+00 -4.3566442E-01 -5.4629602E-01
  0.000E+00  1.563E+00  1.826E+00 3.5919494E+00 -4.0205039E-01 -5.8968773E-01
  4.318E-02  1.584E+00  1.812E+00 3.6168969E+00 -4.0788778E-01 -5.6732808E-01
  0.000E+00  1.521E+00  1.853E+00 3.5959266E+00 -3.7215451E-01 -6.0900006E-01
  4.318E-02  1.543E+00  1.840E+00 3.5849346E+00 -3.7911448E-01 -5.8697103E-01
  0.000E+00  1.478E+00  1.878E+00 3.5697838E+00 -3.4130511E-01 -6.2675546E-01
  4.318E-02  1.500E+00  1.866E+00 3.5862227E+00 -3.4935444E-01 -6.0511234E-01
  0.000E+00  1.434E+00  1.901E+00 3.5521668E+00 -3.0972596E-01 -6.4306573E-01
  4.318E-02  1.456E+00  1.890E+00 3.5514429E+00 -3.1877910E-01 -6.2177831E-01
  0.000E+00  1.388E+00  1.921E+00 3.5443742E+00 -2.7725286E-01 -6.5771411E-01
  4.318E-02  1.411E+00  1.912E+00 3.5547773E+00 -2.8746795E-01 -6.3699037E-01
  0.000E+00  1.342E+00  1.940E+00 3.5100240E+00 -2.4387494E-01 -6.7049731E-01
  4.318E-02  1.365E+00  1.931E+00 3.5287031E+00 -2.5517484E-01 -6.5039084E-01
  0.000E+00  1.295E+00  1.956E+00 3.4991810E+00 -2.1027035E-01 -6.8188814E-01
  4.318E-02  1.318E+00  1.948E+00 3.4996869E+00 -2.2231853E-01 -6.6217286E-01
  0.000E+00  1.247E+00  1.969E+00 3.4924580E+00 -1.7638580E-01 -6.9180951E-01
  4.318E-02  1.271E+00  1.963E+00 3.4969672E+00 -1.8934664E-01 -6.7266454E-01
  0.000E+00  1.198E+00  1.980E+00 3.4759362E+00 -1.4173067E-01 -6.9977533E-01
  4.318E-02  1.223E+00  1.975E+00 3.4852927E+00 -1.5583158E-01 -6.8146742E-01
  0.000E+00  1.149E+00  1.989E+00 3.4580712E+00 -1.0641721E-01 -7.0576378E-01
  4.318E-02  1.174E+00  1.985E+00 3.4669602E+00 -1.2152220E-01 -6.8826184E-01
  0.000E+00  1.100E+00  1.995E+00 3.4461134E+00 -7.0910657E-02 -7.1004640E-01
  4.318E-02  1.124E+00  1.992E+00 3.4513187E+00 -8.6806020E-02 -6.9326456E-01
  0.000E+00  1.050E+00  1.999E+00 3.4406536E+00 -3.5441858E-02 -7.1270145E-01
  4.318E-02  1.075E+00  1.997E+00 3.4424368E+00 -5.2055175E-02 -6.9667021E-01
  0.000E+00  1.000E+00  2.000E+00 3.4392601E+00 -5.7756609E-06 -7.1361080E-01
  4.318E-02  1.025E+00  2.000E+00 3.4390439E+00 -1.7350604E-02 -6.9842810E-01
  0.000E+00  9.502E-01  1.999E+00 3.4406534E+00 3.5430318E-02 -7.1270207E-01
  4.318E-02  9.751E-01  2.000E+00 3.4390437E+00 1.7339098E-02 -6.9842842E-01
  0.000E+00  9.004E-01  1.995E+00 3.4461128E+00 7.0899154E-02 -7.1004764E-01
  4.318E-02  9.253E-01  1.997E+00 3.4424364E+00 5.2043692E-02 -6.9667114E-01
  0.000E+00  8.510E-01  1.989E+00 3.4580704E+00 1.0640577E-01 -7.0576564E-01
  4.318E-02  8.757E-01  1.992E+00 3.4513180E+00 8.6794586E-02 -6.9326611E-01
  0.000E+00  8.019E-01  1.980E+00 3.4759351E+00 1.4171932E-01 -6.9977780E-01
  4.318E-02  8.264E-01  1.985E+00 3.4669592E+00 1.2151083E-01 -6.8826399E-01
  0.000E+00  7.532E-01  1.969E+00 3.4924567E+00 1.7637455E-01 -6.9181257E-01
  4.318E-02  7.775E-01  1.975E+00 3.4852915E+00 1.5582032E-01 -6.8147018E-01
  0.000E+00  7.052E-01  1.956E+00 3.4991794E+00 2.1025923E-01 -6.8189180E-01
  4.318E-02  7.292E-01  1.963E+00 3.4969657E+00 1.8933550E-01 -6.7266789E-01
  0.000E+00  6.580E-01  1.940E+00 3.5100221E+00 2.4386399E-01 -6.7050154E-01
  4.318E-02  6.815E-01  1.948E+00 3.4996851E+00 2.2230753E-01 -6.6217679E-01
  0.000E+00  6.116E-01  1.921E+00 3.5443721E+00 2.7724209E-01 -6.5771890E-01
  4.318E-02  6.347E-01  1.931E+00 3.5287011E+00 2.5516401E-01 -6.5039534E-01
  0.000E+00  5.661E-01  1.901E+00 3.5521645E+00 3.0971541E-01 -6.4307106E-01
  4.318E-02  5.887E-01  1.912E+00 3.5547751E+00 2.8745732E-01 -6.3699542E-01
  0.000E+00  5.217E-01  1.878E+00 3.5697812E+00 3.4129478E-01 -6.2676132E-01
  4.318E-02  5.438E-01  1.890E+00 3.5514404E+00 3.1876870E-01 -6.2178390E-01
  0.000E+00  4.786E-01  1.853E+00 3.5959238E+00 3.7214443E-01 -6.0900643E-01
  4.318E-02  5.000E-01  1.866E+00 3.5862200E+00 3.4934426E-01 -6.0511845E-01
  0.000E+00  4.367E-01  1.826E+00 3.5919464E+00 4.0204061E-01 -5.8969458E-01
  4.318E-02  4.575E-01  1.840E+00 3.5849316E+00 3.7910459E-01 -5.8697764E-01
  0.000E+00  3.962E-01  1.797E+00 3.6134087E+00 4.3092828E-01 -5.6891507E-01
  4.318E-02  4.163E-01  1.812E+00 3.6168937E+00 4.0787818E-01 -5.6733516E-01
  0.000E+00  3.572E-01  1.766E+00 3.6208493E+00 4.5875582E-01 -5.4673338E-01
  4.318E-02  3.765E-01  1.782E+00 3.6068029E+00 4.3565515E-01 -5.4630356E-01
  0.000E+00  3.198E-01  1.733E+00 3.6221924E+00 4.8543598E-01 -5.2318519E-01
  4.318E-02  3.383E-01  1.750E+00 3.6236922E+00 4.6234429E-01 -5.2390948E-01
  0.000E+00  2.841E-01  1.698E+00 3.6234277E+00 5.1091168E-01 -4.9833734E-01
  4.318E-02  3.018E-01  1.716E+00 3.6234396E+00 4.8788395E-01 -5.0021140E-01
  0.000E+00  2.502E-01  1.662E+00 3.6236800E+00 5.3511743E-01 -4.7225125E-01
  4.318E-02  2.669E-01  1.680E+00 3.6222041E+00 5.1221123E-01 -4.7526991E-01
  0.000E+00  2.182E-01  1.623E+00 3.6067906E+00 5.5799144E-01 -4.4499112E-01
  4.318E-02  2.340E-01  1.643E+00 3.6208608E+00 5.3526627E-01 -4.4914932E-01
  0.000E+00  1.881E-01  1.584E+00 3.6168813E+00 5.7947392E-01 -4.1661995E-01
  4.318E-02  2.029E-01  1.604E+00 3.6134201E+00 5.5698357E-01 -4.2190547E-01
  0.000E+00  1.600E-01  1.543E+00 3.5849190E+00 5.9953730E-01 -3.8723070E-01
  4.318E-02  1.738E-01  1.563E+00 3.5919576E+00 5.7732815E-01 -3.9362377E-01
  0.000E+00  1.340E-01  1.500E+00 3.5862070E+00 6.1806665E-01 -3.5683346E-01
  4.318E-02  1.467E-01  1.521E+00 3.5959346E+00 5.9623528E-01 -3.6435429E-01
  0.000E+00  1.101E-01  1.456E+00 3.5514274E+00 6.3508953E-01 -3.2560357E-01
  4.318E-02  1.218E-01  1.478E+00 3.5697917E+00 6.1361839E-01 -3.3415121E-01
  0.000E+00  8.849E-02  1.411E+00 3.5547622E+00 6.5062736E-01 -2.9362219E-01
  4.318E-02  9.903E-02  1.434E+00 3.5521748E+00 6.2958689E-01 -3.0323392E-01
  0.000E+00  6.913E-02  1.365E+00 3.5286879E+00 6.6431481E-01 -2.6063758E-01
  4.318E-02  7.852E-02  1.388E+00 3.5443823E+00 6.4392846E-01 -2.7144200E-01
  0.000E+00  5.207E-02  1.318E+00 3.4996715E+00 6.7634904E-01 -2.2707767E-01
  4.318E-02  6.031E-02  1.342E+00 3.5100322E+00 6.5644418E-01 -2.3876438E-01
  0.000E+00  3.738E-02  1.271E+00 3.4969516E+00 6.8706504E-01 -1.9339994E-01
  4.318E-02  4.443E-02  1.295E+00 3.4991891E+00 6.6759610E-01 -2.0586420E-01
  0.000E+00  2.507E-02  1.223E+00 3.4852772E+00 6.9605626E-01 -1.5916763E-01
  4.318E-02  3.092E-02  1.247E+00 3.4924658E+00 6.7730909E-01 -1.7268926E-01
  0.000E+00  1.519E-02  1.174E+00 3.4669450E+00 7.0299623E-01 -1.2412397E-01
  4.318E-02  1.983E-02  1.198E+00 3.4759438E+00 6.8510780E-01 -1.3875972E-01
  0.000E+00  7.761E-03  1.124E+00 3.4513038E+00 7.0810621E-01 -8.8664654E-02
  4.318E-02  1.117E-02  1.149E+00 3.4580789E+00 6.9097079E-01 -1.0418598E-01
  0.000E+00  2.796E-03  1.075E+00 3.4424221E+00 7.1158490E-01 -5.3169771E-02
  4.318E-02  4.969E-03  1.100E+00 3.4461213E+00 6.9516372E-01 -6.9423693E-02
  0.000E+00  3.108E-04  1.025E+00 3.4390294E+00 7.1338049E-01 -1.7722078E-02
  4.318E-02  1.243E-03  1.050E+00 3.4406617E+00 6.9776317E-01 -3.4698674E-02
  0.000E+00  3.108E-04  9.751E-01 3.4390293E+00 7.1338077E-01 1.7710447E-02
  4.318E-02  0.000E+00  1.000E+00 3.4392684E+00 6.9865347E-01 -5.8202958E-06
  0.000E+00  2.796E-03  9.253E-01 3.4424220E+00 7.1158575E-01 5.3158163E-02
  4.318E-02  1.243E-03  9.502E-01 3.4406616E+00 6.9776375E-01 3.4687047E-02
  0.000E+00  7.761E-03  8.757E-01 3.4513036E+00 7.0810766E-01 8.8653093E-02
  4.318E-02  4.969E-03  9.004E-01 3.4461211E+00 6.9516488E-01 6.9412103E-02
  0.000E+00  1.519E-02  8.264E-01 3.4669446E+00 7.0299835E-01 1.2411248E-01
  4.318E-02  1.117E-02  8.510E-01 3.4580786E+00 6.9097257E-01 1.0417446E-01
  0.000E+00  2.507E-02  7.775E-01 3.4852768E+00 6.9605910E-01 1.5915624E-01
  4.318E-02  1.983E-02  8.019E-01 3.4759434E+00 6.8511030E-01 1.3874827E-01
  0.000E+00  3.738E-02  7.292E-01 3.4969512E+00 6.8706838E-01 1.9338867E-01
  4.318E-02  3.092E-02  7.532E-01 3.4924653E+00 6.7731223E-01 1.7267792E-01
  0.000E+00  5.207E-02  6.815E-01 3.4996709E+00 6.7635270E-01 2.2706655E-01
  4.318E-02  4.443E-02  7.052E-01 3.4991885E+00 6.6759958E-01 2.0585300E-01
  0.000E+00  6.913E-02  6.347E-01 3.5286873E+00 6.6431933E-01 2.6062663E-01
  4.318E-02  6.031E-02  6.580E-01 3.5100315E+00 6.5644821E-01 2.3875333E-01
  0.000E+00  8.849E-02  5.887E-01 3.5547615E+00 6.5063250E-01 2.9361143E-01
  4.318E-02  7.852E-02  6.116E-01 3.5443815E+00 6.4393339E-01 2.7143114E-01
  0.000E+00  1.101E-01  5.438E-01 3.5514267E+00 6.3509484E-01 3.2559303E-01
  4.318E-02  9.903E-02  5.661E-01 3.5521739E+00 6.2959208E-01 3.0322326E-01
  0.000E+00  1.340E-01  5.000E-01 3.5862063E+00 6.1807279E-01 3.5682317E-01
  4.318E-02  1.218E-01  5.217E-01 3.5697907E+00 6.1362412E-01 3.3414078E-01
  0.000E+00  1.600E-01  4.575E-01 3.5849182E+00 5.9954382E-01 3.8722067E-01
  4.318E-02  1.467E-01  4.786E-01 3.5959335E+00 5.9624171E-01 3.6434413E-01
  0.000E+00  1.881E-01  4.163E-01 3.6168804E+00 5.7948094E-01 4.1661023E-01
  4.318E-02  1.738E-01  4.367E-01 3.5919564E+00 5.7733487E-01 3.9361389E-01
  0.000E+00  2.182E-01  3.765E-01 3.6067896E+00 5.5799894E-01 4.4498171E-01
  4.318E-02  2.029E-01  3.962E-01 3.6134188E+00 5.5699090E-01 4.2189591E-01
  0.000E+00  2.502E-01  3.383E-01 3.6236789E+00 5.3512535E-01 4.7224219E-01
  4.318E-02  2.340E-01  3.572E-01 3.6208595E+00 5.3527394E-01 4.4914009E-01
  0.000E+00  2.841E-01  3.018E-01 3.6234264E+00 5.1092004E-01 4.9832866E-01
  4.318E-02  2.669E-01  3.198E-01 3.6222029E+00 5.1221937E-01 4.7526105E-01
  0.000E+00  3.198E-01  2.669E-01 3.6221910E+00 4.8544470E-01 5.2317691E-01
  4.318E-02  3.018E-01  2.841E-01 3.6234383E+00 4.8789244E-01 5.0020291E-01
  0.000E+00  3.572E-01  2.340E-01 3.6208478E+00 4.5876491E-01 5.4672552E-01
  4.318E-02  3.383E-01  2.502E-01 3.6236909E+00 4.6235318E-01 5.2390140E-01
  0.000E+00  3.962E-01  2.029E-01 3.6134072E+00 4.3093775E-01 5.6890769E-01
  4.318E-02  3.765E-01  2.182E-01 3.6068016E+00 4.3566436E-01 5.4629590E-01
  0.000E+00  4.367E-01  1.738E-01 3.5919449E+00 4.0205045E-01 5.8968767E-01
  4.318E-02  4.163E-01  1.881E-01 3.6168923E+00 4.0788767E-01 5.6732794E-01
  0.000E+00  4.786E-01  1.467E-01 3.5959222E+00 3.7215442E-01 6.0899996E-01
  4.318E-02  4.575E-01  1.600E-01 3.5849302E+00 3.7911439E-01 5.8697090E-01
  0.000E+00  5.217E-01  1.218E-01 3.5697795E+00 3.4130469E-01 6.2675527E-01
  4.318E-02  5.000E-01  1.340E-01 3.5862184E+00 3.4935451E-01 6.0511227E-01
  0.000E+00  5.661E-01  9.903E-02 3.5521627E+00 3.0972547E-01 6.4306551E-01
  4.318E-02  5.438E-01  1.101E-01 3.5514390E+00 3.1877938E-01 6.2177829E-01
  0.000E+00  6.116E-01  7.852E-02 3.5443704E+00 2.7725306E-01 6.5771408E-01
  4.318E-02  5.887E-01  8.849E-02 3.5547737E+00 2.8746806E-01 6.3699028E-01
  0.000E+00  6.580E-01  6.031E-02 3.5100208E+00 2.4387620E-01 6.7049759E-01
  4.318E-02  6.347E-01  6.913E-02 3.5286995E+00 2.5517433E-01 6.5039058E-01
  0.000E+00  7.052E-01  4.443E-02 3.4991782E+00 2.1027186E-01 6.8188859E-01
  4.318E-02  6.815E-01  5.207E-02 3.4996832E+00 2.2231751E-01 6.6217243E-01
  0.000E+00  7.532E-01  3.092E-02 3.4924554E+00 1.7638640E-01 6.9180987E-01
  4.318E-02  7.292E-01  3.738E-02 3.4969635E+00 1.8934582E-01 6.7266410E-01
  0.000E+00  8.019E-01  1.983E-02 3.4759334E+00 1.4172996E-01 6.9977546E-01
  4.318E-02  7.775E-01  2.507E-02 3.4852894E+00 1.5583157E-01 6.8146710E-01
  0.000E+00  8.510E-01  1.117E-02 3.4580685E+00 1.0641572E-01 7.0576367E-01
  4.318E-02  8.264E-01  1.519E-02 3.4669574E+00 1.2152292E-01 6.8826167E-01
  0.000E+00  9.004E-01  4.969E-03 3.4461109E+00 7.0909216E-02 7.1004614E-01
  4.318E-02  8.757E-01  7.761E-03 3.4513165E+00 8.6806998E-02 6.9326452E-01
  4.318E-02  9.253E-01  2.796E-03 3.4424349E+00 5.2055935E-02 6.9667025E-01
  1.000E+01  1.050E+00  1.243E-03 3.4406517E+00 -3.5429521E-02 7.1270173E-01
  1.000E+01  1.000E+00  5.551E-16 3.4392582E+00 5.7545905E-06 7.1361043E-01
  9.957E+00  1.025E+00  3.108E-04 3.4390355E+00 -1.8083337E-02 7.2838937E-01
  1.000E+01  9.502E-01  1.243E-03 3.4406514E+00 3.5441019E-02 7.1270110E-01
  9.957E+00  9.751E-01  3.108E-04 3.4390353E+00 1.8094802E-02 7.2838906E-01
  1.000E+01  9.004E-01  4.969E-03 3.4461109E+00 7.0909216E-02 7.1004614E-01
  9.957E+00  9.253E-01  2.796E-03 3.4424280E+00 5.4288416E-02 7.2655569E-01
  1.000E+01  8.510E-01  1.117E-02 3.4580685E+00 1.0641572E-01 7.0576367E-01
  9.957E+00  8.757E-01  7.761E-03 3.4513096E+00 9.0530153E-02 7.2300382E-01
  1.000E+01  8.019E-01  1.983E-02 3.4759334E+00 1.4172996E-01 6.9977546E-01
  9.957E+00  8.264E-01  1.519E-02 3.4669507E+00 1.2673544E-01 7.1778638E-01
  1.000E+01  7.532E-01  3.092E-02 3.4924554E+00 1.7638640E-01 6.9180987E-01
  9.957E+00  7.775E-01  2.507E-02 3.4852828E+00 1.6251617E-01 7.1070047E-01
  1.000E+01  7.052E-01  4.443E-02 3.4991782E+00 2.1027186E-01 6.8188859E-01
  9.957E+00  7.292E-01  3.738E-02 3.4969570E+00 1.9746844E-01 7.0152000E-01
  1.000E+01  6.580E-01  6.031E-02 3.5100208E+00 2.4387620E-01 6.7049759E-01
  9.957E+00  6.815E-01  5.207E-02 3.4996765E+00 2.3185460E-01 6.9057824E-01
  1.000E+01  6.116E-01  7.852E-02 3.5443704E+00 2.7725306E-01 6.5771408E-01
  9.957E+00  6.347E-01  6.913E-02 3.5286926E+00 2.6612059E-01 6.7829072E-01
  1.000E+01  5.661E-01  9.903E-02 3.5521627E+00 3.0972547E-01 6.4306551E-01
  9.957E+00  5.887E-01  8.849E-02 3.5547667E+00 2.9979932E-01 6.6431541E-01
  1.000E+01  5.217E-01  1.218E-01 3.5697795E+00 3.4130469E-01 6.2675527E-01
  9.957E+00  5.438E-01  1.101E-01 3.5514321E+00 3.3245369E-01 6.4845084E-01
  1.000E+01  4.786E-01  1.467E-01 3.5959222E+00 3.7215442E-01 6.0899996E-01
  9.957E+00  5.000E-01  1.340E-01 3.5862117E+00 3.6434066E-01 6.3107011E-01
  1.000E+01  4.367E-01  1.738E-01 3.5919449E+00 4.0205045E-01 5.8968767E-01
  9.957E+00  4.575E-01  1.600E-01 3.5849234E+00 3.9537730E-01 6.1215077E-01
  1.000E+01  3.962E-01  2.029E-01 3.6134072E+00 4.3093775E-01 5.6890769E-01
  9.957E+00  4.163E-01  1.881E-01 3.6168855E+00 4.2538470E-01 5.9166511E-01
  1.000E+01  3.572E-01  2.340E-01 3.6208478E+00 4.5876491E-01 5.4672552E-01
  9.957E+00  3.765E-01  2.182E-01 3.6067947E+00 4.5435276E-01 5.6973075E-01
  1.000E+01  3.198E-01  2.669E-01 3.6221910E+00 4.8544470E-01 5.2317691E-01
  9.957E+00  3.383E-01  2.502E-01 3.6236840E+00 4.8218647E-01 5.4637558E-01
  1.000E+01  2.841E-01  3.018E-01 3.6234264E+00 5.1092004E-01 4.9832866E-01
  9.957E+00  3.018E-01  2.841E-01 3.6234315E+00 5.0882132E-01 5.2166059E-01
  1.000E+01  2.502E-01  3.383E-01 3.6236789E+00 5.3512535E-01 4.7224219E-01
  9.957E+00  2.669E-01  3.198E-01 3.6221960E+00 5.3419190E-01 4.9564884E-01
  1.000E+01  2.182E-01  3.765E-01 3.6067896E+00 5.5799894E-01 4.4498171E-01
  9.957E+00  2.340E-01  3.572E-01 3.6208527E+00 5.5823552E-01 4.6840738E-01
  1.000E+01  1.881E-01  4.163E-01 3.6168804E+00 5.7948094E-01 4.1661023E-01
  9.957E+00  2.029E-01  3.962E-01 3.6134120E+00 5.8088403E-01 4.3999447E-01
  1.000E+01  1.600E-01  4.575E-01 3.5849182E+00 5.9954382E-01 3.8722067E-01
  9.957E+00  1.738E-01  4.367E-01 3.5919496E+00 6.0210058E-01 4.1049897E-01
  1.000E+01  1.340E-01  5.000E-01 3.5862063E+00 6.1807279E-01 3.5682317E-01
  9.957E+00  1.467E-01  4.786E-01 3.5959267E+00 6.2181860E-01 3.7997365E-01
  1.000E+01  1.101E-01  5.438E-01 3.5514267E+00 6.3509484E-01 3.2559303E-01
  9.957E+00  1.218E-01  5.217E-01 3.5697839E+00 6.3994693E-01 3.4847486E-01
  1.000E+01  8.849E-02  5.887E-01 3.5547615E+00 6.5063250E-01 2.9361143E-01
  9.957E+00  9.903E-02  5.661E-01 3.5521671E+00 6.5660010E-01 3.1623123E-01
  1.000E+01  6.913E-02  6.347E-01 3.5286873E+00 6.6431933E-01 2.6062663E-01
  9.957E+00  7.852E-02  6.116E-01 3.5443747E+00 6.7155648E-01 2.8307500E-01
  1.000E+01  5.207E-02  6.815E-01 3.4996709E+00 6.7635270E-01 2.2706655E-01
  9.957E+00  6.031E-02  6.580E-01 3.5100247E+00 6.8460791E-01 2.4899504E-01
  1.000E+01  3.738E-02  7.292E-01 3.4969512E+00 6.8706838E-01 1.9338867E-01
  9.957E+00  4.443E-02  7.052E-01 3.4991816E+00 6.9623761E-01 2.1468334E-01
  1.000E+01  2.507E-02  7.775E-01 3.4852768E+00 6.9605910E-01 1.5915624E-01
  9.957E+00  3.092E-02  7.532E-01 3.4924584E+00 7.0636698E-01 1.8008539E-01
  1.000E+01  1.519E-02  8.264E-01 3.4669446E+00 7.0299835E-01 1.2411248E-01
  9.957E+00  1.983E-02  8.019E-01 3.4759366E+00 7.1449971E-01 1.4470056E-01
  1.000E+01  7.761E-03  8.757E-01 3.4513036E+00 7.0810766E-01 8.8653093E-02
  9.957E+00  1.117E-02  8.510E-01 3.4580718E+00 7.2061356E-01 1.0864383E-01
  1.000E+01  2.796E-03  9.253E-01 3.4424220E+00 7.1158575E-01 5.3158163E-02
  9.957E+00  4.969E-03  9.004E-01 3.4461143E+00 7.2498573E-01 7.2390283E-02
  1.000E+01  3.108E-04  9.751E-01 3.4390293E+00 7.1338077E-01 1.7710447E-02
  9.957E+00  1.243E-03  9.502E-01 3.4406549E+00 7.2769607E-01 3.6175489E-02
  1.000E+01  3.108E-04  1.025E+00 3.4390294E+00 7.1338049E-01 -1.7722078E-02
  9.957E+00  0.000E+00  1.000E+00 3.4392616E+00 7.2862395E-01 -5.8201424E-06
  1.000E+01  2.796E-03  1.075E+00 3.4424221E+00 7.1158490E-01 -5.3169771E-02
  9.957E+00  1.243E-03  1.050E+00 3.4406550E+00 7.2769549E-01 -3.6187117E-02
  1.000E+01  7.761E-03  1.124E+00 3.4513038E+00 7.0810621E-01 -8.8664654E-02
  9.957E+00  4.969E-03  1.100E+00 3.4461145E+00 7.2498458E-01 -7.2401874E-02
  1.000E+01  1.519E-02  1.174E+00 3.4669450E+00 7.0299623E-01 -1.2412397E-01
  9.957E+00  1.117E-02  1.149E+00 3.4580721E+00 7.2061178E-01 -1.0865536E-01
  1.000E+01  2.507E-02  1.223E+00 3.4852772E+00 6.9605626E-01 -1.5916763E-01
  9.957E+00  1.983E-02  1.198E+00 3.4759370E+00 7.1449721E-01 -1.4471201E-01
  1.000E+01  3.738E-02  1.271E+00 3.4969516E+00 6.8706504E-01 -1.9339994E-01
  9.957E+00  3.092E-02  1.247E+00 3.4924589E+00 7.0636384E-01 -1.8009672E-01
  1.000E+01  5.207E-02  1.318E+00 3.4996715E+00 6.7634904E-01 -2.2707767E-01
  9.957E+00  4.443E-02  1.295E+00 3.4991822E+00 6.9623413E-01 -2.1469455E-01
  1.000E+01  6.913E-02  1.365E+00 3.5286879E+00 6.6431481E-01 -2.6063758E-01
  9.957E+00  6.031E-02  1.342E+00 3.5100254E+00 6.8460388E-01 -2.4900609E-01
  1.000E+01  8.849E-02  1.411E+00 3.5547622E+00 6.5062736E-01 -2.9362219E-01
  9.957E+00  7.852E-02  1.388E+00 3.5443755E+00 6.7155154E-01 -2.8308586E-01
  1.000E+01  1.101E-01  1.456E+00 3.5514274E+00 6.3508953E-01 -3.2560357E-01
  9.957E+00  9.903E-02  1.434E+00 3.5521680E+00 6.5659491E-01 -3.1624188E-01
  1.000E+01  1.340E-01  1.500E+00 3.5862070E+00 6.1806665E-01 -3.5683346E-01
  9.957E+00  1.218E-01  1.478E+00 3.5697849E+00 6.3994121E-01 -3.4848528E-01
  1.000E+01  1.600E-01  1.543E+00 3.5849190E+00 5.9953730E-01 -3.8723070E-01
  9.957E+00  1.467E-01  1.521E+00 3.5959278E+00 6.2181216E-01 -3.7998381E-01
  1.000E+01  1.881E-01  1.584E+00 3.6168813E+00 5.7947392E-01 -4.1661995E-01
  9.957E+00  1.738E-01  1.563E+00 3.5919508E+00 6.0209387E-01 -4.1050885E-01
  1.000E+01  2.182E-01  1.623E+00 3.6067906E+00 5.5799144E-01 -4.4499112E-01
  9.957E+00  2.029E-01  1.604E+00 3.6134132E+00 5.8087670E-01 -4.4000404E-01
  1.000E+01  2.502E-01  1.662E+00 3.6236800E+00 5.3511743E-01 -4.7225125E-01
  9.957E+00  2.340E-01  1.643E+00 3.6208540E+00 5.5822784E-01 -4.6841662E-01
  1.000E+01  2.841E-01  1.698E+00 3.6234277E+00 5.1091168E-01 -4.9833734E-01
  9.957E+00  2.669E-01  1.680E+00 3.6221973E+00 5.3418375E-01 -4.9565772E-01
  1.000E+01  3.198E-01  1.733E+00 3.6221924E+00 4.8543598E-01 -5.2318519E-01
  9.957E+00  3.018E-01  1.716E+00 3.6234328E+00 5.0881282E-01 -5.2166909E-01
  1.000E+01  3.572E-01  1.766E+00 3.6208493E+00 4.5875582E-01 -5.4673338E-01
  9.957E+00  3.383E-01  1.750E+00 3.6236853E+00 4.8217758E-01 -5.4638367E-01
  1.000E+01  3.962E-01  1.797E+00 3.6134087E+00 4.3092828E-01 -5.6891507E-01
  9.957E+00  3.765E-01  1.782E+00 3.6067961E+00 4.5434356E-01 -5.6973842E-01
  1.000E+01  4.367E-01  1.826E+00 3.5919464E+00 4.0204061E-01 -5.8969458E-01
  9.957E+00  4.163E-01  1.812E+00 3.6168869E+00 4.2537521E-01 -5.9167233E-01
  1.000E+01  4.786E-01  1.853E+00 3.5959238E+00 3.7214443E-01 -6.0900643E-01
  9.957E+00  4.575E-01  1.840E+00 3.5849249E+00 3.9536750E-01 -6.1215751E-01
  1.000E+01  5.217E-01  1.878E+00 3.5697812E+00 3.4129478E-01 -6.2676132E-01
  9.957E+00  5.000E-01  1.866E+00 3.5862131E+00 3.6433040E-01 -6.3107630E-01
  1.000E+01  5.661E-01  1.901E+00 3.5521645E+00 3.0971541E-01 -6.4307106E-01
  9.957E+00  5.438E-01  1.890E+00 3.5514336E+00 3.3244300E-01 -6.4845646E-01
  1.000E+01  6.116E-01  1.921E+00 3.5443721E+00 2.7724209E-01 -6.5771890E-01
  9.957E+00  5.887E-01  1.912E+00 3.5547683E+00 2.9978862E-01 -6.6432053E-01
  1.000E+01  6.580E-01  1.940E+00 3.5100221E+00 2.4386399E-01 -6.7050154E-01
  9.957E+00  6.347E-01  1.931E+00 3.5286944E+00 2.6611034E-01 -6.7829546E-01
  1.000E+01  7.052E-01  1.956E+00 3.4991794E+00 2.1025923E-01 -6.8189180E-01
  9.957E+00  6.815E-01  1.948E+00 3.4996784E+00 2.3184465E-01 -6.9058260E-01
  1.000E+01  7.532E-01  1.969E+00 3.4924567E+00 1.7637455E-01 -6.9181257E-01
  9.957E+00  7.292E-01  1.963E+00 3.4969588E+00 1.9745808E-01 -7.0152381E-01
  1.000E+01  8.019E-01  1.980E+00 3.4759351E+00 1.4171932E-01 -6.9977780E-01
  9.957E+00  7.775E-01  1.975E+00 3.4852844E+00 1.6250485E-01 -7.1070357E-01
  1.000E+01  8.510E-01  1.989E+00 3.4580704E+00 1.0640577E-01 -7.0576564E-01
  9.957E+00  8.264E-01  1.985E+00 3.4669522E+00 1.2672330E-01 -7.1778871E-01
  1.000E+01  9.004E-01  1.995E+00 3.4461128E+00 7.0899154E-02 -7.1004764E-01
  9.957E+00  8.757E-01  1.992E+00 3.4513112E+00 9.0517732E-02 -7.2300541E-01
  1.000E+01  9.502E-01  1.999E+00 3.4406534E+00 3.5430318E-02 -7.1270207E-01
  9.957E+00  9.253E-01  1.997E+00 3.4424297E+00 5.4276184E-02 -7.2655658E-01
  1.000E+01  1.000E+00  2.000E+00 3.4392601E+00 -5.7756609E-06 -7.1361080E-01
  9.957E+00  9.751E-01  2.000E+00 3.4390371E+00 1.8083012E-02 -7.2838931E-01
  1.000E+01  1.050E+00  1.999E+00 3.4406536E+00 -3.5441858E-02 -7.1270145E-01
  9.957E+00  1.025E+00  2.000E+00 3.4390373E+00 -1.8094603E-02 -7.2838900E-01
  1.000E+01  1.100E+00  1.995E+00 3.4461134E+00 -7.0910657E-02 -7.1004640E-01
  9.957E+00  1.075E+00  1.997E+00 3.4424301E+00 -5.4287751E-02 -7.2655565E-01
  1.000E+01  1.149E+00  1.989E+00 3.4580712E+00 -1.0641721E-01 -7.0576378E-01
  9.957E+00  1.124E+00  1.992E+00 3.4513119E+00 -9.0529249E-02 -7.2300386E-01
  1.000E+01  1.198E+00  1.980E+00 3.4759362E+00 -1.4173067E-01 -6.9977533E-01
  9.957E+00  1.174E+00  1.985E+00 3.4669532E+00 -1.2673475E-01 -7.1778655E-01