# TIME = 9.000000
VARIABLES = X, Y, Z, FX, FY, FZ
ZONE N=29232 E=58212 F=FEPOINT ET=TRIANGLE
  0.000E+00  9.502E-01  1.243E-03 3.4381718E+00 4.5644084E-02 9.1793667E-01
  0.000E+00  1.000E+00  0.000E+00 3.4367782E+00 4.1554450E-06 9.1910771E-01
  4.318E-02  9.751E-01  3.108E-04 3.4365486E+00 2.2442931E-02 9.0354427E-01
  0.000E+00  1.050E+00  1.243E-03 3.4381724E+00 -4.5635781E-02 9.1793712E-01
  4.318E-02  1.025E+00  3.108E-04 3.4365489E+00 -2.2434580E-02 9.0354449E-01
  0.000E+00  1.100E+00  4.969E-03 3.4436331E+00 -9.1317920E-02 9.1451815E-01
  4.318E-02  1.075E+00  2.796E-03 3.4399428E+00 -6.7331357E-02 9.0127093E-01
  0.000E+00  1.149E+00  1.117E-02 3.4555900E+00 -1.3704891E-01 9.0900294E-01
  4.318E-02  1.124E+00  7.761E-03 3.4488249E+00 -1.1228801E-01 8.9686566E-01
  0.000E+00  1.198E+00  1.983E-02 3.4734526E+00 -1.8253167E-01 9.0129069E-01
  4.318E-02  1.174E+00  1.519E-02 3.4644645E+00 -1.5719973E-01 8.9039424E-01
  0.000E+00  1.247E+00  3.092E-02 3.4899750E+00 -2.2716698E-01 8.9103157E-01
  4.318E-02  1.223E+00  2.507E-02 3.4827953E+00 -2.0158496E-01 8.8160488E-01
  0.000E+00  1.295E+00  4.443E-02 3.4967073E+00 -2.7080988E-01 8.7825380E-01
  4.318E-02  1.271E+00  3.738E-02 3.4944744E+00 -2.4494236E-01 8.7021714E-01
  0.000E+00  1.342E+00  6.031E-02 3.5075587E+00 -3.1409185E-01 8.6358346E-01
  4.318E-02  1.318E+00  5.207E-02 3.4972069E+00 -2.8759720E-01 8.5664476E-01
  0.000E+00  1.388E+00  7.852E-02 3.5419001E+00 -3.5708135E-01 8.4711940E-01
  4.318E-02  1.365E+00  6.913E-02 3.5262189E+00 -3.3010287E-01 8.4140312E-01
  0.000E+00  1.434E+00  9.903E-02 3.5497016E+00 -3.9890545E-01 8.2825300E-01
  4.318E-02  1.411E+00  8.849E-02 3.5522897E+00 -3.7188024E-01 8.2406755E-01
  0.000E+00  1.478E+00  1.218E-01 3.5673222E+00 -4.3957840E-01 8.0724652E-01
  4.318E-02  1.456E+00  1.101E-01 3.5489727E+00 -4.1238729E-01 8.0438858E-01
  0.000E+00  1.521E+00  1.467E-01 3.5934592E+00 -4.7931166E-01 7.8437835E-01
  4.318E-02  1.500E+00  1.340E-01 3.5837426E+00 -4.5194214E-01 7.8282856E-01
  0.000E+00  1.563E+00  1.738E-01 3.5894965E+00 -5.1781700E-01 7.5950525E-01
  4.318E-02  1.543E+00  1.600E-01 3.5824671E+00 -4.9044244E-01 7.5935990E-01
  0.000E+00  1.604E+00  2.029E-01 3.6109530E+00 -5.5502322E-01 7.3274158E-01
  4.318E-02  1.584E+00  1.881E-01 3.6144190E+00 -5.2766609E-01 7.3394861E-01
  0.000E+00  1.643E+00  2.340E-01 3.6183964E+00 -5.9086417E-01 7.0417222E-01
  4.318E-02  1.623E+00  2.182E-01 3.6043418E+00 -5.6360053E-01 7.0674011E-01
  0.000E+00  1.680E+00  2.669E-01 3.6197411E+00 -6.2522710E-01 6.7384255E-01
  4.318E-02  1.662E+00  2.502E-01 3.6212257E+00 -5.9812767E-01 6.7776915E-01
  0.000E+00  1.716E+00  3.018E-01 3.6209778E+00 -6.5803897E-01 6.4183931E-01
  4.318E-02  1.698E+00  2.841E-01 3.6209762E+00 -6.3116782E-01 6.4711121E-01
  0.000E+00  1.750E+00  3.383E-01 3.6212277E+00 -6.8921509E-01 6.0824102E-01
  4.318E-02  1.733E+00  3.198E-01 3.6197401E+00 -6.6263938E-01 6.1484465E-01
  0.000E+00  1.782E+00  3.765E-01 3.6043443E+00 -7.1867587E-01 5.7313071E-01
  4.318E-02  1.766E+00  3.572E-01 3.6183959E+00 -6.9246529E-01 5.8105288E-01
  0.000E+00  1.812E+00  4.163E-01 3.6144222E+00 -7.4634463E-01 5.3658946E-01
  4.318E-02  1.797E+00  3.962E-01 3.6109531E+00 -7.2056035E-01 5.4580782E-01
  0.000E+00  1.840E+00  4.575E-01 3.5824707E+00 -7.7218539E-01 4.9873698E-01
  4.318E-02  1.826E+00  4.367E-01 3.5894972E+00 -7.4687975E-01 5.0922021E-01
  0.000E+00  1.866E+00  5.000E-01 3.5837468E+00 -7.9605052E-01 4.5958614E-01
  4.318E-02  1.853E+00  4.786E-01 3.5934602E+00 -7.7133937E-01 4.7135472E-01
  0.000E+00  1.890E+00  5.438E-01 3.5489775E+00 -8.1797537E-01 4.1936311E-01
  4.318E-02  1.878E+00  5.217E-01 3.5673237E+00 -7.9382769E-01 4.3228156E-01
  0.000E+00  1.912E+00  5.887E-01 3.5522955E+00 -8.3798741E-01 3.7817206E-01
  4.318E-02  1.901E+00  5.661E-01 3.5497034E+00 -8.1448561E-01 3.9228441E-01
  0.000E+00  1.931E+00  6.347E-01 3.5262253E+00 -8.5561649E-01 3.3568894E-01
  4.318E-02  1.921E+00  6.116E-01 3.5419023E+00 -8.3303896E-01 3.5115568E-01
  0.000E+00  1.948E+00  6.815E-01 3.4972134E+00 -8.7111597E-01 2.9246490E-01
  4.318E-02  1.940E+00  6.580E-01 3.5075615E+00 -8.4923023E-01 3.0888119E-01
  0.000E+00  1.963E+00  7.292E-01 3.4944811E+00 -8.8491763E-01 2.4908911E-01
  4.318E-02  1.956E+00  7.052E-01 3.4967107E+00 -8.6365703E-01 2.6631887E-01
  0.000E+00  1.975E+00  7.775E-01 3.4828024E+00 -8.9649799E-01 2.0499906E-01
  4.318E-02  1.969E+00  7.532E-01 3.4899788E+00 -8.7622244E-01 2.2340115E-01
  0.000E+00  1.985E+00  8.264E-01 3.4644722E+00 -9.0543638E-01 1.5986398E-01
  4.318E-02  1.980E+00  8.019E-01 3.4734567E+00 -8.8631144E-01 1.7950721E-01
  0.000E+00  1.992E+00  8.757E-01 3.4488335E+00 -9.1201773E-01 1.1419359E-01
  4.318E-02  1.989E+00  8.510E-01 3.4555945E+00 -8.9389615E-01 1.3477987E-01
  0.000E+00  1.997E+00  9.253E-01 3.4399521E+00 -9.1649799E-01 6.8477448E-02
  4.318E-02  1.995E+00  9.004E-01 3.4436380E+00 -8.9932032E-01 8.9808627E-02
  0.000E+00  2.000E+00  9.751E-01 3.4365589E+00 -9.1881048E-01 2.2822126E-02
  4.318E-02  1.999E+00  9.502E-01 3.4381779E+00 -9.0268301E-01 4.4885626E-02
  0.000E+00  2.000E+00  1.025E+00 3.4365590E+00 -9.1881067E-01 -2.2813644E-02
  4.318E-02  2.000E+00  1.000E+00 3.4367841E+00 -9.0383461E-01 4.2452811E-06
  0.000E+00  1.997E+00  1.075E+00 3.4399525E+00 -9.1649857E-01 -6.8468978E-02
  4.318E-02  1.999E+00  1.050E+00 3.4381781E+00 -9.0268342E-01 -4.4877146E-02
  0.000E+00  1.992E+00  1.124E+00 3.4488341E+00 -9.1201872E-01 -1.1418515E-01
  4.318E-02  1.995E+00  1.100E+00 3.4436385E+00 -8.9932113E-01 -8.9800175E-02
  0.000E+00  1.985E+00  1.174E+00 3.4644731E+00 -9.0543791E-01 -1.5985559E-01
  4.318E-02  1.989E+00  1.149E+00 3.4555953E+00 -8.9389743E-01 -1.3477147E-01
  0.000E+00  1.975E+00  1.223E+00 3.4828036E+00 -8.9650012E-01 -2.0499074E-01
  4.318E-02  1.980E+00  1.198E+00 3.4734577E+00 -8.8631331E-01 -1.7949887E-01
  0.000E+00  1.963E+00  1.271E+00 3.4944825E+00 -8.8492006E-01 -2.4908088E-01
  4.318E-02  1.969E+00  1.247E+00 3.4899800E+00 -8.7622481E-01 -2.2339289E-01
  0.000E+00  1.948E+00  1.318E+00 3.4972152E+00 -8.7111850E-01 -2.9245677E-01
  4.318E-02  1.956E+00  1.295E+00 3.4967122E+00 -8.6365952E-01 -2.6631070E-01
  0.000E+00  1.931E+00  1.365E+00 3.5262273E+00 -8.5561980E-01 -3.3568094E-01
  4.318E-02  1.940E+00  1.342E+00 3.5075632E+00 -8.4923311E-01 -3.0887313E-01
  0.000E+00  1.912E+00  1.411E+00 3.5522978E+00 -8.3799120E-01 -3.7816420E-01
  4.318E-02  1.921E+00  1.388E+00 3.5419042E+00 -8.3304270E-01 -3.5114775E-01
  0.000E+00  1.890E+00  1.456E+00 3.5489801E+00 -8.1797907E-01 -4.1935540E-01
  4.318E-02  1.901E+00  1.434E+00 3.5497055E+00 -8.1448939E-01 -3.9227663E-01
  0.000E+00  1.866E+00  1.500E+00 3.5837497E+00 -7.9605501E-01 -4.5957861E-01
  4.318E-02  1.878E+00  1.478E+00 3.5673259E+00 -7.9383188E-01 -4.3227395E-01
  0.000E+00  1.840E+00  1.543E+00 3.5824740E+00 -7.7219006E-01 -4.9872962E-01
  4.318E-02  1.853E+00  1.521E+00 3.5934626E+00 -7.7134419E-01 -4.7134732E-01
  0.000E+00  1.812E+00  1.584E+00 3.6144257E+00 -7.4634967E-01 -5.3658231E-01
  4.318E-02  1.826E+00  1.563E+00 3.5894997E+00 -7.4688467E-01 -5.0921302E-01
  0.000E+00  1.782E+00  1.623E+00 3.6043479E+00 -7.1868129E-01 -5.7312378E-01
  4.318E-02  1.797E+00  1.604E+00 3.6109558E+00 -7.2056579E-01 -5.4580088E-01
  0.000E+00  1.750E+00  1.662E+00 3.6212313E+00 -6.8922081E-01 -6.0823434E-01
  4.318E-02  1.766E+00  1.643E+00 3.6183989E+00 -6.9247091E-01 -5.8104618E-01
  0.000E+00  1.716E+00  1.698E+00 3.6209813E+00 -6.5804505E-01 -6.4183292E-01
  4.318E-02  1.733E+00  1.680E+00 3.6197434E+00 -6.6264533E-01 -6.1483821E-01
  0.000E+00  1.680E+00  1.733E+00 3.6197446E+00 -6.2523344E-01 -6.7383646E-01
  4.318E-02  1.698E+00  1.716E+00 3.6209798E+00 -6.3117400E-01 -6.4710503E-01
  0.000E+00  1.643E+00  1.766E+00 3.6184000E+00 -5.9087076E-01 -7.0416643E-01
  4.318E-02  1.662E+00  1.750E+00 3.6212295E+00 -5.9813415E-01 -6.7776325E-01
  0.000E+00  1.604E+00  1.797E+00 3.6109567E+00 -5.5503006E-01 -7.3273613E-01
  4.318E-02  1.623E+00  1.782E+00 3.6043457E+00 -5.6360726E-01 -7.0673451E-01
  0.000E+00  1.563E+00  1.826E+00 3.5895004E+00 -5.1782415E-01 -7.5950016E-01
  4.318E-02  1.584E+00  1.812E+00 3.6144230E+00 -5.2767304E-01 -7.3394331E-01
  0.000E+00  1.521E+00  1.853E+00 3.5934634E+00 -4.7931904E-01 -7.8437361E-01
  4.318E-02  1.543E+00  1.840E+00 3.5824712E+00 -4.9044954E-01 -7.5935494E-01
  0.000E+00  1.478E+00  1.878E+00 3.5673265E+00 -4.3958569E-01 -8.0724204E-01
  4.318E-02  1.500E+00  1.866E+00 3.5837467E+00 -4.5194950E-01 -7.8282400E-01
  0.000E+00  1.434E+00  1.901E+00 3.5497056E+00 -3.9891250E-01 -8.2824878E-01
  4.318E-02  1.456E+00  1.890E+00 3.5489771E+00 -4.1239504E-01 -8.0438449E-01
  0.000E+00  1.388E+00  1.921E+00 3.5419040E+00 -3.5708864E-01 -8.4711559E-01
  4.318E-02  1.411E+00  1.912E+00 3.5522944E+00 -3.7188832E-01 -8.2406389E-01
  0.000E+00  1.342E+00  1.940E+00 3.5075629E+00 -3.1410011E-01 -8.6358027E-01
  4.318E-02  1.365E+00  1.931E+00 3.5262238E+00 -3.3011082E-01 -8.4139975E-01
  0.000E+00  1.295E+00  1.956E+00 3.4967123E+00 -2.7081916E-01 -8.7825131E-01
  4.318E-02  1.318E+00  1.948E+00 3.4972115E+00 -2.8760467E-01 -8.5664161E-01
  0.000E+00  1.247E+00  1.969E+00 3.4899805E+00 -2.2717654E-01 -8.9102968E-01
  4.318E-02  1.271E+00  1.963E+00 3.4944785E+00 -2.4494950E-01 -8.7021427E-01
  0.000E+00  1.198E+00  1.980E+00 3.4734579E+00 -1.8254078E-01 -9.0128924E-01
  4.318E-02  1.223E+00  1.975E+00 3.4827992E+00 -2.0159227E-01 -8.8160240E-01
  0.000E+00  1.149E+00  1.989E+00 3.4555948E+00 -1.3705736E-01 -9.0900187E-01
  4.318E-02  1.174E+00  1.985E+00 3.4644687E+00 -1.5720753E-01 -8.9039222E-01
  0.000E+00  1.100E+00  1.995E+00 3.4436374E+00 -9.1326002E-02 -9.1451747E-01
  4.318E-02  1.124E+00  1.992E+00 3.4488296E+00 -1.1229625E-01 -8.9686411E-01
  0.000E+00  1.050E+00  1.999E+00 3.4381766E+00 -4.5643869E-02 -9.1793686E-01
  4.318E-02  1.075E+00  1.997E+00 3.4399478E+00 -6.7339782E-02 -9.0126984E-01
  0.000E+00  1.000E+00  2.000E+00 3.4367824E+00 -4.1523363E-06 -9.1910789E-01
  4.318E-02  1.025E+00  2.000E+00 3.4365541E+00 -2.2442958E-02 -9.0354386E-01
  0.000E+00  9.502E-01  1.999E+00 3.4381760E+00 4.5635573E-02 -9.1793731E-01
  4.318E-02  9.751E-01  2.000E+00 3.4365538E+00 2.2434698E-02 -9.0354408E-01
  0.000E+00  9.004E-01  1.995E+00 3.4436361E+00 9.1317732E-02 -9.1451836E-01
  4.318E-02  9.253E-01  1.997E+00 3.4399468E+00 6.7331539E-02 -9.0127051E-01
  0.000E+00  8.510E-01  1.989E+00 3.4555928E+00 1.3704914E-01 -9.0900321E-01
  4.318E-02  8.757E-01  1.992E+00 3.4488279E+00 1.1228804E-01 -8.9686522E-01
  0.000E+00  8.019E-01  1.980E+00 3.4734552E+00 1.8253261E-01 -9.0129101E-01
  4.318E-02  8.264E-01  1.985E+00 3.4644664E+00 1.5719937E-01 -8.9039377E-01
  0.000E+00  7.532E-01  1.969E+00 3.4899772E+00 2.2716845E-01 -8.9103188E-01
  4.318E-02  7.775E-01  1.975E+00 3.4827963E+00 2.0158418E-01 -8.8160438E-01
  0.000E+00  7.052E-01  1.956E+00 3.4967084E+00 2.7081117E-01 -8.7825394E-01
  4.318E-02  7.292E-01  1.963E+00 3.4944749E+00 2.4494150E-01 -8.7021668E-01
  0.000E+00  6.580E-01  1.940E+00 3.5075584E+00 3.1409223E-01 -8.6358332E-01
  4.318E-02  6.815E-01  1.948E+00 3.4972073E+00 2.8759677E-01 -8.5664444E-01
  0.000E+00  6.116E-01  1.921E+00 3.5418989E+00 3.5708089E-01 -8.4711904E-01
  4.318E-02  6.347E-01  1.931E+00 3.5262190E+00 3.3010305E-01 -8.4140298E-01
  0.000E+00  5.661E-01  1.901E+00 3.5496999E+00 3.9890491E-01 -8.2825262E-01
  4.318E-02  5.887E-01  1.912E+00 3.5522890E+00 3.7188068E-01 -8.2406752E-01
  0.000E+00  5.217E-01  1.878E+00 3.5673202E+00 4.3957826E-01 -8.0724626E-01
  4.318E-02  5.438E-01  1.890E+00 3.5489711E+00 4.1238757E-01 -8.0438851E-01
  0.000E+00  4.786E-01  1.853E+00 3.5934566E+00 4.7931180E-01 -7.8437819E-01
  4.318E-02  5.000E-01  1.866E+00 3.5837402E+00 4.5194219E-01 -7.8282840E-01
  0.000E+00  4.367E-01  1.826E+00 3.5894931E+00 5.1781712E-01 -7.5950510E-01
  4.318E-02  4.575E-01  1.840E+00 3.5824641E+00 4.9044244E-01 -7.5935969E-01
  0.000E+00  3.962E-01  1.797E+00 3.6109489E+00 5.5502325E-01 -7.3274140E-01
  4.318E-02  4.163E-01  1.812E+00 3.6144155E+00 5.2766614E-01 -7.3394841E-01
  0.000E+00  3.572E-01  1.766E+00 3.6183917E+00 5.9086418E-01 -7.0417202E-01
  4.318E-02  3.765E-01  1.782E+00 3.6043377E+00 5.6360061E-01 -7.0673993E-01
  0.000E+00  3.198E-01  1.733E+00 3.6197359E+00 6.2522713E-01 -6.7384235E-01
  4.318E-02  3.383E-01  1.750E+00 3.6212210E+00 5.9812773E-01 -6.7776898E-01
  0.000E+00  2.841E-01  1.698E+00 3.6209722E+00 6.5803899E-01 -6.4183910E-01
  4.318E-02  3.018E-01  1.716E+00 3.6209709E+00 6.3116787E-01 -6.4711106E-01
  0.000E+00  2.502E-01  1.662E+00 3.6212218E+00 6.8921508E-01 -6.0824079E-01
  4.318E-02  2.669E-01  1.680E+00 3.6197340E+00 6.6263944E-01 -6.1484452E-01
  0.000E+00  2.182E-01  1.623E+00 3.6043380E+00 7.1867583E-01 -5.7313048E-01
  4.318E-02  2.340E-01  1.643E+00 3.6183892E+00 6.9246539E-01 -5.8105275E-01
  0.000E+00  1.881E-01  1.584E+00 3.6144155E+00 7.4634457E-01 -5.3658923E-01
  4.318E-02  2.029E-01  1.604E+00 3.6109457E+00 7.2056047E-01 -5.4580768E-01
  0.000E+00  1.600E-01  1.543E+00 3.5824635E+00 7.7218533E-01 -4.9873676E-01
  4.318E-02  1.738E-01  1.563E+00 3.5894894E+00 7.4687988E-01 -5.0922006E-01
  0.000E+00  1.340E-01  1.500E+00 3.5837390E+00 7.9605047E-01 -4.5958594E-01
  4.318E-02  1.467E-01  1.521E+00 3.5934519E+00 7.7133949E-01 -4.7135455E-01
  0.000E+00  1.101E-01  1.456E+00 3.5489690E+00 8.1797533E-01 -4.1936292E-01
  4.318E-02  1.218E-01  1.478E+00 3.5673150E+00 7.9382780E-01 -4.3228138E-01
  0.000E+00  8.849E-02  1.411E+00 3.5522866E+00 8.3798739E-01 -3.7817187E-01
  4.318E-02  9.903E-02  1.434E+00 3.5496944E+00 8.1448571E-01 -3.9228422E-01
  0.000E+00  6.913E-02  1.365E+00 3.5262159E+00 8.5561648E-01 -3.3568875E-01
  4.318E-02  7.852E-02  1.388E+00 3.5418929E+00 8.3303905E-01 -3.5115549E-01
  0.000E+00  5.207E-02  1.318E+00 3.4972035E+00 8.7111597E-01 -2.9246471E-01
  4.318E-02  6.031E-02  1.342E+00 3.5075517E+00 8.4923031E-01 -3.0888101E-01
  0.000E+00  3.738E-02  1.271E+00 3.4944708E+00 8.8491763E-01 -2.4908892E-01
  4.318E-02  4.443E-02  1.295E+00 3.4967005E+00 8.6365710E-01 -2.6631869E-01
  0.000E+00  2.507E-02  1.223E+00 3.4827917E+00 8.9649799E-01 -2.0499887E-01
  4.318E-02  3.092E-02  1.247E+00 3.4899682E+00 8.7622251E-01 -2.2340097E-01
  0.000E+00  1.519E-02  1.174E+00 3.4644612E+00 9.0543637E-01 -1.5986379E-01
  4.318E-02  1.983E-02  1.198E+00 3.4734457E+00 8.8631150E-01 -1.7950703E-01
  0.000E+00  7.761E-03  1.124E+00 3.4488220E+00 9.1201772E-01 -1.1419340E-01
  4.318E-02  1.117E-02  1.149E+00 3.4555833E+00 8.9389621E-01 -1.3477970E-01
  0.000E+00  2.796E-03  1.075E+00 3.4399404E+00 9.1649798E-01 -6.8477266E-02
  4.318E-02  4.969E-03  1.100E+00 3.4436264E+00 8.9932037E-01 -8.9808446E-02
  0.000E+00  3.108E-04  1.025E+00 3.4365469E+00 9.1881048E-01 -2.2821949E-02
  4.318E-02  1.243E-03  1.050E+00 3.4381660E+00 9.0268306E-01 -4.4885444E-02
  0.000E+00  3.108E-04  9.751E-01 3.4365467E+00 9.1881068E-01 2.2813821E-02
  4.318E-02  0.000E+00  1.000E+00 3.4367720E+00 9.0383465E-01 -4.0621522E-06
  0.000E+00  2.796E-03  9.253E-01 3.4399400E+00 9.1649858E-01 6.8469159E-02
  4.318E-02  1.243E-03  9.502E-01 3.4381658E+00 9.0268344E-01 4.4877326E-02
  0.000E+00  7.761E-03  8.757E-01 3.4488214E+00 9.1201874E-01 1.1418533E-01
  4.318E-02  4.969E-03  9.004E-01 3.4436259E+00 8.9932115E-01 8.9800353E-02
  0.000E+00  1.519E-02  8.264E-01 3.4644602E+00 9.0543792E-01 1.5985578E-01
  4.318E-02  1.117E-02  8.510E-01 3.4555825E+00 8.9389745E-01 1.3477164E-01
  0.000E+00  2.507E-02  7.775E-01 3.4827905E+00 8.9650013E-01 2.0499093E-01
  4.318E-02  1.983E-02  8.019E-01 3.4734447E+00 8.8631333E-01 1.7949904E-01
  0.000E+00  3.738E-02  7.292E-01 3.4944693E+00 8.8492007E-01 2.4908107E-01
  4.318E-02  3.092E-02  7.532E-01 3.4899669E+00 8.7622482E-01 2.2339306E-01
  0.000E+00  5.207E-02  6.815E-01 3.4972018E+00 8.7111850E-01 2.9245695E-01
  4.318E-02  4.443E-02  7.052E-01 3.4966990E+00 8.6365952E-01 2.6631087E-01
  0.000E+00  6.913E-02  6.347E-01 3.5262139E+00 8.5561981E-01 3.3568113E-01
  4.318E-02  6.031E-02  6.580E-01 3.5075500E+00 8.4923311E-01 3.0887331E-01
  0.000E+00  8.849E-02  5.887E-01 3.5522842E+00 8.3799122E-01 3.7816438E-01
  4.318E-02  7.852E-02  6.116E-01 3.5418910E+00 8.3304269E-01 3.5114793E-01
  0.000E+00  1.101E-01  5.438E-01 3.5489664E+00 8.1797911E-01 4.1935559E-01
  4.318E-02  9.903E-02  5.661E-01 3.5496923E+00 8.1448937E-01 3.9227681E-01
  0.000E+00  1.340E-01  5.000E-01 3.5837360E+00 7.9605506E-01 4.5957881E-01
  4.318E-02  1.218E-01  5.217E-01 3.5673128E+00 7.9383184E-01 4.3227412E-01
  0.000E+00  1.600E-01  4.575E-01 3.5824602E+00 7.7219013E-01 4.9872983E-01
  4.318E-02  1.467E-01  4.786E-01 3.5934496E+00 7.7134414E-01 4.7134748E-01
  0.000E+00  1.881E-01  4.163E-01 3.6144120E+00 7.4634974E-01 5.3658253E-01
  4.318E-02  1.738E-01  4.367E-01 3.5894869E+00 7.4688462E-01 5.0921316E-01
  0.000E+00  2.182E-01  3.765E-01 3.6043344E+00 7.1868134E-01 5.7312401E-01
  4.318E-02  2.029E-01  3.962E-01 3.6109430E+00 7.2056575E-01 5.4580101E-01
  0.000E+00  2.502E-01  3.383E-01 3.6212182E+00 6.8922082E-01 6.0823457E-01
  4.318E-02  2.340E-01  3.572E-01 3.6183862E+00 6.9247090E-01 5.8104630E-01
  0.000E+00  2.841E-01  3.018E-01 3.6209686E+00 6.5804503E-01 6.4183313E-01
  4.318E-02  2.669E-01  3.198E-01 3.6197307E+00 6.6264535E-01 6.1483833E-01
  0.000E+00  3.198E-01  2.669E-01 3.6197324E+00 6.2523341E-01 6.7383665E-01
  4.318E-02  3.018E-01  2.841E-01 3.6209673E+00 6.3117403E-01 6.4710517E-01
  0.000E+00  3.572E-01  2.340E-01 3.6183882E+00 5.9087075E-01 7.0416663E-01
  4.318E-02  3.383E-01  2.502E-01 3.6212172E+00 5.9813417E-01 6.7776340E-01
  0.000E+00  3.962E-01  2.029E-01 3.6109452E+00 5.5503003E-01 7.3273631E-01
  4.318E-02  3.765E-01  2.182E-01 3.6043337E+00 5.6360726E-01 7.0673467E-01
  0.000E+00  4.367E-01  1.738E-01 3.5894891E+00 5.1782403E-01 7.5950032E-01
  4.318E-02  4.163E-01  1.881E-01 3.6144114E+00 5.2767307E-01 7.3394350E-01
  0.000E+00  4.786E-01  1.467E-01 3.5934524E+00 4.7931891E-01 7.8437377E-01
  4.318E-02  4.575E-01  1.600E-01 3.5824601E+00 4.9044962E-01 7.5935513E-01
  0.000E+00  5.217E-01  1.218E-01 3.5673160E+00 4.3958584E-01 8.0724230E-01
  4.318E-02  5.000E-01  1.340E-01 3.5837361E+00 4.5194954E-01 7.8282415E-01
  0.000E+00  5.661E-01  9.903E-02 3.5496959E+00 3.9891304E-01 8.2824915E-01
  4.318E-02  5.438E-01  1.101E-01 3.5489667E+00 4.1239484E-01 8.0438455E-01
  0.000E+00  6.116E-01  7.852E-02 3.5418950E+00 3.5708910E-01 8.4711595E-01
  4.318E-02  5.887E-01  8.849E-02 3.5522843E+00 3.7188796E-01 8.2406391E-01
  0.000E+00  6.580E-01  6.031E-02 3.5075541E+00 3.1409973E-01 8.6358041E-01
  4.318E-02  6.347E-01  6.913E-02 3.5262141E+00 3.3011074E-01 8.4139987E-01
  0.000E+00  7.052E-01  4.443E-02 3.4967034E+00 2.7081788E-01 8.7825116E-01
  4.318E-02  6.815E-01  5.207E-02 3.4972027E+00 2.8760518E-01 8.5664192E-01
  0.000E+00  7.532E-01  3.092E-02 3.4899717E+00 2.2717507E-01 8.9102937E-01
  4.318E-02  7.292E-01  3.738E-02 3.4944708E+00 2.4495045E-01 8.7021472E-01
  0.000E+00  8.019E-01  1.983E-02 3.4734499E+00 1.8253984E-01 9.0128891E-01
  4.318E-02  7.775E-01  2.507E-02 3.4827923E+00 2.0159313E-01 8.8160288E-01
  0.000E+00  8.510E-01  1.117E-02 3.4555880E+00 1.3705714E-01 9.0900161E-01
  4.318E-02  8.264E-01  1.519E-02 3.4644621E+00 1.5720797E-01 8.9039268E-01
  0.000E+00  9.004E-01  4.969E-03 3.4436317E+00 9.1326196E-02 9.1451725E-01
  4.318E-02  8.757E-01  7.761E-03 3.4488232E+00 1.1229631E-01 8.9686454E-01
  4.318E-02  9.253E-01  2.796E-03 3.4399418E+00 6.7339691E-02 9.0127026E-01
  1.000E+01  1.050E+00  1.243E-03 3.4381724E+00 -4.5635781E-02 9.1793712E-01
  1.000E+01  1.000E+00  5.551E-16 3.4367782E+00 4.1554450E-06 9.1910771E-01
  9.957E+00  1.025E+00  3.108E-04 3.4365769E+00 -2.3194878E-02 9.3416313E-01
  1.000E+01  9.502E-01  1.243E-03 3.4381718E+00 4.5644084E-02 9.1793667E-01
  9.957E+00  9.751E-01  3.108E-04 3.4365765E+00 2.3203144E-02 9.3416290E-01
  1.000E+01  9.004E-01  4.969E-03 3.4436317E+00 9.1326196E-02 9.1451725E-01
  9.957E+00  9.253E-01  2.796E-03 3.4399697E+00 6.9621096E-02 9.3181180E-01
  1.000E+01  8.510E-01  1.117E-02 3.4555880E+00 1.3705714E-01 9.0900161E-01
  9.957E+00  8.757E-01  7.761E-03 3.4488510E+00 1.1610104E-01 9.2725675E-01
  1.000E+01  8.019E-01  1.983E-02 3.4734499E+00 1.8253984E-01 9.0128891E-01
  9.957E+00  8.264E-01  1.519E-02 3.4644898E+00 1.6253471E-01 9.2056560E-01
  1.000E+01  7.532E-01  3.092E-02 3.4899717E+00 2.2717507E-01 8.9102937E-01
  9.957E+00  7.775E-01  2.507E-02 3.4828201E+00 2.0842430E-01 9.1147804E-01
  1.000E+01  7.052E-01  4.443E-02 3.4967034E+00 2.7081788E-01 8.7825116E-01
  9.957E+00  7.292E-01  3.738E-02 3.4944987E+00 2.5325127E-01 8.9970404E-01
  1.000E+01  6.580E-01  6.031E-02 3.5075541E+00 3.1409973E-01 8.6358041E-01
  9.957E+00  6.815E-01  5.207E-02 3.4972306E+00 2.9735158E-01 8.8567128E-01
  1.000E+01  6.116E-01  7.852E-02 3.5418950E+00 3.5708910E-01 8.4711595E-01
  9.957E+00  6.347E-01  6.913E-02 3.5262421E+00 3.4129720E-01 8.6991255E-01
  1.000E+01  5.661E-01  9.903E-02 3.5496959E+00 3.9891304E-01 8.2824915E-01
  9.957E+00  5.887E-01  8.849E-02 3.5523121E+00 3.8448975E-01 8.5198884E-01
  1.000E+01  5.217E-01  1.218E-01 3.5673160E+00 4.3958584E-01 8.0724230E-01
  9.957E+00  5.438E-01  1.101E-01 3.5489942E+00 4.2636915E-01 8.3164262E-01
  1.000E+01  4.786E-01  1.467E-01 3.5934524E+00 4.7931891E-01 7.8437377E-01
  9.957E+00  5.000E-01  1.340E-01 3.5837639E+00 4.6726445E-01 8.0935185E-01
  1.000E+01  4.367E-01  1.738E-01 3.5894891E+00 5.1782403E-01 7.5950032E-01
  9.957E+00  4.575E-01  1.600E-01 3.5824877E+00 5.0706936E-01 7.8508766E-01
  1.000E+01  3.962E-01  2.029E-01 3.6109452E+00 5.5503003E-01 7.3273631E-01
  9.957E+00  4.163E-01  1.881E-01 3.6144393E+00 5.4555402E-01 7.5881494E-01
  1.000E+01  3.572E-01  2.340E-01 3.6183882E+00 5.9087075E-01 7.0416663E-01
  9.957E+00  3.765E-01  2.182E-01 3.6043612E+00 5.8270568E-01 7.3068387E-01
  1.000E+01  3.198E-01  2.669E-01 3.6197324E+00 6.2523341E-01 6.7383665E-01
  9.957E+00  3.383E-01  2.502E-01 3.6212448E+00 6.1840260E-01 7.0073093E-01
  1.000E+01  2.841E-01  3.018E-01 3.6209686E+00 6.5804503E-01 6.4183313E-01
  9.957E+00  3.018E-01  2.841E-01 3.6209949E+00 6.5256214E-01 6.6903388E-01
  1.000E+01  2.502E-01  3.383E-01 3.6212182E+00 6.8922082E-01 6.0823457E-01
  9.957E+00  2.669E-01  3.198E-01 3.6197583E+00 6.8509991E-01 6.3567362E-01
  1.000E+01  2.182E-01  3.765E-01 3.6043344E+00 7.1868134E-01 5.7312401E-01
  9.957E+00  2.340E-01  3.572E-01 3.6184139E+00 7.1593634E-01 6.0073657E-01
  1.000E+01  1.881E-01  4.163E-01 3.6144120E+00 7.4634974E-01 5.3658253E-01
  9.957E+00  2.029E-01  3.962E-01 3.6109706E+00 7.4498311E-01 5.6429681E-01
  1.000E+01  1.600E-01  4.575E-01 3.5824602E+00 7.7219013E-01 4.9872983E-01
  9.957E+00  1.738E-01  4.367E-01 3.5895142E+00 7.7219380E-01 5.2646887E-01
  1.000E+01  1.340E-01  5.000E-01 3.5837360E+00 7.9605506E-01 4.5957881E-01
  9.957E+00  1.467E-01  4.786E-01 3.5934772E+00 7.9748224E-01 4.8732005E-01
  1.000E+01  1.101E-01  5.438E-01 3.5489664E+00 8.1797911E-01 4.1935559E-01
  9.957E+00  1.218E-01  5.217E-01 3.5673404E+00 8.2073236E-01 4.4692284E-01
  1.000E+01  8.849E-02  5.887E-01 3.5522842E+00 8.3799122E-01 3.7816438E-01
  9.957E+00  9.903E-02  5.661E-01 3.5497198E+00 8.4208997E-01 4.0557027E-01
  1.000E+01  6.913E-02  6.347E-01 3.5262139E+00 8.5561981E-01 3.3568113E-01
  9.957E+00  7.852E-02  6.116E-01 3.5419186E+00 8.6127196E-01 3.6304733E-01
  1.000E+01  5.207E-02  6.815E-01 3.4972018E+00 8.7111850E-01 2.9245695E-01
  9.957E+00  6.031E-02  6.580E-01 3.5075773E+00 8.7801082E-01 3.1933982E-01
  1.000E+01  3.738E-02  7.292E-01 3.4944693E+00 8.8492007E-01 2.4908107E-01
  9.957E+00  4.443E-02  7.052E-01 3.4967263E+00 8.9292596E-01 2.7533506E-01
  1.000E+01  2.507E-02  7.775E-01 3.4827905E+00 8.9650013E-01 2.0499093E-01
  9.957E+00  3.092E-02  7.532E-01 3.4899944E+00 9.0591718E-01 2.3096310E-01
  1.000E+01  1.519E-02  8.264E-01 3.4644602E+00 9.0543792E-01 1.5985578E-01
  9.957E+00  1.983E-02  8.019E-01 3.4734722E+00 9.1634773E-01 1.8558194E-01
  1.000E+01  7.761E-03  8.757E-01 3.4488214E+00 9.1201874E-01 1.1418533E-01
  9.957E+00  1.117E-02  8.510E-01 3.4556100E+00 9.2418896E-01 1.3933905E-01
  1.000E+01  2.796E-03  9.253E-01 3.4399400E+00 9.1649858E-01 6.8469159E-02
  9.957E+00  4.969E-03  9.004E-01 3.4436534E+00 9.2979646E-01 9.2843845E-02
  1.000E+01  3.108E-04  9.751E-01 3.4365467E+00 9.1881068E-01 2.2813821E-02
  9.957E+00  1.243E-03  9.502E-01 3.4381932E+00 9.3327266E-01 4.6398408E-02
  1.000E+01  3.108E-04  1.025E+00 3.4365469E+00 9.1881048E-01 -2.2821949E-02
  9.957E+00  0.000E+00  1.000E+00 3.4367995E+00 9.3446286E-01 -4.0621741E-06
  1.000E+01  2.796E-03  1.075E+00 3.4399404E+00 9.1649798E-01 -6.8477266E-02
  9.957E+00  1.243E-03  1.050E+00 3.4381935E+00 9.3327228E-01 -4.6406525E-02
  1.000E+01  7.761E-03  1.124E+00 3.4488220E+00 9.1201772E-01 -1.1419340E-01
  9.957E+00  4.969E-03  1.100E+00 3.4436539E+00 9.2979569E-01 -9.2851938E-02
  1.000E+01  1.519E-02  1.174E+00 3.4644612E+00 9.0543637E-01 -1.5986379E-01
  9.957E+00  1.117E-02  1.149E+00 3.4556108E+00 9.2418773E-01 -1.3934710E-01
  1.000E+01  2.507E-02  1.223E+00 3.4827917E+00 8.9649799E-01 -2.0499887E-01
  9.957E+00  1.983E-02  1.198E+00 3.4734733E+00 9.1634590E-01 -1.8558993E-01
  1.000E+01  3.738E-02  1.271E+00 3.4944708E+00 8.8491763E-01 -2.4908892E-01
  9.957E+00  3.092E-02  1.247E+00 3.4899957E+00 9.0591485E-01 -2.3097102E-01
  1.000E+01  5.207E-02  1.318E+00 3.4972035E+00 8.7111597E-01 -2.9246471E-01
  9.957E+00  4.443E-02  1.295E+00 3.4967278E+00 8.9292354E-01 -2.7534288E-01
  1.000E+01  6.913E-02  1.365E+00 3.5262159E+00 8.5561648E-01 -3.3568875E-01
  9.957E+00  6.031E-02  1.342E+00 3.5075790E+00 8.7800802E-01 -3.1934753E-01
  1.000E+01  8.849E-02  1.411E+00 3.5522866E+00 8.3798739E-01 -3.7817187E-01
  9.957E+00  7.852E-02  1.388E+00 3.5419205E+00 8.6126830E-01 -3.6305491E-01
  1.000E+01  1.101E-01  1.456E+00 3.5489690E+00 8.1797533E-01 -4.1936292E-01
  9.957E+00  9.903E-02  1.434E+00 3.5497219E+00 8.4208629E-01 -4.0557770E-01
  1.000E+01  1.340E-01  1.500E+00 3.5837390E+00 7.9605047E-01 -4.5958594E-01
  9.957E+00  1.218E-01  1.478E+00 3.5673426E+00 8.2072830E-01 -4.4693011E-01
  1.000E+01  1.600E-01  1.543E+00 3.5824635E+00 7.7218533E-01 -4.9873676E-01
  9.957E+00  1.467E-01  1.521E+00 3.5934795E+00 7.9747756E-01 -4.8732713E-01
  1.000E+01  1.881E-01  1.584E+00 3.6144155E+00 7.4634457E-01 -5.3658923E-01
  9.957E+00  1.738E-01  1.563E+00 3.5895167E+00 7.7218905E-01 -5.2647576E-01
  1.000E+01  2.182E-01  1.623E+00 3.6043380E+00 7.1867583E-01 -5.7313048E-01
  9.957E+00  2.029E-01  1.604E+00 3.6109733E+00 7.4497783E-01 -5.6430347E-01
  1.000E+01  2.502E-01  1.662E+00 3.6212218E+00 6.8921508E-01 -6.0824079E-01
  9.957E+00  2.340E-01  1.643E+00 3.6184169E+00 7.1593085E-01 -6.0074298E-01
  1.000E+01  2.841E-01  1.698E+00 3.6209722E+00 6.5803899E-01 -6.4183910E-01
  9.957E+00  2.669E-01  1.680E+00 3.6197616E+00 6.8509403E-01 -6.3567976E-01
  1.000E+01  3.198E-01  1.733E+00 3.6197359E+00 6.2522713E-01 -6.7384235E-01
  9.957E+00  3.018E-01  1.716E+00 3.6209985E+00 6.5255601E-01 -6.6903974E-01
  1.000E+01  3.572E-01  1.766E+00 3.6183917E+00 5.9086418E-01 -7.0417202E-01
  9.957E+00  3.383E-01  1.750E+00 3.6212486E+00 6.1839617E-01 -7.0073650E-01
  1.000E+01  3.962E-01  1.797E+00 3.6109489E+00 5.5502325E-01 -7.3274140E-01
  9.957E+00  3.765E-01  1.782E+00 3.6043652E+00 5.8269903E-01 -7.3068913E-01
  1.000E+01  4.367E-01  1.826E+00 3.5894931E+00 5.1781712E-01 -7.5950510E-01
  9.957E+00  4.163E-01  1.812E+00 3.6144434E+00 5.4554706E-01 -7.5881987E-01
  1.000E+01  4.786E-01  1.853E+00 3.5934566E+00 4.7931180E-01 -7.8437819E-01
  9.957E+00  4.575E-01  1.840E+00 3.5824918E+00 5.0706216E-01 -7.8509224E-01
  1.000E+01  5.217E-01  1.878E+00 3.5673202E+00 4.3957826E-01 -8.0724626E-01
  9.957E+00  5.000E-01  1.866E+00 3.5837680E+00 4.6725711E-01 -8.0935608E-01
  1.000E+01  5.661E-01  1.901E+00 3.5496999E+00 3.9890491E-01 -8.2825262E-01
  9.957E+00  5.438E-01  1.890E+00 3.5489986E+00 4.2636194E-01 -8.3164655E-01
  1.000E+01  6.116E-01  1.921E+00 3.5418989E+00 3.5708089E-01 -8.4711904E-01
  9.957E+00  5.887E-01  1.912E+00 3.5523168E+00 3.8448251E-01 -8.5199244E-01
  1.000E+01  6.580E-01  1.940E+00 3.5075584E+00 3.1409223E-01 -8.6358332E-01
  9.957E+00  6.347E-01  1.931E+00 3.5262467E+00 3.4128945E-01 -8.6991569E-01
  1.000E+01  7.052E-01  1.956E+00 3.4967084E+00 2.7081117E-01 -8.7825394E-01
  9.957E+00  6.815E-01  1.948E+00 3.4972349E+00 2.9734303E-01 -8.8567383E-01
  1.000E+01  7.532E-01  1.969E+00 3.4899772E+00 2.2716845E-01 -8.9103188E-01
  9.957E+00  7.292E-01  1.963E+00 3.4945028E+00 2.5324225E-01 -8.9970600E-01
  1.000E+01  8.019E-01  1.980E+00 3.4734552E+00 1.8253261E-01 -9.0129101E-01
  9.957E+00  7.775E-01  1.975E+00 3.4828243E+00 2.0841539E-01 -9.1147951E-01
  1.000E+01  8.510E-01  1.989E+00 3.4555928E+00 1.3704914E-01 -9.0900321E-01
  9.957E+00  8.264E-01  1.985E+00 3.4644944E+00 1.6252622E-01 -9.2056666E-01
  1.000E+01  9.004E-01  1.995E+00 3.4436361E+00 9.1317732E-02 -9.1451836E-01
  9.957E+00  8.757E-01  1.992E+00 3.4488558E+00 1.1609287E-01 -9.2725741E-01
  1.000E+01  9.502E-01  1.999E+00 3.4381760E+00 4.5635573E-02 -9.1793731E-01
  9.957E+00  9.253E-01  1.997E+00 3.4399747E+00 6.9612992E-02 -9.3181205E-01
  1.000E+01  1.000E+00  2.000E+00 3.4367824E+00 -4.1523363E-06 -9.1910789E-01
  9.957E+00  9.751E-01  2.000E+00 3.4365816E+00 2.3194923E-02 -9.3416272E-01
  1.000E+01  1.050E+00  1.999E+00 3.4381766E+00 -4.5643869E-02 -9.1793686E-01
  9.957E+00  1.025E+00  2.000E+00 3.4365819E+00 -2.3203269E-02 -9.3416250E-01
  1.000E+01  1.100E+00  1.995E+00 3.4436374E+00 -9.1326002E-02 -9.1451747E-01
  9.957E+00  1.075E+00  1.997E+00 3.4399757E+00 -6.9621321E-02 -9.3181138E-01
  1.000E+01  1.149E+00  1.989E+00 3.4555948E+00 -1.3705736E-01 -9.0900187E-01
  9.957E+00  1.124E+00  1.992E+00 3.4488575E+00 -1.1610116E-01 -9.2725630E-01
  1.000E+01  1.198E+00  1.980E+00 3.4734579E+00 -1.8254078E-01 -9.0128924E-01
  9.957E+00  1.174E+00  1.985E+00 3.4644967E+00 -1.6253446E-01 -9.2056511E-01