# TIME = 9.600000
variables = x, y, z
zone N=5762 E=11520 F=FEPOINT ET=TRIANGLE
 5.8529558E+00 1.4930180E+00 1.7974860E+00
 5.8529558E+00 1.4930182E+00 2.0251375E-01
 5.8529558E+00 5.0698187E-01 1.7974859E+00
 5.8529559E+00 5.0698166E-01 2.0251360E-01
 4.1335801E+00 9.9999994E-01 1.7897339E+00
 7.5560356E+00 9.9999994E-01 1.7548889E+00
 4.1335800E+00 9.9999993E-01 2.1026578E-01
 7.5560355E+00 9.9999994E-01 2.4511114E-01
 4.8888290E+00 1.9488803E+00 9.9999995E-01
 4.8888290E+00 5.1119007E-02 9.9999993E-01
 6.7974370E+00 1.9245741E+00 9.9999995E-01
 6.7974370E+00 7.5425993E-02 9.9999995E-01
 5.7923552E+00 1.4825246E+00 1.8009579E+00
 5.7254864E+00 1.4708506E+00 1.8045668E+00
 5.6556539E+00 1.4587088E+00 1.8082704E+00
 5.5831004E+00 1.4462092E+00 1.8122818E+00
 5.5079589E+00 1.4334631E+00 1.8168525E+00
 5.4303522E+00 1.4205473E+00 1.8222857E+00
 5.3504250E+00 1.4075180E+00 1.8288922E+00
 5.2684574E+00 1.3943857E+00 1.8369469E+00
 5.1849177E+00 1.3810836E+00 1.8466154E+00
 5.1005011E+00 1.3674348E+00 1.8578602E+00
 5.0160703E+00 1.3531345E+00 1.8703537E+00
 4.9324929E+00 1.3377653E+00 1.8834431E+00
 4.8504645E+00 1.3208504E+00 1.8961937E+00
 4.7704223E+00 1.3019267E+00 1.9074934E+00
 4.6925660E+00 1.2806181E+00 1.9161820E+00
 4.6169621E+00 1.2566948E+00 1.9211819E+00
 4.5436976E+00 1.2301089E+00 1.9216169E+00
 4.4730201E+00 1.2010033E+00 1.9169077E+00
 4.4053751E+00 1.1696905E+00 1.9068227E+00
 4.3413179E+00 1.1366088E+00 1.8914661E+00
 4.2814194E+00 1.1022955E+00 1.8712348E+00
 4.2261819E+00 1.0673576E+00 1.8467408E+00
 4.1761510E+00 1.0325782E+00 1.8188589E+00
 5.7856754E+00 5.5224949E-01 1.8205732E+00
 5.7165471E+00 5.6597319E-01 1.8245697E+00
 5.6450909E+00 5.7960688E-01 1.8283743E+00
 5.5713926E+00 5.9335600E-01 1.8323704E+00
 5.4953703E+00 6.0732395E-01 1.8369242E+00
 5.4170879E+00 6.2151698E-01 1.8423716E+00
 5.3367026E+00 6.3593731E-01 1.8490313E+00
 5.2545221E+00 6.5061330E-01 1.8571567E+00
 5.1710615E+00 6.6564461E-01 1.8668669E+00
 5.0870552E+00 6.8123048E-01 1.8780556E+00
 5.0033722E+00 6.9767707E-01 1.8903157E+00
 4.9208425E+00 7.1537105E-01 1.9029250E+00
 4.8401009E+00 7.3472289E-01 1.9149087E+00
 4.7615243E+00 7.5610131E-01 1.9251522E+00
 4.6852725E+00 7.7977419E-01 1.9325305E+00
 4.6113970E+00 8.0586574E-01 1.9360326E+00
 4.5399817E+00 8.3433338E-01 1.9348666E+00
 4.4712506E+00 8.6496531E-01 1.9285355E+00
 4.4055694E+00 8.9739680E-01 1.9168608E+00
 4.3433213E+00 9.3113925E-01 1.8999336E+00
 4.2847351E+00 9.6560608E-01 1.8780007E+00
 4.2296912E+00 9.9999995E-01 1.8512880E+00
 5.7832144E+00 5.8791657E-01 1.8389292E+00
 5.7114657E+00 6.0363038E-01 1.8430764E+00
 5.6381920E+00 6.1879273E-01 1.8468241E+00
 5.5630438E+00 6.3392581E-01 1.8507083E+00
 5.4859258E+00 6.4923631E-01 1.8551345E+00
 5.4068127E+00 6.6482900E-01 1.8604702E+00
 5.3258480E+00 6.8075340E-01 1.8670305E+00
 5.2433519E+00 6.9707699E-01 1.8750460E+00
 5.1598728E+00 7.1392717E-01 1.8845899E+00
 5.0761726E+00 7.3151830E-01 1.8954916E+00
 4.9931163E+00 7.5014811E-01 1.9072728E+00
 4.9114950E+00 7.7016399E-01 1.9191540E+00
 4.8318867E+00 7.9190800E-01 1.9301314E+00
 4.7546136E+00 8.1566115E-01 1.9390971E+00
 4.6797954E+00 8.4159847E-01 1.9449659E+00
 4.6074521E+00 8.6975828E-01 1.9467886E+00
 4.5376199E+00 9.0002569E-01 1.9438389E+00
 4.4704102E+00 9.3212876E-01 1.9356584E+00
 4.4059504E+00 9.6564402E-01 1.9220308E+00
 4.3442216E+00 9.9999997E-01 1.9028763E+00
 4.2847351E+00 1.0343938E+00 1.8780008E+00
 5.7816536E+00 6.2520826E-01 1.8561716E+00
 5.7081449E+00 6.4246771E-01 1.8601142E+00
 5.6332826E+00 6.5911045E-01 1.8636413E+00
 5.5568367E+00 6.7564069E-01 1.8672710E+00
 5.4786566E+00 6.9235867E-01 1.8714370E+00
 5.3987262E+00 7.0941674E-01 1.8765100E+00
 5.3171812E+00 7.2690951E-01 1.8827978E+00
 5.2343655E+00 7.4493503E-01 1.8905050E+00
 5.1508572E+00 7.6364391E-01 1.8996596E+00
 5.0674387E+00 7.8325739E-01 1.9100311E+00
 4.9849645E+00 8.0405660E-01 1.9210796E+00
 4.9041862E+00 8.2634478E-01 1.9319799E+00
 4.8256272E+00 8.5039834E-01 1.9417115E+00
 4.7495559E+00 8.7642072E-01 1.9491817E+00
 4.6760401E+00 9.0450784E-01 1.9533462E+00
 4.6050326E+00 9.3462232E-01 1.9533067E+00
 4.5364456E+00 9.6657333E-01 1.9483717E+00
 4.4701643E+00 9.9999999E-01 1.9380612E+00
 4.4059504E+00 1.0343559E+00 1.9220309E+00
 4.3433213E+00 1.0688607E+00 1.8999338E+00
 5.7804754E+00 6.6418039E-01 1.8721497E+00
 5.7056197E+00 6.8275293E-01 1.8756647E+00
 5.6294919E+00 7.0074321E-01 1.8787872E+00
 5.5519370E+00 7.1864004E-01 1.8820106E+00
 5.4728418E+00 7.3676334E-01 1.8857615E+00
 5.3922029E+00 7.5529959E-01 1.8904046E+00
 5.3101783E+00 7.7437039E-01 1.8962319E+00
 5.2271375E+00 7.9409890E-01 1.9034188E+00
 5.1436866E+00 8.1465100E-01 1.9119492E+00
 5.0606194E+00 8.3624756E-01 1.9215381E+00
 4.9787738E+00 8.5914718E-01 1.9315947E+00
 4.8988583E+00 8.8360866E-01 1.9412621E+00
 4.8213401E+00 9.0984851E-01 1.9495155E+00
 4.7464258E+00 9.3800229E-01 1.9552848E+00
 4.6741053E+00 9.6809299E-01 1.9575644E+00
 4.6042090E+00 1.0000000E+00 1.9554906E+00
 4.5364456E+00 1.0334267E+00 1.9483718E+00
 4.4704103E+00 1.0678712E+00 1.9356586E+00
 4.4055694E+00 1.1026032E+00 1.9168610E+00
 5.7794881E+00 7.0484396E-01 1.8867010E+00
 5.7035195E+00 7.2455631E-01 1.8896129E+00
 5.6263548E+00 7.4377797E-01 1.8921672E+00
 5.5478939E+00 7.6297265E-01 1.8948279E+00
 5.4680657E+00 7.8245978E-01 1.8980026E+00
 5.3868946E+00 8.0243844E-01 1.9020400E+00
 5.3045643E+00 8.2304807E-01 1.9072107E+00
 5.2214710E+00 8.4442850E-01 1.9136585E+00
 5.1382407E+00 8.6675458E-01 1.9213249E+00
 5.0556680E+00 8.9024118E-01 1.9298781E+00
 4.9745649E+00 9.1512231E-01 1.9386890E+00
 4.8955902E+00 9.4161560E-01 1.9468834E+00
 4.8191472E+00 9.6988413E-01 1.9534439E+00
 4.7453613E+00 1.0000001E+00 1.9573281E+00
 4.6741053E+00 1.0319072E+00 1.9575644E+00
 4.6050327E+00 1.0653778E+00 1.9533068E+00
 4.5376200E+00 1.0999743E+00 1.9438392E+00
 4.4712506E+00 1.1350347E+00 1.9285358E+00
 5.7786133E+00 7.4712597E-01 1.8996412E+00
 5.7017005E+00 7.6783846E-01 1.9018039E+00
 5.6236898E+00 7.8818243E-01 1.9036434E+00
 5.5445264E+00 8.0858912E-01 1.9055905E+00
 5.4641749E+00 8.2936609E-01 1.9080282E+00
 5.3826878E+00 8.5071305E-01 1.9112831E+00
 5.3002726E+00 8.7277897E-01 1.9156007E+00
 5.2173461E+00 8.9571454E-01 1.9210921E+00
 5.1345430E+00 9.1969897E-01 1.9276600E+00
 5.0526452E+00 9.4493898E-01 1.9349349E+00
 4.9724265E+00 9.7164564E-01 1.9422632E+00
 4.8944860E+00 1.0000002E+00 1.9487662E+00
 4.8191473E+00 1.0301162E+00 1.9534439E+00
 4.7464259E+00 1.0619979E+00 1.9552849E+00
 4.6760403E+00 1.0954923E+00 1.9533463E+00
 4.6074523E+00 1.1302418E+00 1.9467888E+00
 4.5399818E+00 1.1656667E+00 1.9348670E+00
 5.7778384E+00 7.9088445E-01 1.9107803E+00
 5.7001373E+00 8.1247437E-01 1.9120701E+00
 5.6214700E+00 8.3382892E-01 1.9130621E+00
 5.5418164E+00 8.5534597E-01 1.9141536E+00
 5.4611697E+00 8.7731203E-01 1.9156994E+00
 5.3796051E+00 8.9992033E-01 1.9180009E+00
 5.2973482E+00 9.2332389E-01 1.9212761E+00
 5.2148257E+00 9.4768066E-01 1.9256044E+00
 5.1326672E+00 9.7317282E-01 1.9308547E+00
 5.0516269E+00 1.0000002E+00 1.9366299E+00
 4.9724265E+00 1.0283547E+00 1.9422632E+00
 4.8955903E+00 1.0583848E+00 1.9468835E+00
 4.8213403E+00 1.0901517E+00 1.9495156E+00
 4.7495561E+00 1.1235795E+00 1.9491819E+00
 4.6797957E+00 1.1584016E+00 1.9449662E+00
 4.6113972E+00 1.1941343E+00 1.9360330E+00
 5.7771786E+00 8.3592775E-01 1.9199391E+00
 5.6988585E+00 8.5827105E-01 1.9202498E+00
 5.6197354E+00 8.8051581E-01 1.9202762E+00
 5.5398150E+00 9.0302354E-01 1.9203817E+00
 5.4591114E+00 9.2605391E-01 1.9208918E+00
 5.3777157E+00 9.4978889E-01 1.9220812E+00
 5.2958626E+00 9.7438279E-01 1.9241401E+00
 5.2139766E+00 1.0000001E+00 1.9271177E+00
 5.1326672E+00 1.0268275E+00 1.9308548E+00
 5.0526451E+00 1.0550614E+00 1.9349350E+00
 4.9745648E+00 1.0848780E+00 1.9386891E+00
 4.8988584E+00 1.1163916E+00 1.9412623E+00
 4.8256275E+00 1.1496019E+00 1.9417117E+00
 4.7546139E+00 1.1843390E+00 1.9390974E+00
 4.6852728E+00 1.2202259E+00 1.9325309E+00
 5.7766577E+00 8.8202098E-01 1.9269601E+00
 5.6979070E+00 9.0498409E-01 1.9262026E+00
 5.6185413E+00 9.2798535E-01 1.9251611E+00
 5.5385842E+00 9.5134592E-01 1.9241656E+00
 5.4580636E+00 9.7529469E-01 1.9235127E+00
 5.3770785E+00 1.0000000E+00 1.9234500E+00
 5.2958625E+00 1.0256174E+00 1.9241401E+00
 5.2148256E+00 1.0523196E+00 1.9256045E+00
 5.1345428E+00 1.0803013E+00 1.9276601E+00
 5.0556679E+00 1.1097591E+00 1.9298782E+00
 4.9787738E+00 1.1408531E+00 1.9315949E+00
 4.9041865E+00 1.1736555E+00 1.9319802E+00
 4.8318870E+00 1.2080922E+00 1.9301316E+00
 4.7615246E+00 1.2438988E+00 1.9251525E+00
 5.7762976E+00 9.2889276E-01 1.9317159E+00
 5.6973202E+00 9.5233032E-01 1.9298200E+00
 5.6179323E+00 9.7594028E-01 1.9276270E+00
 5.5381686E+00 9.9999999E-01 1.9254350E+00
 5.4580636E+00 1.0247053E+00 1.9235127E+00
 5.3777156E+00 1.0502112E+00 1.9220813E+00
 5.2973481E+00 1.0766763E+00 1.9212762E+00
 5.2173459E+00 1.1042857E+00 1.9210922E+00
 5.1382404E+00 1.1332457E+00 1.9213251E+00
 5.0606191E+00 1.1637527E+00 1.9215383E+00
 4.9849645E+00 1.1959436E+00 1.9210798E+00
 4.9114953E+00 1.2298362E+00 1.9191543E+00
 4.8401013E+00 1.2652772E+00 1.9149090E+00
 5.7761136E+00 9.7624363E-01 1.9341170E+00
 5.6971218E+00 9.9999995E-01 1.9310336E+00
 5.6179322E+00 1.0240597E+00 1.9276270E+00
 5.5385841E+00 1.0486541E+00 1.9241657E+00
 5.4591113E+00 1.0739461E+00 1.9208919E+00
 5.3796049E+00 1.1000798E+00 1.9180010E+00
 5.3002724E+00 1.1272212E+00 1.9156009E+00
 5.2214707E+00 1.1555717E+00 1.9136587E+00
 5.1436863E+00 1.1853492E+00 1.9119494E+00
 5.0674384E+00 1.2167428E+00 1.9100314E+00
 4.9931162E+00 1.2498520E+00 1.9072731E+00
 4.9208428E+00 1.2846290E+00 1.9029253E+00
 5.7761136E+00 1.0237563E+00 1.9341170E+00
 5.6973201E+00 1.0476696E+00 1.9298200E+00
 5.6185412E+00 1.0720146E+00 1.9251611E+00
 5.5398148E+00 1.0969764E+00 1.9203817E+00
 5.4611695E+00 1.1226880E+00 1.9156995E+00
 5.3826875E+00 1.1492870E+00 1.9112833E+00
 5.3045640E+00 1.1769521E+00 1.9072110E+00
 5.2271371E+00 1.2059013E+00 1.9034190E+00
 5.1508570E+00 1.2363562E+00 1.8996599E+00
 5.0761723E+00 1.2684818E+00 1.8954918E+00
 5.0033720E+00 1.3023230E+00 1.8903160E+00
 5.7762975E+00 1.0711071E+00 1.9317159E+00
 5.6979069E+00 1.0950158E+00 1.9262026E+00
 5.6197353E+00 1.1194841E+00 1.9202763E+00
 5.5418162E+00 1.1446540E+00 1.9141537E+00
 5.4641746E+00 1.1706339E+00 1.9080284E+00
 5.3868943E+00 1.1975616E+00 1.9020402E+00
 5.3101779E+00 1.2256297E+00 1.8962321E+00
 5.2343651E+00 1.2550651E+00 1.8905052E+00
 5.1598725E+00 1.2860729E+00 1.8845902E+00
 5.0870549E+00 1.3187696E+00 1.8780559E+00
 5.7766577E+00 1.1179789E+00 1.9269601E+00
 5.6988584E+00 1.1417289E+00 1.9202498E+00
 5.6214698E+00 1.1661710E+00 1.9130622E+00
 5.5445262E+00 1.1914109E+00 1.9055906E+00
 5.4680654E+00 1.2175402E+00 1.8980028E+00
 5.3922025E+00 1.2447005E+00 1.8904048E+00
 5.3171808E+00 1.2730906E+00 1.8827981E+00
 5.2433515E+00 1.3029231E+00 1.8750463E+00
 5.1710612E+00 1.3343554E+00 1.8668672E+00
 5.7771785E+00 1.1640721E+00 1.9199392E+00
 5.7001371E+00 1.1875255E+00 1.9120701E+00
 5.6236896E+00 1.2118175E+00 1.9036435E+00
 5.5478936E+00 1.2370273E+00 1.8948281E+00
 5.4728415E+00 1.2632367E+00 1.8857617E+00
 5.3987258E+00 1.2905833E+00 1.8765102E+00
 5.3258476E+00 1.3192467E+00 1.8670308E+00
 5.2545217E+00 1.3493867E+00 1.8571570E+00
 5.7778383E+00 1.2091154E+00 1.9107803E+00
 5.7017004E+00 1.2321615E+00 1.9018040E+00
 5.6263546E+00 1.2562220E+00 1.8921673E+00
 5.5519367E+00 1.2813599E+00 1.8820108E+00
 5.4786563E+00 1.3076413E+00 1.8714372E+00
 5.4068123E+00 1.3351710E+00 1.8604705E+00
 5.3367022E+00 1.3640627E+00 1.8490316E+00
 5.7786132E+00 1.2528739E+00 1.8996413E+00
 5.7035193E+00 1.2754436E+00 1.8896130E+00
 5.6294917E+00 1.2992567E+00 1.8787873E+00
 5.5568364E+00 1.3243593E+00 1.8672712E+00
 5.4859254E+00 1.3507637E+00 1.8551347E+00
 5.4170876E+00 1.3784830E+00 1.8423719E+00
 5.7794880E+00 1.2951559E+00 1.8867010E+00
 5.7056196E+00 1.3172470E+00 1.8756647E+00
 5.6332824E+00 1.3408895E+00 1.8636414E+00
 5.5630435E+00 1.3660741E+00 1.8507084E+00
 5.4953699E+00 1.3926760E+00 1.8369244E+00
 5.7804753E+00 1.3358195E+00 1.8721497E+00
 5.7081448E+00 1.3575322E+00 1.8601142E+00
 5.6381918E+00 1.3812072E+00 1.8468242E+00
 5.5713923E+00 1.4066439E+00 1.8323705E+00
 5.7816535E+00 1.3747916E+00 1.8561717E+00
 5.7114655E+00 1.3963695E+00 1.8430764E+00
 5.6450907E+00 1.4203930E+00 1.8283744E+00
 5.7832143E+00 1.4120833E+00 1.8389293E+00
 5.7165469E+00 1.4340267E+00 1.8245698E+00
 5.7856753E+00 1.4477504E+00 1.8205733E+00
 5.8532410E+00 1.4631481E+00 1.8152562E+00
 5.8536075E+00 1.4293720E+00 1.8335808E+00
 5.8538937E+00 1.3934917E+00 1.8511413E+00
 5.8541201E+00 1.3556335E+00 1.8676649E+00
 5.8542965E+00 1.3159053E+00 1.8829242E+00
 5.8544386E+00 1.2744419E+00 1.8966954E+00
 5.8545560E+00 1.2313888E+00 1.9087715E+00
 5.8546531E+00 1.1869297E+00 1.9189588E+00
 5.8547307E+00 1.1412880E+00 1.9270830E+00
 5.8547877E+00 1.0947227E+00 1.9329981E+00
 5.8548226E+00 1.0475229E+00 1.9365934E+00
 5.8548344E+00 9.9999994E-01 1.9377996E+00
 5.8548227E+00 9.5247700E-01 1.9365934E+00
 5.8547878E+00 9.0527719E-01 1.9329981E+00
 5.8547308E+00 8.5871187E-01 1.9270830E+00
 5.8546532E+00 8.1307019E-01 1.9189588E+00
 5.8545560E+00 7.6861110E-01 1.9087715E+00
 5.8544386E+00 7.2555797E-01 1.8966954E+00
 5.8542965E+00 6.8409455E-01 1.8829242E+00
 5.8541201E+00 6.4436639E-01 1.8676649E+00
 5.8538937E+00 6.0650822E-01 1.8511413E+00
 5.8536075E+00 5.7062786E-01 1.8335808E+00
 5.8532410E+00 5.3685176E-01 1.8152562E+00
 5.9137618E+00 5.1485441E-01 1.8052439E+00
 5.9806891E+00 5.2387457E-01 1.8134194E+00
 6.0503158E+00 5.3368564E-01 1.8214427E+00
 6.1222410E+00 5.4438412E-01 1.8291595E+00
 6.1961982E+00 5.5604144E-01 1.8364169E+00
 6.2719299E+00 5.6872973E-01 1.8430959E+00
 6.3492245E+00 5.8250221E-01 1.8491060E+00
 6.4278493E+00 5.9739352E-01 1.8543832E+00
 6.5075575E+00 6.1342602E-01 1.8588850E+00
 6.5880604E+00 6.3061644E-01 1.8625775E+00
 6.6690038E+00 6.4898396E-01 1.8654172E+00
 6.7499559E+00 6.6855634E-01 1.8673317E+00
 6.8304182E+00 6.8937269E-01 1.8682037E+00
 6.9098606E+00 7.1148097E-01 1.8678643E+00
 6.9877652E+00 7.3493026E-01 1.8660977E+00
 7.0636624E+00 7.5975954E-01 1.8626590E+00
 7.1371465E+00 7.8598667E-01 1.8572977E+00
 7.2078713E+00 8.1360028E-01 1.8497844E+00
 7.2755367E+00 8.4255586E-01 1.8399326E+00
 7.3398781E+00 8.7277681E-01 1.8276140E+00
 7.4006237E+00 9.0412444E-01 1.8127775E+00
 7.4575006E+00 9.3636937E-01 1.7954446E+00
 7.5100593E+00 9.6899338E-01 1.7758060E+00
 5.9210107E+00 1.4505565E+00 1.8254224E+00
 5.9900711E+00 1.4393510E+00 1.8341971E+00
 6.0611691E+00 1.4278093E+00 1.8424399E+00
 6.1340679E+00 1.4155728E+00 1.8501407E+00
 6.2087075E+00 1.4024045E+00 1.8572558E+00
 6.2849071E+00 1.3881857E+00 1.8636981E+00
 6.3624636E+00 1.3728485E+00 1.8693911E+00
 6.4411558E+00 1.3563633E+00 1.8742740E+00
 6.5207309E+00 1.3387191E+00 1.8783020E+00
 6.6008869E+00 1.3199105E+00 1.8814358E+00
 6.6812515E+00 1.2999289E+00 1.8836242E+00
 6.7613780E+00 1.2787571E+00 1.8847862E+00
 6.8407629E+00 1.2563678E+00 1.8847965E+00
 6.9188837E+00 1.2327280E+00 1.8834821E+00
 6.9952412E+00 1.2078053E+00 1.8806305E+00
 7.0693915E+00 1.1815777E+00 1.8760080E+00
 7.1409608E+00 1.1540445E+00 1.8693815E+00
 7.2096510E+00 1.1252365E+00 1.8605388E+00
 7.2752459E+00 1.0952285E+00 1.8492990E+00
 7.3376443E+00 1.0641573E+00 1.8355045E+00
 7.3969299E+00 1.0322438E+00 1.8189872E+00
 7.4535397E+00 9.9999995E-01 1.7994827E+00
 5.9241157E+00 1.4148319E+00 1.8440753E+00
 5.9956778E+00 1.4014948E+00 1.8532659E+00
 6.0684235E+00 1.3882110E+00 1.8615955E+00
 6.1425854E+00 1.3743468E+00 1.8692174E+00
 6.2181226E+00 1.3595978E+00 1.8761140E+00
 6.2949524E+00 1.3437895E+00 1.8822316E+00
 6.3729090E+00 1.3268475E+00 1.8875014E+00
 6.4517898E+00 1.3087463E+00 1.8918660E+00
 6.5313435E+00 1.2894844E+00 1.8952799E+00
 6.6112578E+00 1.2690660E+00 1.8977007E+00
 6.6911462E+00 1.2474915E+00 1.8990723E+00
 6.7705520E+00 1.2247528E+00 1.8993073E+00
 6.8489717E+00 1.2008328E+00 1.8982757E+00
 6.9258968E+00 1.1757088E+00 1.8958033E+00
 7.0008558E+00 1.1493586E+00 1.8916812E+00
 7.0734497E+00 1.1217692E+00 1.8856826E+00
 7.1433794E+00 1.0929503E+00 1.8775783E+00
 7.2104832E+00 1.0629521E+00 1.8671412E+00
 7.2747966E+00 1.0318928E+00 1.8541305E+00
 7.3366488E+00 9.9999995E-01 1.8382450E+00
 7.3969299E+00 9.6775608E-01 1.8189872E+00
 5.9262045E+00 1.3773768E+00 1.8615683E+00
 5.9994365E+00 1.3623063E+00 1.8707634E+00
 6.0736420E+00 1.3473251E+00 1.8790093E+00
 6.1489451E+00 1.3318380E+00 1.8864117E+00
 6.2253712E+00 1.3154793E+00 1.8929732E+00
 6.3028444E+00 1.2980645E+00 1.8986417E+00
 6.3812280E+00 1.2795143E+00 1.9033541E+00
 6.4603255E+00 1.2598107E+00 1.9070543E+00
 6.5398830E+00 1.2389602E+00 1.9096974E+00
 6.6195778E+00 1.2169751E+00 1.9112401E+00
 6.6990128E+00 1.1938631E+00 1.9116229E+00
 6.7777268E+00 1.1696230E+00 1.9107551E+00
 6.8552248E+00 1.1442440E+00 1.9085037E+00
 6.9310230E+00 1.1177085E+00 1.9046940E+00
 7.0046969E+00 1.0899991E+00 1.8991176E+00
 7.0759317E+00 1.0611112E+00 1.8915438E+00
 7.1445775E+00 1.0310767E+00 1.8817226E+00
 7.2107234E+00 9.9999995E-01 1.8693710E+00
 7.2747966E+00 9.6810713E-01 1.8541305E+00
 7.3376443E+00 9.3584258E-01 1.8355045E+00
 5.9277850E+00 1.3381887E+00 1.8777666E+00
 6.0022988E+00 1.3215755E+00 1.8867165E+00
 6.0776716E+00 1.3050131E+00 1.8946750E+00
 6.1539587E+00 1.2879384E+00 1.9017004E+00
 6.2311579E+00 1.2699951E+00 1.9077766E+00
 6.3091963E+00 1.2509987E+00 1.9128473E+00
 6.3879366E+00 1.2308797E+00 1.9168479E+00
 6.4671820E+00 1.2096282E+00 1.9197241E+00
 6.5466716E+00 1.1872593E+00 1.9214322E+00
 6.6260742E+00 1.1637918E+00 1.9219292E+00
 6.7049876E+00 1.1392383E+00 1.9211544E+00
 6.7829552E+00 1.1136005E+00 1.9190153E+00
 6.8595023E+00 1.0868691E+00 1.9153769E+00
 6.9341888E+00 1.0590276E+00 1.9100619E+00
 7.0066711E+00 1.0300649E+00 1.9028553E+00
 7.0767746E+00 9.9999995E-01 1.8935068E+00
 7.1445775E+00 9.6892317E-01 1.8817226E+00
 7.2104832E+00 9.3704783E-01 1.8671412E+00
 7.2752459E+00 9.0477139E-01 1.8492990E+00
 5.9290848E+00 1.2972733E+00 1.8925163E+00
 6.0046574E+00 1.2792614E+00 1.9010234E+00
 6.0809888E+00 1.2612170E+00 1.9085122E+00
 6.1580802E+00 1.2426235E+00 1.9149925E+00
 6.2358977E+00 1.2231524E+00 1.9204223E+00
 6.3143547E+00 1.2026396E+00 1.9247345E+00
 6.3933077E+00 1.1810301E+00 1.9278622E+00
 6.4725539E+00 1.1583256E+00 1.9297525E+00
 6.5518269E+00 1.1345484E+00 1.9303644E+00
 6.6307916E+00 1.1097214E+00 1.9296563E+00
 6.7090493E+00 1.0838582E+00 1.9275678E+00
 6.7861602E+00 1.0569587E+00 1.9240048E+00
 6.8616878E+00 1.0290107E+00 1.9188292E+00
 6.9352640E+00 9.9999995E-01 1.9118565E+00
 7.0066711E+00 9.6993500E-01 1.9028553E+00
 7.0759317E+00 9.3888869E-01 1.8915438E+00
 7.1433794E+00 9.0704962E-01 1.8775783E+00
 7.2096510E+00 8.7476344E-01 1.8605388E+00
 5.9302109E+00 1.2547126E+00 1.9056352E+00
 6.0066806E+00 1.2354185E+00 1.9135318E+00
 6.0837911E+00 1.2159881E+00 1.9203838E+00
 6.1615012E+00 1.1959610E+00 1.9261547E+00
 6.2397501E+00 1.1750488E+00 1.9307763E+00
 6.3184369E+00 1.1531170E+00 1.9341703E+00
 6.3974103E+00 1.1301302E+00 1.9362680E+00
 6.4764632E+00 1.1061014E+00 1.9370196E+00
 6.5553274E+00 1.0810581E+00 1.9363873E+00
 6.6336719E+00 1.0550233E+00 1.9343318E+00
 6.7111126E+00 1.0280062E+00 1.9307928E+00
 6.7872426E+00 9.9999995E-01 1.9256735E+00
 6.8616878E+00 9.7098925E-01 1.9188292E+00
 6.9341888E+00 9.4097225E-01 1.9100619E+00
 7.0046969E+00 9.1000083E-01 1.8991176E+00
 7.0734497E+00 8.7823065E-01 1.8856826E+00
 7.1409608E+00 8.4595541E-01 1.8693815E+00
 5.9311925E+00 1.2106529E+00 1.9169316E+00
 6.0084076E+00 1.1901817E+00 1.9240703E+00
 6.0861163E+00 1.1694674E+00 1.9301312E+00
 6.1642477E+00 1.1481092E+00 1.9350372E+00
 6.2427212E+00 1.1258677E+00 1.9386968E+00
 6.3214253E+00 1.1026428E+00 1.9410230E+00
 6.4002044E+00 1.0784197E+00 1.9419477E+00
 6.4788514E+00 1.0532211E+00 1.9414247E+00
 6.5571031E+00 1.0270755E+00 1.9394204E+00
 6.6346422E+00 9.9999995E-01 1.9358970E+00
 6.7111126E+00 9.7199371E-01 1.9307928E+00
 6.7861602E+00 9.4304123E-01 1.9240048E+00
 6.8595023E+00 9.1313079E-01 1.9153768E+00
 6.9310230E+00 8.8229142E-01 1.9046939E+00
 7.0008558E+00 8.5064134E-01 1.8916812E+00
 7.0693915E+00 8.1842217E-01 1.8760079E+00
 5.9320202E+00 1.1652893E+00 1.9262228E+00
 6.0098147E+00 1.1437513E+00 1.9324710E+00
 6.0879292E+00 1.1218673E+00 1.9376000E+00
 6.1662733E+00 1.0993003E+00 1.9414985E+00
 6.2447543E+00 1.0758644E+00 1.9440568E+00
 6.3232559E+00 1.0514955E+00 1.9451831E+00
 6.4016234E+00 1.0261981E+00 1.9448116E+00
 6.4796558E+00 9.9999995E-01 1.9429009E+00
 6.5571031E+00 9.7292445E-01 1.9394204E+00
 6.6336719E+00 9.4497659E-01 1.9343318E+00
 6.7090493E+00 9.1614173E-01 1.9275678E+00
 6.7829552E+00 8.8639937E-01 1.9190152E+00
 6.8552248E+00 8.5575595E-01 1.9085036E+00
 6.9258968E+00 8.2429114E-01 1.8958033E+00
 6.9952412E+00 7.9219465E-01 1.8806305E+00
 5.9326703E+00 1.1188602E+00 1.9333472E+00
 6.0108594E+00 1.0963790E+00 1.9385869E+00
 6.0891758E+00 1.0734562E+00 1.9426588E+00
 6.1675180E+00 1.0498221E+00 1.9454244E+00
 6.2457887E+00 1.0253464E+00 1.9467619E+00
 6.3238730E+00 9.9999994E-01 1.9465781E+00
 6.4016234E+00 9.7380182E-01 1.9448116E+00
 6.4788514E+00 9.4677878E-01 1.9414247E+00
 6.5553274E+00 9.1894183E-01 1.9363873E+00
 6.6307916E+00 8.9027852E-01 1.9296563E+00
 6.7049876E+00 8.6076161E-01 1.9211544E+00
 6.7777268E+00 8.3037688E-01 1.9107550E+00
 6.8489717E+00 7.9916715E-01 1.8982757E+00
 6.9188837E+00 7.6727188E-01 1.8834821E+00
 5.9331185E+00 1.0716408E+00 1.9381741E+00
 6.0115031E+00 1.0483557E+00 1.9423044E+00
 6.0898112E+00 1.0245421E+00 1.9452130E+00
 6.1679381E+00 9.9999994E-01 1.9467416E+00
 6.2457887E+00 9.7465344E-01 1.9467619E+00
 6.3232559E+00 9.4850439E-01 1.9451831E+00
 6.4002044E+00 9.2158017E-01 1.9419477E+00
 6.4764632E+00 8.9389854E-01 1.9370196E+00
 6.5518269E+00 8.6545155E-01 1.9303644E+00
 6.6260742E+00 8.3620807E-01 1.9219291E+00
 6.6990128E+00 8.0613677E-01 1.9116228E+00
 6.7705520E+00 7.7524711E-01 1.8993073E+00
 6.8407629E+00 7.4363207E-01 1.8847964E+00
 5.9333473E+00 1.0239350E+00 1.9406113E+00
 6.0117205E+00 9.9999993E-01 1.9435518E+00
 6.0898112E+00 9.7545773E-01 1.9452130E+00
 6.1675180E+00 9.5017775E-01 1.9454244E+00
 6.2447542E+00 9.2413552E-01 1.9440568E+00
 6.3214253E+00 8.9735710E-01 1.9410230E+00
 6.3974103E+00 8.6986972E-01 1.9362680E+00
 6.4725539E+00 8.4167430E-01 1.9297524E+00
 6.5466716E+00 8.1274057E-01 1.9214322E+00
 6.6195778E+00 7.8302481E-01 1.9112400E+00
 6.6911462E+00 7.5250837E-01 1.8990722E+00
 6.7613780E+00 7.2124287E-01 1.8847861E+00
 5.9333473E+00 9.7606490E-01 1.9406113E+00
 6.0115031E+00 9.5164416E-01 1.9423044E+00
 6.0891758E+00 9.2654369E-01 1.9426588E+00
 6.1662733E+00 9.0069959E-01 1.9414985E+00
 6.2427212E+00 8.7413216E-01 1.9386968E+00
 6.3184369E+00 8.4688288E-01 1.9341702E+00
 6.3933077E+00 8.1896981E-01 1.9278621E+00
 6.4671820E+00 7.9037168E-01 1.9197240E+00
 6.5398830E+00 7.6103972E-01 1.9096974E+00
 6.6112578E+00 7.3093389E-01 1.8977006E+00
 6.6812515E+00 7.0007100E-01 1.8836242E+00
 5.9331185E+00 9.2835908E-01 1.9381741E+00
 6.0108594E+00 9.0362089E-01 1.9385869E+00
 6.0879292E+00 8.7813253E-01 1.9376000E+00
 6.1642477E+00 8.5189068E-01 1.9350372E+00
 6.2397501E+00 8.2495105E-01 1.9307763E+00
 6.3143547E+00 7.9736033E-01 1.9247345E+00
 6.3879366E+00 7.6912025E-01 1.9168479E+00
 6.4603255E+00 7.4018918E-01 1.9070542E+00
 6.5313435E+00 7.1051553E-01 1.8952798E+00
 6.6008868E+00 6.8008943E-01 1.8814357E+00
 5.9326703E+00 8.8113967E-01 1.9333472E+00
 6.0098146E+00 8.5624854E-01 1.9324709E+00
 6.0861163E+00 8.3053247E-01 1.9301312E+00
 6.1615012E+00 8.0403888E-01 1.9261547E+00
 6.2358977E+00 7.7684747E-01 1.9204223E+00
 6.3091963E+00 7.4900125E-01 1.9128473E+00
 6.3812280E+00 7.2048558E-01 1.9033540E+00
 6.4517897E+00 6.9125364E-01 1.8918660E+00
 6.5207309E+00 6.6128086E-01 1.8783019E+00
 5.9320202E+00 8.3471057E-01 1.9262228E+00
 6.0084075E+00 8.0981816E-01 1.9240703E+00
 6.0837910E+00 7.8401174E-01 1.9203837E+00
 6.1580802E+00 7.5737640E-01 1.9149925E+00
 6.2311578E+00 7.3000486E-01 1.9077765E+00
 6.3028443E+00 7.0193540E-01 1.8986416E+00
 6.3729089E+00 6.7315243E-01 1.8875014E+00
 6.4411558E+00 6.4363661E-01 1.8742739E+00
 5.9311925E+00 7.8934702E-01 1.9169316E+00
 6.0066806E+00 7.6458136E-01 1.9135318E+00
 6.0809888E+00 7.3878292E-01 1.9085121E+00
 6.1539586E+00 7.1206145E-01 1.9017003E+00
 6.2253711E+00 6.8452061E-01 1.8929731E+00
 6.2949523E+00 6.5621046E-01 1.8822315E+00
 6.3624635E+00 6.2715143E-01 1.8693910E+00
 5.9302109E+00 7.4528732E-01 1.9056352E+00
 6.0046574E+00 7.2073853E-01 1.9010234E+00
 6.0776715E+00 6.9498679E-01 1.8946750E+00
 6.1489451E+00 6.6816189E-01 1.8864116E+00
 6.2181226E+00 6.4040209E-01 1.8761139E+00
 6.2849070E+00 6.1181421E-01 1.8636980E+00
 5.9290848E+00 7.0272658E-01 1.8925163E+00
 6.0022988E+00 6.7842441E-01 1.8867165E+00
 6.0736420E+00 6.5267483E-01 1.8790093E+00
 6.1425853E+00 6.2565309E-01 1.8692173E+00
 6.2087074E+00 5.9759546E-01 1.8572557E+00
 5.9277850E+00 6.6181116E-01 1.8777666E+00
 5.9994365E+00 6.3769356E-01 1.8707634E+00
 6.0684234E+00 6.1178890E-01 1.8615954E+00
 6.1340678E+00 5.8442714E-01 1.8501406E+00
 5.9262045E+00 6.2262308E-01 1.8615683E+00
 5.9956778E+00 5.9850509E-01 1.8532659E+00
 6.0611691E+00 5.7219062E-01 1.8424399E+00
 5.9241156E+00 5.8516803E-01 1.8440752E+00
 5.9900711E+00 5.6064890E-01 1.8341971E+00
 5.9210107E+00 5.4944339E-01 1.8254224E+00
 5.8157241E+00 1.5157872E+00 1.7811330E+00
 5.7745777E+00 1.5403621E+00 1.7621864E+00
 5.7316902E+00 1.5652980E+00 1.7415757E+00
 5.6873440E+00 1.5903688E+00 1.7193815E+00
 5.6416798E+00 1.6154860E+00 1.6956116E+00
 5.5949125E+00 1.6405725E+00 1.6702756E+00
 5.5472520E+00 1.6655661E+00 1.6433760E+00
 5.4989307E+00 1.6903954E+00 1.6149260E+00
 5.4502140E+00 1.7149798E+00 1.5849445E+00
 5.4014013E+00 1.7392248E+00 1.5534548E+00
 5.3528267E+00 1.7630155E+00 1.5204844E+00
 5.3048527E+00 1.7862122E+00 1.4860655E+00
 5.2578593E+00 1.8086469E+00 1.4502386E+00
 5.2122277E+00 1.8301240E+00 1.4130567E+00
 5.1683210E+00 1.8504259E+00 1.3745922E+00
 5.1264659E+00 1.8693234E+00 1.3349431E+00
 5.0869396E+00 1.8865892E+00 1.2942376E+00
 5.0499670E+00 1.9020133E+00 1.2526356E+00
 5.0157245E+00 1.9154164E+00 1.2103254E+00
 4.9843552E+00 1.9266604E+00 1.1675168E+00
 4.9559779E+00 1.9356477E+00 1.1244718E+00
 4.9305888E+00 1.9423335E+00 1.0814948E+00
 4.9081162E+00 1.9467354E+00 1.0391335E+00
 4.1663339E+00 1.0947040E+00 1.8077394E+00
 4.1574275E+00 1.1563499E+00 1.7921195E+00
 4.1517148E+00 1.2190309E+00 1.7731421E+00
 4.1500573E+00 1.2827064E+00 1.7510486E+00
 4.1529702E+00 1.3470308E+00 1.7258893E+00
 4.1608364E+00 1.4114759E+00 1.6976974E+00
 4.1739270E+00 1.4753778E+00 1.6665275E+00
 4.1924106E+00 1.5379806E+00 1.6324859E+00
 4.2163472E+00 1.5984661E+00 1.5957513E+00
 4.2456749E+00 1.6559846E+00 1.5565888E+00
 4.2801961E+00 1.7096944E+00 1.5153549E+00
 4.3195693E+00 1.7588093E+00 1.4724941E+00
 4.3633145E+00 1.8026520E+00 1.4285274E+00
 4.4108360E+00 1.8407083E+00 1.3840323E+00
 4.4614623E+00 1.8726743E+00 1.3396152E+00
 4.5145019E+00 1.8984886E+00 1.2958789E+00
 4.5693034E+00 1.9183441E+00 1.2533870E+00
 4.6253022E+00 1.9326716E+00 1.2126269E+00
 4.6820294E+00 1.9420995E+00 1.1739736E+00
 4.7391024E+00 1.9473908E+00 1.1376439E+00
 4.7961794E+00 1.9493741E+00 1.1036156E+00
 4.8527684E+00 1.9488862E+00 1.0715350E+00
 4.2192867E+00 1.1323958E+00 1.8352525E+00
 4.2136236E+00 1.1963703E+00 1.8193570E+00
 4.2110166E+00 1.2602620E+00 1.7998569E+00
 4.2124271E+00 1.3243302E+00 1.7770359E+00
 4.2184371E+00 1.3883720E+00 1.7509947E+00
 4.2294179E+00 1.4519090E+00 1.7217909E+00
 4.2455816E+00 1.5142879E+00 1.6895000E+00
 4.2670071E+00 1.5747468E+00 1.6542563E+00
 4.2936497E+00 1.6324694E+00 1.6162785E+00
 4.3253380E+00 1.6866330E+00 1.5758831E+00
 4.3617705E+00 1.7364598E+00 1.5334851E+00
 4.4025211E+00 1.7812705E+00 1.4895887E+00
 4.4470606E+00 1.8205391E+00 1.4447685E+00
 4.4947946E+00 1.8539390E+00 1.3996414E+00
 4.5451152E+00 1.8813762E+00 1.3548330E+00
 4.5974555E+00 1.9030004E+00 1.3109377E+00
 4.6513247E+00 1.9191914E+00 1.2684746E+00
 4.7063163E+00 1.9305226E+00 1.2278352E+00
 4.7620921E+00 1.9377080E+00 1.1892106E+00
 4.8183316E+00 1.9415379E+00 1.1525175E+00
 4.8747338E+00 1.9428189E+00 1.1171179E+00
 4.2772374E+00 1.1684542E+00 1.8589991E+00
 4.2746493E+00 1.2334382E+00 1.8424765E+00
 4.2751211E+00 1.2978178E+00 1.8222225E+00
 4.2795793E+00 1.3617568E+00 1.7984847E+00
 4.2886152E+00 1.4250572E+00 1.7713806E+00
 4.3025645E+00 1.4872428E+00 1.7409901E+00
 4.3215674E+00 1.5476582E+00 1.7074201E+00
 4.3456120E+00 1.6055500E+00 1.6708479E+00
 4.3745559E+00 1.6601312E+00 1.6315487E+00
 4.4081362E+00 1.7106418E+00 1.5899028E+00
 4.4459793E+00 1.7564069E+00 1.5463917E+00
 4.4876212E+00 1.7968919E+00 1.5015797E+00
 4.5325433E+00 1.8317504E+00 1.4560875E+00
 4.5802192E+00 1.8608568E+00 1.4105558E+00
 4.6301587E+00 1.8843192E+00 1.3656031E+00
 4.6819353E+00 1.9024678E+00 1.3217763E+00
 4.7351859E+00 1.9158243E+00 1.2794890E+00
 4.7895845E+00 1.9250552E+00 1.2389504E+00
 4.8448149E+00 1.9309190E+00 1.2000500E+00
 4.9005062E+00 1.9341982E+00 1.1622640E+00
 4.3397392E+00 1.2028864E+00 1.8782115E+00
 4.3400829E+00 1.2679370E+00 1.8607822E+00
 4.3435257E+00 1.3320396E+00 1.8395472E+00
 4.3509277E+00 1.3952228E+00 1.8147108E+00
 4.3628364E+00 1.4572206E+00 1.7863924E+00
 4.3795253E+00 1.5175311E+00 1.7546977E+00
 4.4010556E+00 1.5754999E+00 1.7197769E+00
 4.4273306E+00 1.6304015E+00 1.6818660E+00
 4.4581305E+00 1.6815112E+00 1.6413077E+00
 4.4931353E+00 1.7281695E+00 1.5985530E+00
 4.5319472E+00 1.7698406E+00 1.5541475E+00
 4.5741237E+00 1.8061615E+00 1.5087054E+00
 4.6192150E+00 1.8369763E+00 1.4628728E+00
 4.6667992E+00 1.8623501E+00 1.4172843E+00
 4.7164996E+00 1.8825616E+00 1.3725102E+00
 4.7679796E+00 1.8980774E+00 1.3289950E+00
 4.8209162E+00 1.9095152E+00 1.2869768E+00
 4.8749562E+00 1.9175941E+00 1.2464036E+00
 4.9296585E+00 1.9230715E+00 1.2068530E+00
 4.4063003E+00 1.2353875E+00 1.8923359E+00
 4.4093969E+00 1.2997711E+00 1.8737627E+00
 4.4156444E+00 1.3629182E+00 1.8513555E+00