# TIME = 5.700000
variables = x, y, z
zone N=5762 E=11520 F=FEPOINT ET=TRIANGLE
 5.5164021E+00 1.4899184E+00 1.7924038E+00
 5.5164021E+00 1.4899185E+00 2.0759606E-01
 5.5164021E+00 5.1008180E-01 1.7924038E+00
 5.5164023E+00 5.1008169E-01 2.0759595E-01
 3.8019440E+00 1.0000001E+00 1.7836253E+00
 7.2168212E+00 1.0000001E+00 1.7558398E+00
 3.8019445E+00 1.0000001E+00 2.1637548E-01
 7.2168213E+00 1.0000001E+00 2.4415997E-01
 4.5638667E+00 1.9516038E+00 9.9999998E-01
 4.5638667E+00 4.8396064E-02 9.9999998E-01
 6.4607614E+00 1.9343058E+00 9.9999998E-01
 6.4607614E+00 6.5694756E-02 9.9999998E-01
 5.4567236E+00 1.4799427E+00 1.7962411E+00
 5.3908262E+00 1.4689984E+00 1.8006217E+00
 5.3219174E+00 1.4577414E+00 1.8054484E+00
 5.2502319E+00 1.4461845E+00 1.8108977E+00
 5.1760123E+00 1.4343699E+00 1.8171102E+00
 5.0995168E+00 1.4222896E+00 1.8242330E+00
 5.0209824E+00 1.4099079E+00 1.8323823E+00
 4.9406874E+00 1.3971455E+00 1.8416240E+00
 4.8589676E+00 1.3838715E+00 1.8519368E+00
 4.7762469E+00 1.3698933E+00 1.8631684E+00
 4.6930489E+00 1.3549510E+00 1.8749878E+00
 4.6099777E+00 1.3387234E+00 1.8868500E+00
 4.5276553E+00 1.3208520E+00 1.8979940E+00
 4.4466358E+00 1.3009853E+00 1.9074905E+00
 4.3673515E+00 1.2788378E+00 1.9143363E+00
 4.2901348E+00 1.2542463E+00 1.9175803E+00
 4.2153163E+00 1.2272094E+00 1.9164505E+00
 4.1433207E+00 1.1978989E+00 1.9104560E+00
 4.0746838E+00 1.1666387E+00 1.8994343E+00
 4.0099811E+00 1.1338616E+00 1.8835397E+00
 3.9497614E+00 1.1000791E+00 1.8632010E+00
 3.8944588E+00 1.0658401E+00 1.8390332E+00
 3.8444900E+00 1.0318348E+00 1.8118507E+00
 5.4499232E+00 5.5405383E-01 1.8155217E+00
 5.3818639E+00 5.6692783E-01 1.8203445E+00
 5.3113087E+00 5.7964276E-01 1.8253661E+00
 5.2384792E+00 5.9247970E-01 1.8309006E+00
 5.1633992E+00 6.0562202E-01 1.8371962E+00
 5.0862556E+00 6.1913120E-01 1.8444058E+00
 5.0072719E+00 6.3307457E-01 1.8526352E+00
 4.9267318E+00 6.4754401E-01 1.8619221E+00
 4.8449970E+00 6.6268057E-01 1.8722068E+00
 4.7625225E+00 6.7868038E-01 1.8832878E+00
 4.6798579E+00 6.9579423E-01 1.8947783E+00
 4.5976147E+00 7.1431296E-01 1.9060803E+00
 4.5163981E+00 7.3453733E-01 1.9163953E+00
 4.4367282E+00 7.5673339E-01 1.9247857E+00
 4.3589992E+00 7.8108469E-01 1.9302767E+00
 4.2835183E+00 8.0765226E-01 1.9319800E+00
 4.2106013E+00 8.3635410E-01 1.9292108E+00
 4.1406478E+00 8.6696791E-01 1.9215699E+00
 4.0741292E+00 8.9914960E-01 1.9089673E+00
 4.0114634E+00 9.3245052E-01 1.8915678E+00
 3.9528231E+00 9.6632111E-01 1.8696551E+00
 3.8979174E+00 1.0000001E+00 1.8434202E+00
 5.4474758E+00 5.8898377E-01 1.8335805E+00
 5.3768257E+00 6.0378215E-01 1.8386288E+00
 5.3045678E+00 6.1798218E-01 1.8436745E+00
 5.2303607E+00 6.3224733E-01 1.8491974E+00
 5.1542270E+00 6.4683956E-01 1.8554553E+00
 5.0762453E+00 6.6189585E-01 1.8626153E+00
 4.9966233E+00 6.7750288E-01 1.8707661E+00
 4.9156505E+00 6.9376956E-01 1.8799211E+00
 4.8337141E+00 7.1084474E-01 1.8899830E+00
 4.7512986E+00 7.2892423E-01 1.9007036E+00
 4.6689768E+00 7.4824279E-01 1.9116435E+00
 4.5873658E+00 7.6905319E-01 1.9221565E+00
 4.5070556E+00 7.9159331E-01 1.9314140E+00
 4.4285342E+00 8.1604636E-01 1.9384778E+00
 4.3521625E+00 8.4250527E-01 1.9424074E+00
 4.2782182E+00 8.7094938E-01 1.9423791E+00
 4.2069804E+00 9.0123854E-01 1.9377867E+00
 4.1387604E+00 9.3311826E-01 1.9282948E+00
 4.0738033E+00 9.6621525E-01 1.9138067E+00
 4.0120620E+00 1.0000001E+00 1.8943264E+00
 3.9528231E+00 1.0336791E+00 1.8696551E+00
 5.4458703E+00 6.2563797E-01 1.8506258E+00
 5.3735584E+00 6.4194382E-01 1.8555378E+00
 5.2997816E+00 6.5762933E-01 1.8604528E+00
 5.2243311E+00 6.7335406E-01 1.8658139E+00
 5.1471436E+00 6.8946840E-01 1.8718917E+00
 5.0683065E+00 7.0613296E-01 1.8788398E+00
 4.9880176E+00 7.2345872E-01 1.8867327E+00
 4.9065876E+00 7.4156491E-01 1.8955565E+00
 4.8244299E+00 7.6060550E-01 1.9051777E+00
 4.7420571E+00 7.8076896E-01 1.9153030E+00
 4.6600605E+00 8.0226596E-01 1.9254454E+00
 4.5790595E+00 8.2530444E-01 1.9349197E+00
 4.4996258E+00 8.5005804E-01 1.9428789E+00
 4.4222155E+00 8.7663435E-01 1.9483966E+00
 4.3471515E+00 9.0505190E-01 1.9505752E+00
 4.2746629E+00 9.3522969E-01 1.9486540E+00
 4.2049320E+00 9.6698250E-01 1.9420856E+00
 4.1380490E+00 1.0000001E+00 1.9305422E+00
 4.0738033E+00 1.0337850E+00 1.9138067E+00
 4.0114634E+00 1.0675497E+00 1.8915678E+00
 5.4445965E+00 6.6409694E-01 1.8665041E+00
 5.3709554E+00 6.8173925E-01 1.8710687E+00
 5.2959290E+00 6.9882381E-01 1.8756712E+00
 5.2193784E+00 7.1600998E-01 1.8807150E+00
 5.1412641E+00 7.3365668E-01 1.8864467E+00
 5.0616782E+00 7.5194330E-01 1.8930041E+00
 4.9808383E+00 7.7099055E-01 1.9004403E+00
 4.8990766E+00 7.9092498E-01 1.9087139E+00
 4.8168332E+00 8.1189838E-01 1.9176558E+00
 4.7346432E+00 8.3408470E-01 1.9269314E+00
 4.6531099E+00 8.5766328E-01 1.9360154E+00
 4.5728466E+00 8.8279400E-01 1.9441968E+00
 4.4944006E+00 9.0959025E-01 1.9506264E+00
 4.4181887E+00 9.3809661E-01 1.9544039E+00
 4.3444782E+00 9.6827618E-01 1.9546806E+00
 4.2734014E+00 1.0000001E+00 1.9507498E+00
 4.2049320E+00 1.0330177E+00 1.9420857E+00
 4.1387604E+00 1.0668820E+00 1.9282948E+00
 4.0741292E+00 1.1008506E+00 1.9089673E+00
 5.4434610E+00 7.0439308E-01 1.8810414E+00
 5.3686614E+00 7.2325107E-01 1.8850880E+00
 5.2925740E+00 7.4166978E-01 1.8892148E+00
 5.2151045E+00 7.6028248E-01 1.8937765E+00
 5.1362424E+00 7.7943709E-01 1.8989875E+00
 5.0560987E+00 7.9931394E-01 1.9049626E+00
 4.9749119E+00 8.2003802E-01 1.9117315E+00
 4.8930372E+00 8.4173597E-01 1.9192249E+00
 4.8109363E+00 8.6455129E-01 1.9272403E+00
 4.7291591E+00 8.8863695E-01 1.9354095E+00
 4.6483102E+00 9.1413744E-01 1.9431807E+00
 4.5689857E+00 9.4116675E-01 1.9498334E+00
 4.4916967E+00 9.6978811E-01 1.9545328E+00
 4.4168037E+00 1.0000001E+00 1.9564155E+00
 4.3444782E+00 1.0317241E+00 1.9546807E+00
 4.2746629E+00 1.0647706E+00 1.9486541E+00
 4.2069804E+00 1.0987617E+00 1.9377868E+00
 4.1406478E+00 1.1330323E+00 1.9215699E+00
 5.4424179E+00 7.4645207E-01 1.8940315E+00
 5.3666077E+00 7.6643021E-01 1.8974116E+00
 5.2896381E+00 7.8611794E-01 1.9009084E+00
 5.2114500E+00 8.0610123E-01 1.9048226E+00
 5.1320560E+00 8.2670490E-01 1.9093334E+00
 5.0515877E+00 8.4810096E-01 1.9145302E+00
 4.9703033E+00 8.7041211E-01 1.9204187E+00
 4.8885768E+00 8.9375983E-01 1.9269026E+00
 4.8068841E+00 9.1827405E-01 1.9337515E+00
 4.7257793E+00 9.4408377E-01 1.9405728E+00
 4.6458549E+00 9.7130025E-01 1.9468021E+00
 4.5676750E+00 1.0000002E+00 1.9517247E+00
 4.4916967E+00 1.0302122E+00 1.9545329E+00
 4.4181887E+00 1.0619037E+00 1.9544040E+00
 4.3471515E+00 1.0949484E+00 1.9505753E+00
 4.2782182E+00 1.1290509E+00 1.9423792E+00
 4.2106013E+00 1.1636462E+00 1.9292109E+00
 5.4414876E+00 7.9012175E-01 1.9052603E+00
 5.3648285E+00 8.1113084E-01 1.9078398E+00
 5.2871717E+00 8.3200761E-01 1.9105580E+00
 5.2084831E+00 8.5328077E-01 1.9136618E+00
 5.1287949E+00 8.7524144E-01 1.9172951E+00
 5.0482559E+00 8.9804732E-01 1.9215218E+00
 4.9671403E+00 9.2181387E-01 1.9263244E+00
 4.8858344E+00 9.4665335E-01 1.9315833E+00
 4.8048182E+00 9.7267996E-01 1.9370464E+00
 4.7246369E+00 1.0000003E+00 1.9423075E+00
 4.6458550E+00 1.0287002E+00 1.9468022E+00
 4.5689858E+00 1.0588336E+00 1.9498337E+00
 4.4944007E+00 1.0904101E+00 1.9506266E+00
 4.4222156E+00 1.1233660E+00 1.9483969E+00
 4.3521626E+00 1.1574950E+00 1.9424077E+00
 4.2835184E+00 1.1923480E+00 1.9319802E+00
 5.4407022E+00 8.3519647E-01 1.9145255E+00
 5.3633803E+00 8.5713340E-01 1.9161811E+00
 5.2852490E+00 8.7909763E-01 1.9179799E+00
 5.2062928E+00 9.0155077E-01 1.9201181E+00
 5.1265593E+00 9.2474280E-01 1.9227060E+00
 5.0462103E+00 9.4881230E-01 1.9257839E+00
 4.9655301E+00 9.7386428E-01 1.9293135E+00
 4.8849087E+00 1.0000003E+00 1.9331565E+00
 4.8048182E+00 1.0273206E+00 1.9370465E+00
 4.7257795E+00 1.0559168E+00 1.9405730E+00
 4.6483104E+00 1.0858630E+00 1.9431811E+00
 4.5728469E+00 1.1172064E+00 1.9441972E+00
 4.4996260E+00 1.1499423E+00 1.9428793E+00
 4.4285344E+00 1.1839540E+00 1.9384782E+00
 4.3589993E+00 1.2189156E+00 1.9302770E+00
 5.4400897E+00 8.8142198E-01 1.9216478E+00
 5.3623115E+00 9.0416252E-01 1.9222692E+00
 5.2839322E+00 9.2708707E-01 1.9230203E+00
 5.2049497E+00 9.5058059E-01 1.9240515E+00
 5.1254226E+00 9.7484622E-01 1.9254436E+00
 5.0455205E+00 1.0000002E+00 1.9272161E+00
 4.9655301E+00 1.0261363E+00 1.9293136E+00
 4.8858343E+00 1.0533472E+00 1.9315835E+00
 4.8068842E+00 1.0817265E+00 1.9337518E+00
 4.7291594E+00 1.1113636E+00 1.9354100E+00
 4.6531102E+00 1.1423372E+00 1.9360160E+00
 4.5790598E+00 1.1746960E+00 1.9349204E+00
 4.5070558E+00 1.2084071E+00 1.9314145E+00
 4.4367284E+00 1.2432670E+00 1.9247862E+00
 5.4396704E+00 9.2850201E-01 1.9264819E+00
 5.3616566E+00 9.5190041E-01 1.9259760E+00
 5.2832633E+00 9.7563301E-01 1.9255691E+00
 5.2044972E+00 1.0000002E+00 1.9253729E+00
 5.1254226E+00 1.0251542E+00 1.9254437E+00
 5.0462102E+00 1.0511882E+00 1.9257839E+00
 4.9671401E+00 1.0781867E+00 1.9263246E+00
 4.8885768E+00 1.1062408E+00 1.9269030E+00
 4.8109364E+00 1.1354493E+00 1.9272408E+00
 4.7346435E+00 1.1659159E+00 1.9269321E+00
 4.6600610E+00 1.1977346E+00 1.9254462E+00
 4.5873663E+00 1.2309473E+00 1.9221572E+00
 4.5163985E+00 1.2654631E+00 1.9163960E+00
 5.4394575E+00 9.7610819E-01 1.9289254E+00
 5.3614361E+00 1.0000001E+00 1.9272207E+00
 5.2832632E+00 1.0243673E+00 1.9255691E+00
 5.2049496E+00 1.0494197E+00 1.9240515E+00
 5.1265591E+00 1.0752576E+00 1.9227060E+00
 5.0482557E+00 1.1019531E+00 1.9215220E+00
 4.9703030E+00 1.1295884E+00 1.9204190E+00
 4.8930372E+00 1.1582646E+00 1.9192254E+00
 4.8168334E+00 1.1881023E+00 1.9176565E+00
 4.7420575E+00 1.2192317E+00 1.9153039E+00
 4.6689773E+00 1.2517578E+00 1.9116444E+00
 4.5976152E+00 1.2856876E+00 1.9060812E+00
 5.4394575E+00 1.0238920E+00 1.9289254E+00
 5.3616566E+00 1.0480998E+00 1.9259760E+00
 5.2839321E+00 1.0729132E+00 1.9230203E+00
 5.2062926E+00 1.0984496E+00 1.9201181E+00
 5.1287946E+00 1.1247590E+00 1.9172952E+00
 5.0515873E+00 1.1518995E+00 1.9145305E+00
 4.9749116E+00 1.1799625E+00 1.9117320E+00
 4.8990765E+00 1.2090756E+00 1.9087146E+00
 4.8244302E+00 1.2393951E+00 1.9051786E+00
 4.7512991E+00 1.2710764E+00 1.9007047E+00
 4.6798584E+00 1.3042064E+00 1.8947793E+00
 5.4396704E+00 1.0714982E+00 1.9264819E+00
 5.3623114E+00 1.0958377E+00 1.9222692E+00
 5.2852489E+00 1.1209027E+00 1.9179799E+00
 5.2084829E+00 1.1467196E+00 1.9136619E+00
 5.1320556E+00 1.1732955E+00 1.9093336E+00
 5.0560983E+00 1.2006865E+00 1.9049629E+00
 4.9808379E+00 1.2290100E+00 1.9004408E+00
 4.9065875E+00 1.2584357E+00 1.8955572E+00
 4.8337143E+00 1.2891559E+00 1.8899840E+00
 4.7625230E+00 1.3213203E+00 1.8832889E+00
 5.4400896E+00 1.1185782E+00 1.9216478E+00
 5.3633801E+00 1.1428668E+00 1.9161812E+00
 5.2871715E+00 1.1679927E+00 1.9105580E+00
 5.2114496E+00 1.1938991E+00 1.9048227E+00
 5.1362420E+00 1.2205633E+00 1.8989877E+00
 5.0616777E+00 1.2480571E+00 1.8930044E+00
 4.9880171E+00 1.2765418E+00 1.8867332E+00
 4.9156503E+00 1.3062311E+00 1.8799219E+00
 4.8449972E+00 1.3373201E+00 1.8722079E+00
 5.4407021E+00 1.1648038E+00 1.9145255E+00
 5.3648284E+00 1.1888694E+00 1.9078399E+00
 5.2896379E+00 1.2138823E+00 1.9009084E+00
 5.2151042E+00 1.2397178E+00 1.8937766E+00
 5.1412637E+00 1.2663437E+00 1.8864469E+00
 5.0683059E+00 1.2938675E+00 1.8788402E+00
 4.9966228E+00 1.3224976E+00 1.8707667E+00
 4.9267316E+00 1.3524566E+00 1.8619230E+00
 5.4414875E+00 1.2098785E+00 1.9052604E+00
 5.3666076E+00 1.2335701E+00 1.8974116E+00
 5.2925738E+00 1.2583305E+00 1.8892149E+00
 5.2193780E+00 1.2839903E+00 1.8807151E+00
 5.1471432E+00 1.3105320E+00 1.8718919E+00
 5.0762448E+00 1.3381046E+00 1.8626157E+00
 5.0072713E+00 1.3669259E+00 1.8526358E+00
 5.4424179E+00 1.2535482E+00 1.8940315E+00
 5.3686613E+00 1.2767492E+00 1.8850881E+00
 5.2959287E+00 1.3011765E+00 1.8756713E+00
 5.2243307E+00 1.3266463E+00 1.8658141E+00
 5.1542266E+00 1.3531608E+00 1.8554556E+00
 5.0862551E+00 1.3808692E+00 1.8444062E+00
 5.4434609E+00 1.2956072E+00 1.8810414E+00
 5.3709552E+00 1.3182610E+00 1.8710688E+00
 5.2997813E+00 1.3423710E+00 1.8604529E+00
 5.2303604E+00 1.3677530E+00 1.8491976E+00
 5.1633988E+00 1.3943783E+00 1.8371965E+00
 5.4445964E+00 1.3359033E+00 1.8665042E+00
 5.3735582E+00 1.3580564E+00 1.8555378E+00
 5.3045676E+00 1.3820181E+00 1.8436746E+00
 5.2384789E+00 1.4075206E+00 1.8309008E+00
 5.4458702E+00 1.3743623E+00 1.8506258E+00
 5.3768255E+00 1.3962181E+00 1.8386289E+00
 5.3113084E+00 1.4203575E+00 1.8253661E+00
 5.4474757E+00 1.4110165E+00 1.8335805E+00
 5.3818638E+00 1.4330724E+00 1.8203445E+00
 5.4499232E+00 1.4459464E+00 1.8155217E+00
 5.5165819E+00 1.4607269E+00 1.8097382E+00
 5.5167755E+00 1.4275570E+00 1.8277567E+00
 5.5168944E+00 1.3923356E+00 1.8450465E+00
 5.5169815E+00 1.3550376E+00 1.8613992E+00
 5.5170508E+00 1.3157467E+00 1.8765794E+00
 5.5171105E+00 1.2745989E+00 1.8903419E+00
 5.5171630E+00 1.2317433E+00 1.9024586E+00
 5.5172082E+00 1.1873699E+00 1.9127154E+00
 5.5172450E+00 1.1417143E+00 1.9209184E+00
 5.5172722E+00 1.0950544E+00 1.9269039E+00
 5.5172889E+00 1.0477033E+00 1.9305473E+00
 5.5172945E+00 1.0000001E+00 1.9317706E+00
 5.5172889E+00 9.5229689E-01 1.9305473E+00
 5.5172722E+00 9.0494586E-01 1.9269039E+00
 5.5172450E+00 8.5828589E-01 1.9209184E+00
 5.5172082E+00 8.1263034E-01 1.9127154E+00
 5.5171631E+00 7.6825691E-01 1.9024586E+00
 5.5171106E+00 7.2540132E-01 1.8903419E+00
 5.5170508E+00 6.8425356E-01 1.8765794E+00
 5.5169815E+00 6.4496265E-01 1.8613992E+00
 5.5168944E+00 6.0766464E-01 1.8450465E+00
 5.5167755E+00 5.7244327E-01 1.8277567E+00
 5.5165819E+00 5.3927335E-01 1.8097382E+00
 5.5762256E+00 5.1789430E-01 1.7998001E+00
 5.6422006E+00 5.2664309E-01 1.8080043E+00
 5.7110905E+00 5.3594050E-01 1.8165002E+00
 5.7825982E+00 5.4593015E-01 1.8251719E+00
 5.8564398E+00 5.5672523E-01 1.8338267E+00
 5.9322937E+00 5.6846874E-01 1.8422566E+00
 6.0098755E+00 5.8129953E-01 1.8502374E+00
 6.0888823E+00 5.9534393E-01 1.8575456E+00
 6.1690081E+00 6.1070546E-01 1.8639737E+00
 6.2499288E+00 6.2745927E-01 1.8693411E+00
 6.3312852E+00 6.4565349E-01 1.8734946E+00
 6.4126602E+00 6.6531442E-01 1.8762987E+00
 6.4935685E+00 6.8645347E-01 1.8776196E+00
 6.5734713E+00 7.0907125E-01 1.8773102E+00
 6.6518152E+00 7.3315753E-01 1.8752038E+00
 6.7280774E+00 7.5868633E-01 1.8711198E+00
 6.8017972E+00 7.8560921E-01 1.8648787E+00
 6.8725847E+00 8.1384871E-01 1.8563226E+00
 6.9401099E+00 8.4329391E-01 1.8453365E+00
 7.0040868E+00 8.7380274E-01 1.8318651E+00
 7.0642307E+00 9.0518616E-01 1.8159362E+00
 7.1202829E+00 9.3721233E-01 1.7976508E+00
 7.1718594E+00 9.6943686E-01 1.7772596E+00
 5.5833522E+00 1.4482416E+00 1.8195699E+00
 5.6514062E+00 1.4374426E+00 1.8283982E+00
 5.7218683E+00 1.4264993E+00 1.8371972E+00
 5.7944499E+00 1.4150007E+00 1.8459634E+00
 5.8690678E+00 1.4026437E+00 1.8546073E+00
 5.9454785E+00 1.3892582E+00 1.8629256E+00
 6.0234123E+00 1.3747092E+00 1.8706879E+00
 6.1025767E+00 1.3588940E+00 1.8776606E+00
 6.1826586E+00 1.3417358E+00 1.8836306E+00
 6.2633213E+00 1.3231857E+00 1.8884161E+00
 6.3441874E+00 1.3032194E+00 1.8918648E+00
 6.4248213E+00 1.2818326E+00 1.8938426E+00
 6.5047252E+00 1.2590356E+00 1.8942174E+00
 6.5833612E+00 1.2348503E+00 1.8928459E+00
 6.6601913E+00 1.2093107E+00 1.8895697E+00
 6.7347204E+00 1.1824649E+00 1.8842235E+00
 6.8065213E+00 1.1543779E+00 1.8766506E+00
 6.8752452E+00 1.1251351E+00 1.8667202E+00
 6.9406234E+00 1.0948508E+00 1.8543389E+00
 7.0025092E+00 1.0636916E+00 1.8394399E+00
 7.0609851E+00 1.0319059E+00 1.8219342E+00
 7.1165608E+00 1.0000001E+00 1.8016031E+00
 5.5861156E+00 1.4132509E+00 1.8378718E+00
 5.6567069E+00 1.4004129E+00 1.8471517E+00
 5.7288004E+00 1.3878107E+00 1.8560990E+00
 5.8026849E+00 1.3746867E+00 1.8648925E+00
 5.8782761E+00 1.3606824E+00 1.8734392E+00
 5.9554353E+00 1.3455851E+00 1.8815483E+00
 6.0339165E+00 1.3292723E+00 1.8889775E+00
 6.1134335E+00 1.3116595E+00 1.8954856E+00
 6.1936655E+00 1.2926942E+00 1.9008553E+00
 6.2742606E+00 1.2723509E+00 1.9049045E+00
 6.3548224E+00 1.2506283E+00 1.9074827E+00
 6.4348971E+00 1.2275438E+00 1.9084589E+00
 6.5139766E+00 1.2031289E+00 1.9077046E+00
 6.5915264E+00 1.1774265E+00 1.9050831E+00
 6.6670276E+00 1.1504888E+00 1.9004470E+00
 6.7400198E+00 1.1223763E+00 1.8936470E+00
 6.8101303E+00 1.0931567E+00 1.8845437E+00
 6.8771111E+00 1.0629134E+00 1.8730114E+00
 6.9409179E+00 1.0317780E+00 1.8589156E+00
 7.0018708E+00 1.0000001E+00 1.8420440E+00
 7.0609851E+00 9.6809433E-01 1.8219342E+00
 5.5879475E+00 1.3764601E+00 1.8551192E+00
 5.6601723E+00 1.3619595E+00 1.8644360E+00
 5.7337398E+00 1.3476929E+00 1.8733732E+00
 5.8088106E+00 1.3329203E+00 1.8820464E+00
 5.8853870E+00 1.3172198E+00 1.8903673E+00
 5.9633251E+00 1.3003835E+00 1.8981258E+00
 6.0423950E+00 1.2822969E+00 1.9050706E+00
 6.1223021E+00 1.2628973E+00 1.9109526E+00
 6.2027138E+00 1.2421544E+00 1.9155522E+00
 6.2832616E+00 1.2200664E+00 1.9186889E+00
 6.3635312E+00 1.1966539E+00 1.9202163E+00
 6.4430546E+00 1.1719555E+00 1.9200087E+00
 6.5213197E+00 1.1460220E+00 1.9179447E+00
 6.5978031E+00 1.1189120E+00 1.9138971E+00
 6.6720168E+00 1.0906871E+00 1.9077309E+00
 6.7435569E+00 1.0614081E+00 1.8993091E+00
 6.8121617E+00 1.0311422E+00 1.8884915E+00
 6.8778114E+00 1.0000001E+00 1.8751134E+00
 6.9409179E+00 9.6822222E-01 1.8589156E+00
 7.0025092E+00 9.3630863E-01 1.8394399E+00
 5.5893820E+00 1.3378260E+00 1.8711777E+00
 5.6629190E+00 1.3218011E+00 1.8803007E+00
 5.7377040E+00 1.3059399E+00 1.8890300E+00
 5.8138306E+00 1.2895158E+00 1.8974213E+00
 5.8912780E+00 1.2721211E+00 1.9053502E+00
 5.9699016E+00 1.2535572E+00 1.9125881E+00
 6.0494590E+00 1.2337307E+00 1.9188707E+00
 6.1296451E+00 1.2126004E+00 1.9239442E+00
 6.2101129E+00 1.1901601E+00 1.9275894E+00
 6.2904788E+00 1.1664307E+00 1.9296305E+00
 6.3703156E+00 1.1414546E+00 1.9299283E+00
 6.4491490E+00 1.1152885E+00 1.9283659E+00
 6.5264736E+00 1.0879973E+00 1.9248321E+00
 6.6017919E+00 1.0596460E+00 1.9192112E+00
 6.6746696E+00 1.0302941E+00 1.9113783E+00
 6.7448083E+00 1.0000001E+00 1.9011955E+00
 6.8121617E+00 9.6885800E-01 1.8884915E+00
 6.8771111E+00 9.3708683E-01 1.8730114E+00
 6.9406234E+00 9.0514943E-01 1.8543389E+00
 5.5906451E+00 1.2973283E+00 1.8858815E+00
 5.6653242E+00 1.2798765E+00 1.8946247E+00
 5.7411438E+00 1.2624701E+00 1.9029670E+00
 5.8181516E+00 1.2444257E+00 1.9108992E+00
 5.8963004E+00 1.2253696E+00 1.9182565E+00
 5.9754298E+00 1.2051302E+00 1.9247886E+00
 6.0552841E+00 1.1836388E+00 1.9302218E+00
 6.1355448E+00 1.1608792E+00 1.9343004E+00
 6.2158529E+00 1.1368692E+00 1.9368098E+00
 6.2958147E+00 1.1116520E+00 1.9375824E+00
 6.3749977E+00 1.0852880E+00 1.9364898E+00
 6.4529329E+00 1.0578470E+00 1.9334270E+00
 6.5291371E+00 1.0293977E+00 1.9282946E+00
 6.6031617E+00 1.0000001E+00 1.9209865E+00
 6.6746696E+00 9.6970610E-01 1.9113783E+00
 6.7435569E+00 9.3859214E-01 1.8993091E+00
 6.8101303E+00 9.0684355E-01 1.8845437E+00
 6.8752452E+00 8.7486511E-01 1.8667202E+00
 5.5917974E+00 1.2550467E+00 1.8990248E+00
 5.6674710E+00 1.2362443E+00 1.9072223E+00
 5.7441480E+00 1.2173460E+00 1.9150054E+00
 5.8218415E+00 1.1977344E+00 1.9222994E+00
 5.9004827E+00 1.1770835E+00 1.9289012E+00
 5.9798951E+00 1.1552572E+00 1.9345421E+00
 6.0598103E+00 1.1322156E+00 1.9389428E+00
 6.1398993E+00 1.1079687E+00 1.9418507E+00
 6.2197953E+00 1.0825575E+00 1.9430596E+00
 6.2991019E+00 1.0560440E+00 1.9424141E+00
 6.3773920E+00 1.0285008E+00 1.9397990E+00
 6.4542168E+00 1.0000001E+00 1.9351223E+00
 6.5291371E+00 9.7060250E-01 1.9282946E+00
 6.6017919E+00 9.4035424E-01 1.9192112E+00
 6.6720168E+00 9.0931318E-01 1.9077309E+00
 6.7400198E+00 8.7762398E-01 1.8936470E+00
 6.8065213E+00 8.4562232E-01 1.8766506E+00
 5.5928227E+00 1.2111351E+00 1.9103899E+00
 5.6693286E+00 1.1910559E+00 1.9178875E+00
 5.7466698E+00 1.1707364E+00 1.9249435E+00
 5.8248350E+00 1.1496377E+00 1.9314234E+00
 5.9037385E+00 1.1274919E+00 1.9370908E+00
 5.9831910E+00 1.1042034E+00 1.9416646E+00
 6.0629149E+00 1.0797632E+00 1.9448650E+00
 6.1425753E+00 1.0542064E+00 1.9464473E+00
 6.2218046E+00 1.0275939E+00 1.9462177E+00
 6.3002128E+00 1.0000001E+00 1.9440353E+00
 6.3773920E+00 9.7149946E-01 1.9397990E+00
 6.4529329E+00 9.4215326E-01 1.9334270E+00
 6.5264736E+00 9.1200295E-01 1.9248321E+00
 6.5978031E+00 8.8108821E-01 1.9138971E+00
 6.6670276E+00 8.4951141E-01 1.9004470E+00
 6.7347204E+00 8.1753535E-01 1.8842235E+00
 5.5936878E+00 1.1658012E+00 1.9197699E+00
 5.6708404E+00 1.1445355E+00 1.9264214E+00
 5.7486351E+00 1.1228902E+00 1.9325896E+00
 5.8270442E+00 1.1004155E+00 1.9380880E+00
 5.9059696E+00 1.0769085E+00 1.9426554E+00
 5.9852137E+00 1.0523168E+00 1.9460043E+00
 6.0644946E+00 1.0266617E+00 1.9478604E+00
 6.1434783E+00 1.0000001E+00 1.9479911E+00
 6.2218046E+00 9.7240632E-01 1.9462177E+00
 6.2991019E+00 9.4395626E-01 1.9424140E+00
 6.3749977E+00 9.1471221E-01 1.9364898E+00
 6.4491490E+00 8.8471173E-01 1.9283659E+00
 6.5213197E+00 8.5397823E-01 1.9179447E+00
 6.5915264E+00 8.2257376E-01 1.9050831E+00
 6.6601913E+00 7.9068956E-01 1.8895697E+00
 5.5943625E+00 1.1193020E+00 1.9269819E+00
 5.6719560E+00 1.0969644E+00 1.9326517E+00
 5.7499809E+00 1.0741172E+00 1.9377832E+00
 5.8283985E+00 1.0504090E+00 1.9421487E+00
 5.9071036E+00 1.0257063E+00 1.9454705E+00
 5.9858956E+00 1.0000001E+00 1.9474623E+00
 6.0644946E+00 9.7333856E-01 1.9478604E+00
 6.1425753E+00 9.4579388E-01 1.9464473E+00
 6.2197953E+00 9.1744271E-01 1.9430596E+00
 6.2958147E+00 8.8834826E-01 1.9375824E+00
 6.3703156E+00 8.5854568E-01 1.9299282E+00
 6.4430546E+00 8.2804474E-01 1.9200087E+00
 6.5139766E+00 7.9687133E-01 1.9077046E+00
 6.5833612E+00 7.6514995E-01 1.8928459E+00
 5.5948244E+00 1.0719371E+00 1.9318776E+00
 5.6726395E+00 1.0486676E+00 1.9364457E+00
 5.7506645E+00 1.0247705E+00 1.9404099E+00
 5.8288548E+00 1.0000001E+00 1.9435128E+00
 5.9071036E+00 9.7429394E-01 1.9454705E+00
 5.9852137E+00 9.4768343E-01 1.9460043E+00
 6.0629148E+00 9.2023707E-01 1.9448650E+00
 6.1398993E+00 8.9203154E-01 1.9418506E+00
 6.2158529E+00 8.6313103E-01 1.9368097E+00
 6.2904788E+00 8.3356952E-01 1.9296304E+00
 6.3635312E+00 8.0334636E-01 1.9202162E+00
 6.4348971E+00 7.7245645E-01 1.9084588E+00
 6.5047252E+00 7.4096471E-01 1.8942174E+00
 5.5950589E+00 1.0240391E+00 1.9343525E+00
 5.6728696E+00 1.0000001E+00 1.9377199E+00
 5.7506645E+00 9.7522969E-01 1.9404099E+00
 5.8283985E+00 9.4959128E-01 1.9421487E+00
 5.9059695E+00 9.2309178E-01 1.9426554E+00
 5.9831910E+00 8.9579685E-01 1.9416646E+00
 6.0598103E+00 8.6778464E-01 1.9389427E+00
 6.1355448E+00 8.3912108E-01 1.9343003E+00
 6.2101128E+00 8.0984018E-01 1.9275894E+00
 6.2832616E+00 7.7993391E-01 1.9186888E+00
 6.3548224E+00 7.4937194E-01 1.9074826E+00
 6.4248213E+00 7.1816770E-01 1.8938425E+00
 5.5950589E+00 9.7596107E-01 1.9343525E+00
 5.6726394E+00 9.5133264E-01 1.9364457E+00
 5.7499809E+00 9.2588302E-01 1.9377832E+00
 5.8270441E+00 8.9958478E-01 1.9380880E+00
 5.9037385E+00 8.7250837E-01 1.9370908E+00
 5.9798951E+00 8.4474308E-01 1.9345421E+00
 6.0552840E+00 8.1636148E-01 1.9302217E+00
 6.1296451E+00 7.8739988E-01 1.9239442E+00
 6.2027138E+00 7.5784583E-01 1.9155522E+00
 6.2742606E+00 7.2764936E-01 1.9049044E+00
 6.3441874E+00 6.9678092E-01 1.8918647E+00
 5.5948244E+00 9.2806306E-01 1.9318776E+00
 5.6719560E+00 9.0303579E-01 1.9326517E+00
 5.7486351E+00 8.7711002E-01 1.9325896E+00
 5.8248349E+00 8.5036254E-01 1.9314233E+00
 5.9004827E+00 8.2291675E-01 1.9289011E+00
 5.9754297E+00 7.9487001E-01 1.9247886E+00
 6.0494590E+00 7.6626955E-01 1.9188707E+00
 6.1223021E+00 7.3710296E-01 1.9109526E+00
 6.1936655E+00 7.0730610E-01 1.9008552E+00
 6.2633213E+00 6.7681460E-01 1.8884160E+00
 5.5943625E+00 8.8069819E-01 1.9269819E+00
 5.6708404E+00 8.5546473E-01 1.9264214E+00
 5.7466697E+00 8.2926386E-01 1.9249435E+00
 5.8218415E+00 8.0226580E-01 1.9222994E+00
 5.8963004E+00 7.7463063E-01 1.9182564E+00
 5.9699016E+00 7.4644305E-01 1.9125881E+00
 6.0423950E+00 7.1770333E-01 1.9050706E+00
 6.1134335E+00 6.8834075E-01 1.8954855E+00
 6.1826586E+00 6.5826445E-01 1.8836305E+00
 5.5936878E+00 8.3419898E-01 1.9197699E+00
 5.6693286E+00 8.0894438E-01 1.9178875E+00
 5.7441480E+00 7.8265426E-01 1.9150054E+00
 5.8181516E+00 7.5557451E-01 1.9108992E+00
 5.8912780E+00 7.2787916E-01 1.9053502E+00
 5.9633251E+00 6.9961677E-01 1.8981258E+00
 6.0339165E+00 6.7072797E-01 1.8889774E+00
 6.1025767E+00 6.4110631E-01 1.8776605E+00
 5.5928227E+00 7.8886515E-01 1.9103899E+00
 5.6674709E+00 7.6375593E-01 1.9072223E+00
 5.7411438E+00 7.3753011E-01 1.9029669E+00
 5.8138306E+00 7.1048448E-01 1.8974213E+00
 5.8853869E+00 6.8278051E-01 1.8903672E+00
 5.9554353E+00 6.5441514E-01 1.8815483E+00
 6.0234122E+00 6.2529113E-01 1.8706878E+00
 5.5917974E+00 7.4495357E-01 1.8990248E+00
 5.6653242E+00 7.2012375E-01 1.8946247E+00
 5.7377039E+00 6.9406033E-01 1.8890300E+00
 5.8088105E+00 6.6707998E-01 1.8820463E+00
 5.8782761E+00 6.3931785E-01 1.8734391E+00
 5.9454785E+00 6.1074212E-01 1.8629255E+00
 5.5906450E+00 7.0267191E-01 1.8858815E+00
 5.6629189E+00 6.7819915E-01 1.8803007E+00
 5.7337397E+00 6.5230740E-01 1.8733731E+00
 5.8026848E+00 6.2531356E-01 1.8648925E+00
 5.8690678E+00 5.9735659E-01 1.8546072E+00
 5.5893819E+00 6.6217428E-01 1.8711777E+00
 5.6601723E+00 6.3804077E-01 1.8644360E+00
 5.7288003E+00 6.1218956E-01 1.8560990E+00
 5.7944498E+00 5.8499953E-01 1.8459634E+00
 5.5879474E+00 6.2354017E-01 1.8551192E+00
 5.6567068E+00 5.9958739E-01 1.8471517E+00
 5.7218682E+00 5.7350097E-01 1.8371972E+00
 5.5861156E+00 5.8674938E-01 1.8378718E+00
 5.6514061E+00 5.6255766E-01 1.8283981E+00
 5.5833522E+00 5.5175862E-01 1.8195699E+00
 5.4796970E+00 1.5122401E+00 1.7766978E+00
 5.4389437E+00 1.5366007E+00 1.7585345E+00
 5.3964408E+00 1.5615108E+00 1.7388331E+00
 5.3524228E+00 1.5868212E+00 1.7175912E+00
 5.3070299E+00 1.6124411E+00 1.6947761E+00
 5.2605182E+00 1.6382680E+00 1.6703591E+00
 5.2131331E+00 1.6642027E+00 1.6443008E+00
 5.1651412E+00 1.6901277E+00 1.6165673E+00
 5.1168398E+00 1.7159053E+00 1.5871328E+00
 5.0685546E+00 1.7413727E+00 1.5559849E+00
 5.0206327E+00 1.7663417E+00 1.5231293E+00
 4.9734323E+00 1.7906004E+00 1.4885952E+00
 4.9273105E+00 1.8139173E+00 1.4524399E+00
 4.8826104E+00 1.8360496E+00 1.4147541E+00
 4.8396486E+00 1.8567524E+00 1.3756651E+00
 4.7987033E+00 1.8757914E+00 1.3353379E+00
 4.7600060E+00 1.8929559E+00 1.2939732E+00
 4.7237394E+00 1.9080701E+00 1.2518024E+00
 4.6900418E+00 1.9210015E+00 1.2090816E+00
 4.6590267E+00 1.9316664E+00 1.1660836E+00
 4.6308099E+00 1.9400267E+00 1.1231143E+00
 4.6054489E+00 1.9460957E+00 1.0804734E+00
 4.5829908E+00 1.9499365E+00 1.0386475E+00
 3.8346088E+00 1.0925293E+00 1.8010450E+00
 3.8255440E+00 1.1528353E+00 1.7858468E+00
 3.8196216E+00 1.2143845E+00 1.7673315E+00
 3.8177843E+00 1.2772076E+00 1.7457066E+00
 3.8206004E+00 1.3409509E+00 1.7209865E+00
 3.8284785E+00 1.4050480E+00 1.6931647E+00
 3.8417154E+00 1.4687965E+00 1.6622681E+00
 3.8605122E+00 1.5314025E+00 1.6283952E+00
 3.8849574E+00 1.5920058E+00 1.5917357E+00
 3.9150020E+00 1.6497149E+00 1.5525788E+00
 3.9504402E+00 1.7036523E+00 1.5113138E+00
 3.9909005E+00 1.7530100E+00 1.4684217E+00
 4.0358542E+00 1.7971073E+00 1.4244597E+00
 4.0846424E+00 1.8354473E+00 1.3800364E+00
 4.1365202E+00 1.8677614E+00 1.3357796E+00
 4.1907160E+00 1.8940357E+00 1.2922996E+00
 4.2464928E+00 1.9145108E+00 1.2501520E+00
 4.3031974E+00 1.9296522E+00 1.2098049E+00
 4.3602719E+00 1.9400966E+00 1.1716121E+00
 4.4172480E+00 1.9465839E+00 1.1357729E+00
 4.4737122E+00 1.9498912E+00 1.1022439E+00
 4.5291807E+00 1.9507753E+00 1.0706155E+00
 3.8875563E+00 1.1293275E+00 1.8279154E+00
 3.8817151E+00 1.1918348E+00 1.8124712E+00
 3.8788742E+00 1.2545362E+00 1.7934685E+00
 3.8801372E+00 1.3177821E+00 1.7711680E+00
 3.8861384E+00 1.3813524E+00 1.7456195E+00
 3.8972526E+00 1.4447111E+00 1.7168238E+00
 3.9137024E+00 1.5071445E+00 1.6848220E+00
 3.9355920E+00 1.5678332E+00 1.6497430E+00
 3.9629012E+00 1.6259063E+00 1.6118229E+00
 3.9954665E+00 1.6804924E+00 1.5714096E+00
 4.0329708E+00 1.7307763E+00 1.5289571E+00
 4.0749489E+00 1.7760589E+00 1.4850103E+00
 4.1208103E+00 1.8158139E+00 1.4401820E+00
 4.1698814E+00 1.8497343E+00 1.3951200E+00
 4.2214601E+00 1.8777602E+00 1.3504694E+00
 4.2748738E+00 1.9000809E+00 1.3068316E+00
 4.3295248E+00 1.9171088E+00 1.2647246E+00
 4.3849095E+00 1.9294296E+00 1.2245390E+00
 4.4406063E+00 1.9377427E+00 1.1864677E+00
 4.4962205E+00 1.9428005E+00 1.1503991E+00
 4.5513862E+00 1.9453548E+00 1.1156095E+00
 3.9456649E+00 1.1646304E+00 1.8514210E+00
 3.9428867E+00 1.2280977E+00 1.8354061E+00
 3.9431157E+00 1.2912971E+00 1.8157058E+00
 3.9474708E+00 1.3544989E+00 1.7925426E+00
 3.9565912E+00 1.4174807E+00 1.7659692E+00
 3.9708005E+00 1.4796918E+00 1.7360014E+00
 3.9902391E+00 1.5403966E+00 1.7027127E+00
 4.0149142E+00 1.5987670E+00 1.6662808E+00
 4.0447011E+00 1.6539489E+00 1.6270048E+00
 4.0793352E+00 1.7051263E+00 1.5853036E+00
 4.1184140E+00 1.7515847E+00 1.5417026E+00
 4.1614167E+00 1.7927701E+00 1.4968114E+00
 4.2077413E+00 1.8283373E+00 1.4512908E+00
 4.2567545E+00 1.8581799E+00 1.4058133E+00
 4.3078432E+00 1.8824352E+00 1.3610193E+00
 4.3604556E+00 1.9014611E+00 1.3174711E+00
 4.4141193E+00 1.9157913E+00 1.2755998E+00
 4.4684248E+00 1.9260818E+00 1.2356315E+00
 4.5229818E+00 1.9330632E+00 1.1974353E+00
 4.5773367E+00 1.9374822E+00 1.1603631E+00
 4.0085791E+00 1.1985859E+00 1.8708076E+00
 4.0087455E+00 1.2621955E+00 1.8539381E+00
 4.0119815E+00 1.3252282E+00 1.8333082E+00
 4.0193663E+00 1.3878212E+00 1.8090860E+00
 4.0314843E+00 1.4496808E+00 1.7813168E+00
 4.0485839E+00 1.5102224E+00 1.7500428E+00
 4.0707172E+00 1.5686994E+00 1.7153860E+00
 4.0977977E+00 1.6243006E+00 1.6775893E+00
 4.1296110E+00 1.6762258E+00 1.6370259E+00
 4.1658188E+00 1.7237556E+00 1.5941901E+00
 4.2059729E+00 1.7663140E+00 1.5496763E+00
 4.2495470E+00 1.8035199E+00 1.5041464E+00
 4.2959782E+00 1.8352194E+00 1.4582888E+00
 4.3447106E+00 1.8614936E+00 1.4127720E+00
 4.3952310E+00 1.8826395E+00 1.3681955E+00
 4.4470854E+00 1.8991311E+00 1.3250342E+00
 4.4998686E+00 1.9115740E+00 1.2835544E+00
 4.5531657E+00 1.9206632E+00 1.2436886E+00
 4.6064559E+00 1.9271353E+00 1.2048793E+00
 4.0758688E+00 1.2309426E+00 1.8855053E+00
 4.0788530E+00 1.2940637E+00 1.8675336E+00
 4.0849980E+00 1.3563257E+00 1.8457722E+00