# TIME = 8.800000
variables = x, y, z
zone N=5762 E=11520 F=FEPOINT ET=TRIANGLE
 5.7847803E+00 1.4924357E+00 1.7965307E+00
 5.7847804E+00 1.4924358E+00 2.0346931E-01
 5.7847804E+00 5.0756438E-01 1.7965306E+00
 5.7847805E+00 5.0756423E-01 2.0346921E-01
 4.0661561E+00 1.0000000E+00 1.7888660E+00
 7.4870743E+00 1.0000000E+00 1.7546770E+00
 4.0661562E+00 1.0000000E+00 2.1113427E-01
 7.4870743E+00 1.0000000E+00 2.4532310E-01
 4.8231905E+00 1.9494852E+00 1.0000001E+00
 4.8231906E+00 5.0514361E-02 1.0000000E+00
 6.7292022E+00 1.9263216E+00 1.0000000E+00
 6.7292022E+00 7.3678813E-02 1.0000000E+00
 5.7243347E+00 1.4820052E+00 1.8000139E+00
 5.6576298E+00 1.4704360E+00 1.8037094E+00
 5.5879606E+00 1.4584356E+00 1.8075708E+00
 5.5155701E+00 1.4460965E+00 1.8118087E+00
 5.4406110E+00 1.4335165E+00 1.8166585E+00
 5.3632347E+00 1.4207566E+00 1.8223978E+00
 5.2836086E+00 1.4078554E+00 1.8293025E+00
 5.2020146E+00 1.3948058E+00 1.8376072E+00
 5.1188896E+00 1.3815271E+00 1.8474398E+00
 5.0348621E+00 1.3678377E+00 1.8587396E+00
 4.9507139E+00 1.3534412E+00 1.8711780E+00
 4.8672536E+00 1.3379384E+00 1.8841236E+00
 4.7851655E+00 1.3208737E+00 1.8966733E+00
 4.7049150E+00 1.3018026E+00 1.9077442E+00
 4.6267504E+00 1.2803626E+00 1.9161972E+00
 4.5507902E+00 1.2563326E+00 1.9209673E+00
 4.4771680E+00 1.2296709E+00 1.9211865E+00
 4.4061694E+00 1.2005250E+00 1.9162831E+00
 4.3382656E+00 1.1692110E+00 1.9060342E+00
 4.2740255E+00 1.1361688E+00 1.8905551E+00
 4.2140216E+00 1.1019336E+00 1.8702538E+00
 4.1587441E+00 1.0671040E+00 1.8457490E+00
 4.1087144E+00 1.0324508E+00 1.8179114E+00
 5.7176313E+00 5.5262326E-01 1.8195577E+00
 5.6486778E+00 5.6622143E-01 1.8236506E+00
 5.5773769E+00 5.7970806E-01 1.8276315E+00
 5.5038384E+00 5.9330079E-01 1.8318743E+00
 5.4280013E+00 6.0711999E-01 1.8367282E+00
 5.3499576E+00 6.2118425E-01 1.8424989E+00
 5.2698813E+00 6.3550899E-01 1.8494660E+00
 5.1880752E+00 6.5013537E-01 1.8578408E+00
 5.1050165E+00 6.6517204E-01 1.8677059E+00
 5.0213710E+00 6.8081846E-01 1.8789350E+00
 4.9379310E+00 6.9737033E-01 1.8911251E+00
 4.8554787E+00 7.1519605E-01 1.9035781E+00
 4.7746460E+00 7.3468655E-01 1.9153506E+00
 4.6958428E+00 7.5619343E-01 1.9253557E+00
 4.6192770E+00 7.7997187E-01 1.9324885E+00
 4.5450495E+00 8.0613779E-01 1.9357503E+00
 4.4732899E+00 8.3464417E-01 1.9343590E+00
 4.4042601E+00 8.6527819E-01 1.9278282E+00
 4.3383529E+00 8.9767678E-01 1.9159920E+00
 4.2759624E+00 9.3135376E-01 1.8989554E+00
 4.2173097E+00 9.6572523E-01 1.8769743E+00
 4.1622495E+00 1.0000000E+00 1.8502741E+00
 5.7151627E+00 5.8814933E-01 1.8378531E+00
 5.6435810E+00 6.0372914E-01 1.8421097E+00
 5.5704740E+00 6.1873788E-01 1.8460494E+00
 5.4954947E+00 6.3372187E-01 1.8502002E+00
 5.4185720E+00 6.4890218E-01 1.8549456E+00
 5.3397035E+00 6.6439334E-01 1.8606191E+00
 5.2590467E+00 6.8025312E-01 1.8674938E+00
 5.1769127E+00 6.9655732E-01 1.8757573E+00
 5.0938089E+00 7.1343798E-01 1.8854479E+00
 5.0104288E+00 7.3110633E-01 1.8963784E+00
 4.9275672E+00 7.4984806E-01 1.9080782E+00
 4.8459771E+00 7.6999250E-01 1.9197933E+00
 4.7662417E+00 7.9186309E-01 1.9305507E+00
 4.6887199E+00 8.1572472E-01 1.9392688E+00
 4.6135797E+00 8.4174046E-01 1.9448815E+00
 4.5408913E+00 8.6994168E-01 1.9464532E+00
 4.4707383E+00 9.0021207E-01 1.9432707E+00
 4.4032719E+00 9.3228299E-01 1.9348907E+00
 4.3386426E+00 9.6573557E-01 1.9211135E+00
 4.2768277E+00 1.0000000E+00 1.9018721E+00
 4.2173097E+00 1.0342748E+00 1.8769744E+00
 5.7135824E+00 6.2531631E-01 1.8550539E+00
 5.6402505E+00 6.4243730E-01 1.8591178E+00
 5.5655618E+00 6.5892829E-01 1.8628536E+00
 5.4892936E+00 6.7532022E-01 1.8667680E+00
 5.4113141E+00 6.9192860E-01 1.8712698E+00
 5.3316281E+00 7.0891190E-01 1.8766922E+00
 5.2503826E+00 7.2636917E-01 1.8832994E+00
 5.1679104E+00 7.4440266E-01 1.8912522E+00
 5.0847468E+00 7.6316379E-01 1.9005456E+00
 5.0016069E+00 7.8286768E-01 1.9109355E+00
 4.9192826E+00 8.0378192E-01 1.9218923E+00
 4.8384960E+00 8.2619179E-01 1.9326171E+00
 4.7597825E+00 8.5035546E-01 1.9421196E+00
 4.6834502E+00 8.7646135E-01 1.9493329E+00
 4.6096184E+00 9.0459515E-01 1.9532322E+00
 4.5382922E+00 9.3471585E-01 1.9529356E+00
 4.4694334E+00 9.6663579E-01 1.9477686E+00
 4.4029617E+00 1.0000000E+00 1.9372707E+00
 4.3386426E+00 1.0342645E+00 1.9211136E+00
 4.2759624E+00 1.0686463E+00 1.8989556E+00
 5.7123811E+00 6.6418543E-01 1.8710091E+00
 5.6377026E+00 6.8262415E-01 1.8746587E+00
 5.5617486E+00 7.0047138E-01 1.8780058E+00
 5.4843727E+00 7.1824625E-01 1.8815308E+00
 5.4054782E+00 7.3628284E-01 1.8856315E+00
 5.3250802E+00 7.5477114E-01 1.8906330E+00
 5.2433462E+00 7.7383380E-01 1.8967821E+00
 5.1606323E+00 7.9359461E-01 1.9042108E+00
 5.0775012E+00 8.1421666E-01 1.9128711E+00
 4.9946817E+00 8.3591183E-01 1.9224676E+00
 4.9129557E+00 8.5892360E-01 1.9324218E+00
 4.8330099E+00 8.8349264E-01 1.9419039E+00
 4.7553293E+00 9.0981811E-01 1.9499193E+00
 4.6801642E+00 9.3802255E-01 1.9554243E+00
 4.6075590E+00 9.6812277E-01 1.9574348E+00
 4.5373984E+00 1.0000001E+00 1.9551067E+00
 4.4694334E+00 1.0333643E+00 1.9477688E+00
 4.4032719E+00 1.0677171E+00 1.9348909E+00
 4.3383528E+00 1.1023233E+00 1.9159924E+00
 5.7113646E+00 7.0477329E-01 1.8855545E+00
 5.6355629E+00 7.2436366E-01 1.8886141E+00
 5.5585653E+00 7.4345873E-01 1.8914085E+00
 5.4802799E+00 7.6255342E-01 1.8943856E+00
 5.4006505E+00 7.8197959E-01 1.8979215E+00
 5.3197176E+00 8.0193740E-01 1.9023231E+00
 5.2376723E+00 8.2256452E-01 1.9078152E+00
 5.1548962E+00 8.4399808E-01 1.9144986E+00
 5.0719717E+00 8.6640671E-01 1.9222847E+00
 4.9896314E+00 8.8999337E-01 1.9308337E+00
 4.9086369E+00 9.1497553E-01 1.9395310E+00
 4.8296321E+00 9.4155285E-01 1.9475306E+00
 4.7530430E+00 9.6987322E-01 1.9538465E+00
 4.6790426E+00 1.0000002E+00 1.9574639E+00
 4.6075590E+00 1.0318775E+00 1.9574349E+00
 4.5382923E+00 1.0652843E+00 1.9529359E+00
 4.4707383E+00 1.0997881E+00 1.9432712E+00
 4.4042601E+00 1.1347220E+00 1.9278287E+00
 5.7104566E+00 7.4700768E-01 1.8985017E+00
 5.6336954E+00 7.6761628E-01 1.9008242E+00
 5.5558419E+00 7.8785712E-01 1.9029177E+00
 5.4768496E+00 8.0819088E-01 1.9051934E+00
 5.3966955E+00 8.2893514E-01 1.9080001E+00
 5.3154465E+00 8.5028835E-01 1.9116214E+00
 5.2333159E+00 8.7239519E-01 1.9162567E+00
 5.1507048E+00 8.9540044E-01 1.9219750E+00
 5.0682051E+00 9.1947372E-01 1.9286512E+00
 4.9865399E+00 9.4480720E-01 1.9359101E+00
 4.9064380E+00 9.7159445E-01 1.9431145E+00
 4.8284889E+00 1.0000002E+00 1.9494158E+00
 4.7530430E+00 1.0301272E+00 1.9538466E+00
 4.6801643E+00 1.0619778E+00 1.9554247E+00
 4.6096185E+00 1.0954051E+00 1.9532327E+00
 4.5408914E+00 1.1300586E+00 1.9464538E+00
 4.4732899E+00 1.1653560E+00 1.9343597E+00
 5.7096494E+00 7.9074506E-01 1.9096559E+00
 5.6320843E+00 8.1225426E-01 1.9111159E+00
 5.5535656E+00 8.3353444E-01 1.9123732E+00
 5.4740800E+00 8.5500930E-01 1.9138017E+00
 5.3936315E+00 8.7697220E-01 1.9157201E+00
 5.3123080E+00 8.9961286E-01 1.9183862E+00
 5.2303399E+00 9.2307748E-01 1.9219722E+00
 5.1481382E+00 9.4751504E-01 1.9265169E+00
 5.0662911E+00 9.7309487E-01 1.9318638E+00
 4.9854973E+00 1.0000003E+00 1.9376122E+00
 4.9064380E+00 1.0284060E+00 1.9431147E+00
 4.8296322E+00 1.0584476E+00 1.9475310E+00
 4.7553295E+00 1.0901823E+00 1.9499199E+00
 4.6834505E+00 1.1235390E+00 1.9493336E+00
 4.6135800E+00 1.1582599E+00 1.9448823E+00
 4.5450497E+00 1.1938625E+00 1.9357512E+00
 5.7089620E+00 8.3579122E-01 1.9188337E+00
 5.6307656E+00 8.5808023E-01 1.9193222E+00
 5.5517853E+00 8.8028262E-01 1.9196214E+00
 5.4720322E+00 9.0278056E-01 1.9200679E+00
 5.3915302E+00 9.2583690E-01 1.9209497E+00
 5.3103820E+00 9.4962767E-01 1.9224979E+00
 5.2288264E+00 9.7429793E-01 1.9248580E+00
 5.1472728E+00 1.0000002E+00 1.9280408E+00
 5.0662910E+00 1.0269056E+00 1.9318639E+00
 4.9865399E+00 1.0551933E+00 1.9359103E+00
 4.9086370E+00 1.0850250E+00 1.9395315E+00
 4.8330100E+00 1.1165079E+00 1.9419046E+00
 4.7597828E+00 1.1496450E+00 1.9421205E+00
 4.6887203E+00 1.1842757E+00 1.9392698E+00
 4.6192773E+00 1.2200285E+00 1.9324896E+00
 5.7084201E+00 8.8190768E-01 1.9258731E+00
 5.6297852E+00 9.0484424E-01 1.9252978E+00
 5.5505600E+00 9.2783611E-01 1.9245322E+00
 5.4707728E+00 9.5121881E-01 1.9238771E+00
 5.3904602E+00 9.7522018E-01 1.9235906E+00
 5.3097321E+00 1.0000001E+00 1.9238777E+00
 5.2288263E+00 1.0257024E+00 1.9248580E+00
 5.1481381E+00 1.0524853E+00 1.9265171E+00
 5.0682049E+00 1.0805267E+00 1.9286515E+00
 4.9896313E+00 1.1100071E+00 1.9308342E+00
 4.9129557E+00 1.1410770E+00 1.9324225E+00
 4.8384963E+00 1.1738088E+00 1.9326181E+00
 4.7662423E+00 1.2081374E+00 1.9305518E+00
 4.6958433E+00 1.2438070E+00 1.9253570E+00
 5.7080461E+00 9.2881827E-01 1.9306435E+00
 5.6291811E+00 9.5225655E-01 1.9289306E+00
 5.5499353E+00 9.7588901E-01 1.9270121E+00
 5.4703476E+00 1.0000001E+00 1.9251553E+00
 5.3904602E+00 1.0247800E+00 1.9235906E+00
 5.3103819E+00 1.0503726E+00 1.9224980E+00
 5.2303398E+00 1.0769228E+00 1.9219723E+00
 5.1507046E+00 1.1045999E+00 1.9219753E+00
 5.0719715E+00 1.1335937E+00 1.9222852E+00
 4.9946815E+00 1.1640887E+00 1.9224683E+00
 4.9192825E+00 1.1962186E+00 1.9218932E+00
 4.8459774E+00 1.2300081E+00 1.9197945E+00
 4.7746466E+00 1.2653140E+00 1.9153519E+00
 5.7078552E+00 9.7621774E-01 1.9330524E+00
 5.6289770E+00 1.0000000E+00 1.9301496E+00
 5.5499353E+00 1.0241111E+00 1.9270121E+00
 5.4707727E+00 1.0487813E+00 1.9238771E+00
 5.3915301E+00 1.0741633E+00 1.9209497E+00
 5.3123078E+00 1.1003874E+00 1.9183863E+00
 5.2333156E+00 1.1276051E+00 1.9162569E+00
 5.1548959E+00 1.1560023E+00 1.9144989E+00
 5.0775008E+00 1.1857838E+00 1.9128717E+00
 5.0016066E+00 1.2171328E+00 1.9109363E+00
 4.9275671E+00 1.2501525E+00 1.9080793E+00
 4.8554790E+00 1.2848045E+00 1.9035794E+00
 5.7078552E+00 1.0237823E+00 1.9330524E+00
 5.6291811E+00 1.0477435E+00 1.9289306E+00
 5.5505599E+00 1.0721640E+00 1.9245322E+00
 5.4720321E+00 1.0972196E+00 1.9200679E+00
 5.3936313E+00 1.1230280E+00 1.9157202E+00
 5.3154462E+00 1.1497119E+00 1.9116215E+00
 5.2376720E+00 1.1774358E+00 1.9078154E+00
 5.1606320E+00 1.2064057E+00 1.9042112E+00
 5.0847464E+00 1.2368366E+00 1.9005462E+00
 5.0104284E+00 1.2688941E+00 1.8963792E+00
 4.9379310E+00 1.3026302E+00 1.8911262E+00
 5.7080460E+00 1.0711818E+00 1.9306435E+00
 5.6297852E+00 1.0951558E+00 1.9252978E+00
 5.5517852E+00 1.1197175E+00 1.9196213E+00
 5.4740798E+00 1.1449908E+00 1.9138017E+00
 5.3966953E+00 1.1710650E+00 1.9080001E+00
 5.3197173E+00 1.1980628E+00 1.9023233E+00
 5.2433458E+00 1.2261665E+00 1.8967824E+00
 5.1679100E+00 1.2555977E+00 1.8912527E+00
 5.0938086E+00 1.2865624E+00 1.8854486E+00
 5.0213706E+00 1.3191820E+00 1.8789359E+00
 5.7084201E+00 1.1180924E+00 1.9258731E+00
 5.6307655E+00 1.1419198E+00 1.9193222E+00
 5.5535655E+00 1.1664656E+00 1.9123732E+00
 5.4768494E+00 1.1918092E+00 1.9051934E+00
 5.4006502E+00 1.2180205E+00 1.8979215E+00
 5.3250799E+00 1.2452290E+00 1.8906332E+00
 5.2503822E+00 1.2736311E+00 1.8832997E+00
 5.1769123E+00 1.3034430E+00 1.8757578E+00
 5.1050162E+00 1.3348283E+00 1.8677065E+00
 5.7089619E+00 1.1642088E+00 1.9188337E+00
 5.6320842E+00 1.1877458E+00 1.9111159E+00
 5.5558417E+00 1.2121430E+00 1.9029177E+00
 5.4802796E+00 1.2374467E+00 1.8943856E+00
 5.4054779E+00 1.2637173E+00 1.8856315E+00
 5.3316277E+00 1.2910883E+00 1.8766924E+00
 5.2590463E+00 1.3197471E+00 1.8674941E+00
 5.1880748E+00 1.3498649E+00 1.8578413E+00
 5.7096493E+00 1.2092550E+00 1.9096559E+00
 5.6336952E+00 1.2323838E+00 1.9008242E+00
 5.5585651E+00 1.2565413E+00 1.8914085E+00
 5.4843725E+00 1.2817538E+00 1.8815308E+00
 5.4113138E+00 1.3080715E+00 1.8712699E+00
 5.3397032E+00 1.3356068E+00 1.8606193E+00
 5.2698809E+00 1.3644912E+00 1.8494663E+00
 5.7104565E+00 1.2529924E+00 1.8985017E+00
 5.6355628E+00 1.2756364E+00 1.8886141E+00
 5.5617484E+00 1.2995287E+00 1.8780058E+00
 5.4892933E+00 1.3246798E+00 1.8667681E+00
 5.4185717E+00 1.3510979E+00 1.8549456E+00
 5.3499573E+00 1.3788159E+00 1.8424990E+00
 5.7113645E+00 1.2952268E+00 1.8855545E+00
 5.6377024E+00 1.3173759E+00 1.8746587E+00
 5.5655616E+00 1.3410718E+00 1.8628536E+00
 5.4954944E+00 1.3662782E+00 1.8502002E+00
 5.4280010E+00 1.3928801E+00 1.8367283E+00
 5.7123810E+00 1.3358146E+00 1.8710091E+00
 5.6402504E+00 1.3575627E+00 1.8591179E+00
 5.5704738E+00 1.3812622E+00 1.8460494E+00
 5.5038382E+00 1.4066992E+00 1.8318743E+00
 5.7135824E+00 1.3746837E+00 1.8550540E+00
 5.6435808E+00 1.3962709E+00 1.8421098E+00
 5.5773768E+00 1.4202920E+00 1.8276315E+00
 5.7151626E+00 1.4118507E+00 1.8378531E+00
 5.6486777E+00 1.4337786E+00 1.8236506E+00
 5.7176312E+00 1.4473768E+00 1.8195577E+00
 5.7850544E+00 1.4626960E+00 1.8142177E+00
 5.7853954E+00 1.4290376E+00 1.8324834E+00
 5.7856515E+00 1.3932861E+00 1.8499913E+00
 5.7858509E+00 1.3555390E+00 1.8664812E+00
 5.7860061E+00 1.3158978E+00 1.8817249E+00
 5.7861322E+00 1.2744963E+00 1.8954949E+00
 5.7862376E+00 1.2314806E+00 1.9075801E+00
 5.7863257E+00 1.1870358E+00 1.9177822E+00
 5.7863965E+00 1.1413879E+00 1.9259230E+00
 5.7864486E+00 1.0947994E+00 1.9318529E+00
 5.7864806E+00 1.0475644E+00 1.9354583E+00
 5.7864913E+00 1.0000000E+00 1.9366682E+00
 5.7864806E+00 9.5243563E-01 1.9354583E+00
 5.7864486E+00 9.0520063E-01 1.9318529E+00
 5.7863965E+00 8.5861214E-01 1.9259230E+00
 5.7863257E+00 8.1296421E-01 1.9177821E+00
 5.7862377E+00 7.6851946E-01 1.9075801E+00
 5.7861323E+00 7.2550373E-01 1.8954949E+00
 5.7860062E+00 6.8410226E-01 1.8817249E+00
 5.7858510E+00 6.4446111E-01 1.8664811E+00
 5.7856516E+00 6.0671398E-01 1.8499913E+00
 5.7853955E+00 5.7096244E-01 1.8324834E+00
 5.7850545E+00 5.3730410E-01 1.8142177E+00
 5.8454316E+00 5.1538869E-01 1.8042804E+00
 5.9122141E+00 5.2431874E-01 1.8125285E+00
 5.9817320E+00 5.3399634E-01 1.8207057E+00
 6.0536013E+00 5.4453100E-01 1.8286586E+00
 6.1275532E+00 5.5600650E-01 1.8362208E+00
 6.2033148E+00 5.6851091E-01 1.8432515E+00
 6.2806576E+00 5.8211400E-01 1.8496313E+00
 6.3593357E+00 5.9686645E-01 1.8552655E+00
 6.4390946E+00 6.1280359E-01 1.8600815E+00
 6.5196448E+00 6.2995031E-01 1.8640206E+00
 6.6006358E+00 6.4832814E-01 1.8670221E+00
 6.6816409E+00 6.6796127E-01 1.8690062E+00
 6.7621635E+00 6.8888030E-01 1.8698575E+00
 6.8416697E+00 7.1112103E-01 1.8694171E+00
 6.9196327E+00 7.3471861E-01 1.8674850E+00
 6.9955716E+00 7.5969774E-01 1.8638346E+00
 7.0690699E+00 7.8606258E-01 1.8582345E+00
 7.1397737E+00 8.1378892E-01 1.8504727E+00
 7.2073783E+00 8.4282024E-01 1.8403792E+00
 7.2716167E+00 8.7306986E-01 1.8278405E+00
 7.3322187E+00 9.0439441E-01 1.8128192E+00
 7.3889201E+00 9.3657019E-01 1.7953482E+00
 7.4412854E+00 9.6909564E-01 1.7756246E+00
 5.8526723E+00 1.4501622E+00 1.8243906E+00
 5.9215796E+00 1.4390654E+00 1.8332487E+00
 5.9925887E+00 1.4276653E+00 1.8416652E+00
 6.0654523E+00 1.4155919E+00 1.8496235E+00
 6.1401040E+00 1.4025910E+00 1.8570659E+00
 6.2163468E+00 1.3885306E+00 1.8638797E+00
 6.2939627E+00 1.3733296E+00 1.8699567E+00
 6.3727189E+00 1.3569470E+00 1.8752029E+00
 6.4523563E+00 1.3393624E+00 1.8795434E+00
 6.5325722E+00 1.3205655E+00 1.8829152E+00
 6.6129977E+00 1.3005480E+00 1.8852519E+00
 6.6931898E+00 1.2792983E+00 1.8864670E+00
 6.7726452E+00 1.2567995E+00 1.8864392E+00
 6.8508366E+00 1.2330315E+00 1.8850073E+00
 6.9272558E+00 1.2079764E+00 1.8819753E+00
 7.0014480E+00 1.1816263E+00 1.8771285E+00
 7.0730286E+00 1.1539923E+00 1.8702540E+00
 7.1416903E+00 1.1251143E+00 1.8611584E+00
 7.2072089E+00 1.0950740E+00 1.8496792E+00
 7.2694801E+00 1.0640129E+00 1.8356751E+00
 7.3285935E+00 1.0321536E+00 1.8189903E+00
 7.3849996E+00 1.0000000E+00 1.7993677E+00
 5.8557314E+00 1.4145757E+00 1.8429824E+00
 5.9271579E+00 1.4013566E+00 1.8522704E+00
 5.9998196E+00 1.3882225E+00 1.8607897E+00
 6.0739570E+00 1.3745163E+00 1.8686901E+00
 6.1495177E+00 1.3599174E+00 1.8759355E+00
 6.2264053E+00 1.3442401E+00 1.8824431E+00
 6.3044394E+00 1.3274012E+00 1.8881093E+00
 6.3834056E+00 1.3093669E+00 1.8928423E+00
 6.4630456E+00 1.2901300E+00 1.8965664E+00
 6.5430453E+00 1.2696925E+00 1.8992164E+00
 6.6230202E+00 1.2480579E+00 1.9007227E+00
 6.7025153E+00 1.2252259E+00 1.9009946E+00
 6.7810255E+00 1.2011914E+00 1.8999079E+00
 6.8580357E+00 1.1759462E+00 1.8973016E+00
 6.9330638E+00 1.1494826E+00 1.8929849E+00
 7.0056980E+00 1.1218007E+00 1.8867517E+00
 7.0756253E+00 1.0929189E+00 1.8783944E+00
 7.1426702E+00 1.0628924E+00 1.8677075E+00
 7.2068607E+00 1.0318424E+00 1.8544696E+00
 7.2685320E+00 1.0000000E+00 1.8383939E+00
 7.3285935E+00 9.6784646E-01 1.8189903E+00
 5.8577848E+00 1.3772457E+00 1.8604327E+00
 5.9308831E+00 1.3622989E+00 1.8697365E+00
 6.0050133E+00 1.3474669E+00 1.8781891E+00
 6.0803013E+00 1.3321278E+00 1.8858896E+00
 6.1567649E+00 1.3158985E+00 1.8928193E+00
 6.2343144E+00 1.2985862E+00 1.8988932E+00
 6.3127981E+00 1.2801059E+00 1.9040116E+00
 6.3920063E+00 1.2604347E+00 1.9080827E+00
 6.4716772E+00 1.2395762E+00 1.9110317E+00
 6.5514846E+00 1.2175438E+00 1.9127934E+00
 6.6310318E+00 1.1943509E+00 1.9132967E+00
 6.7098572E+00 1.1700066E+00 1.9124493E+00
 6.7874615E+00 1.1445139E+00 1.9101264E+00
 6.8633520E+00 1.1178704E+00 1.9061683E+00
 6.9370906E+00 1.0900725E+00 1.9003868E+00
 7.0083451E+00 1.0611255E+00 1.8925742E+00
 7.0769475E+00 1.0310660E+00 1.8825043E+00
 7.1429749E+00 1.0000000E+00 1.8699166E+00
 7.2068607E+00 9.6815767E-01 1.8544696E+00
 7.2694801E+00 9.3598715E-01 1.8356751E+00
 5.8593419E+00 1.3381626E+00 1.8766071E+00
 5.9337318E+00 1.3216703E+00 1.8856785E+00
 6.0090418E+00 1.3052496E+00 1.8938605E+00
 6.0853278E+00 1.2883065E+00 1.9012021E+00
 6.1625804E+00 1.2704681E+00 1.9076628E+00
 6.2407136E+00 1.2515441E+00 1.9131507E+00
 6.3195741E+00 1.2314621E+00 1.9175629E+00
 6.3989513E+00 1.2102102E+00 1.9208089E+00
 6.4785748E+00 1.1878036E+00 1.9228158E+00
 6.5581089E+00 1.1642654E+00 1.9235197E+00
 6.6371496E+00 1.1396167E+00 1.9228505E+00
 6.7152377E+00 1.1138720E+00 1.9207161E+00
 6.7918918E+00 1.0870368E+00 1.9169922E+00
 6.8666591E+00 1.0591092E+00 1.9115191E+00
 6.9391781E+00 1.0300889E+00 1.9041042E+00
 7.0092532E+00 1.0000000E+00 1.8945225E+00
 7.0769475E+00 9.6893405E-01 1.8825043E+00
 7.1426702E+00 9.3710769E-01 1.8677075E+00
 7.2072089E+00 9.0492608E-01 1.8496792E+00
 5.8606348E+00 1.2973257E+00 1.8913505E+00
 5.9361018E+00 1.2794252E+00 1.8999925E+00
 6.0123873E+00 1.2615068E+00 1.9077209E+00
 6.0894930E+00 1.2430222E+00 1.9145335E+00
 6.1673784E+00 1.2236280E+00 1.9203604E+00
 6.2459443E+00 1.2031562E+00 1.9250971E+00
 6.3250311E+00 1.1815515E+00 1.9286375E+00
 6.4044213E+00 1.1588164E+00 1.9308929E+00
 6.4838377E+00 1.1349767E+00 1.9317937E+00
 6.5629397E+00 1.1100625E+00 1.9312793E+00
 6.6413247E+00 1.0840987E+00 1.9292818E+00
 6.7185480E+00 1.0570995E+00 1.9257105E+00
 6.7941633E+00 1.0290675E+00 1.9204405E+00
 6.8677862E+00 1.0000000E+00 1.9133074E+00
 6.9391781E+00 9.6991111E-01 1.9041042E+00
 7.0083451E+00 9.3887451E-01 1.8925741E+00
 7.0756253E+00 9.0708115E-01 1.8783944E+00
 7.1416903E+00 8.7488574E-01 1.8611584E+00
 5.8617672E+00 1.2548159E+00 1.9044768E+00
 5.9381528E+00 1.2356175E+00 1.9125211E+00
 6.0152350E+00 1.2162904E+00 1.9196273E+00
 6.0929730E+00 1.1963440E+00 1.9257432E+00
 6.1713006E+00 1.1754775E+00 1.9307703E+00
 6.2501045E+00 1.1535546E+00 1.9345915E+00
 6.3292174E+00 1.1305421E+00 1.9370990E+00
 6.4084167E+00 1.1064566E+00 1.9382074E+00
 6.4874225E+00 1.0813322E+00 1.9378521E+00
 6.5658968E+00 1.0552021E+00 1.9359770E+00
 6.6434501E+00 1.0280888E+00 1.9325168E+00
 6.7196678E+00 1.0000000E+00 1.9273810E+00
 6.7941633E+00 9.7093252E-01 1.9204405E+00
 6.8666591E+00 9.4089082E-01 1.9115191E+00
 6.9370906E+00 9.0992757E-01 1.9003868E+00
 7.0056980E+00 8.7819931E-01 1.8867517E+00
 7.0730286E+00 8.4600778E-01 1.8702539E+00
 5.8627609E+00 1.2107806E+00 1.9157891E+00
 5.9399122E+00 1.1903842E+00 1.9230867E+00
 6.0176076E+00 1.1697450E+00 1.9294135E+00
 6.0957769E+00 1.1484354E+00 1.9346733E+00
 6.1743351E+00 1.1262068E+00 1.9387421E+00
 6.2531586E+00 1.1029596E+00 1.9414938E+00
 6.3320754E+00 1.0786835E+00 1.9428212E+00
 6.4108624E+00 1.0534076E+00 1.9426445E+00
 6.4892439E+00 1.0271699E+00 1.9409047E+00
 6.5668941E+00 1.0000000E+00 1.9375502E+00
 6.6434501E+00 9.7191125E-01 1.9325168E+00
 6.7185480E+00 9.4290051E-01 1.9257105E+00
 6.7918918E+00 9.1296328E-01 1.9169922E+00
 6.8633520E+00 8.8212967E-01 1.9061682E+00
 6.9330638E+00 8.5051742E-01 1.8929849E+00
 7.0014480E+00 8.1837371E-01 1.8771285E+00
 5.8636011E+00 1.1654173E+00 1.9251002E+00
 5.9413479E+00 1.1439297E+00 1.9315156E+00
 6.0194599E+00 1.1220892E+00 1.9369182E+00
 6.0978476E+00 1.0995370E+00 1.9411745E+00
 6.1764143E+00 1.0760814E+00 1.9441410E+00
 6.2550317E+00 1.0516616E+00 1.9456867E+00
 6.3335285E+00 1.0262889E+00 1.9457082E+00
 6.4116870E+00 1.0000000E+00 1.9441319E+00
 6.4892439E+00 9.7283017E-01 1.9409047E+00
 6.5658968E+00 9.4479794E-01 1.9359770E+00
 6.6413247E+00 9.1590138E-01 1.9292817E+00
 6.7152377E+00 8.8612808E-01 1.9207161E+00
 6.7874615E+00 8.5548616E-01 1.9101263E+00
 6.8580357E+00 8.2405389E-01 1.8973016E+00
 6.9272558E+00 7.9202365E-01 1.8819752E+00
 5.8642609E+00 1.1189677E+00 1.9322439E+00
 5.9424138E+00 1.0965110E+00 1.9376556E+00
 6.0207336E+00 1.0735990E+00 1.9420043E+00
 6.0991204E+00 1.0499464E+00 1.9451269E+00
 6.1774725E+00 1.0254211E+00 1.9468670E+00
 6.2556634E+00 1.0000000E+00 1.9470933E+00
 6.3335285E+00 9.7371116E-01 1.9457082E+00
 6.4108624E+00 9.4659243E-01 1.9426444E+00
 6.4874225E+00 9.1866781E-01 1.9378521E+00
 6.5629397E+00 8.8993759E-01 1.9312792E+00
 6.6371496E+00 8.6038336E-01 1.9228504E+00
 6.7098572E+00 8.2999342E-01 1.9124493E+00
 6.7810255E+00 7.9880864E-01 1.8999078E+00
 6.8508366E+00 7.6696857E-01 1.8850072E+00
 5.8647156E+00 1.0717120E+00 1.9370857E+00
 5.9430701E+00 1.0484258E+00 1.9413892E+00
 6.0213827E+00 1.0245914E+00 1.9445732E+00
 6.0995499E+00 1.0000000E+00 1.9464533E+00
 6.1774725E+00 9.7457892E-01 1.9468670E+00
 6.2550316E+00 9.4833840E-01 1.9456867E+00
 6.3320754E+00 9.2131657E-01 1.9428212E+00
 6.4084166E+00 8.9354344E-01 1.9382074E+00
 6.4838377E+00 8.6502339E-01 1.9317936E+00
 6.5581089E+00 8.3573466E-01 1.9235197E+00
 6.6310318E+00 8.0564915E-01 1.9132966E+00
 6.7025153E+00 7.7477416E-01 1.9009945E+00
 6.7726452E+00 7.4320060E-01 1.8864391E+00
 5.8649475E+00 1.0239599E+00 1.9395312E+00
 5.9432917E+00 1.0000000E+00 1.9426421E+00
 6.0213827E+00 9.7540858E-01 1.9445732E+00
 6.0991203E+00 9.5005367E-01 1.9451269E+00
 6.1764142E+00 9.2391868E-01 1.9441410E+00
 6.2531585E+00 8.9704049E-01 1.9414937E+00
 6.3292174E+00 8.6945798E-01 1.9370989E+00
 6.4044212E+00 8.4118364E-01 1.9308929E+00
 6.4785748E+00 8.1219643E-01 1.9228157E+00
 6.5514846E+00 7.8245629E-01 1.9127933E+00
 6.6230202E+00 7.5194217E-01 1.9007226E+00
 6.6931898E+00 7.2070181E-01 1.8864669E+00
 5.8649475E+00 9.7604012E-01 1.9395312E+00
 5.9430701E+00 9.5157426E-01 1.9413892E+00
 6.0207336E+00 9.2640099E-01 1.9420043E+00
 6.0978476E+00 9.0046308E-01 1.9411745E+00
 6.1743351E+00 8.7379328E-01 1.9387420E+00
 6.2501044E+00 8.4644544E-01 1.9345915E+00
 6.3250310E+00 8.1844859E-01 1.9286374E+00
 6.3989513E+00 7.8978990E-01 1.9208088E+00
 6.4716771E+00 7.6042389E-01 1.9110317E+00
 6.5430453E+00 7.3030755E-01 1.8992163E+00
 6.6129977E+00 6.9945212E-01 1.8852519E+00
 5.8647156E+00 9.2828800E-01 1.9370857E+00
 5.9424138E+00 9.0348905E-01 1.9376555E+00
 6.0194599E+00 8.7791079E-01 1.9369181E+00
 6.0957769E+00 8.5156462E-01 1.9346732E+00
 6.1713005E+00 8.2452259E-01 1.9307702E+00
 6.2459443E+00 7.9684388E-01 1.9250970E+00
 6.3195741E+00 7.6853799E-01 1.9175628E+00
 6.3920063E+00 7.3956538E-01 1.9080826E+00
 6.4630456E+00 7.0987010E-01 1.8965663E+00
 6.5325722E+00 6.7943464E-01 1.8829151E+00
 5.8642609E+00 8.8103229E-01 1.9322438E+00
 5.9413479E+00 8.5607034E-01 1.9315155E+00
 6.0176075E+00 8.3025504E-01 1.9294134E+00
 6.0929730E+00 8.0365607E-01 1.9257432E+00
 6.1673784E+00 7.7637202E-01 1.9203603E+00
 6.2407135E+00 7.4845592E-01 1.9131506E+00
 6.3127981E+00 7.1989416E-01 1.9040115E+00
 6.3834056E+00 6.9063315E-01 1.8928422E+00
 6.4523563E+00 6.6063774E-01 1.8795433E+00
 5.8636011E+00 8.3458276E-01 1.9251001E+00
 5.9399122E+00 8.0961581E-01 1.9230867E+00
 6.0152349E+00 7.8370963E-01 1.9196272E+00
 6.0894930E+00 7.5697785E-01 1.9145334E+00
 6.1625803E+00 7.2953195E-01 1.9076627E+00
 6.2343144E+00 7.0141383E-01 1.8988932E+00
 6.3044394E+00 6.7259892E-01 1.8881092E+00
 6.3727189E+00 6.4305309E-01 1.8752028E+00
 5.8627609E+00 7.8921945E-01 1.9157891E+00
 5.9381528E+00 7.6438251E-01 1.9125211E+00
 6.0123873E+00 7.3849322E-01 1.9077208E+00
 6.0853277E+00 7.1169361E-01 1.9012021E+00
 6.1567649E+00 6.8410153E-01 1.8928192E+00
 6.2264053E+00 6.5575999E-01 1.8824430E+00
 6.2939626E+00 6.2667047E-01 1.8699566E+00
 5.8617672E+00 7.4518415E-01 1.9044767E+00
 5.9361018E+00 7.2057485E-01 1.8999925E+00
 6.0090418E+00 6.9475049E-01 1.8938604E+00
 6.0803013E+00 6.6787223E-01 1.8858896E+00
 6.1495176E+00 6.4008264E-01 1.8759354E+00
 6.2163467E+00 6.1146954E-01 1.8638796E+00
 5.8606348E+00 7.0267432E-01 1.8913505E+00
 5.9337318E+00 6.7832971E-01 1.8856784E+00
 6.0050132E+00 6.5253314E-01 1.8781891E+00
 6.0739570E+00 6.2548379E-01 1.8686900E+00
 6.1401039E+00 5.9740909E-01 1.8570658E+00
 5.8593419E+00 6.6183750E-01 1.8766071E+00
 5.9308831E+00 6.3770113E-01 1.8697364E+00
 5.9998196E+00 6.1177756E-01 1.8607896E+00
 6.0654523E+00 5.8440817E-01 1.8496234E+00
 5.8577848E+00 6.2275435E-01 1.8604327E+00
 5.9271578E+00 5.9864344E-01 1.8522703E+00
 5.9925887E+00 5.7233478E-01 1.8416651E+00
 5.8557314E+00 5.8542441E-01 1.8429824E+00
 5.9215796E+00 5.6093469E-01 1.8332486E+00
 5.8526723E+00 5.4983783E-01 1.8243905E+00
 5.7476409E+00 1.5150965E+00 1.7802654E+00
 5.7065589E+00 1.5396021E+00 1.7614324E+00
 5.6637305E+00 1.5644999E+00 1.7409636E+00
 5.6194327E+00 1.5895805E+00 1.7189250E+00
 5.5738065E+00 1.6147588E+00 1.6953155E+00
 5.5270758E+00 1.6399555E+00 1.6701373E+00
 5.4794592E+00 1.6651027E+00 1.6433855E+00
 5.4311974E+00 1.6901210E+00 1.6150653E+00
 5.3825633E+00 1.7149199E+00 1.5851870E+00
 5.3338625E+00 1.7393924E+00 1.5537670E+00
 5.2854322E+00 1.7634100E+00 1.5208275E+00
 5.2376345E+00 1.7868186E+00 1.4863992E+00
 5.1908441E+00 1.8094370E+00 1.4505246E+00
 5.1454328E+00 1.8310594E+00 1.4132628E+00
 5.1017518E+00 1.8514616E+00 1.3746960E+00
 5.0601146E+00 1.8704124E+00 1.3349341E+00
 5.0207862E+00 1.8876869E+00 1.2941191E+00
 4.9839808E+00 1.9030808E+00 1.2524247E+00
 4.9498672E+00 1.9164237E+00 1.2100527E+00
 4.9185842E+00 1.9275872E+00 1.1672247E+00
 4.8902535E+00 1.9364852E+00 1.1242083E+00
 4.8648859E+00 1.9430834E+00 1.0813028E+00
 4.8424331E+00 1.9474064E+00 1.0390441E+00
 4.0988897E+00 1.0943333E+00 1.8068338E+00
 4.0899625E+00 1.1557538E+00 1.7912776E+00
 4.0842182E+00 1.2182433E+00 1.7723760E+00
 4.0825296E+00 1.2817778E+00 1.7503642E+00
 4.0854236E+00 1.3460166E+00 1.7252868E+00
 4.0932913E+00 1.4104282E+00 1.6971699E+00
 4.1064103E+00 1.4743425E+00 1.6660616E+00
 4.1249564E+00 1.5369963E+00 1.6320635E+00
 4.1489966E+00 1.5975622E+00 1.5953526E+00
 4.1784738E+00 1.6551797E+00 1.5561950E+00
 4.2131910E+00 1.7089956E+00 1.5149504E+00
 4.2528024E+00 1.7582132E+00 1.4720689E+00
 4.2968186E+00 1.8021480E+00 1.4280780E+00
 4.3446299E+00 1.8402829E+00 1.3835622E+00
 4.3955482E+00 1.8723168E+00 1.3391343E+00
 4.4488633E+00 1.8981959E+00 1.2954018E+00
 4.5039043E+00 1.9181236E+00 1.2529305E+00
 4.5600870E+00 1.9325418E+00 1.2122077E+00
 4.6169223E+00 1.9420868E+00 1.1736069E+00
 4.6740078E+00 1.9475244E+00 1.1373414E+00
 4.7309878E+00 1.9496794E+00 1.1033837E+00
 4.7873747E+00 1.9493770E+00 1.0713709E+00
 4.1518474E+00 1.1318939E+00 1.8343169E+00
 4.1461633E+00 1.1956394E+00 1.8184961E+00
 4.1435247E+00 1.2593467E+00 1.7990814E+00
 4.1449137E+00 1.3232928E+00 1.7763518E+00
 4.1509269E+00 1.3872782E+00 1.7504008E+00
 4.1619412E+00 1.4508180E+00 1.7212762E+00
 4.1781722E+00 1.5132488E+00 1.6890451E+00
 4.1997034E+00 1.5737972E+00 1.6538365E+00
 4.2264947E+00 1.6316344E+00 1.6158689E+00
 4.2583769E+00 1.6859249E+00 1.5754615E+00
 4.2950458E+00 1.7358787E+00 1.5330349E+00
 4.3360676E+00 1.7808075E+00 1.4891008E+00
 4.3808999E+00 1.8201802E+00 1.4442418E+00
 4.4289308E+00 1.8536709E+00 1.3990832E+00
 4.4795327E+00 1.8811914E+00 1.3542573E+00
 4.5321174E+00 1.9029005E+00 1.3103633E+00
 4.5861730E+00 1.9191879E+00 1.2679235E+00
 4.6412732E+00 1.9306350E+00 1.2273308E+00
 4.6970603E+00 1.9379590E+00 1.1887753E+00
 4.7531964E+00 1.9419485E+00 1.1521652E+00
 4.8093703E+00 1.9434015E+00 1.1168498E+00
 4.2098548E+00 1.1678469E+00 1.8580921E+00
 4.2072509E+00 1.2326068E+00 1.8416577E+00
 4.2076965E+00 1.2968154E+00 1.8215001E+00
 4.2121479E+00 1.3606561E+00 1.7978622E+00
 4.2212124E+00 1.4239322E+00 1.7708521E+00
 4.2352291E+00 1.4861582E+00 1.7405381E+00
 4.2543388E+00 1.5466647E+00 1.7070180E+00
 4.2785316E+00 1.6046829E+00 1.6704656E+00
 4.3076672E+00 1.6594106E+00 1.6311570E+00
 4.3414815E+00 1.7100736E+00 1.5894780E+00
 4.3795944E+00 1.7559852E+00 1.5459180E+00
 4.4215297E+00 1.7966035E+00 1.5010507E+00
 4.4667515E+00 1.8315800E+00 1.4555067E+00
 4.5147121E+00 1.8607926E+00 1.4099355E+00
 4.5648979E+00 1.8843567E+00 1.3649634E+00
 4.6168596E+00 1.9026111E+00 1.3211429E+00
 4.6702132E+00 1.9160845E+00 1.2788922E+00
 4.7246139E+00 1.9254467E+00 1.2384214E+00
 4.7797264E+00 1.9314559E+00 1.1996119E+00
 4.8351642E+00 1.9348885E+00 1.1619203E+00
 4.2724832E+00 1.2022167E+00 1.8773888E+00
 4.2728210E+00 1.2670626E+00 1.8600575E+00
 4.2762501E+00 1.3310192E+00 1.8389262E+00
 4.2836669E+00 1.3941342E+00 1.8141931E+00
 4.2956342E+00 1.4561412E+00 1.7859662E+00
 4.3124263E+00 1.5165264E+00 1.7543389E+00
 4.3341021E+00 1.5746186E+00 1.7194534E+00
 4.3605638E+00 1.6296751E+00 1.6815441E+00
 4.3915907E+00 1.6809543E+00 1.6409570E+00
 4.4268570E+00 1.7277826E+00 1.5981507E+00
 4.4659542E+00 1.7696138E+00 1.5536810E+00
 4.5084227E+00 1.8060802E+00 1.5081731E+00
 4.5537911E+00 1.8370263E+00 1.4622841E+00
 4.6016127E+00 1.8625221E+00 1.4166581E+00
 4.6514867E+00 1.8828526E+00 1.3718736E+00
 4.7030549E+00 1.8984899E+00 1.3283817E+00
 4.7559758E+00 1.9100543E+00 1.2864235E+00
 4.8098782E+00 1.9182647E+00 1.2459392E+00
 4.8643035E+00 1.9238749E+00 1.2064845E+00
 4.3392482E+00 1.2347074E+00 1.8916422E+00
 4.3423549E+00 1.2989188E+00 1.8731713E+00
 4.3486104E+00 1.3619537E+00 1.8508701E+00