# TIME = 5.400000
variables = x, y, z
zone N=5762 E=11520 F=FEPOINT ET=TRIANGLE
 5.4901556E+00 1.4896717E+00 1.7920001E+00
 5.4901556E+00 1.4896717E+00 2.0799984E-01
 5.4901556E+00 5.1032847E-01 1.7920001E+00
 5.4901558E+00 5.1032837E-01 2.0799972E-01
 3.7761508E+00 1.0000001E+00 1.7830350E+00
 7.1904597E+00 1.0000001E+00 1.7560659E+00
 3.7761514E+00 1.0000001E+00 2.1696575E-01
 7.1904598E+00 1.0000001E+00 2.4393387E-01
 4.5383965E+00 1.9517293E+00 9.9999999E-01
 4.5383965E+00 4.8270560E-02 9.9999998E-01
 6.4345011E+00 1.9351296E+00 9.9999998E-01
 6.4345011E+00 6.4870767E-02 9.9999998E-01
 5.4305640E+00 1.4797580E+00 1.7958998E+00
 5.3647588E+00 1.4688915E+00 1.8003756E+00
 5.2959322E+00 1.4577196E+00 1.8053226E+00
 5.2243190E+00 1.4462475E+00 1.8109114E+00
 5.1501717E+00 1.4345122E+00 1.8172708E+00
 5.0737567E+00 1.4224988E+00 1.8245333E+00
 4.9953149E+00 1.4101638E+00 1.8327986E+00
 4.9151247E+00 1.3974213E+00 1.8421162E+00
 4.8335160E+00 1.3841363E+00 1.8524508E+00
 4.7508995E+00 1.3701160E+00 1.8636422E+00
 4.6677801E+00 1.3551049E+00 1.8753596E+00
 4.5847443E+00 1.3387901E+00 1.8870679E+00
 4.5024056E+00 1.3208236E+00 1.8980225E+00
 4.4213231E+00 1.3008651E+00 1.9073135E+00
 4.3419443E+00 1.2786379E+00 1.9139562E+00
 4.2646221E+00 1.2539859E+00 1.9170156E+00
 4.1897064E+00 1.2269121E+00 1.9157329E+00
 4.1176344E+00 1.1975899E+00 1.9096266E+00
 4.0489449E+00 1.1663427E+00 1.8985395E+00
 3.9842104E+00 1.1336011E+00 1.8826269E+00
 3.9239755E+00 1.0998729E+00 1.8623158E+00
 3.8686704E+00 1.0657019E+00 1.8382180E+00
 3.8187038E+00 1.0317689E+00 1.8111404E+00
 5.4237590E+00 5.5417324E-01 1.8151574E+00
 5.3558048E+00 5.6695679E-01 1.8200788E+00
 5.2853331E+00 5.7958218E-01 1.8252270E+00
 5.2125785E+00 5.9233756E-01 1.8309081E+00
 5.1375722E+00 6.0541061E-01 1.8373574E+00
 5.0605078E+00 6.1886600E-01 1.8447105E+00
 4.9816121E+00 6.3277598E-01 1.8530556E+00
 4.9011689E+00 6.4723716E-01 1.8624139E+00
 4.8195337E+00 6.6239325E-01 1.8727125E+00
 4.7371477E+00 6.7843935E-01 1.8837435E+00
 4.6545422E+00 6.9562121E-01 1.8951225E+00
 4.5723139E+00 7.1422156E-01 1.9062628E+00
 4.4910629E+00 7.3453116E-01 1.9163831E+00
 4.4113164E+00 7.5680648E-01 1.9245647E+00
 4.3334853E+00 7.8122289E-01 1.9298504E+00
 4.2578967E+00 8.0783488E-01 1.9313673E+00
 4.1848843E+00 8.3655624E-01 1.9284432E+00
 4.1148593E+00 8.6716361E-01 1.9206884E+00
 4.0482984E+00 8.9931577E-01 1.9080196E+00
 3.9856209E+00 9.3257068E-01 1.8906059E+00
 3.9269965E+00 9.6638504E-01 1.8687327E+00
 3.8721189E+00 1.0000001E+00 1.8425855E+00
 5.4213241E+00 5.8904289E-01 1.8331941E+00
 5.3507928E+00 6.0374100E-01 1.8383466E+00
 5.2786354E+00 6.1784614E-01 1.8435244E+00
 5.2045111E+00 6.3203384E-01 1.8492013E+00
 5.1284511E+00 6.4656642E-01 1.8556188E+00
 5.0505413E+00 6.6158103E-01 1.8629257E+00
 4.9709946E+00 6.7716693E-01 1.8711924E+00
 4.8901019E+00 6.9343620E-01 1.8804154E+00
 4.8082440E+00 7.1053901E-01 1.8904854E+00
 4.7258919E+00 7.2866915E-01 1.9011488E+00
 4.6436013E+00 7.4805581E-01 1.9119703E+00
 4.5619772E+00 7.6894382E-01 1.9223159E+00
 4.4816079E+00 7.9156184E-01 1.9313745E+00
 4.4029912E+00 8.1608415E-01 1.9382260E+00
 4.3265055E+00 8.4259562E-01 1.9419469E+00
 4.2524490E+00 8.7106902E-01 1.9417282E+00
 4.1811195E+00 9.0136030E-01 1.9369770E+00
 4.1128436E+00 9.3321592E-01 1.9273696E+00
 4.0478770E+00 9.6626949E-01 1.9128203E+00
 3.9861737E+00 1.0000001E+00 1.8933414E+00
 3.9269965E+00 1.0336151E+00 1.8687327E+00
 5.4197238E+00 6.2564679E-01 1.8502256E+00
 5.3475446E+00 6.4184641E-01 1.8552473E+00
 5.2738777E+00 6.5743661E-01 1.8603018E+00
 5.1985143E+00 6.7308954E-01 1.8658238E+00
 5.1213977E+00 6.8915410E-01 1.8720669E+00
 5.0426238E+00 7.0578860E-01 1.8791651E+00
 4.9623977E+00 7.2310493E-01 1.8871738E+00
 4.8810319E+00 7.4122400E-01 1.8960627E+00
 4.7989335E+00 7.6029978E-01 1.9056867E+00
 4.7166019E+00 7.8051770E-01 1.9157483E+00
 4.6346129E+00 8.0208242E-01 1.9257660E+00
 4.5535765E+00 8.2519390E-01 1.9350675E+00
 4.4740658E+00 8.5001691E-01 1.9428233E+00
 4.3965491E+00 8.7665001E-01 1.9481248E+00
 4.3213681E+00 9.0510353E-01 1.9500910E+00
 4.2487746E+00 9.3529037E-01 1.9479770E+00
 4.1789733E+00 9.6702398E-01 1.9412505E+00
 4.1120749E+00 1.0000001E+00 1.9295993E+00
 4.0478770E+00 1.0337306E+00 1.9128203E+00
 3.9856209E+00 1.0674295E+00 1.8906059E+00
 5.4184450E+00 6.6406726E-01 1.8660983E+00
 5.3449396E+00 6.8160499E-01 1.8707804E+00
 5.2700258E+00 6.9859921E-01 1.8755306E+00
 5.1935626E+00 7.1572231E-01 1.8807424E+00
 5.1155161E+00 7.3333022E-01 1.8866444E+00
 5.0359872E+00 7.5159868E-01 1.8933542E+00
 4.9552017E+00 7.7064791E-01 1.9009056E+00
 4.8734936E+00 7.9060487E-01 1.9092408E+00
 4.7912969E+00 8.1162001E-01 1.9181796E+00
 4.7091341E+00 8.3386322E-01 1.9273849E+00
 4.6275946E+00 8.5750722E-01 1.9363377E+00
 4.5472849E+00 8.8270360E-01 1.9443407E+00
 4.4687564E+00 9.0955643E-01 1.9505625E+00
 4.3924400E+00 9.3810110E-01 1.9541207E+00
 4.3186247E+00 9.6829300E-01 1.9541842E+00
 4.2474688E+00 1.0000001E+00 1.9500634E+00
 4.1789733E+00 1.0329761E+00 1.9412505E+00
 4.1128436E+00 1.0667842E+00 1.9273696E+00
 4.0482984E+00 1.1006844E+00 1.9080196E+00
 5.4172981E+00 7.0433741E-01 1.8806367E+00
 5.3426315E+00 7.2309903E-01 1.8848100E+00
 5.2666560E+00 7.4143793E-01 1.8890932E+00
 5.1892731E+00 7.5999954E-01 1.8938297E+00
 5.1104765E+00 7.7912796E-01 1.8992148E+00
 5.0303863E+00 7.9899916E-01 1.9053432E+00
 4.9492491E+00 8.1973662E-01 1.9122255E+00
 4.8674224E+00 8.4146615E-01 1.9197759E+00
 4.7853618E+00 8.6432857E-01 1.9277820E+00
 4.7036053E+00 8.8847164E-01 1.9358742E+00
 4.6227456E+00 9.1403243E-01 1.9435079E+00
 4.5433742E+00 9.4111580E-01 1.9499773E+00
 4.4660090E+00 9.6977506E-01 1.9544657E+00
 4.3910270E+00 1.0000001E+00 1.9561287E+00
 4.3186247E+00 1.0317071E+00 1.9541842E+00
 4.2487746E+00 1.0647098E+00 1.9479771E+00
 4.1811195E+00 1.0986398E+00 1.9369770E+00
 4.1148593E+00 1.1328365E+00 1.9206884E+00
 5.4162428E+00 7.4638222E-01 1.8936329E+00
 5.3405622E+00 7.6627729E-01 1.8971487E+00
 5.2637031E+00 7.8590006E-01 1.9008101E+00
 5.1856006E+00 8.0584693E-01 1.9049044E+00
 5.1062708E+00 8.2643843E-01 1.9095918E+00
 5.0258542E+00 8.4784189E-01 1.9149413E+00
 4.9446173E+00 8.7017770E-01 1.9209399E+00
 4.8629364E+00 8.9356522E-01 1.9274755E+00
 4.7812820E+00 9.1813030E-01 1.9343086E+00
 4.7001974E+00 9.4399541E-01 1.9410464E+00
 4.6202649E+00 9.7126316E-01 1.9471328E+00
 4.5420468E+00 1.0000001E+00 1.9518690E+00
 4.4660090E+00 1.0302251E+00 1.9544658E+00
 4.3924401E+00 1.0618991E+00 1.9541208E+00
 4.3213682E+00 1.0948966E+00 1.9500911E+00
 4.2524490E+00 1.1289311E+00 1.9417283E+00
 4.1848843E+00 1.1634439E+00 1.9284433E+00
 5.4153025E+00 7.9004845E-01 1.9048707E+00
 5.3387706E+00 8.1099124E-01 1.9075940E+00
 5.2612235E+00 8.3182078E-01 1.9104833E+00
 5.1826200E+00 8.5307395E-01 1.9137708E+00
 5.1029953E+00 8.7503727E-01 1.9175810E+00
 5.0225073E+00 8.9786367E-01 1.9219582E+00
 4.9414387E+00 9.2166549E-01 1.9268665E+00
 4.8601785E+00 9.4655151E-01 1.9321712E+00
 4.7792022E+00 9.7263028E-01 1.9376123E+00
 4.6990455E+00 1.0000002E+00 1.9427845E+00
 4.6202649E+00 1.0287372E+00 1.9471329E+00
 4.5433743E+00 1.0588845E+00 1.9499775E+00
 4.4687565E+00 1.0904438E+00 1.9505628E+00
 4.3965492E+00 1.1233502E+00 1.9481250E+00
 4.3265055E+00 1.1574046E+00 1.9419471E+00
 4.2578967E+00 1.1921653E+00 1.9313675E+00
 5.4145099E+00 8.3512912E-01 1.9141458E+00
 5.3373140E+00 8.5701859E-01 1.9159515E+00
 5.2592920E+00 8.7895495E-01 1.9179257E+00
 5.1804208E+00 9.0140529E-01 1.9202489E+00
 5.1007507E+00 9.2461481E-01 1.9230122E+00
 5.0204531E+00 9.4871719E-01 1.9262368E+00
 4.9398210E+00 9.7381350E-01 1.9298669E+00
 4.8592477E+00 1.0000002E+00 1.9337497E+00
 4.7792023E+00 1.0273702E+00 1.9376124E+00
 4.7001975E+00 1.0560050E+00 1.9410467E+00
 4.6227458E+00 1.0859679E+00 1.9435082E+00
 4.5472851E+00 1.1172967E+00 1.9443412E+00
 4.4740660E+00 1.1499834E+00 1.9428237E+00
 4.4029913E+00 1.1839161E+00 1.9382264E+00
 4.3334854E+00 1.2187773E+00 1.9298507E+00
 5.4138925E+00 8.8136825E-01 1.9212772E+00
 5.3362399E+00 9.0408114E-01 1.9220527E+00
 5.2579700E+00 9.2699777E-01 1.9229812E+00
 5.1790729E+00 9.5050557E-01 1.9241964E+00
 5.0996099E+00 9.7480262E-01 1.9257606E+00
 5.0197605E+00 1.0000002E+00 1.9276749E+00
 4.9398209E+00 1.0261870E+00 1.9298670E+00
 4.8601785E+00 1.0534490E+00 1.9321714E+00
 4.7812821E+00 1.0818702E+00 1.9343090E+00
 4.7036055E+00 1.1115288E+00 1.9358746E+00
 4.6275950E+00 1.1424932E+00 1.9363383E+00
 4.5535768E+00 1.1748064E+00 1.9350681E+00
 4.4816081E+00 1.2084385E+00 1.9313750E+00
 4.4113166E+00 1.2431938E+00 1.9245652E+00
 5.4134703E+00 9.2846749E-01 1.9261182E+00
 5.3355823E+00 9.5185825E-01 1.9257679E+00
 5.2572988E+00 9.7560260E-01 1.9255379E+00
 5.1786189E+00 1.0000001E+00 1.9255226E+00
 5.0996099E+00 1.0251977E+00 1.9257606E+00
 5.0204530E+00 1.0512832E+00 1.9262369E+00
 4.9414386E+00 1.0783350E+00 1.9268667E+00
 4.8629365E+00 1.1064353E+00 1.9274759E+00
 4.7853620E+00 1.1356719E+00 1.9277826E+00
 4.7091344E+00 1.1661372E+00 1.9273856E+00
 4.6346133E+00 1.1979180E+00 1.9257668E+00
 4.5619776E+00 1.2310566E+00 1.9223166E+00
 4.4910633E+00 1.2654692E+00 1.9163838E+00
 5.4132560E+00 9.7609627E-01 1.9285654E+00
 5.3353609E+00 1.0000001E+00 1.9270156E+00
 5.2572987E+00 1.0243976E+00 1.9255379E+00
 5.1790728E+00 1.0494947E+00 1.9241964E+00
 5.1007506E+00 1.0753855E+00 1.9230123E+00
 5.0225070E+00 1.1021367E+00 1.9219583E+00
 4.9446171E+00 1.1298227E+00 1.9209402E+00
 4.8674224E+00 1.1585343E+00 1.9197764E+00
 4.7912972E+00 1.1883805E+00 1.9181803E+00
 4.7166023E+00 1.2194828E+00 1.9157492E+00
 4.6436018E+00 1.2519447E+00 1.9119712E+00
 4.5723143E+00 1.2857789E+00 1.9062636E+00
 5.4132560E+00 1.0239039E+00 1.9285654E+00
 5.3355823E+00 1.0481419E+00 1.9257679E+00
 5.2579699E+00 1.0730024E+00 1.9229812E+00
 5.1804206E+00 1.0985949E+00 1.9202489E+00
 5.1029950E+00 1.1249630E+00 1.9175811E+00
 5.0258538E+00 1.1521585E+00 1.9149415E+00
 4.9492488E+00 1.1802638E+00 1.9122259E+00
 4.8734936E+00 1.2093956E+00 1.9092415E+00
 4.7989338E+00 1.2397008E+00 1.9056876E+00
 4.7258925E+00 1.2713314E+00 1.9011498E+00
 4.6545428E+00 1.3043793E+00 1.8951236E+00
 5.4134703E+00 1.0715326E+00 1.9261182E+00
 5.3362399E+00 1.0959190E+00 1.9220527E+00
 5.2592918E+00 1.1210452E+00 1.9179257E+00
 5.1826197E+00 1.1469263E+00 1.9137708E+00
 5.1062704E+00 1.1735618E+00 1.9095919E+00
 5.0303858E+00 1.2010012E+00 1.9053435E+00
 4.9552013E+00 1.2293525E+00 1.9009061E+00
 4.8810319E+00 1.2587765E+00 1.8960635E+00
 4.8082443E+00 1.2894615E+00 1.8904864E+00
 4.7371482E+00 1.3215612E+00 1.8837446E+00
 5.4138925E+00 1.1186319E+00 1.9212772E+00
 5.3373138E+00 1.1429816E+00 1.9159515E+00
 5.2612233E+00 1.1681794E+00 1.9104833E+00
 5.1856003E+00 1.1941533E+00 1.9049045E+00
 5.1104760E+00 1.2208723E+00 1.8992150E+00
 5.0359867E+00 1.2484017E+00 1.8933545E+00
 4.9623972E+00 1.2768955E+00 1.8871744E+00
 4.8901018E+00 1.3065643E+00 1.8804163E+00
 4.8195340E+00 1.3376073E+00 1.8727135E+00
 5.4145098E+00 1.1648710E+00 1.9141458E+00
 5.3387705E+00 1.1890089E+00 1.9075940E+00
 5.2637029E+00 1.2141001E+00 1.9008101E+00
 5.1892727E+00 1.2400007E+00 1.8938298E+00
 5.1155156E+00 1.2666700E+00 1.8866446E+00
 5.0426232E+00 1.2942117E+00 1.8791654E+00
 4.9709941E+00 1.3228335E+00 1.8711930E+00
 4.9011688E+00 1.3527633E+00 1.8624148E+00
 5.4153024E+00 1.2099517E+00 1.9048707E+00
 5.3405620E+00 1.2337229E+00 1.8971487E+00
 5.2666557E+00 1.2585622E+00 1.8890932E+00
 5.1935622E+00 1.2842779E+00 1.8807426E+00
 5.1213972E+00 1.3108462E+00 1.8720671E+00
 5.0505407E+00 1.3384193E+00 1.8629261E+00
 4.9816115E+00 1.3672244E+00 1.8530562E+00
 5.4162427E+00 1.2536179E+00 1.8936329E+00
 5.3426313E+00 1.2769011E+00 1.8848100E+00
 5.2700255E+00 1.3014010E+00 1.8755306E+00
 5.1985140E+00 1.3269107E+00 1.8658240E+00
 5.1284507E+00 1.3534338E+00 1.8556191E+00
 5.0605073E+00 1.3811343E+00 1.8447108E+00
 5.4172980E+00 1.2956627E+00 1.8806367E+00
 5.3449394E+00 1.3183952E+00 1.8707804E+00
 5.2738774E+00 1.3425636E+00 1.8603018E+00
 5.2045107E+00 1.3679664E+00 1.8492014E+00
 5.1375718E+00 1.3945896E+00 1.8373577E+00
 5.4184449E+00 1.3359329E+00 1.8660983E+00
 5.3475444E+00 1.3581537E+00 1.8552474E+00
 5.2786351E+00 1.3821540E+00 1.8435245E+00
 5.2125782E+00 1.4076626E+00 1.8309083E+00
 5.4197237E+00 1.3743533E+00 1.8502256E+00
 5.3507926E+00 1.3962591E+00 1.8383466E+00
 5.2853329E+00 1.4204180E+00 1.8252270E+00
 5.4213240E+00 1.4109572E+00 1.8331941E+00
 5.3558047E+00 1.4330434E+00 1.8200788E+00
 5.4237589E+00 1.4458269E+00 1.8151574E+00
 5.4903225E+00 1.4605342E+00 1.8092996E+00
 5.4904994E+00 1.4274119E+00 1.8272939E+00
 5.4906052E+00 1.3922414E+00 1.8445628E+00
 5.4906823E+00 1.3549857E+00 1.8609027E+00
 5.4907441E+00 1.3157278E+00 1.8760769E+00
 5.4907977E+00 1.2746042E+00 1.8898386E+00
 5.4908451E+00 1.2317640E+00 1.9019583E+00
 5.4908859E+00 1.1873976E+00 1.9122201E+00
 5.4909192E+00 1.1417419E+00 1.9204288E+00
 5.4909438E+00 1.0950760E+00 1.9264194E+00
 5.4909589E+00 1.0477151E+00 1.9300662E+00
 5.4909639E+00 1.0000001E+00 1.9312908E+00
 5.4909589E+00 9.5228503E-01 1.9300662E+00
 5.4909438E+00 9.0492415E-01 1.9264194E+00
 5.4909192E+00 8.5825824E-01 1.9204288E+00
 5.4908859E+00 8.1260248E-01 1.9122201E+00
 5.4908451E+00 7.6823613E-01 1.9019583E+00
 5.4907977E+00 7.2539596E-01 1.8898386E+00
 5.4907441E+00 6.8427233E-01 1.8760769E+00
 5.4906824E+00 6.4501439E-01 1.8609027E+00
 5.4906052E+00 6.0775869E-01 1.8445628E+00
 5.4904994E+00 5.7258823E-01 1.8272939E+00
 5.4903225E+00 5.3946595E-01 1.8092996E+00
 5.5498815E+00 5.1815716E-01 1.7993317E+00
 5.6157584E+00 5.2690678E-01 1.8074978E+00
 5.6845707E+00 5.3618507E-01 1.8159924E+00
 5.7560290E+00 5.4613635E-01 1.8247063E+00
 5.8298468E+00 5.5687397E-01 1.8334479E+00
 5.9057007E+00 5.6854485E-01 1.8420057E+00
 5.9833039E+00 5.8129446E-01 1.8501476E+00
 6.0623491E+00 5.9525744E-01 1.8576375E+00
 6.1425233E+00 6.1054581E-01 1.8642525E+00
 6.2234956E+00 6.2724201E-01 1.8697967E+00
 6.3049023E+00 6.4539910E-01 1.8741035E+00
 6.3863254E+00 6.6504550E-01 1.8770284E+00
 6.4672805E+00 6.8619203E-01 1.8784326E+00
 6.5472297E+00 7.0883656E-01 1.8781684E+00
 6.6256185E+00 7.3296455E-01 1.8760714E+00
 6.7019210E+00 7.5854489E-01 1.8719651E+00
 6.7756719E+00 7.8552350E-01 1.8656750E+00
 6.8464775E+00 8.1381721E-01 1.8570491E+00
 6.9140053E+00 8.4330942E-01 1.8459780E+00
 6.9779677E+00 8.7385211E-01 1.8324126E+00
 7.0380777E+00 9.0525024E-01 1.8163876E+00
 7.0940747E+00 9.3726849E-01 1.7980119E+00
 7.1455783E+00 9.6946737E-01 1.7775436E+00
 5.5569871E+00 1.4480372E+00 1.8190622E+00
 5.6249362E+00 1.4372542E+00 1.8278496E+00
 5.6953266E+00 1.4263424E+00 1.8366509E+00
 5.7678645E+00 1.4148882E+00 1.8454678E+00
 5.8424666E+00 1.4025872E+00 1.8542106E+00
 5.9188878E+00 1.3892681E+00 1.8626696E+00
 5.9968557E+00 1.3747906E+00 1.8706040E+00
 6.0760714E+00 1.3590443E+00 1.8777664E+00
 6.1562138E+00 1.3419447E+00 1.8839276E+00
 6.2369392E+00 1.3234366E+00 1.8888902E+00
 6.3178661E+00 1.3034919E+00 1.8924892E+00
 6.3985581E+00 1.2821056E+00 1.8945823E+00
 6.4785181E+00 1.2592895E+00 1.8950335E+00
 6.5572084E+00 1.2350692E+00 1.8936996E+00
 6.6340893E+00 1.2094837E+00 1.8904248E+00
 6.7086623E+00 1.1825873E+00 1.8850485E+00
 6.7804961E+00 1.1544513E+00 1.8774195E+00
 6.8492378E+00 1.1251670E+00 1.8674133E+00
 6.9146140E+00 1.0948524E+00 1.8549441E+00
 6.9764712E+00 1.0636760E+00 1.8399539E+00
 7.0348876E+00 1.0318886E+00 1.8223624E+00
 7.0903787E+00 1.0000001E+00 1.8019556E+00
 5.5597090E+00 1.4131077E+00 1.8373320E+00
 5.6301877E+00 1.4002999E+00 1.8465684E+00
 5.7022009E+00 1.3877412E+00 1.8555198E+00
 5.7760426E+00 1.3746650E+00 1.8643719E+00
 5.8516272E+00 1.3607143E+00 1.8730283E+00
 5.9288133E+00 1.3456762E+00 1.8812898E+00
 6.0073486E+00 1.3294239E+00 1.8889016E+00
 6.0869381E+00 1.3118660E+00 1.8956073E+00
 6.1672517E+00 1.2929428E+00 1.9011725E+00
 6.2479299E+00 1.2726240E+00 1.9053992E+00
 6.3285722E+00 1.2509058E+00 1.9081249E+00
 6.4087237E+00 1.2278059E+00 1.9092108E+00
 6.4878764E+00 1.2033586E+00 1.9085254E+00
 6.5654948E+00 1.1776116E+00 1.9059327E+00
 6.6410574E+00 1.1506234E+00 1.9012888E+00
 6.7140995E+00 1.1224618E+00 1.8944497E+00
 6.7842424E+00 1.0932014E+00 1.8852828E+00
 6.8512298E+00 1.0629300E+00 1.8736712E+00
 6.9150058E+00 1.0317797E+00 1.8594912E+00
 6.9758825E+00 1.0000001E+00 1.8425412E+00
 7.0348876E+00 9.6811151E-01 1.8223624E+00
 5.5615119E+00 1.3763719E+00 1.8545573E+00
 5.6336145E+00 1.3619129E+00 1.8638297E+00
 5.7070983E+00 1.3476965E+00 1.8727748E+00
 5.7821296E+00 1.3329726E+00 1.8815141E+00
 5.8587104E+00 1.3173212E+00 1.8899545E+00
 5.9366917E+00 1.3005355E+00 1.8978755E+00
 6.0158348E+00 1.2824970E+00 1.9050118E+00
 6.0958340E+00 1.2631369E+00 1.9110976E+00
 6.1763462E+00 1.2424190E+00 1.9158954E+00
 6.2569949E+00 1.2203376E+00 1.9192088E+00
 6.3373615E+00 1.1969125E+00 1.9208795E+00
 6.4169764E+00 1.1721840E+00 1.9207751E+00
 6.4953264E+00 1.1462069E+00 1.9187718E+00
 6.5718864E+00 1.1190463E+00 1.9147440E+00
 6.6461639E+00 1.0907712E+00 1.9085615E+00
 6.7177485E+00 1.0614505E+00 1.9000940E+00
 6.7863675E+00 1.0311564E+00 1.8892107E+00
 6.8519862E+00 1.0000001E+00 1.8757589E+00
 6.9150058E+00 9.6822044E-01 1.8594912E+00
 6.9764712E+00 9.3632418E-01 1.8399539E+00
 5.5629337E+00 1.3377829E+00 1.8706032E+00
 5.6363483E+00 1.3218047E+00 1.8796844E+00
 5.7110515E+00 1.3059955E+00 1.8884271E+00
 5.7871441E+00 1.2896172E+00 1.8968920E+00
 5.8646057E+00 1.2722648E+00 1.9049489E+00
 5.9432851E+00 1.2537409E+00 1.9123575E+00
 6.0229293E+00 1.2339488E+00 1.9188381E+00
 6.1032208E+00 1.2128419E+00 1.9241191E+00
 6.1838008E+00 1.1904094E+00 1.9279629E+00
 6.2642778E+00 1.1666699E+00 1.9301779E+00
 6.3442195E+00 1.1416662E+00 1.9306135E+00
 6.4231497E+00 1.1154587E+00 1.9291469E+00
 6.5005609E+00 1.0881180E+00 1.9256657E+00
 6.5759520E+00 1.0597167E+00 1.9200571E+00
 6.6488821E+00 1.0303226E+00 1.9122026E+00
 6.7190416E+00 1.0000001E+00 1.9019736E+00
 6.7863675E+00 9.6884373E-01 1.8892107E+00
 6.8512298E+00 9.3707012E-01 1.8736712E+00
 6.9146140E+00 9.0514779E-01 1.8549441E+00
 5.5641948E+00 1.2973191E+00 1.8853024E+00
 5.6387565E+00 1.2799135E+00 1.8940083E+00
 5.7144986E+00 1.2625556E+00 1.9023705E+00
 5.7914781E+00 1.2445508E+00 1.9103834E+00
 5.8696485E+00 1.2255277E+00 1.9178757E+00
 5.9488423E+00 1.2053161E+00 1.9245846E+00
 6.0287920E+00 1.1838441E+00 1.9302198E+00
 6.1091653E+00 1.1610914E+00 1.9345071E+00
 6.1895910E+00 1.1370726E+00 1.9372131E+00
 6.2696669E+00 1.1118301E+00 1.9381549E+00
 6.3489550E+00 1.0854270E+00 1.9371936E+00
 6.4269836E+00 1.0579381E+00 1.9342191E+00
 6.5032660E+00 1.0294397E+00 1.9291324E+00
 6.5773480E+00 1.0000001E+00 1.9218323E+00
 6.6488821E+00 9.6967750E-01 1.9122026E+00
 6.7177485E+00 9.3854966E-01 1.9000940E+00
 6.7842424E+00 9.0679873E-01 1.8852828E+00
 6.8492378E+00 8.7483317E-01 1.8674133E+00
 5.5653485E+00 1.2550603E+00 1.8984466E+00
 5.6409101E+00 1.2362994E+00 1.9066121E+00
 5.7175141E+00 1.2174421E+00 1.9144215E+00
 5.7951842E+00 1.1978609E+00 1.9218024E+00
 5.8738527E+00 1.1772318E+00 1.9285443E+00
 5.9533352E+00 1.1554195E+00 1.9343657E+00
 6.0333503E+00 1.1323819E+00 1.9389699E+00
 6.1135548E+00 1.1081256E+00 1.9420851E+00
 6.1935690E+00 1.0826902E+00 1.9434866E+00
 6.2729873E+00 1.0561390E+00 1.9430042E+00
 6.3513767E+00 1.0285492E+00 1.9405134E+00
 6.4282843E+00 1.0000001E+00 1.9359185E+00
 6.5032660E+00 9.7056040E-01 1.9291324E+00
 6.5759520E+00 9.4028343E-01 1.9200571E+00
 6.6461639E+00 9.0922893E-01 1.9085615E+00
 6.7140994E+00 8.7753838E-01 1.8944497E+00
 6.7804961E+00 8.4554882E-01 1.8774195E+00
 5.5663747E+00 1.2111615E+00 1.9098160E+00
 5.6427731E+00 1.1911159E+00 1.9172865E+00
 5.7200448E+00 1.1708273E+00 1.9243743E+00
 5.7981905E+00 1.1497478E+00 1.9309454E+00
 5.8771252E+00 1.1276113E+00 1.9367561E+00
 5.9566511E+00 1.1043226E+00 1.9415116E+00
 6.0364767E+00 1.0798708E+00 1.9449145E+00
 6.1162521E+00 1.0542895E+00 1.9467005E+00
 6.1955963E+00 1.0276399E+00 1.9466578E+00
 6.2741094E+00 1.0000001E+00 1.9446318E+00
 6.3513767E+00 9.7145092E-01 1.9405133E+00
 6.4269836E+00 9.4206204E-01 1.9342190E+00
 6.5005609E+00 9.1188218E-01 1.9256656E+00
 6.5718864E+00 8.8095386E-01 1.9147440E+00
 6.6410574E+00 8.4937672E-01 1.9012888E+00
 6.7086623E+00 8.1741287E-01 1.8850485E+00
 5.5672395E+00 1.1658315E+00 1.9192020E+00
 5.6442876E+00 1.1445898E+00 1.9258303E+00
 5.7220158E+00 1.1229637E+00 1.9320339E+00
 5.8004080E+00 1.1004961E+00 1.9376262E+00
 5.8793668E+00 1.0769854E+00 1.9423376E+00
 5.9586855E+00 1.0523797E+00 1.9458670E+00
 6.0380673E+00 1.0266989E+00 1.9479220E+00
 6.1171622E+00 1.0000001E+00 1.9482509E+00
 6.1955963E+00 9.7236023E-01 1.9466578E+00
 6.2729873E+00 9.4386116E-01 1.9430042E+00
 6.3489550E+00 9.1457311E-01 1.9371936E+00
 6.4231498E+00 8.8454140E-01 1.9291469E+00
 6.4953264E+00 8.5379323E-01 1.9187717E+00
 6.5654948E+00 8.2238860E-01 1.9059327E+00
 6.6340893E+00 7.9051643E-01 1.8904248E+00
 5.5679132E+00 1.1193289E+00 1.9264200E+00
 5.6454043E+00 1.0970051E+00 1.9320690E+00
 5.7233646E+00 1.0741647E+00 1.9372378E+00
 5.8017668E+00 1.0504514E+00 1.9416974E+00
 5.8805059E+00 1.0257328E+00 1.9451617E+00
 5.9593712E+00 1.0000001E+00 1.9473304E+00
 6.0380673E+00 9.7330127E-01 1.9479220E+00
 6.1162521E+00 9.4571067E-01 1.9467005E+00
 6.1935690E+00 9.1730999E-01 1.9434866E+00
 6.2696669E+00 8.8817002E-01 1.9381549E+00
 6.3442195E+00 8.5833391E-01 1.9306135E+00
 6.4169764E+00 8.2781620E-01 1.9207750E+00
 6.4878764E+00 7.9664155E-01 1.9085254E+00
 6.5572084E+00 7.6493093E-01 1.8936995E+00
 5.5683740E+00 1.0719554E+00 1.9313204E+00
 5.6460880E+00 1.0486892E+00 1.9358686E+00
 5.7240494E+00 1.0247869E+00 1.9398700E+00
 5.8022245E+00 1.0000001E+00 1.9430652E+00
 5.8805059E+00 9.7426732E-01 1.9451617E+00
 5.9586855E+00 9.4762045E-01 1.9458670E+00
 6.0364767E+00 9.2012930E-01 1.9449145E+00
 6.1135548E+00 8.9187459E-01 1.9420851E+00
 6.1895910E+00 8.6292757E-01 1.9372130E+00
 6.2642778E+00 8.3333027E-01 1.9301778E+00
 6.3373615E+00 8.0308764E-01 1.9208795E+00
 6.4087237E+00 7.7219426E-01 1.9092107E+00
 6.4785181E+00 7.4071065E-01 1.8950335E+00
 5.5686079E+00 1.0240455E+00 1.9337979E+00
 5.6463182E+00 1.0000001E+00 1.9371447E+00
 5.7240494E+00 9.7521323E-01 1.9398700E+00
 5.8017668E+00 9.4954875E-01 1.9416974E+00
 5.8793668E+00 9.2301470E-01 1.9423376E+00
 5.9566511E+00 8.9567754E-01 1.9415116E+00
 6.0333503E+00 8.6761827E-01 1.9389698E+00
 6.1091653E+00 8.3890874E-01 1.9345070E+00
 6.1838008E+00 8.0959078E-01 1.9279628E+00
 6.2569949E+00 7.7966256E-01 1.9192087E+00
 6.3285722E+00 7.4909435E-01 1.9081249E+00
 6.3985581E+00 7.1789455E-01 1.8945823E+00
 5.5686079E+00 9.7595456E-01 1.9337979E+00
 5.6460880E+00 9.5131091E-01 1.9358686E+00
 5.7233646E+00 9.2583544E-01 1.9372378E+00
 5.8004080E+00 8.9950406E-01 1.9376262E+00
 5.8771252E+00 8.7238887E-01 1.9367561E+00
 5.9533351E+00 8.4458061E-01 1.9343656E+00
 6.0287919E+00 8.1615603E-01 1.9302197E+00
 6.1032208E+00 7.8715823E-01 1.9241191E+00
 6.1763462E+00 7.5758117E-01 1.9158953E+00
 6.2479299E+00 7.2737613E-01 1.9053992E+00
 6.3178661E+00 6.9650826E-01 1.8924891E+00
 5.5683740E+00 9.2804471E-01 1.9313204E+00
 5.6454043E+00 9.0299504E-01 1.9320690E+00
 5.7220157E+00 8.7703644E-01 1.9320339E+00
 5.7981904E+00 8.5025231E-01 1.9309454E+00
 5.8738526E+00 8.2276838E-01 1.9285442E+00
 5.9488423E+00 7.9468406E-01 1.9245845E+00
 6.0229293E+00 7.6605130E-01 1.9188381E+00
 6.0958340E+00 7.3686325E-01 1.9110975E+00
 6.1672516E+00 7.0705736E-01 1.9011724E+00
 6.2369392E+00 6.7656362E-01 1.8888901E+00
 5.5679132E+00 8.8067118E-01 1.9264200E+00
 5.6442876E+00 8.5541029E-01 1.9258303E+00
 5.7200448E+00 8.2917287E-01 1.9243743E+00
 5.7951841E+00 8.0213921E-01 1.9218023E+00
 5.8696485E+00 7.7447241E-01 1.9178756E+00
 5.9432851E+00 7.4625920E-01 1.9123574E+00
 6.0158348E+00 7.1750312E-01 1.9050118E+00
 6.0869381E+00 6.8813419E-01 1.8956073E+00
 6.1562138E+00 6.5805543E-01 1.8839275E+00
 5.5672395E+00 8.3416859E-01 1.9192020E+00
 5.6427730E+00 8.0888425E-01 1.9172865E+00
 5.7175140E+00 7.8255805E-01 1.9144215E+00
 5.7914780E+00 7.5544932E-01 1.9103834E+00
 5.8646056E+00 7.2773532E-01 1.9049488E+00
 5.9366917E+00 6.9946470E-01 1.8978755E+00
 6.0073486E+00 6.7057624E-01 1.8889016E+00
 6.0760714E+00 6.4095584E-01 1.8777664E+00
 5.5663747E+00 7.8883862E-01 1.9098160E+00
 5.6409101E+00 7.6370075E-01 1.9066121E+00
 5.7144985E+00 7.3744449E-01 1.9023705E+00
 5.7871441E+00 7.1038292E-01 1.8968920E+00
 5.8587103E+00 6.8267896E-01 1.8899544E+00
 5.9288132E+00 6.5432394E-01 1.8812898E+00
 5.9968557E+00 6.2520956E-01 1.8706040E+00
 5.5653485E+00 7.4493982E-01 1.8984466E+00
 5.6387565E+00 7.2008662E-01 1.8940083E+00
 5.7110514E+00 6.9400465E-01 1.8884271E+00
 5.7821295E+00 6.6702751E-01 1.8815141E+00
 5.8516272E+00 6.3928588E-01 1.8730282E+00
 5.9188878E+00 6.1073203E-01 1.8626695E+00
 5.5641948E+00 7.0268104E-01 1.8853024E+00
 5.6363483E+00 6.7819541E-01 1.8796844E+00
 5.7070982E+00 6.5230361E-01 1.8727748E+00
 5.7760426E+00 6.2533511E-01 1.8643719E+00
 5.8424665E+00 5.9741297E-01 1.8542105E+00
 5.5629337E+00 6.6221726E-01 1.8706032E+00
 5.6336145E+00 6.3808724E-01 1.8638297E+00
 5.7022008E+00 6.1225892E-01 1.8555198E+00
 5.7678645E+00 5.8511198E-01 1.8454678E+00
 5.5615119E+00 6.2362822E-01 1.8545573E+00
 5.6301877E+00 5.9970021E-01 1.8465684E+00
 5.6953265E+00 5.7365774E-01 1.8366509E+00
 5.5597090E+00 5.8689242E-01 1.8373320E+00
 5.6249362E+00 5.6274595E-01 1.8278496E+00
 5.5569871E+00 5.5196295E-01 1.8190622E+00
 5.4534977E+00 1.5119708E+00 1.7763664E+00
 5.4127840E+00 1.5363305E+00 1.7582863E+00
 5.3703218E+00 1.5612575E+00 1.7386750E+00
 5.3263396E+00 1.5866071E+00 1.7175231E+00
 5.2809778E+00 1.6122858E+00 1.6947957E+00
 5.2344947E+00 1.6381877E+00 1.6704610E+00
 5.1871371E+00 1.6642105E+00 1.6444753E+00
 5.1391732E+00 1.6902325E+00 1.6168009E+00
 5.0909023E+00 1.7161107E+00 1.5874082E+00
 5.0426519E+00 1.7416766E+00 1.5562824E+00
 4.9947701E+00 1.7667359E+00 1.5234284E+00
 4.9476152E+00 1.7910713E+00 1.4888756E+00
 4.9015431E+00 1.8144469E+00 1.4526834E+00
 4.8568952E+00 1.8366167E+00 1.4149461E+00
 4.8139861E+00 1.8573344E+00 1.3757961E+00
 4.7730918E+00 1.8763660E+00 1.3354042E+00
 4.7344420E+00 1.8935026E+00 1.2939772E+00
 4.6982171E+00 1.9085717E+00 1.2517524E+00
 4.6645526E+00 1.9214451E+00 1.2089908E+00
 4.6335584E+00 1.9320437E+00 1.1659701E+00
 4.6053477E+00 1.9403345E+00 1.1230005E+00
 4.5799810E+00 1.9463356E+00 1.0803842E+00
 4.5575146E+00 1.9501145E+00 1.0386035E+00
 3.8088135E+00 1.0923331E+00 1.8003697E+00
 3.7997277E+00 1.1525162E+00 1.7852136E+00
 3.7937822E+00 1.2139649E+00 1.7667415E+00
 3.7919286E+00 1.2767131E+00 1.7451582E+00
 3.7947375E+00 1.3404017E+00 1.7204735E+00
 3.8026174E+00 1.4044593E+00 1.6926769E+00
 3.8158670E+00 1.4681797E+00 1.6617938E+00
 3.8346902E+00 1.5307651E+00 1.6279241E+00
 3.8591772E+00 1.5913522E+00 1.5912603E+00
 3.8892790E+00 1.6490465E+00 1.5520956E+00
 3.9247875E+00 1.7029698E+00 1.5108233E+00
 3.9653279E+00 1.7523149E+00 1.4679286E+00
 4.0103671E+00 1.7964042E+00 1.4239721E+00
 4.0592412E+00 1.8347454E+00 1.3795648E+00
 4.1112003E+00 1.8670756E+00 1.3353358E+00
 4.1654673E+00 1.8933863E+00 1.2918945E+00
 4.2212994E+00 1.9139221E+00 1.2497946E+00
 4.2780370E+00 1.9291504E+00 1.2095005E+00
 4.3351170E+00 1.9397063E+00 1.1713628E+00
 4.3920666E+00 1.9463252E+00 1.1355792E+00
 4.4484681E+00 1.9497769E+00 1.1021062E+00
 4.5038364E+00 1.9508100E+00 1.0705287E+00
 3.8617655E+00 1.1290355E+00 1.8271389E+00
 3.8558967E+00 1.1913938E+00 1.8117365E+00
 3.8530267E+00 1.2539782E+00 1.7927789E+00
 3.8542739E+00 1.3171445E+00 1.7705245E+00
 3.8602719E+00 1.3806658E+00 1.7450160E+00
 3.8713931E+00 1.4439979E+00 1.7162486E+00
 3.8878609E+00 1.5064206E+00 1.6842624E+00
 3.9097827E+00 1.5671096E+00 1.6491879E+00
 3.9371401E+00 1.6251898E+00 1.6112651E+00
 3.9697696E+00 1.6797870E+00 1.5708462E+00
 4.0073523E+00 1.7300852E+00 1.5283895E+00
 4.0494193E+00 1.7753865E+00 1.4844438E+00
 4.0953755E+00 1.8151671E+00 1.4396252E+00
 4.1445413E+00 1.8491240E+00 1.3945832E+00
 4.1962075E+00 1.8772013E+00 1.3499637E+00
 4.2496931E+00 1.8995916E+00 1.3063671E+00
 4.3043913E+00 1.9167090E+00 1.2643094E+00
 4.3597905E+00 1.9291385E+00 1.2241804E+00
 4.4154647E+00 1.9375757E+00 1.1861739E+00
 4.4710161E+00 1.9427674E+00 1.1501796E+00
 4.5260729E+00 1.9454597E+00 1.1154650E+00
 3.9198835E+00 1.1642560E+00 1.8505805E+00
 3.9170705E+00 1.2275607E+00 1.8346106E+00
 3.9172654E+00 1.2906369E+00 1.8149600E+00
 3.9216052E+00 1.3537618E+00 1.7918477E+00
 3.9307263E+00 1.4167052E+00 1.7653179E+00
 3.9449482E+00 1.4789064E+00 1.7353812E+00
 3.9644119E+00 1.5396215E+00 1.7021100E+00
 3.9891277E+00 1.5980161E+00 1.6656848E+00
 4.0189727E+00 1.6532312E+00 1.6264087E+00
 4.0536821E+00 1.7044479E+00 1.5847050E+00
 4.0928511E+00 1.7509507E+00 1.5411035E+00
 4.1359542E+00 1.7921860E+00 1.4962173E+00
 4.1823831E+00 1.8278108E+00 1.4507103E+00
 4.2314960E+00 1.8577211E+00 1.4052564E+00
 4.2826693E+00 1.8820567E+00 1.3604964E+00
 4.3353398E+00 1.9011765E+00 1.3169923E+00
 4.3890252E+00 1.9156139E+00 1.2751759E+00
 4.4433105E+00 1.9260216E+00 1.2352763E+00
 4.4978033E+00 1.9331252E+00 1.1971655E+00
 4.5520445E+00 1.9376679E+00 1.1601840E+00
 3.9828171E+00 1.1981585E+00 1.8699436E+00
 3.9829457E+00 1.2616085E+00 1.8531235E+00
 3.9861483E+00 1.3245238E+00 1.8325486E+00
 3.9935228E+00 1.3870498E+00 1.8083818E+00
 4.0056490E+00 1.4488848E+00 1.7806601E+00
 4.0227703E+00 1.5094337E+00 1.7494205E+00
 4.0449392E+00 1.5679413E+00 1.7147850E+00
 4.0720717E+00 1.6235890E+00 1.6769993E+00
 4.1039550E+00 1.6755714E+00 1.6364406E+00
 4.1402495E+00 1.7231658E+00 1.5936077E+00
 4.1805031E+00 1.7657946E+00 1.5490991E+00
 4.2241831E+00 1.8030768E+00 1.5035799E+00
 4.2707170E+00 1.8348595E+00 1.4577411E+00
 4.3195375E+00 1.8612248E+00 1.4122526E+00
 4.3701184E+00 1.8824704E+00 1.3677147E+00
 4.4219949E+00 1.8990693E+00 1.3246042E+00
 4.4747560E+00 1.9116238E+00 1.2831917E+00
 4.5279862E+00 1.9208243E+00 1.2434129E+00
 4.5811617E+00 1.9274054E+00 1.2046986E+00
 4.0501428E+00 1.2304933E+00 1.8846622E+00
 4.0530940E+00 1.2934696E+00 1.8667455E+00
 4.0592146E+00 1.3556288E+00 1.8450452E+00