# TIME = 6.800000
variables = x, y, z
zone N=5762 E=11520 F=FEPOINT ET=TRIANGLE
 5.6122051E+00 1.4908308E+00 1.7938985E+00
 5.6122051E+00 1.4908309E+00 2.0610120E-01
 5.6122051E+00 5.0916938E-01 1.7938985E+00
 5.6122053E+00 5.0916922E-01 2.0610108E-01
 3.8961254E+00 1.0000001E+00 1.7857090E+00
 7.3131269E+00 1.0000001E+00 1.7551532E+00
 3.8961259E+00 1.0000001E+00 2.1429163E-01
 7.3131269E+00 1.0000001E+00 2.4484662E-01
 4.6566469E+00 1.9509882E+00 9.9999995E-01
 4.6566469E+00 4.9011770E-02 9.9999995E-01
 6.5565898E+00 1.9313504E+00 9.9999995E-01
 6.5565898E+00 6.8650039E-02 9.9999995E-01
 5.5522248E+00 1.4806542E+00 1.7975498E+00
 5.4860088E+00 1.4694495E+00 1.8016237E+00
 5.4168085E+00 1.4578976E+00 1.8060475E+00
 5.3448618E+00 1.4460405E+00 1.8110149E+00
 5.2703764E+00 1.4339400E+00 1.8167062E+00
 5.1935759E+00 1.4216135E+00 1.8233197E+00
 5.1146773E+00 1.4090525E+00 1.8310309E+00
 5.0339608E+00 1.3962030E+00 1.8399663E+00
 4.9517910E+00 1.3829501E+00 1.8501562E+00
 4.8686516E+00 1.3691034E+00 1.8614794E+00
 4.7851452E+00 1.3543884E+00 1.8736041E+00
 4.7019438E+00 1.3384547E+00 1.8859522E+00
 4.6196963E+00 1.3209064E+00 1.8977067E+00
 4.5389325E+00 1.3013555E+00 1.9078752E+00
 4.4600232E+00 1.2794854E+00 1.9153956E+00
 4.3832241E+00 1.2551094E+00 1.9192661E+00
 4.3087942E+00 1.2282106E+00 1.9186723E+00
 4.2371110E+00 1.1989526E+00 1.9130898E+00
 4.1686937E+00 1.1676589E+00 1.9023348E+00
 4.1041232E+00 1.1347678E+00 1.8865523E+00
 4.0439603E+00 1.1008014E+00 1.8661700E+00
 3.9886570E+00 1.0663276E+00 1.8418095E+00
 3.9386656E+00 1.0320695E+00 1.8143100E+00
 5.5454539E+00 5.5357647E-01 1.8169193E+00
 5.4770362E+00 5.6675104E-01 1.8214200E+00
 5.4061903E+00 5.7977349E-01 1.8260131E+00
 5.3330942E+00 5.9289959E-01 1.8310383E+00
 5.2577419E+00 6.0629280E-01 1.8367864E+00
 5.1802912E+00 6.2000126E-01 1.8434701E+00
 5.1009511E+00 6.3407424E-01 1.8512595E+00
 5.0200101E+00 6.4858596E-01 1.8602537E+00
 4.9378611E+00 6.6366714E-01 1.8704416E+00
 4.8550208E+00 6.7951653E-01 1.8816466E+00
 4.7721143E+00 6.9640210E-01 1.8934745E+00
 4.6898104E+00 7.1464367E-01 1.9052887E+00
 4.6087289E+00 7.3457634E-01 1.9162333E+00
 4.5293564E+00 7.5649943E-01 1.9253091E+00
 4.4520234E+00 7.8062505E-01 1.9314850E+00
 4.3769631E+00 8.0703645E-01 1.9338241E+00
 4.3044242E+00 8.3566611E-01 1.9315996E+00
 4.2347606E+00 8.6629562E-01 1.9243779E+00
 4.1684207E+00 8.9857159E-01 1.9120419E+00
 4.1058155E+00 9.3202619E-01 1.8947371E+00
 4.0471334E+00 9.6609271E-01 1.8727392E+00
 3.9921410E+00 1.0000001E+00 1.8462565E+00
 5.5429822E+00 5.8872463E-01 1.8350610E+00
 5.4719427E+00 6.0385095E-01 1.8397649E+00
 5.3993442E+00 6.1837475E-01 1.8443596E+00
 5.3248432E+00 6.3291464E-01 1.8493454E+00
 5.2484302E+00 6.4772369E-01 1.8550323E+00
 5.1701566E+00 6.6293502E-01 1.8616521E+00
 5.0902118E+00 6.7862584E-01 1.8693609E+00
 5.0088882E+00 6.9489347E-01 1.8782335E+00
 4.9266046E+00 7.1188166E-01 1.8882185E+00
 4.8439067E+00 7.2979269E-01 1.8990876E+00
 4.7614367E+00 7.4888044E-01 1.9103884E+00
 4.6798578E+00 7.6942616E-01 1.9214329E+00
 4.5997621E+00 7.9169992E-01 1.9313353E+00
 4.5215964E+00 8.1591651E-01 1.9390981E+00
 4.4456543E+00 8.4219690E-01 1.9437267E+00
 4.3721388E+00 8.7054253E-01 1.9443491E+00
 4.3012589E+00 9.0082494E-01 1.9403142E+00
 4.2332690E+00 9.3278481E-01 1.9312442E+00
 4.1683777E+00 9.6602710E-01 1.9170026E+00
 4.1065429E+00 1.0000001E+00 1.8975655E+00
 4.0471334E+00 1.0339075E+00 1.8727392E+00
 5.5413717E+00 6.2556344E-01 1.8521591E+00
 5.4686283E+00 6.4221381E-01 1.8567058E+00
 5.3944813E+00 6.5822329E-01 1.8611432E+00
 5.3187199E+00 6.7420293E-01 1.8659409E+00
 5.2412575E+00 6.9049878E-01 1.8714263E+00
 5.1621510E+00 7.0727593E-01 1.8778221E+00
 5.0815773E+00 7.2464215E-01 1.8852717E+00
 4.9998481E+00 7.4271073E-01 1.8938226E+00
 4.9174084E+00 7.6163538E-01 1.9033846E+00
 4.8348303E+00 7.8161472E-01 1.9136800E+00
 4.7527677E+00 8.0288056E-01 1.9242046E+00
 4.6718750E+00 8.2566951E-01 1.9342290E+00
 4.5927153E+00 8.5018692E-01 1.9428492E+00
 4.5156955E+00 8.7657200E-01 1.9490808E+00
 4.4410669E+00 9.0487119E-01 1.9519718E+00
 4.3689772E+00 9.3502241E-01 1.9507104E+00
 4.2995260E+00 9.6684210E-01 1.9446964E+00
 4.2327350E+00 1.0000001E+00 1.9335481E+00
 4.1683777E+00 1.0339731E+00 1.9170026E+00
 4.1058155E+00 1.0679740E+00 1.8947371E+00
 5.5401193E+00 6.6416679E-01 1.8680614E+00
 5.4660378E+00 6.8214727E-01 1.8722342E+00
 5.3906329E+00 6.9953896E-01 1.8763300E+00
 5.3137690E+00 7.1694967E-01 1.8807842E+00
 5.2353875E+00 7.3473876E-01 1.8859048E+00
 5.1555506E+00 7.5309498E-01 1.8919007E+00
 5.0744534E+00 7.7214077E-01 1.8988950E+00
 4.9924287E+00 7.9200181E-01 1.9069072E+00
 4.9099485E+00 8.1283436E-01 1.9158085E+00
 4.8276047E+00 8.3482632E-01 1.9252766E+00
 4.7460554E+00 8.5818078E-01 1.9347645E+00
 4.6659398E+00 8.8308761E-01 1.9435153E+00
 4.5877864E+00 9.0969304E-01 1.9506218E+00
 4.5119558E+00 9.3807340E-01 1.9551247E+00
 4.4386357E+00 9.6821617E-01 1.9561181E+00
 4.3678648E+00 1.0000001E+00 1.9528376E+00
 4.2995260E+00 1.0331581E+00 1.9446965E+00
 4.2332690E+00 1.0672154E+00 1.9312443E+00
 4.1684207E+00 1.1014286E+00 1.9120420E+00
 5.5390265E+00 7.0456299E-01 1.8825978E+00
 5.4637978E+00 7.2373261E-01 1.8862229E+00
 5.3873361E+00 7.4242341E-01 1.8898128E+00
 5.3095563E+00 7.6121914E-01 1.8937609E+00
 5.2304331E+00 7.8047146E-01 1.8983458E+00
 5.1500492E+00 8.0037311E-01 1.9037547E+00
 5.0686205E+00 8.2105452E-01 1.9100875E+00
 4.9865027E+00 8.4264613E-01 1.9173339E+00
 4.9041890E+00 8.6530071E-01 1.9253297E+00
 4.8222823E+00 8.8918949E-01 1.9337144E+00
 4.7414346E+00 9.1448405E-01 1.9419110E+00
 4.6622588E+00 9.4133088E-01 1.9491506E+00
 4.5852390E+00 9.6982717E-01 1.9545383E+00
 4.5106710E+00 1.0000002E+00 1.9571483E+00
 4.4386357E+00 1.0317841E+00 1.9561182E+00
 4.3689772E+00 1.0649778E+00 1.9507106E+00
 4.3012589E+00 1.0991753E+00 1.9403144E+00
 4.2347606E+00 1.1337046E+00 1.9243781E+00
 5.5380309E+00 7.4667953E-01 1.8955689E+00
 5.4618070E+00 7.6692640E-01 1.8984977E+00
 5.3844699E+00 7.8683632E-01 1.9014297E+00
 5.3059749E+00 8.0695158E-01 1.9047107E+00
 5.2263234E+00 8.2760337E-01 1.9085861E+00
 5.1456198E+00 8.4897779E-01 1.9132176E+00
 5.0640999E+00 8.7120614E-01 1.9186804E+00
 4.9821379E+00 8.9441818E-01 1.9249353E+00
 4.9002396E+00 9.1875835E-01 1.9317866E+00
 4.8190070E+00 9.4437892E-01 1.9388455E+00
 4.7390727E+00 9.7142234E-01 1.9455188E+00
 4.6610096E+00 1.0000002E+00 1.9510402E+00
 4.5852391E+00 1.0301732E+00 1.9545384E+00
 4.5119559E+00 1.0619269E+00 1.9551249E+00
 4.4410669E+00 1.0951291E+00 1.9519721E+00
 4.3721388E+00 1.1294577E+00 1.9443494E+00
 4.3044242E+00 1.1643342E+00 1.9315999E+00
 5.5371416E+00 7.9036776E-01 1.9067677E+00
 5.4600811E+00 8.1159097E-01 1.9088698E+00
 5.3820621E+00 8.3262979E-01 1.9110005E+00
 5.3030686E+00 8.5397742E-01 1.9134580E+00
 5.2231238E+00 8.7593371E-01 1.9164532E+00
 5.1423502E+00 8.9867160E-01 1.9201216E+00
 5.0609990E+00 9.2231806E-01 1.9245133E+00
 4.9794556E+00 9.4699849E-01 1.9295632E+00
 4.8982269E+00 9.7284740E-01 1.9350504E+00
 4.8179002E+00 1.0000003E+00 1.9405680E+00
 4.7390728E+00 1.0285782E+00 1.9455190E+00
 4.6622589E+00 1.0586696E+00 1.9491509E+00
 4.5877866E+00 1.0903074E+00 1.9506222E+00
 4.5156957E+00 1.1234284E+00 1.9490812E+00
 4.4456544E+00 1.1578034E+00 1.9437272E+00
 4.3769631E+00 1.1929639E+00 1.9338245E+00
 5.5363873E+00 8.3542647E-01 1.9159988E+00
 5.4586714E+00 8.5751583E-01 1.9171567E+00
 5.3801807E+00 8.7957607E-01 1.9183528E+00
 5.3009195E+00 9.0204318E-01 1.9198392E+00
 5.2209280E+00 9.2517838E-01 1.9217936E+00
 5.1403413E+00 9.4913642E-01 1.9243258E+00
 5.0594199E+00 9.7403701E-01 1.9274631E+00
 4.9785501E+00 1.0000003E+00 1.9311177E+00
 4.8982269E+00 1.0271532E+00 1.9350506E+00
 4.8190071E+00 1.0556217E+00 1.9388458E+00
 4.7414348E+00 1.0855165E+00 1.9419115E+00
 4.6659401E+00 1.1169129E+00 1.9435159E+00
 4.5927156E+00 1.1498135E+00 1.9428499E+00
 4.5215966E+00 1.1840839E+00 1.9390988E+00
 4.4520236E+00 1.2193753E+00 1.9314856E+00
 5.5357964E+00 8.8160746E-01 1.9230895E+00
 5.4576277E+00 9.0443539E-01 1.9232002E+00
 5.3788891E+00 9.2738774E-01 1.9233419E+00
 5.2995996E+00 9.5083517E-01 1.9237240E+00
 5.2198103E+00 9.7499477E-01 1.9244938E+00
 5.1396635E+00 1.0000002E+00 1.9257380E+00
 5.0594198E+00 1.0259635E+00 1.9274631E+00
 4.9794555E+00 1.0530021E+00 1.9295634E+00
 4.9002396E+00 1.0812423E+00 1.9317869E+00
 4.8222825E+00 1.1108111E+00 1.9337149E+00
 4.7460558E+00 1.1418198E+00 1.9347652E+00
 4.6718754E+00 1.1743310E+00 1.9342298E+00
 4.5997625E+00 1.2083006E+00 1.9313362E+00
 4.5293567E+00 1.2435010E+00 1.9253099E+00
 5.5353906E+00 9.2862188E-01 1.9278995E+00
 5.4569868E+00 9.5204224E-01 1.9268779E+00
 5.3782320E+00 9.7573549E-01 1.9258636E+00
 5.2991545E+00 1.0000001E+00 1.9250286E+00
 5.2198103E+00 1.0250056E+00 1.9244938E+00
 5.1403412E+00 1.0508640E+00 1.9243259E+00
 5.0609988E+00 1.0776824E+00 1.9245135E+00
 4.9821377E+00 1.1055824E+00 1.9249356E+00
 4.9041890E+00 1.1346999E+00 1.9253302E+00
 4.8276049E+00 1.1651743E+00 1.9252774E+00
 4.7527682E+00 1.1971201E+00 1.9242055E+00
 4.6798583E+00 1.2305744E+00 1.9214339E+00
 4.6087294E+00 1.2654242E+00 1.9162343E+00
 5.5351843E+00 9.7614958E-01 1.9303301E+00
 5.4567708E+00 1.0000001E+00 1.9281126E+00
 5.3782320E+00 1.0242648E+00 1.9258636E+00
 5.2995996E+00 1.0491651E+00 1.9237241E+00
 5.2209278E+00 1.0748220E+00 1.9217936E+00
 5.1423499E+00 1.1013288E+00 1.9201217E+00
 5.0640996E+00 1.1287943E+00 1.9186806E+00
 4.9865025E+00 1.1573544E+00 1.9173344E+00
 4.9099484E+00 1.1871663E+00 1.9158092E+00
 4.8348306E+00 1.2183860E+00 1.9136809E+00
 4.7614372E+00 1.2511202E+00 1.9103894E+00
 4.6898111E+00 1.2853570E+00 1.9052898E+00
 5.5351843E+00 1.0238506E+00 1.9303301E+00
 5.4569868E+00 1.0479580E+00 1.9268779E+00
 5.3788890E+00 1.0726125E+00 1.9233419E+00
 5.3009194E+00 1.0979571E+00 1.9198393E+00
 5.2231236E+00 1.1240666E+00 1.9164533E+00
 5.1456195E+00 1.1510226E+00 1.9132178E+00
 5.0686201E+00 1.1789459E+00 1.9100877E+00
 4.9924283E+00 1.2079987E+00 1.9069076E+00
 4.9174083E+00 1.2383653E+00 1.9033853E+00
 4.8439070E+00 1.2702080E+00 1.8990886E+00
 4.7721149E+00 1.3035986E+00 1.8934756E+00
 5.5353906E+00 1.0713783E+00 1.9278995E+00
 5.4576276E+00 1.0955648E+00 1.9232003E+00
 5.3801805E+00 1.1204242E+00 1.9183529E+00
 5.3030684E+00 1.1460229E+00 1.9134580E+00
 5.2263231E+00 1.1723970E+00 1.9085862E+00
 5.1500488E+00 1.1996273E+00 1.9037548E+00
 5.0744529E+00 1.2278597E+00 1.8988954E+00
 4.9998476E+00 1.2572898E+00 1.8938231E+00
 4.9266044E+00 1.2881189E+00 1.8882193E+00
 4.8550211E+00 1.3204841E+00 1.8816477E+00
 5.5357963E+00 1.1183927E+00 1.9230895E+00
 5.4586713E+00 1.1424844E+00 1.9171568E+00
 5.3820620E+00 1.1673705E+00 1.9110005E+00
 5.3059747E+00 1.1930487E+00 1.9047108E+00
 5.2304328E+00 1.2195289E+00 1.8983459E+00
 5.1555502E+00 1.2469054E+00 1.8919009E+00
 5.0815768E+00 1.2753583E+00 1.8852721E+00
 5.0088876E+00 1.3051070E+00 1.8782341E+00
 4.9378608E+00 1.3363334E+00 1.8704424E+00
 5.5363872E+00 1.1645737E+00 1.9159988E+00
 5.4600809E+00 1.1884093E+00 1.9088698E+00
 5.3844697E+00 1.2131639E+00 1.9014298E+00
 5.3095560E+00 1.2387811E+00 1.8937610E+00
 5.2353871E+00 1.2652616E+00 1.8859049E+00
 5.1621506E+00 1.2927244E+00 1.8778223E+00
 5.0902113E+00 1.3213746E+00 1.8693613E+00
 5.0200095E+00 1.3514145E+00 1.8602543E+00
 5.5371415E+00 1.2096324E+00 1.9067677E+00
 5.4618068E+00 1.2330738E+00 1.8984978E+00
 5.3873358E+00 1.2575768E+00 1.8898128E+00
 5.3137687E+00 1.2830506E+00 1.8807843E+00
 5.2412571E+00 1.3095015E+00 1.8714264E+00
 5.1701562E+00 1.3370653E+00 1.8616523E+00
 5.1009506E+00 1.3659261E+00 1.8512599E+00
 5.5380308E+00 1.2533207E+00 1.8955689E+00
 5.4637976E+00 1.2762676E+00 1.8862229E+00
 5.3906327E+00 1.3004613E+00 1.8763300E+00
 5.3187196E+00 1.3257973E+00 1.8659410E+00
 5.2484298E+00 1.3522766E+00 1.8550324E+00
 5.1802908E+00 1.3799991E+00 1.8434704E+00
 5.5390264E+00 1.2954372E+00 1.8825978E+00
 5.4660376E+00 1.3178530E+00 1.8722343E+00
 5.3944810E+00 1.3417769E+00 1.8611432E+00
 5.3248429E+00 1.3670856E+00 1.8493455E+00
 5.2577415E+00 1.3937075E+00 1.8367866E+00
 5.5401192E+00 1.3358334E+00 1.8680614E+00
 5.4686281E+00 1.3577864E+00 1.8567059E+00
 5.3993440E+00 1.3816255E+00 1.8443596E+00
 5.3330939E+00 1.4071007E+00 1.8310384E+00
 5.5413716E+00 1.3744368E+00 1.8521591E+00
 5.4719426E+00 1.3961493E+00 1.8397649E+00
 5.4061901E+00 1.4202267E+00 1.8260132E+00
 5.5429821E+00 1.4112756E+00 1.8350610E+00
 5.4770361E+00 1.4332492E+00 1.8214201E+00
 5.5454538E+00 1.4464237E+00 1.8169193E+00
 5.6124273E+00 1.4614402E+00 1.8113612E+00
 5.6126803E+00 1.4280940E+00 1.8294692E+00
 5.6128491E+00 1.3926829E+00 1.8468370E+00
 5.6129754E+00 1.3552260E+00 1.8632380E+00
 5.6130745E+00 1.3158115E+00 1.8784406E+00
 5.6131577E+00 1.2745737E+00 1.8922059E+00
 5.6132294E+00 1.2316607E+00 1.9043119E+00
 5.6132907E+00 1.1872611E+00 1.9145497E+00
 5.6133404E+00 1.1416068E+00 1.9227312E+00
 5.6133772E+00 1.0949700E+00 1.9286974E+00
 5.6133998E+00 1.0476573E+00 1.9323277E+00
 5.6134074E+00 1.0000001E+00 1.9335464E+00
 5.6133998E+00 9.5234286E-01 1.9323277E+00
 5.6133772E+00 9.0503015E-01 1.9286974E+00
 5.6133405E+00 8.5839342E-01 1.9227312E+00
 5.6132907E+00 8.1273915E-01 1.9145497E+00
 5.6132295E+00 7.6833949E-01 1.9043119E+00
 5.6131577E+00 7.2542649E-01 1.8922059E+00
 5.6130745E+00 6.8418873E-01 1.8784406E+00
 5.6129755E+00 6.4477425E-01 1.8632380E+00
 5.6128491E+00 6.0731734E-01 1.8468370E+00
 5.6126803E+00 5.7190625E-01 1.8294692E+00
 5.6124273E+00 5.3856006E-01 1.8113612E+00
 5.6723631E+00 5.1694988E-01 1.8014847E+00
 5.7386702E+00 5.2572584E-01 1.8097739E+00
 5.8078212E+00 5.3512426E-01 1.8182206E+00
 5.8794870E+00 5.4528130E-01 1.8266883E+00
 5.9533912E+00 5.5630476E-01 1.8349872E+00
 6.0292252E+00 5.6832048E-01 1.8429275E+00
 6.1067194E+00 5.8144237E-01 1.8503196E+00
 6.1855907E+00 5.9576715E-01 1.8569870E+00
 6.2655561E+00 6.1136989E-01 1.8627757E+00
 6.3463111E+00 6.2830312E-01 1.8675558E+00
 6.4275064E+00 6.4660110E-01 1.8712151E+00
 6.5087245E+00 6.6628603E-01 1.8736447E+00
 6.5894756E+00 6.8737395E-01 1.8747221E+00
 6.6692197E+00 7.0987691E-01 1.8742992E+00
 6.7474100E+00 7.3380061E-01 1.8721990E+00
 6.8235372E+00 7.5913752E-01 1.8682255E+00
 6.8971564E+00 7.8585866E-01 1.8621807E+00
 6.9678913E+00 8.1390635E-01 1.8538875E+00
 7.0354211E+00 8.4318972E-01 1.8432109E+00
 7.0994667E+00 8.7358786E-01 1.8300748E+00
 7.1597509E+00 9.0493173E-01 1.8144826E+00
 7.2160186E+00 9.3699757E-01 1.7965081E+00
 7.2678694E+00 9.6932138E-01 1.7763795E+00
 5.6795488E+00 1.4489731E+00 1.8213890E+00
 5.7479546E+00 1.4380954E+00 1.8303047E+00
 5.8186509E+00 1.4270140E+00 1.8390362E+00
 5.8913650E+00 1.4153309E+00 1.8475664E+00
 5.9660172E+00 1.4027542E+00 1.8558120E+00
 6.0423752E+00 1.3891231E+00 1.8635978E+00
 6.1201844E+00 1.3743227E+00 1.8707354E+00
 6.1991758E+00 1.3582757E+00 1.8770432E+00
 6.2790616E+00 1.3409303E+00 1.8823631E+00
 6.3595252E+00 1.3222560E+00 1.8865635E+00
 6.4401979E+00 1.3022384E+00 1.8895307E+00
 6.5206440E+00 1.2808735E+00 1.8911542E+00
 6.6003627E+00 1.2581635E+00 1.8913102E+00
 6.6788173E+00 1.2341162E+00 1.8898518E+00
 6.7554783E+00 1.2087468E+00 1.8866087E+00
 6.8298636E+00 1.1820821E+00 1.8813990E+00
 6.9015612E+00 1.1541660E+00 1.8740460E+00
 6.9702372E+00 1.1250652E+00 1.8643968E+00
 7.0356401E+00 1.0948818E+00 1.8523322E+00
 7.0976437E+00 1.0637742E+00 1.8377563E+00
 7.1563398E+00 1.0319805E+00 1.8205527E+00
 7.2122155E+00 1.0000001E+00 1.8004875E+00
 5.6824422E+00 1.4137620E+00 1.8398030E+00
 5.7533943E+00 1.4008046E+00 1.8491710E+00
 5.8257408E+00 1.3880284E+00 1.8580392E+00
 5.8997510E+00 1.3747114E+00 1.8665668E+00
 5.9753486E+00 1.3605007E+00 1.8746768E+00
 6.0524068E+00 1.3451882E+00 1.8822141E+00
 6.1307035E+00 1.3286668E+00 1.8889849E+00
 6.2099828E+00 1.3108745E+00 1.8948049E+00
 6.2899539E+00 1.2917801E+00 1.8995137E+00
 6.3702859E+00 1.2713727E+00 1.9029796E+00
 6.4505920E+00 1.2496561E+00 1.9050889E+00
 6.5304198E+00 1.2266439E+00 1.9057314E+00
 6.6092612E+00 1.2023560E+00 1.9047847E+00
 6.6865863E+00 1.1768169E+00 1.9021057E+00
 6.7618879E+00 1.1500566E+00 1.8975332E+00
 6.8347218E+00 1.1221111E+00 1.8908983E+00
 6.9047368E+00 1.0930267E+00 1.8820373E+00
 6.9717140E+00 1.0628745E+00 1.8707944E+00
 7.0356437E+00 1.0317839E+00 1.8570004E+00
 7.0968619E+00 1.0000001E+00 1.8404108E+00
 7.1563398E+00 9.6801967E-01 1.8205527E+00
 5.6843690E+00 1.3767726E+00 1.8571284E+00
 5.7569795E+00 1.3621198E+00 1.8665313E+00
 5.8308052E+00 1.3476598E+00 1.8753722E+00
 5.9059895E+00 1.3326949E+00 1.8837513E+00
 5.9825369E+00 1.3168076E+00 1.8916011E+00
 6.0603224E+00 1.2997908E+00 1.8987538E+00
 6.1391472E+00 1.2815423E+00 1.9050124E+00
 6.2187535E+00 1.2620186E+00 1.9101881E+00
 6.2988424E+00 1.2412068E+00 1.9141208E+00
 6.3790679E+00 1.2191147E+00 1.9166801E+00
 6.4590267E+00 1.1957638E+00 1.9177547E+00
 6.5382545E+00 1.1711840E+00 1.9172372E+00
 6.6162427E+00 1.1454095E+00 1.9150090E+00
 6.6924771E+00 1.1184764E+00 1.9109338E+00
 6.7664858E+00 1.0904201E+00 1.9048589E+00
 6.8378905E+00 1.0612773E+00 1.8966220E+00
 6.9064665E+00 1.0311007E+00 1.8860507E+00
 6.9722399E+00 1.0000001E+00 1.8729418E+00
 7.0356437E+00 9.6821630E-01 1.8570004E+00
 7.0976437E+00 9.3622599E-01 1.8377563E+00
 5.6858507E+00 1.3379743E+00 1.8732313E+00
 5.7597703E+00 1.3217831E+00 1.8824294E+00
 5.8348034E+00 1.3057258E+00 1.8910411E+00
 5.9110227E+00 1.2891226E+00 1.8991103E+00
 5.9884080E+00 1.2715687E+00 1.9065384E+00
 6.0668368E+00 1.2528644E+00 1.9131434E+00
 6.1461035E+00 1.2329263E+00 1.9187195E+00
 6.2259444E+00 1.2117288E+00 1.9230767E+00
 6.3060484E+00 1.1892786E+00 1.9260564E+00
 6.3860566E+00 1.1656011E+00 1.9275321E+00
 6.4655542E+00 1.1407339E+00 1.9273976E+00
 6.5440734E+00 1.1147199E+00 1.9255511E+00
 6.6211163E+00 1.0876020E+00 1.9218805E+00
 6.6961997E+00 1.0594190E+00 1.9162565E+00
 6.7689144E+00 1.0302044E+00 1.9085305E+00
 6.8390020E+00 1.0000001E+00 1.8985321E+00
 6.9064665E+00 9.6889953E-01 1.8860507E+00
 6.9717140E+00 9.3712567E-01 1.8707944E+00
 7.0356401E+00 9.0511845E-01 1.8523322E+00
 5.6871234E+00 1.2973527E+00 1.8879514E+00
 5.7621641E+00 1.2797378E+00 1.8967526E+00
 5.8382133E+00 1.2621497E+00 1.9049534E+00
 5.9152922E+00 1.2439517E+00 1.9125376E+00
 5.9933524E+00 1.2247723E+00 1.9193697E+00
 6.0722575E+00 1.2044381E+00 1.9252494E+00
 6.1517925E+00 1.1828883E+00 1.9299644E+00
 6.2316835E+00 1.1601186E+00 1.9333252E+00
 6.3116094E+00 1.1361544E+00 1.9351779E+00
 6.3912027E+00 1.1110375E+00 1.9354029E+00
 6.4700457E+00 1.0848176E+00 1.9339015E+00
 6.5476790E+00 1.0575444E+00 1.9305797E+00
 6.6236315E+00 1.0292609E+00 1.9253326E+00
 6.6974765E+00 1.0000001E+00 1.9180345E+00
 6.7689144E+00 9.6979584E-01 1.9085305E+00
 6.8378905E+00 9.3872291E-01 1.8966220E+00
 6.9047368E+00 9.0697351E-01 1.8820373E+00
 6.9702372E+00 8.7493499E-01 1.8643968E+00
 5.6882696E+00 1.2549870E+00 1.9010905E+00
 5.7642808E+00 1.2360392E+00 1.9093272E+00
 5.8411682E+00 1.2169874E+00 1.9169456E+00
 5.9189142E+00 1.1972580E+00 1.9238696E+00
 5.9974473E+00 1.1765265E+00 1.9299283E+00
 6.0766169E+00 1.1546552E+00 1.9349053E+00
 6.1561978E+00 1.1316099E+00 1.9385850E+00
 6.2359081E+00 1.1074081E+00 1.9407816E+00
 6.3154213E+00 1.0820925E+00 1.9413492E+00
 6.3943687E+00 1.0557170E+00 1.9401777E+00
 6.4723407E+00 1.0283372E+00 1.9371776E+00
 6.5489019E+00 1.0000001E+00 1.9322629E+00
 6.6236315E+00 9.7073931E-01 1.9253326E+00
 6.6961997E+00 9.4058122E-01 1.9162565E+00
 6.7664858E+00 9.0958016E-01 1.9048589E+00
 6.8347218E+00 8.7788917E-01 1.8908983E+00
 6.9015612E+00 8.4583426E-01 1.8740460E+00
 5.6892877E+00 1.2110286E+00 1.9124385E+00
 5.7661111E+00 1.1908319E+00 1.9199582E+00
 5.8436466E+00 1.1703970E+00 1.9268299E+00
 5.9218500E+00 1.1492234E+00 1.9329236E+00
 6.0006324E+00 1.1270441E+00 1.9380377E+00
 6.0798322E+00 1.1037619E+00 1.9419447E+00
 6.1592175E+00 1.0793712E+00 1.9444297E+00
 6.2385030E+00 1.0539095E+00 1.9453147E+00
 6.3173632E+00 1.0274327E+00 1.9444641E+00
 6.3954383E+00 1.0000001E+00 1.9417785E+00
 6.4723407E+00 9.7166305E-01 1.9371776E+00
 6.5476790E+00 9.4245578E-01 1.9305797E+00
 6.6211163E+00 9.1239819E-01 1.9218805E+00
 6.6924771E+00 8.8152384E-01 1.9109338E+00
 6.7618879E+00 8.4994358E-01 1.8975332E+00
 6.8298636E+00 8.1791809E-01 1.8813989E+00
 5.6901493E+00 1.1656812E+00 1.9217956E+00
 5.7676046E+00 1.1443321E+00 1.9284557E+00
 5.8455819E+00 1.1226153E+00 1.9344259E+00
 5.9240195E+00 1.1001120E+00 1.9395294E+00
 6.0028170E+00 1.0766197E+00 1.9435414E+00
 6.0818066E+00 1.0520839E+00 1.9462290E+00
 6.1607546E+00 1.0265262E+00 1.9473832E+00
 6.2393788E+00 1.0000001E+00 1.9468361E+00
 6.3173632E+00 9.7256755E-01 1.9444641E+00
 6.3943687E+00 9.4428318E-01 1.9401777E+00
 6.4700457E+00 9.1518262E-01 1.9339015E+00
 6.5440734E+00 8.8528035E-01 1.9255511E+00
 6.6162427E+00 8.5459073E-01 1.9150090E+00
 6.6865863E+00 8.2318329E-01 1.9021057E+00
 6.7554783E+00 7.9125347E-01 1.8866087E+00
 5.6908237E+00 1.1191959E+00 1.9289847E+00
 5.7687099E+00 1.0968118E+00 1.9346548E+00
 5.8469099E+00 1.0739393E+00 1.9395815E+00
 5.9253514E+00 1.0502491E+00 1.9435511E+00
 6.0039285E+00 1.0256067E+00 1.9463237E+00
 6.0824726E+00 1.0000001E+00 1.9476677E+00
 6.1607546E+00 9.7347399E-01 1.9473831E+00
 6.2385030E+00 9.4609069E-01 1.9453147E+00
 6.3154213E+00 9.1790775E-01 1.9413492E+00
 6.3912027E+00 8.8896270E-01 1.9354028E+00
 6.4655542E+00 8.5926629E-01 1.9273976E+00
 6.5382545E+00 8.2881626E-01 1.9172372E+00
 6.6092612E+00 7.9764428E-01 1.9047846E+00
 6.6788173E+00 7.6588405E-01 1.8898517E+00
 5.6912867E+00 1.0718652E+00 1.9338623E+00
 5.7693885E+00 1.0485861E+00 1.9384279E+00
 5.8475854E+00 1.0247090E+00 1.9421878E+00
 5.9258005E+00 1.0000001E+00 1.9449017E+00
 6.0039285E+00 9.7439352E-01 1.9463237E+00
 6.0818066E+00 9.4791628E-01 1.9462290E+00
 6.1592175E+00 9.2062897E-01 1.9444297E+00
 6.2359081E+00 8.9259209E-01 1.9407816E+00
 6.3116094E+00 8.6384582E-01 1.9351778E+00
 6.3860566E+00 8.3439908E-01 1.9275321E+00
 6.4590267E+00 8.0423639E-01 1.9177547E+00
 6.5304198E+00 7.7335631E-01 1.9057314E+00
 6.6003627E+00 7.4183675E-01 1.8913101E+00
 5.6915222E+00 1.0240138E+00 1.9363273E+00
 5.7696173E+00 1.0000001E+00 1.9396948E+00
 5.8475854E+00 9.7529115E-01 1.9421878E+00
 5.9253514E+00 9.4975111E-01 1.9435511E+00
 6.0028170E+00 9.2338051E-01 1.9435414E+00
 6.0798322E+00 8.9623829E-01 1.9419446E+00
 6.1561977E+00 8.6839030E-01 1.9385849E+00
 6.2316835E+00 8.3988160E-01 1.9333252E+00
 6.3060484E+00 8.1072167E-01 1.9260563E+00
 6.3790679E+00 7.8088550E-01 1.9166801E+00
 6.4505920E+00 7.5034415E-01 1.9050888E+00
 6.5206440E+00 7.1912676E-01 1.8911541E+00
 5.6915222E+00 9.7598642E-01 1.9363273E+00
 5.7693885E+00 9.5141405E-01 1.9384279E+00
 5.8469099E+00 9.2606093E-01 1.9395815E+00
 5.9240194E+00 8.9988815E-01 1.9395294E+00
 6.0006324E+00 8.7295613E-01 1.9380377E+00
 6.0766169E+00 8.4534505E-01 1.9349053E+00
 6.1517925E+00 8.1711192E-01 1.9299644E+00
 6.2259444E+00 7.8827142E-01 1.9230767E+00
 6.2988424E+00 7.5879347E-01 1.9141208E+00
 6.3702859E+00 7.2862758E-01 1.9029795E+00
 6.4401979E+00 6.9776181E-01 1.8895307E+00
 5.6912867E+00 9.2813497E-01 1.9338623E+00
 5.7687099E+00 9.0318839E-01 1.9346548E+00
 5.8455818E+00 8.7738487E-01 1.9344259E+00
 5.9218499E+00 8.5077683E-01 1.9329236E+00
 5.9974473E+00 8.2347368E-01 1.9299282E+00
 6.0722575E+00 7.9556212E-01 1.9252494E+00
 6.1461035E+00 7.6707395E-01 1.9187195E+00
 6.2187535E+00 7.3798165E-01 1.9101880E+00
 6.2899539E+00 7.0822014E-01 1.8995136E+00
 6.3595252E+00 6.7774422E-01 1.8865634E+00
 5.6908237E+00 8.8080429E-01 1.9289847E+00
 5.7676046E+00 8.5566813E-01 1.9284557E+00
 5.8436466E+00 8.2960317E-01 1.9268299E+00
 5.9189141E+00 8.0274218E-01 1.9238696E+00
 5.9933523E+00 7.7522794E-01 1.9193696E+00
 6.0668368E+00 7.4713583E-01 1.9131434E+00
 6.1391472E+00 7.1845794E-01 1.9050123E+00
 6.2099828E+00 6.8912573E-01 1.8948048E+00
 6.2790616E+00 6.5906998E-01 1.8823630E+00
 5.6901493E+00 8.3431897E-01 1.9217956E+00
 5.7661111E+00 8.0916835E-01 1.9199581E+00
 5.8411681E+00 7.8301282E-01 1.9169456E+00
 5.9152921E+00 7.5604851E-01 1.9125376E+00
 5.9884080E+00 7.2843154E-01 1.9065384E+00
 6.0603223E+00 7.0020947E-01 1.8987538E+00
 6.1307035E+00 6.7133346E-01 1.8889849E+00
 6.1991757E+00 6.4172457E-01 1.8770431E+00
 5.6892877E+00 7.8897155E-01 1.9124385E+00
 5.7642807E+00 7.6396101E-01 1.9093272E+00
 5.8382133E+00 7.3785054E-01 1.9049533E+00
 5.9110227E+00 7.1087765E-01 1.8991103E+00
 5.9825368E+00 6.8319265E-01 1.8916010E+00
 6.0524067E+00 6.5481203E-01 1.8822140E+00
 6.1201844E+00 6.2567755E-01 1.8707354E+00
 5.6882696E+00 7.4501317E-01 1.9010905E+00
 5.7621641E+00 7.2026236E-01 1.8967526E+00
 5.8348034E+00 6.9427442E-01 1.8910410E+00
 5.9059894E+00 6.6730533E-01 1.8837512E+00
 5.9753485E+00 6.3949956E-01 1.8746767E+00
 6.0423752E+00 6.1087710E-01 1.8635977E+00
 5.6871234E+00 7.0264750E-01 1.8879514E+00
 5.7597703E+00 6.7821710E-01 1.8824294E+00
 5.8308051E+00 6.5234045E-01 1.8753721E+00
 5.8997510E+00 6.2528880E-01 1.8665667E+00
 5.9660172E+00 5.9724609E-01 1.8558119E+00
 5.6858507E+00 6.6202594E-01 1.8732313E+00
 5.7569794E+00 6.3788047E-01 1.8665313E+00
 5.8257408E+00 6.1197187E-01 1.8580391E+00
 5.8913649E+00 5.8466931E-01 1.8475664E+00
 5.6843690E+00 6.2322760E-01 1.8571283E+00
 5.7533942E+00 5.9919562E-01 1.8491710E+00
 5.8186508E+00 5.7298621E-01 1.8390362E+00
 5.6824422E+00 5.8623817E-01 1.8398030E+00
 5.7479546E+00 5.6190487E-01 1.8303047E+00
 5.6795488E+00 5.5102711E-01 1.8213890E+00
 5.5753329E+00 1.5132531E+00 1.7779536E+00
 5.5344466E+00 1.5376388E+00 1.7595114E+00
 5.4918082E+00 1.5625121E+00 1.7395012E+00
 5.4476723E+00 1.5877045E+00 1.7179459E+00
 5.4021789E+00 1.6131319E+00 1.6948229E+00
 5.3555738E+00 1.6387023E+00 1.6701148E+00
 5.3080952E+00 1.6643288E+00 1.6437956E+00
 5.2600021E+00 1.6899087E+00 1.6158464E+00
 5.2115841E+00 1.7153222E+00 1.5862544E+00
 5.1631601E+00 1.7404276E+00 1.5550168E+00
 5.1150740E+00 1.7650583E+00 1.5221443E+00
 5.0676849E+00 1.7890229E+00 1.4876652E+00
 5.0213549E+00 1.8121072E+00 1.4516303E+00
 4.9764356E+00 1.8340802E+00 1.4141176E+00
 4.9332529E+00 1.8547033E+00 1.3752371E+00
 4.8920946E+00 1.8737423E+00 1.3351331E+00
 4.8532016E+00 1.8909802E+00 1.2939843E+00
 4.8167659E+00 1.9062302E+00 1.2520011E+00
 4.7829364E+00 1.9193450E+00 1.2094207E+00
 4.7518379E+00 1.9302241E+00 1.1664976E+00
 4.7235920E+00 1.9388120E+00 1.1235217E+00
 4.6982425E+00 1.9451040E+00 1.0807879E+00
 4.6758022E+00 1.9491480E+00 1.0388003E+00
 3.9288104E+00 1.0932213E+00 1.8033895E+00
 3.9198075E+00 1.1539581E+00 1.7880475E+00
 3.9139599E+00 1.2158659E+00 1.7693820E+00
 3.9121798E+00 1.2789595E+00 1.7476103E+00
 3.9150236E+00 1.3428971E+00 1.7227597E+00
 3.9228971E+00 1.4071286E+00 1.6948371E+00
 3.9360906E+00 1.4709645E+00 1.6638761E+00
 3.9547960E+00 1.5336228E+00 1.6299734E+00
 3.9790945E+00 1.5942552E+00 1.5933106E+00
 4.0089363E+00 1.6519802E+00 1.5541654E+00
 4.0441206E+00 1.7059261E+00 1.5129138E+00
 4.0842869E+00 1.7552845E+00 1.4700240E+00
 4.1289214E+00 1.7993681E+00 1.4260415E+00
 4.1773827E+00 1.8376676E+00 1.3815665E+00
 4.2289451E+00 1.8698985E+00 1.3372223E+00
 4.2828577E+00 1.8960297E+00 1.2936202E+00
 4.3384062E+00 1.9162877E+00 1.2513220E+00
 4.3949606E+00 1.9311311E+00 1.2108057E+00
 4.4519853E+00 1.9411993E+00 1.1724348E+00
 4.5090316E+00 1.9472467E+00 1.1364136E+00
 4.5657054E+00 1.9500725E+00 1.1027026E+00
 4.6215251E+00 1.9504615E+00 1.0709113E+00
 3.9817585E+00 1.1303348E+00 1.8305630E+00
 3.9759937E+00 1.1933419E+00 1.8149724E+00
 3.9732430E+00 1.2564449E+00 1.7958116E+00
 3.9745587E+00 1.3199689E+00 1.7733482E+00
 3.9805683E+00 1.3837100E+00 1.7476521E+00
 3.9916529E+00 1.4471563E+00 1.7187429E+00
 4.0080323E+00 1.5096145E+00 1.6866690E+00
 4.0298019E+00 1.5702829E+00 1.6515556E+00
 4.0569339E+00 1.6283052E+00 1.6136285E+00
 4.0892636E+00 1.6828211E+00 1.5732224E+00
 4.1264795E+00 1.7330211E+00 1.5307772E+00
 4.1681282E+00 1.7782058E+00 1.4868249E+00
 4.2136364E+00 1.8178430E+00 1.4419672E+00
 4.2623520E+00 1.8516154E+00 1.3968446E+00
 4.3135993E+00 1.8794508E+00 1.3520995E+00
 4.3667367E+00 1.9015269E+00 1.3083347E+00
 4.4211983E+00 1.9182493E+00 1.2660724E+00
 4.4765081E+00 1.9302048E+00 1.2257056E+00
 4.5322644E+00 1.9381032E+00 1.1874243E+00
 4.5880886E+00 1.9427145E+00 1.1511196E+00
 4.6436361E+00 1.9448091E+00 1.1160981E+00
 4.0398402E+00 1.1659095E+00 1.8542378E+00
 4.0371546E+00 1.2299120E+00 1.8380630E+00
 4.0374863E+00 1.2935259E+00 1.8181881E+00
 4.0418886E+00 1.3569904E+00 1.7948446E+00
 4.0509991E+00 1.4201017E+00 1.7681097E+00
 4.0651526E+00 1.4823391E+00 1.7380196E+00
 4.0844889E+00 1.5429938E+00 1.7046535E+00
 4.1090068E+00 1.6012600E+00 1.6681838E+00
 4.1385748E+00 1.6563012E+00 1.6288978E+00
 4.1729283E+00 1.7073144E+00 1.5871999E+00
 4.2116729E+00 1.7535920E+00 1.5436015E+00
 4.2543038E+00 1.7945808E+00 1.4986989E+00
 4.3002424E+00 1.8299317E+00 1.4531429E+00
 4.3488868E+00 1.8595313E+00 1.4075993E+00
 4.3996611E+00 1.8835087E+00 1.3627054E+00
 4.4520529E+00 1.9022159E+00 1.3190224E+00
 4.5056235E+00 1.9161875E+00 1.2769776E+00
 4.5599843E+00 1.9260882E+00 1.2367883E+00
 4.6147592E+00 1.9326626E+00 1.1983219E+00
 4.6695177E+00 1.9366692E+00 1.1609720E+00
 4.1026767E+00 1.2000403E+00 1.8736507E+00
 4.1029419E+00 1.2641697E+00 1.8566058E+00
 4.1062762E+00 1.3275906E+00 1.8357833E+00
 4.1136884E+00 1.3904071E+00 1.8113649E+00
 4.1257663E+00 1.4523437E+00 1.7834230E+00
 4.1427734E+00 1.5128475E+00 1.7520183E+00
 4.1647627E+00 1.5712020E+00 1.7172770E+00
 4.1916405E+00 1.6266210E+00 1.6794353E+00
 4.2231883E+00 1.6783245E+00 1.6388536E+00
 4.2590716E+00 1.7256074E+00 1.5960120E+00
 4.2988562E+00 1.7679020E+00 1.5514906E+00
 4.3420397E+00 1.8048299E+00 1.5059388E+00
 4.3880931E+00 1.8362357E+00 1.4600352E+00
 4.4365020E+00 1.8621965E+00 1.4144416E+00
 4.4867967E+00 1.8830063E+00 1.3697521E+00
 4.5385607E+00 1.8991405E+00 1.3264334E+00
 4.5914097E+00 1.9112138E+00 1.2847395E+00
 4.6449375E+00 1.9199337E+00 1.2445991E+00
 4.6986416E+00 1.9260438E+00 1.2054988E+00
 4.1698162E+00 1.2324624E+00 1.8882261E+00
 4.1728829E+00 1.2960494E+00 1.8700618E+00
 4.1790957E+00 1.3586451E+00 1.8480892E+00