# TIME = 11.000000
variables = x, y, z
zone N=5762 E=11520 F=FEPOINT ET=TRIANGLE
 5.9713088E+00 1.4939031E+00 1.7989382E+00
 5.9713088E+00 1.4939033E+00 2.0106146E-01
 5.9713088E+00 5.0609675E-01 1.7989382E+00
 5.9713089E+00 5.0609646E-01 2.0106119E-01
 4.2508486E+00 9.9999995E-01 1.7908725E+00
 7.6758877E+00 9.9999994E-01 1.7554146E+00
 4.2508480E+00 9.9999992E-01 2.0912657E-01
 7.6758876E+00 9.9999994E-01 2.4458544E-01
 5.0026710E+00 1.9479106E+00 9.9999996E-01
 5.0026710E+00 5.2088992E-02 9.9999994E-01
 6.9160247E+00 1.9220557E+00 9.9999993E-01
 6.9160247E+00 7.7944560E-02 9.9999993E-01
 5.9104770E+00 1.4833489E+00 1.8024588E+00
 5.8433600E+00 1.4715470E+00 1.8059999E+00
 5.7732720E+00 1.4592132E+00 1.8095189E+00
 5.7004520E+00 1.4464836E+00 1.8132295E+00
 5.6250013E+00 1.4334912E+00 1.8174041E+00
 5.5469950E+00 1.4203388E+00 1.8223825E+00
 5.4665374E+00 1.4071097E+00 1.8285289E+00
 5.3839035E+00 1.3938431E+00 1.8361809E+00
 5.2996173E+00 1.3804949E+00 1.8455639E+00
 5.2144973E+00 1.3668952E+00 1.8566765E+00
 5.1295564E+00 1.3527247E+00 1.8691880E+00
 5.0457658E+00 1.3375360E+00 1.8824076E+00
 4.9638389E+00 1.3208196E+00 1.8953510E+00
 4.8841600E+00 1.3020879E+00 1.9068680E+00
 4.8068451E+00 1.2809500E+00 1.9157804E+00
 4.7318748E+00 1.2571684E+00 1.9210094E+00
 4.6592585E+00 1.2306898E+00 1.9216846E+00
 4.5891776E+00 1.2016507E+00 1.9172276E+00
 4.5220266E+00 1.1703550E+00 1.9073966E+00
 4.4583285E+00 1.1372337E+00 1.8922739E+00
 4.3986446E+00 1.1028229E+00 1.8722290E+00
 4.3434940E+00 1.0677370E+00 1.8478522E+00
 4.2934613E+00 1.0327736E+00 1.8200139E+00
 5.9038296E+00 5.5165797E-01 1.8221983E+00
 5.8344416E+00 5.6554306E-01 1.8261139E+00
 5.7627457E+00 5.7937936E-01 1.8297058E+00
 5.6887884E+00 5.9335421E-01 1.8333688E+00
 5.6124539E+00 6.0754343E-01 1.8374917E+00
 5.5337582E+00 6.2193223E-01 1.8424546E+00
 5.4528266E+00 6.3650109E-01 1.8486354E+00
 5.3699741E+00 6.5125775E-01 1.8563541E+00
 5.2857844E+00 6.6628746E-01 1.8657886E+00
 5.2011201E+00 6.8178970E-01 1.8768626E+00
 5.1169910E+00 6.9808888E-01 1.8891589E+00
 5.0343130E+00 7.1560099E-01 1.9019137E+00
 4.9537220E+00 7.3476628E-01 1.9141035E+00
 4.8755363E+00 7.5597579E-01 1.9245786E+00
 4.7998334E+00 7.7951138E-01 1.9321986E+00
 4.7265820E+00 8.0550481E-01 1.9359503E+00
 4.6557903E+00 8.3391712E-01 1.9350437E+00
 4.5876158E+00 8.6453837E-01 1.9289765E+00
 4.5223740E+00 8.9700545E-01 1.9175528E+00
 4.4604224E+00 9.3083175E-01 1.9008386E+00
 4.4019961E+00 9.6543135E-01 1.8790581E+00
 4.3470095E+00 9.9999996E-01 1.8524280E+00
 5.9013822E+00 5.8755369E-01 1.8406565E+00
 5.8293949E+00 6.0344171E-01 1.8447053E+00
 5.7558712E+00 6.1881709E-01 1.8482167E+00
 5.6804543E+00 6.3416579E-01 1.8517361E+00
 5.6030085E+00 6.4966998E-01 1.8557000E+00
 5.5234688E+00 6.6541632E-01 1.8605257E+00
 5.4419536E+00 6.8143995E-01 1.8665926E+00
 5.3587985E+00 6.9779503E-01 1.8742003E+00
 5.2746280E+00 7.1460195E-01 1.8834783E+00
 5.1903321E+00 7.3208103E-01 1.8942803E+00
 5.1069053E+00 7.5055065E-01 1.9061125E+00
 5.0252067E+00 7.7038685E-01 1.9181515E+00
 4.9458026E+00 7.9195918E-01 1.9293472E+00
 4.8689514E+00 8.1556963E-01 1.9385593E+00
 4.7946900E+00 8.4140626E-01 1.9446878E+00
 4.7229549E+00 8.6951322E-01 1.9467792E+00
 4.6537044E+00 8.9977546E-01 1.9441029E+00
 4.5869835E+00 9.3191792E-01 1.9361869E+00
 4.5228784E+00 9.6551565E-01 1.9227926E+00
 4.4613679E+00 9.9999999E-01 1.9038179E+00
 4.4019961E+00 1.0345686E+00 1.8790581E+00
 5.8998578E+00 6.2504959E-01 1.8579700E+00
 5.8261026E+00 6.4248988E-01 1.8617975E+00
 5.7509847E+00 6.5934280E-01 1.8650631E+00
 5.6742587E+00 6.7607280E-01 1.8682996E+00
 5.5957417E+00 6.9295315E-01 1.8719759E+00
 5.5153809E+00 7.1012306E-01 1.8765182E+00
 5.4332926E+00 7.2766872E-01 1.8823028E+00
 5.3498420E+00 7.4568164E-01 1.8896035E+00
 5.2656875E+00 7.6431187E-01 1.8985025E+00
 5.1817367E+00 7.8379151E-01 1.9087885E+00
 5.0989619E+00 8.0442427E-01 1.9199017E+00
 5.0181669E+00 8.2654170E-01 1.9309722E+00
 4.9398526E+00 8.5044583E-01 1.9409350E+00
 4.8642179E+00 8.7635935E-01 1.9486663E+00
 4.7912449E+00 9.0438850E-01 1.9531059E+00
 4.7207997E+00 9.3449723E-01 1.9533466E+00
 4.6527167E+00 9.6648965E-01 1.9486850E+00
 4.5868264E+00 1.0000000E+00 1.9386222E+00
 4.5228784E+00 1.0344844E+00 1.9227927E+00
 4.4604224E+00 1.0691682E+00 1.9008388E+00
 5.8987205E+00 6.6419166E-01 1.8739881E+00
 5.8236215E+00 6.8293823E-01 1.8773695E+00
 5.7472407E+00 7.0112601E-01 1.8802066E+00
 5.6694053E+00 7.1919820E-01 1.8830106E+00
 5.5899720E+00 7.3744887E-01 1.8862487E+00
 5.5089054E+00 7.5605518E-01 1.8903456E+00
 5.4263482E+00 7.7513576E-01 1.8956639E+00
 5.3426954E+00 7.9481320E-01 1.9024490E+00
 5.2586360E+00 8.1525874E-01 1.9107358E+00
 5.1750852E+00 8.3670855E-01 1.9202544E+00
 5.0929867E+00 8.5944569E-01 1.9303907E+00
 5.0130882E+00 8.8375663E-01 1.9402422E+00
 4.9358251E+00 9.0988139E-01 1.9487399E+00
 4.8613283E+00 9.3797075E-01 1.9547822E+00
 4.7894981E+00 9.6805215E-01 1.9573444E+00
 4.7200795E+00 1.0000001E+00 1.9555483E+00
 4.6527167E+00 1.0335104E+00 1.9486852E+00
 4.5869835E+00 1.0680821E+00 1.9361872E+00
 4.5223740E+00 1.1029946E+00 1.9175531E+00
 5.8977814E+00 7.0498055E-01 1.8885512E+00
 5.8215877E+00 7.2485013E-01 1.8913114E+00
 5.7441834E+00 7.4424554E-01 1.8935577E+00
 5.6654491E+00 7.6358292E-01 1.8957761E+00
 5.5852860E+00 7.8315819E-01 1.8984197E+00
 5.5036902E+00 8.0316513E-01 1.9019005E+00
 5.4208339E+00 8.2374496E-01 1.9065616E+00
 5.3371422E+00 8.4504244E-01 1.9126160E+00
 5.2533247E+00 8.6724329E-01 1.9200534E+00
 5.1702931E+00 8.9058177E-01 1.9285532E+00
 5.0889542E+00 9.1531783E-01 1.9374599E+00
 5.0099954E+00 9.4169505E-01 1.9458522E+00
 4.9337796E+00 9.6989578E-01 1.9526674E+00
 4.8603524E+00 1.0000001E+00 1.9568298E+00
 4.7894981E+00 1.0319481E+00 1.9573445E+00
 4.7207998E+00 1.0655029E+00 1.9533469E+00
 4.6537044E+00 1.1002247E+00 1.9441033E+00
 4.5876158E+00 1.1354617E+00 1.9289770E+00
 5.8969605E+00 7.4734089E-01 1.9014815E+00
 5.8198498E+00 7.6818528E-01 1.9034761E+00
 5.7416179E+00 7.8866924E-01 1.9049875E+00
 5.6621902E+00 8.0917849E-01 1.9064738E+00
 5.5815063E+00 8.3000093E-01 1.9083677E+00
 5.4995937E+00 8.5133504E-01 1.9110617E+00
 5.4166517E+00 8.7333605E-01 1.9148743E+00
 5.3331279E+00 8.9616470E-01 1.9199846E+00
 5.2497403E+00 9.2001624E-01 1.9263406E+00
 5.1673826E+00 9.4512020E-01 1.9335799E+00
 5.0869142E+00 9.7171374E-01 1.9410189E+00
 5.0089540E+00 1.0000002E+00 1.9477305E+00
 4.9337797E+00 1.0301045E+00 1.9526675E+00
 4.8613284E+00 1.0620295E+00 1.9547824E+00
 4.7912450E+00 1.0956117E+00 1.9531063E+00
 4.7229550E+00 1.1304870E+00 1.9467797E+00
 4.6557903E+00 1.1660830E+00 1.9350444E+00
 5.8962390E+00 7.9113282E-01 1.9125966E+00
 5.8183681E+00 8.1282236E-01 1.9137046E+00
 5.7394968E+00 8.3427551E-01 1.9143529E+00
 5.6595857E+00 8.5584965E-01 1.9149707E+00
 5.5786055E+00 8.7781688E-01 1.9159665E+00
 5.4966092E+00 9.0037356E-01 1.9177092E+00
 5.4138163E+00 9.2368320E-01 1.9204894E+00
 5.3306855E+00 9.4791873E-01 1.9244523E+00
 5.2479283E+00 9.7328280E-01 1.9295084E+00
 5.1664046E+00 1.0000001E+00 1.9352637E+00
 5.0869142E+00 1.0282866E+00 1.9410190E+00
 5.0099953E+00 1.0583052E+00 1.9458523E+00
 4.9358252E+00 1.0901189E+00 1.9487402E+00
 4.8642180E+00 1.1236409E+00 1.9486668E+00
 4.7946902E+00 1.1585940E+00 1.9446884E+00
 4.7265822E+00 1.1944954E+00 1.9359511E+00
 5.8956260E+00 8.3616888E-01 1.9217248E+00
 5.8171596E+00 8.5857510E-01 1.9218441E+00
 5.7378446E+00 8.8087251E-01 1.9215165E+00
 5.6576684E+00 9.0338960E-01 1.9211423E+00
 5.5766250E+00 9.2637801E-01 1.9211035E+00
 5.4947853E+00 9.5002744E-01 1.9217423E+00
 5.4123795E+00 9.7450688E-01 1.9233203E+00
 5.3298644E+00 1.0000001E+00 1.9259496E+00
 5.2479283E+00 1.0267175E+00 1.9295084E+00
 5.1673826E+00 1.0548801E+00 1.9335799E+00
 5.0889541E+00 1.0846825E+00 1.9374600E+00
 5.0130882E+00 1.1162436E+00 1.9402424E+00
 4.9398527E+00 1.1495544E+00 1.9409355E+00
 4.8689516E+00 1.1844306E+00 1.9385599E+00
 4.7998336E+00 1.2204889E+00 1.9321994E+00
 5.8951416E+00 8.8222023E-01 1.9287157E+00
 5.8162605E+00 9.0520804E-01 1.9277620E+00
 5.7367079E+00 9.2821483E-01 1.9263626E+00
 5.6564906E+00 9.5153822E-01 1.9248886E+00
 5.5756181E+00 9.7540632E-01 1.9236943E+00
 5.4941710E+00 1.0000001E+00 1.9230945E+00
 5.4123795E+00 1.0254933E+00 1.9233204E+00
 5.3306855E+00 1.0520815E+00 1.9244523E+00
 5.2497402E+00 1.0799840E+00 1.9263407E+00
 5.1702931E+00 1.1094185E+00 1.9285534E+00
 5.0929867E+00 1.1405546E+00 1.9303909E+00
 5.0181670E+00 1.1734586E+00 1.9309727E+00
 4.9458027E+00 1.2080410E+00 1.9293478E+00
 4.8755364E+00 1.2440245E+00 1.9245794E+00
 5.8948060E+00 9.2902352E-01 1.9334477E+00
 5.8157055E+00 9.5244883E-01 1.9313558E+00
 5.7361281E+00 9.7601940E-01 1.9288074E+00
 5.6560930E+00 9.9999999E-01 1.9261448E+00
 5.5756181E+00 1.0245937E+00 1.9236943E+00
 5.4947853E+00 1.0499727E+00 1.9217423E+00
 5.4138161E+00 1.0763170E+00 1.9204894E+00
 5.3331277E+00 1.1038355E+00 1.9199847E+00
 5.2533246E+00 1.1327570E+00 1.9200536E+00
 5.1750851E+00 1.1632917E+00 1.9202546E+00
 5.0989620E+00 1.1955760E+00 1.9199020E+00
 5.0252069E+00 1.2296134E+00 1.9181520E+00
 4.9537221E+00 1.2652340E+00 1.9141041E+00
 5.8946342E+00 9.7628913E-01 1.9358357E+00
 5.8155178E+00 9.9999996E-01 1.9325610E+00
 5.7361280E+00 1.0239805E+00 1.9288075E+00
 5.6564905E+00 1.0484618E+00 1.9248886E+00
 5.5766249E+00 1.0736220E+00 1.9211035E+00
 5.4966090E+00 1.0996265E+00 1.9177092E+00
 5.4166515E+00 1.1266641E+00 1.9148744E+00
 5.3371419E+00 1.1549578E+00 1.9126161E+00
 5.2586358E+00 1.1847415E+00 1.9107360E+00
 5.1817367E+00 1.2162087E+00 1.9087888E+00
 5.1069053E+00 1.2494496E+00 1.9061129E+00
 5.0343132E+00 1.2843993E+00 1.9019142E+00
 5.8946342E+00 1.0237108E+00 1.9358357E+00
 5.8157054E+00 1.0475511E+00 1.9313558E+00
 5.7367078E+00 1.0717851E+00 1.9263626E+00
 5.6576682E+00 1.0966104E+00 1.9211424E+00
 5.5786053E+00 1.1221832E+00 1.9159666E+00
 5.4995934E+00 1.1486650E+00 1.9110618E+00
 5.4208336E+00 1.1762552E+00 1.9065618E+00
 5.3426951E+00 1.2051870E+00 1.9024492E+00
 5.2656873E+00 1.2356883E+00 1.8985027E+00
 5.1903320E+00 1.2679192E+00 1.8942807E+00
 5.1169911E+00 1.3019113E+00 1.8891594E+00
 5.8948059E+00 1.0709764E+00 1.9334477E+00
 5.8162604E+00 1.0947919E+00 1.9277620E+00
 5.7378445E+00 1.1191274E+00 1.9215166E+00
 5.6595855E+00 1.1441503E+00 1.9149708E+00
 5.5815060E+00 1.1699991E+00 1.9083678E+00
 5.5036898E+00 1.1968350E+00 1.9019007E+00
 5.4263478E+00 1.2248644E+00 1.8956642E+00
 5.3498417E+00 1.2543185E+00 1.8896037E+00
 5.2746277E+00 1.2853982E+00 1.8834786E+00
 5.2011200E+00 1.3182105E+00 1.8768630E+00
 5.8951415E+00 1.1177797E+00 1.9287157E+00
 5.8171595E+00 1.1414248E+00 1.9218442E+00
 5.7394967E+00 1.1657244E+00 1.9143529E+00
 5.6621900E+00 1.1908215E+00 1.9064739E+00
 5.5852856E+00 1.2168418E+00 1.8984199E+00
 5.5089050E+00 1.2439449E+00 1.8903458E+00
 5.4332922E+00 1.2723314E+00 1.8823030E+00
 5.3587981E+00 1.3022051E+00 1.8742006E+00
 5.2857841E+00 1.3337126E+00 1.8657890E+00
 5.8956259E+00 1.1638310E+00 1.9217249E+00
 5.8183680E+00 1.1871776E+00 1.9137047E+00
 5.7416177E+00 1.2113307E+00 1.9049877E+00
 5.6654488E+00 1.2364171E+00 1.8957763E+00
 5.5899716E+00 1.2625511E+00 1.8862489E+00
 5.5153804E+00 1.2898770E+00 1.8765184E+00
 5.4419531E+00 1.3185601E+00 1.8665929E+00
 5.3699737E+00 1.3487423E+00 1.8563545E+00
 5.8962389E+00 1.2088671E+00 1.9125966E+00
 5.8198497E+00 1.2318146E+00 1.9034761E+00
 5.7441832E+00 1.2557544E+00 1.8935579E+00
 5.6694050E+00 1.2808018E+00 1.8830108E+00
 5.5957413E+00 1.3070469E+00 1.8719761E+00
 5.5234684E+00 1.3345837E+00 1.8605260E+00
 5.4528262E+00 1.3634989E+00 1.8486358E+00
 5.8969604E+00 1.2526590E+00 1.9014816E+00
 5.8215875E+00 1.2751498E+00 1.8913115E+00
 5.7472404E+00 1.2988739E+00 1.8802067E+00
 5.6742584E+00 1.3239272E+00 1.8682998E+00
 5.6030081E+00 1.3503300E+00 1.8557003E+00
 5.5337577E+00 1.3780678E+00 1.8424550E+00
 5.8977813E+00 1.2950194E+00 1.8885513E+00
 5.8236214E+00 1.3170617E+00 1.8773696E+00
 5.7509845E+00 1.3406571E+00 1.8650633E+00
 5.6804540E+00 1.3658342E+00 1.8517363E+00
 5.6124535E+00 1.3924565E+00 1.8374920E+00
 5.8987204E+00 1.3358082E+00 1.8739881E+00
 5.8261025E+00 1.3575100E+00 1.8617976E+00
 5.7558710E+00 1.3811829E+00 1.8482168E+00
 5.6887881E+00 1.4066457E+00 1.8333690E+00
 5.8998577E+00 1.3749503E+00 1.8579700E+00
 5.8293948E+00 1.3965582E+00 1.8447054E+00
 5.7627455E+00 1.4206206E+00 1.8297060E+00
 5.9013821E+00 1.4124462E+00 1.8406565E+00
 5.8344415E+00 1.4344569E+00 1.8261139E+00
 5.9038295E+00 1.4483419E+00 1.8221984E+00
 5.9716019E+00 1.4638230E+00 1.8168422E+00
 5.9719991E+00 1.4298549E+00 1.8352618E+00
 5.9723286E+00 1.3937654E+00 1.8529072E+00
 5.9725963E+00 1.3557263E+00 1.8694851E+00
 5.9728061E+00 1.3158569E+00 1.8847688E+00
 5.9729733E+00 1.2742950E+00 1.8985401E+00
 5.9731090E+00 1.2311859E+00 1.9105994E+00
 5.9732195E+00 1.1867108E+00 1.9207599E+00
 5.9733068E+00 1.1410888E+00 1.9288546E+00
 5.9733705E+00 1.0945723E+00 1.9347435E+00
 5.9734095E+00 1.0474423E+00 1.9383209E+00
 5.9734226E+00 9.9999994E-01 1.9395208E+00
 5.9734095E+00 9.5255763E-01 1.9383209E+00
 5.9733706E+00 9.0542756E-01 1.9347435E+00
 5.9733068E+00 8.5891111E-01 1.9288545E+00
 5.9732195E+00 8.1328904E-01 1.9207599E+00
 5.9731090E+00 7.6881397E-01 1.9105993E+00
 5.9729733E+00 7.2570490E-01 1.8985401E+00
 5.9728062E+00 6.8414303E-01 1.8847688E+00
 5.9725963E+00 6.4427358E-01 1.8694851E+00
 5.9723286E+00 6.0623452E-01 1.8529071E+00
 5.9719991E+00 5.7014496E-01 1.8352618E+00
 5.9716019E+00 5.3617689E-01 1.8168422E+00
 6.0323319E+00 5.1408824E-01 1.8066420E+00
 6.0994560E+00 5.2329508E-01 1.8146293E+00
 6.1692255E+00 5.3335689E-01 1.8223389E+00
 6.2412183E+00 5.4434538E-01 1.8296237E+00
 6.3151737E+00 5.5630751E-01 1.8363592E+00
 6.3908607E+00 5.6928688E-01 1.8424687E+00
 6.4680965E+00 5.8330927E-01 1.8479118E+00
 6.5466699E+00 5.9838512E-01 1.8526760E+00
 6.6263422E+00 6.1451932E-01 1.8567646E+00
 6.7068201E+00 6.3172042E-01 1.8601776E+00
 6.7877370E+00 6.5000967E-01 1.8628900E+00
 6.8686479E+00 6.6942648E-01 1.8648306E+00
 6.9490492E+00 6.9002901E-01 1.8658674E+00
 7.0284172E+00 7.1188850E-01 1.8658048E+00
 7.1062505E+00 7.3507839E-01 1.8643944E+00
 7.1821001E+00 7.5966091E-01 1.8613569E+00
 7.2555787E+00 7.8567494E-01 1.8564099E+00
 7.3263533E+00 8.1312809E-01 1.8492961E+00
 7.3941313E+00 8.4199248E-01 1.8398050E+00
 7.4586497E+00 8.7220352E-01 1.8277878E+00
 7.5196300E+00 9.0362426E-01 1.8131754E+00
 7.5767827E+00 9.3601074E-01 1.7959770E+00
 7.6296356E+00 9.6881508E-01 1.7763785E+00
 6.0395811E+00 1.4510945E+00 1.8269214E+00
 6.1088503E+00 1.4396778E+00 1.8354854E+00
 6.1800605E+00 1.4278791E+00 1.8433802E+00
 6.2529941E+00 1.4153605E+00 1.8506147E+00
 6.3276048E+00 1.4019160E+00 1.8571749E+00
 6.4037408E+00 1.3874518E+00 1.8630210E+00
 6.4812246E+00 1.3719212E+00 1.8681308E+00
 6.5598524E+00 1.3553112E+00 1.8724970E+00
 6.6393766E+00 1.3376214E+00 1.8761203E+00
 6.7194897E+00 1.3188491E+00 1.8789933E+00
 6.7998077E+00 1.2989794E+00 1.8810796E+00
 6.8798736E+00 1.2779803E+00 1.8822954E+00
 6.9591815E+00 1.2558041E+00 1.8824976E+00
 7.0372173E+00 1.2323936E+00 1.8814849E+00
 7.1134988E+00 1.2076928E+00 1.8790106E+00
 7.1876020E+00 1.1816583E+00 1.8748062E+00
 7.2591718E+00 1.1542722E+00 1.8686057E+00
 7.3279263E+00 1.1255529E+00 1.8601669E+00
 7.3936596E+00 1.0955667E+00 1.8492824E+00
 7.4562715E+00 1.0644455E+00 1.8357726E+00
 7.5158333E+00 1.0324131E+00 1.8194534E+00
 7.5727605E+00 9.9999995E-01 1.8000522E+00
 6.0427431E+00 1.4151487E+00 1.8456663E+00
 6.1144819E+00 1.4015914E+00 1.8546181E+00
 6.1873277E+00 1.3880447E+00 1.8625709E+00
 6.2615054E+00 1.3739126E+00 1.8696924E+00
 6.3369971E+00 1.3589201E+00 1.8760024E+00
 6.4137445E+00 1.3429140E+00 1.8814987E+00
 6.4916059E+00 1.3258342E+00 1.8861710E+00
 6.5703946E+00 1.3076652E+00 1.8900169E+00
 6.6498650E+00 1.2884102E+00 1.8930358E+00
 6.7297001E+00 1.2680709E+00 1.8952147E+00
 6.8095045E+00 1.2466375E+00 1.8965087E+00
 6.8888144E+00 1.2240842E+00 1.8968244E+00
 6.9671280E+00 1.2003715E+00 1.8960110E+00
 7.0439479E+00 1.1754524E+00 1.8938637E+00
 7.1188220E+00 1.1492815E+00 1.8901379E+00
 7.1913745E+00 1.1218278E+00 1.8845702E+00
 7.2613300E+00 1.0930891E+00 1.8768959E+00
 7.3285465E+00 1.0631099E+00 1.8668552E+00
 7.3930673E+00 1.0320049E+00 1.8541797E+00
 7.4552087E+00 9.9999995E-01 1.8385484E+00
 7.5158333E+00 9.6758684E-01 1.8194534E+00
 6.0448758E+00 1.3774945E+00 1.8632231E+00
 6.1182756E+00 1.3622012E+00 1.8721566E+00
 6.1925635E+00 1.3469643E+00 1.8799956E+00
 6.2678663E+00 1.3312309E+00 1.8868661E+00
 6.3442267E+00 1.3146664E+00 1.8928122E+00
 6.4215932E+00 1.2971028E+00 1.8978385E+00
 6.4998519E+00 1.2784691E+00 1.9019432E+00
 6.5788226E+00 1.2587514E+00 1.9051264E+00
 6.6582583E+00 1.2379554E+00 1.9073869E+00
 6.7378341E+00 1.2160864E+00 1.9087078E+00
 6.8171467E+00 1.1931376E+00 1.9090381E+00
 6.8957322E+00 1.1690875E+00 1.9082772E+00
 6.9731009E+00 1.1439010E+00 1.9062684E+00
 7.0487849E+00 1.1175365E+00 1.9028037E+00
 7.1223841E+00 1.0899563E+00 1.8976364E+00
 7.1936127E+00 1.0611432E+00 1.8904962E+00
 7.2623490E+00 1.0311236E+00 1.8810952E+00
 7.3286958E+00 9.9999995E-01 1.8691173E+00
 7.3930673E+00 9.6799498E-01 1.8541797E+00
 7.4562715E+00 9.3555440E-01 1.8357726E+00
 6.0464871E+00 1.3381403E+00 1.8794557E+00
 6.1211492E+00 1.3213149E+00 1.8881200E+00
 6.1965817E+00 1.3045150E+00 1.8956431E+00
 6.2728457E+00 1.2872252E+00 1.9021078E+00
 6.3499559E+00 1.2691189E+00 1.9075446E+00
 6.4278619E+00 1.2500240E+00 1.9119579E+00
 6.5064490E+00 1.2298739E+00 1.9153466E+00
 6.5855376E+00 1.2086575E+00 1.9177123E+00
 6.6648750E+00 1.1863841E+00 1.9190535E+00
 6.7441302E+00 1.1630605E+00 1.9193508E+00
 6.8228982E+00 1.1386812E+00 1.9185483E+00
 6.9007234E+00 1.1132251E+00 1.9165401E+00
 6.9771415E+00 1.0866580E+00 1.9131639E+00
 7.0517337E+00 1.0589421E+00 1.9082059E+00
 7.1241870E+00 1.0300516E+00 1.9014096E+00
 7.1943596E+00 9.9999995E-01 1.8924832E+00
 7.2623490E+00 9.6887629E-01 1.8810952E+00
 7.3285465E+00 9.3688997E-01 1.8668552E+00
 7.3936596E+00 9.0443319E-01 1.8492824E+00
 6.0477952E+00 1.2971027E+00 1.8942114E+00
 6.1234847E+00 1.2788996E+00 1.9024092E+00
 6.1998464E+00 1.2606475E+00 1.9094359E+00
 6.2768895E+00 1.2418795E+00 1.9153308E+00
 6.3545957E+00 1.2222936E+00 1.9201032E+00
 6.4328997E+00 1.2017335E+00 1.9237496E+00
 6.5116802E+00 1.1801426E+00 1.9262673E+00
 6.5907524E+00 1.1575163E+00 1.9276587E+00
 6.6698592E+00 1.1338662E+00 1.9279226E+00
 6.7486680E+00 1.1091989E+00 1.9270376E+00
 6.8267806E+00 1.0835066E+00 1.9249441E+00
 6.9037622E+00 1.0567650E+00 1.9215308E+00
 6.9791918E+00 1.0289394E+00 1.9166285E+00
 7.0527285E+00 9.9999995E-01 1.9100129E+00
 7.1241870E+00 9.6994830E-01 1.9014096E+00
 7.1936127E+00 9.3885674E-01 1.8904962E+00
 7.2613300E+00 9.0691078E-01 1.8768959E+00
 7.3279263E+00 8.7444699E-01 1.8601669E+00
 6.0489092E+00 1.2544668E+00 1.9073140E+00
 6.1254586E+00 1.2350117E+00 1.9148796E+00
 6.2025690E+00 1.2154141E+00 1.9212462E+00
 6.2802080E+00 1.1952609E+00 1.9264125E+00
 6.3583289E+00 1.1742861E+00 1.9303653E+00
 6.4368508E+00 1.1523580E+00 1.9330920E+00
 6.5156447E+00 1.1294352E+00 1.9345880E+00
 6.5945213E+00 1.1055197E+00 1.9348564E+00
 6.6732235E+00 1.0806240E+00 1.9338964E+00
 6.7514249E+00 1.0547508E+00 1.9316852E+00
 6.8287446E+00 1.0278859E+00 1.9281590E+00
 6.9047850E+00 9.9999995E-01 1.9231998E+00
 6.9791918E+00 9.7106047E-01 1.9166285E+00
 7.0517337E+00 9.4105784E-01 1.9082059E+00
 7.1223841E+00 9.1004360E-01 1.8976363E+00
 7.1913745E+00 8.7817208E-01 1.8845702E+00
 7.2591718E+00 8.4572769E-01 1.8686057E+00
 6.0498677E+00 1.2103774E+00 1.9185801E+00
 6.1271268E+00 1.1897828E+00 1.9253694E+00
 6.2048091E+00 1.1689499E+00 1.9309268E+00
 6.2828526E+00 1.1475199E+00 1.9352154E+00
 6.3611893E+00 1.1252696E+00 1.9382023E+00
 6.4397268E+00 1.1020970E+00 1.9398665E+00
 6.5183313E+00 1.0779770E+00 1.9402026E+00
 6.5968143E+00 1.0529170E+00 1.9392149E+00
 6.6749246E+00 1.0269264E+00 1.9369026E+00
 6.7523514E+00 9.9999995E-01 1.9332405E+00
 6.8287446E+00 9.7211399E-01 1.9281590E+00
 6.9037622E+00 9.4323492E-01 1.9215307E+00
 6.9771415E+00 9.1334191E-01 1.9131639E+00
 7.0487849E+00 8.8246343E-01 1.9028036E+00
 7.1188220E+00 8.5071840E-01 1.8901379E+00
 7.1876020E+00 8.1834157E-01 1.8748061E+00
 6.0506706E+00 1.1650256E+00 1.9278350E+00
 6.1284796E+00 1.1434070E+00 1.9337203E+00
 6.2065489E+00 1.1214581E+00 1.9383342E+00
 6.2847961E+00 1.0988757E+00 1.9416101E+00
 6.3631402E+00 1.0754834E+00 1.9434991E+00
 6.4414833E+00 1.0512103E+00 1.9439746E+00
 6.5196924E+00 1.0260461E+00 1.9430314E+00
 6.5975852E+00 9.9999995E-01 1.9406746E+00
 6.6749246E+00 9.7307349E-01 1.9369026E+00
 6.7514249E+00 9.4524915E-01 1.9316852E+00
 6.8267806E+00 9.1649332E-01 1.9249441E+00
 6.9007234E+00 8.8677486E-01 1.9165400E+00
 6.9731009E+00 8.5609893E-01 1.9062683E+00
 7.0439479E+00 8.2454756E-01 1.8938636E+00
 7.1134988E+00 7.9230713E-01 1.8790105E+00
 6.0512998E+00 1.1186440E+00 1.9349247E+00
 6.1294828E+00 1.0961271E+00 1.9397940E+00
 6.2077438E+00 1.0731943E+00 1.9433465E+00
 6.2859888E+00 1.0496001E+00 1.9454921E+00
 6.3641315E+00 1.0252157E+00 1.9461702E+00
 6.4420748E+00 9.9999995E-01 1.9453515E+00
 6.5196924E+00 9.7395382E-01 1.9430314E+00
 6.5968143E+00 9.4708289E-01 1.9392149E+00
 6.6732235E+00 9.1937594E-01 1.9338964E+00
 6.7486680E+00 8.9080099E-01 1.9270375E+00
 6.8228982E+00 8.6131867E-01 1.9185483E+00
 6.8957322E+00 8.3091242E-01 1.9082771E+00
 6.9671280E+00 7.9962840E-01 1.8960109E+00
 7.0372173E+00 7.6760627E-01 1.8814848E+00
 6.0517337E+00 1.0714995E+00 1.9397245E+00
 6.1301011E+00 1.0482229E+00 1.9434834E+00
 6.2083529E+00 1.0244521E+00 1.9458757E+00
 6.2863912E+00 9.9999994E-01 1.9467938E+00
 6.3641315E+00 9.7478419E-01 1.9461702E+00
 6.4414833E+00 9.4878962E-01 1.9439746E+00
 6.5183313E+00 9.2202291E-01 1.9402026E+00
 6.5945213E+00 8.9448016E-01 1.9348564E+00
 6.6698592E+00 8.6613374E-01 1.9279225E+00
 6.7441302E+00 8.3693939E-01 1.9193507E+00
 6.8171467E+00 8.0686227E-01 1.9090380E+00
 6.8888144E+00 7.7591574E-01 1.8968243E+00
 6.9591815E+00 7.4419587E-01 1.8824976E+00
 6.0519552E+00 1.0238859E+00 1.9421471E+00
 6.1303100E+00 9.9999994E-01 1.9447209E+00
 6.2083529E+00 9.7554782E-01 1.9458757E+00
 6.2859888E+00 9.5039982E-01 1.9454921E+00
 6.3631402E+00 9.2451649E-01 1.9434990E+00
 6.4397268E+00 8.9790289E-01 1.9398665E+00
 6.5156446E+00 8.7056472E-01 1.9345879E+00
 6.5907524E+00 8.4248361E-01 1.9276587E+00
 6.6648750E+00 8.1361582E-01 1.9190534E+00
 6.7378340E+00 7.8391356E-01 1.9087078E+00
 6.8095045E+00 7.5336246E-01 1.8965086E+00
 6.8798736E+00 7.2201966E-01 1.8822953E+00
 6.0519552E+00 9.7611400E-01 1.9421471E+00
 6.1301011E+00 9.5177700E-01 1.9434834E+00
 6.2077438E+00 9.2680561E-01 1.9433465E+00
 6.2847961E+00 9.0112422E-01 1.9416101E+00
 6.3611893E+00 8.7473032E-01 1.9382023E+00
 6.4368508E+00 8.4764186E-01 1.9330920E+00
 6.5116802E+00 8.1985731E-01 1.9262673E+00
 6.5855376E+00 7.9134238E-01 1.9177122E+00
 6.6582583E+00 7.6204453E-01 1.9073869E+00
 6.7297001E+00 7.3192903E-01 1.8952146E+00
 6.7998077E+00 7.0102056E-01 1.8810795E+00
 6.0517337E+00 9.2850042E-01 1.9397245E+00
 6.1294828E+00 9.0387277E-01 1.9397940E+00
 6.2065489E+00 8.7854182E-01 1.9383342E+00
 6.2828526E+00 8.5248002E-01 1.9352154E+00
 6.3583289E+00 8.2571378E-01 1.9303653E+00
 6.4328997E+00 7.9826640E-01 1.9237495E+00
 6.5064490E+00 7.7012604E-01 1.9153466E+00
 6.5788225E+00 7.4124854E-01 1.9051264E+00
 6.6498650E+00 7.1158977E-01 1.8930358E+00
 6.7194897E+00 6.8115082E-01 1.8789932E+00
 6.0512998E+00 8.8135591E-01 1.9349247E+00
 6.1284796E+00 8.5659283E-01 1.9337203E+00
 6.2048091E+00 8.3104995E-01 1.9309268E+00
 6.2802079E+00 8.0473895E-01 1.9264124E+00
 6.3545957E+00 7.7770626E-01 1.9201032E+00
 6.4278619E+00 7.4997595E-01 1.9119579E+00
 6.4998518E+00 7.2153082E-01 1.9019432E+00
 6.5703946E+00 6.9233472E-01 1.8900169E+00
 6.6393766E+00 6.6237856E-01 1.8761202E+00
 6.0506706E+00 8.3497424E-01 1.9278350E+00
 6.1271267E+00 8.1021708E-01 1.9253693E+00
 6.2025689E+00 7.8458578E-01 1.9212462E+00
 6.2768895E+00 7.5812040E-01 1.9153308E+00
 6.3499558E+00 7.3088100E-01 1.9075445E+00
 6.4215932E+00 7.0289715E-01 1.8978384E+00
 6.4916059E+00 6.7416571E-01 1.8861709E+00
 6.5598524E+00 6.4468878E-01 1.8724969E+00
 6.0498677E+00 7.8962251E-01 1.9185800E+00
 6.1254586E+00 7.6498822E-01 1.9148796E+00
 6.1998464E+00 7.3935234E-01 1.9094359E+00
 6.2728456E+00 7.1277468E-01 1.9021077E+00
 6.3442267E+00 6.8533349E-01 1.8928121E+00
 6.4137444E+00 6.5708596E-01 1.8814986E+00
 6.4812246E+00 6.2807879E-01 1.8681307E+00
 6.0489092E+00 7.4553309E-01 1.9073140E+00
 6.1234846E+00 7.2110031E-01 1.9024092E+00
 6.1965816E+00 6.9548494E-01 1.8956431E+00
 6.2678662E+00 6.6876898E-01 1.8868661E+00
 6.3369971E+00 6.4107983E-01 1.8760023E+00
 6.4037407E+00 6.1254815E-01 1.8630209E+00
 6.0477952E+00 7.0289720E-01 1.8942114E+00
 6.1211492E+00 6.7868501E-01 1.8881200E+00
 6.1925635E+00 6.5303558E-01 1.8799956E+00
 6.2615053E+00 6.2608728E-01 1.8696923E+00
 6.3276047E+00 5.9808393E-01 1.8571749E+00
 6.0464871E+00 6.6185960E-01 1.8794557E+00
 6.1182756E+00 6.3779870E-01 1.8721566E+00
 6.1873276E+00 6.1195522E-01 1.8625709E+00
 6.2529941E+00 5.8463944E-01 1.8506146E+00
 6.0448758E+00 6.2250540E-01 1.8632231E+00
 6.1144819E+00 5.9840853E-01 1.8546181E+00
 6.1800605E+00 5.7212079E-01 1.8433801E+00
 6.0427431E+00 5.8485116E-01 1.8456663E+00
 6.1088502E+00 5.6032215E-01 1.8354854E+00
 6.0395811E+00 5.4890542E-01 1.8269214E+00
 5.9339354E+00 1.5168720E+00 1.7824845E+00
 5.8926910E+00 1.5415901E+00 1.7633963E+00
 5.8497175E+00 1.5666236E+00 1.7425952E+00
 5.8053034E+00 1.5917189E+00 1.7201841E+00
 5.7595872E+00 1.6167786E+00 1.6961856E+00
 5.7127687E+00 1.6417264E+00 1.6706215E+00
 5.6650425E+00 1.6665075E+00 1.6435060E+00
 5.6166261E+00 1.6910623E+00 1.6148648E+00
 5.5677712E+00 1.7153259E+00 1.5847294E+00
 5.5187660E+00 1.7392222E+00 1.5531346E+00
 5.4699377E+00 1.7626587E+00 1.5201161E+00
 5.4216490E+00 1.7855183E+00 1.4857094E+00
 5.3742882E+00 1.8076547E+00 1.4499523E+00
 5.3282534E+00 1.8288899E+00 1.4128886E+00
 5.2839310E+00 1.8490174E+00 1.3745758E+00
 5.2416733E+00 1.8678116E+00 1.3350925E+00
 5.2017817E+00 1.8850419E+00 1.2945452E+00
 5.1645008E+00 1.9004893E+00 1.2530714E+00
 5.1300204E+00 1.9139613E+00 1.2108375E+00
 5.0984884E+00 1.9253038E+00 1.1680366E+00
 5.0700165E+00 1.9344018E+00 1.1249248E+00
 5.0445732E+00 1.9411951E+00 1.0818172E+00
 5.0220484E+00 1.9456905E+00 1.0392837E+00
 4.2836450E+00 1.0952710E+00 1.8088453E+00
 4.2747592E+00 1.1572592E+00 1.7931404E+00
 4.2690867E+00 1.2202301E+00 1.7740523E+00
 4.2674737E+00 1.2841135E+00 1.7518311E+00
 4.2704170E+00 1.3485514E+00 1.7265370E+00
 4.2782837E+00 1.4130160E+00 1.6982146E+00
 4.2913316E+00 1.4768510E+00 1.6669310E+00
 4.3097156E+00 1.5393127E+00 1.6328025E+00
 4.3334823E+00 1.5995989E+00 1.5960148E+00
 4.3625596E+00 1.6568807E+00 1.5568353E+00
 4.3967459E+00 1.7103401E+00 1.5156183E+00
 4.4357049E+00 1.7592146E+00 1.4728023E+00
 4.4789712E+00 1.8028473E+00 1.4288986E+00
 4.5259725E+00 1.8407370E+00 1.3844730E+00
 4.5760676E+00 1.8725827E+00 1.3401194E+00
 4.6285992E+00 1.8983153E+00 1.2964294E+00
 4.6829514E+00 1.9181105E+00 1.2539585E+00
 4.7385961E+00 1.9323774E+00 1.2131891E+00
 4.7951010E+00 1.9417231E+00 1.1744949E+00
 4.8521177E+00 1.9468950E+00 1.1380965E+00
 4.9093282E+00 1.9487174E+00 1.1039793E+00
 4.9662330E+00 1.9480381E+00 1.0718028E+00
 4.3365974E+00 1.1331404E+00 1.8362876E+00
 4.3309580E+00 1.1974458E+00 1.8202835E+00
 4.3283904E+00 1.2615978E+00 1.8006532E+00
 4.3298284E+00 1.3258274E+00 1.7776885E+00
 4.3358292E+00 1.3899219E+00 1.7515013E+00
 4.3467504E+00 1.4534095E+00 1.7221648E+00
 4.3627958E+00 1.5156519E+00 1.6897701E+00
 4.3840361E+00 1.5759065E+00 1.6544628E+00
 4.4104181E+00 1.6333801E+00 1.6164669E+00
 4.4417661E+00 1.6872753E+00 1.5760978E+00
 4.4777821E+00 1.7368395E+00 1.5337639E+00
 4.5180530E+00 1.7814156E+00 1.4899589E+00
 4.5620721E+00 1.8204922E+00 1.4452434E+00
 4.6092750E+00 1.8537481E+00 1.4002196E+00
 4.6590889E+00 1.8810833E+00 1.3554982E+00
 4.7109834E+00 1.9026321E+00 1.3116609E+00
 4.7645038E+00 1.9187540E+00 1.2692173E+00
 4.8192794E+00 1.9300018E+00 1.2285529E+00
 4.8750070E+00 1.9370746E+00 1.1898600E+00
 4.9313966E+00 1.9407565E+00 1.1530678E+00
 4.9881631E+00 1.9418612E+00 1.1175558E+00
 4.3944382E+00 1.1693285E+00 1.8598853E+00
 4.3918628E+00 1.2346207E+00 1.8432293E+00
 4.3923611E+00 1.2992256E+00 1.8228266E+00
 4.3968176E+00 1.3632768E+00 1.7989336E+00
 4.4057956E+00 1.4265703E+00 1.7716822E+00
 4.4196202E+00 1.4886427E+00 1.7411711E+00
 4.4384286E+00 1.5488607E+00 1.7075236E+00
 4.4622055E+00 1.6064968E+00 1.6709269E+00
 4.4908064E+00 1.6607927E+00 1.6316576E+00
 4.5239712E+00 1.7110162E+00 1.5900907E+00
 4.5613376E+00 1.7565170E+00 1.5466958E+00
 4.6024628E+00 1.7967782E+00 1.5020218E+00
 4.6468581E+00 1.8314611E+00 1.4566715E+00
 4.6940326E+00 1.8604372E+00 1.4112674E+00
 4.7435345E+00 1.8838013E+00 1.3664114E+00
 4.7949749E+00 1.9018655E+00 1.3226359E+00
 4.8480267E+00 1.9151327E+00 1.2803448E+00
 4.9023987E+00 1.9242554E+00 1.2397457E+00
 4.9578093E+00 1.9299852E+00 1.2007404E+00
 5.0139128E+00 1.9331085E+00 1.1628334E+00
 4.4566905E+00 1.2038249E+00 1.8788868E+00
 4.4570257E+00 1.2691448E+00 1.8613078E+00
 4.4604694E+00 1.3334255E+00 1.8399147E+00
 4.4678290E+00 1.3966676E+00 1.8149229E+00
 4.4796235E+00 1.4586035E+00 1.7864694E+00
 4.4961212E+00 1.5187492E+00 1.7546799E+00
 4.5173856E+00 1.5764771E+00 1.7197194E+00
 4.5433226E+00 1.6310926E+00 1.6818303E+00
 4.5737175E+00 1.6819015E+00 1.6413523E+00
 4.6082605E+00 1.7282718E+00 1.5987253E+00
 4.6465736E+00 1.7696885E+00 1.5544784E+00
 4.6882425E+00 1.8057999E+00 1.5092058E+00
 4.7328534E+00 1.8364502E+00 1.4635329E+00
 4.7800234E+00 1.8616953E+00 1.4180738E+00
 4.8294151E+00 1.8817988E+00 1.3733811E+00
 4.8807285E+00 1.8972118E+00 1.3298862E+00
 4.9336744E+00 1.9085405E+00 1.2878226E+00
 4.9879340E+00 1.9164974E+00 1.2471508E+00
 5.0430961E+00 1.9218419E+00 1.2074804E+00
 4.5228548E+00 1.2363168E+00 1.8927672E+00
 4.5259129E+00 1.3009163E+00 1.8740403E+00
 4.5321223E+00 1.3641869E+00 1.8514775E+00