# TIME = 8.400000
variables = x, y, z
zone N=5762 E=11520 F=FEPOINT ET=TRIANGLE
 5.7504984E+00 1.4921272E+00 1.7960246E+00
 5.7504984E+00 1.4921273E+00 2.0397532E-01
 5.7504984E+00 5.0787297E-01 1.7960245E+00
 5.7504985E+00 5.0787278E-01 2.0397518E-01
 4.0322958E+00 1.0000001E+00 1.7883613E+00
 7.4524372E+00 1.0000001E+00 1.7546309E+00
 4.0322961E+00 1.0000001E+00 2.1163913E-01
 7.4524372E+00 1.0000001E+00 2.4536906E-01
 4.7901558E+00 1.9497962E+00 1.0000000E+00
 4.7901558E+00 5.0203799E-02 1.0000000E+00
 6.6949052E+00 1.9272707E+00 1.0000000E+00
 6.6949051E+00 7.2729799E-02 1.0000000E+00
 5.6901367E+00 1.4817361E+00 1.7995245E+00
 5.6235203E+00 1.4702279E+00 1.8032766E+00
 5.5539378E+00 1.4583065E+00 1.8072312E+00
 5.4816319E+00 1.4460551E+00 1.8115968E+00
 5.4067656E+00 1.4335646E+00 1.8165998E+00
 5.3295049E+00 1.4208874E+00 1.8225035E+00
 5.2500282E+00 1.4080534E+00 1.8295652E+00
 5.1686176E+00 1.3950461E+00 1.8379986E+00
 5.0856944E+00 1.3817776E+00 1.8479121E+00
 5.0018554E+00 1.3680642E+00 1.8592324E+00
 4.9178434E+00 1.3536135E+00 1.8716301E+00
 4.8344388E+00 1.3380354E+00 1.8844839E+00
 4.7523194E+00 1.3208857E+00 1.8969069E+00
 4.6719648E+00 1.3017303E+00 1.9078329E+00
 4.5936481E+00 1.2802147E+00 1.9161359E+00
 4.5175137E+00 1.2561238E+00 1.9207609E+00
 4.4437197E+00 1.2294197E+00 1.9208475E+00
 4.3725697E+00 1.2002528E+00 1.9158306E+00
 4.3045466E+00 1.1689406E+00 1.9054931E+00
 4.2402240E+00 1.1359232E+00 1.8899556E+00
 4.1801741E+00 1.1017337E+00 1.8696305E+00
 4.1248804E+00 1.0669657E+00 1.8451379E+00
 4.0748515E+00 1.0323821E+00 1.8173443E+00
 5.6834203E+00 5.5281642E-01 1.8190325E+00
 5.6145623E+00 5.6634268E-01 1.8231875E+00
 5.5433445E+00 5.7974740E-01 1.8272713E+00
 5.4698895E+00 5.9325491E-01 1.8316523E+00
 5.3941470E+00 6.0699424E-01 1.8366701E+00
 5.3162231E+00 6.2099011E-01 1.8426137E+00
 5.2362994E+00 6.3526468E-01 1.8497422E+00
 5.1546760E+00 6.4986573E-01 1.8582449E+00
 5.0718118E+00 6.6490653E-01 1.8681854E+00
 4.9883396E+00 6.8058683E-01 1.8794269E+00
 4.9050151E+00 6.9719719E-01 1.8915675E+00
 4.8225977E+00 7.1509661E-01 1.9039212E+00
 4.7417175E+00 7.3466540E-01 1.9155609E+00
 4.6628003E+00 7.5624547E-01 1.9254160E+00
 4.5860788E+00 7.8008461E-01 1.9323939E+00
 4.5116791E+00 8.0629329E-01 1.9355057E+00
 4.4397538E+00 8.3482140E-01 1.9339775E+00
 4.3705836E+00 8.6545551E-01 1.9273306E+00
 4.3045734E+00 8.9783392E-01 1.9154071E+00
 4.2421221E+00 9.3147286E-01 1.8983188E+00
 4.1834454E+00 9.6579073E-01 1.8763253E+00
 4.1283833E+00 1.0000001E+00 1.8496500E+00
 5.6809486E+00 5.8826945E-01 1.8372972E+00
 5.6094601E+00 6.0377258E-01 1.8416231E+00
 5.5364438E+00 6.1869583E-01 1.8456739E+00
 5.4615536E+00 6.3359862E-01 1.8499733E+00
 5.3847309E+00 6.4870908E-01 1.8548922E+00
 5.3059844E+00 6.6414624E-01 1.8607459E+00
 5.2254782E+00 6.7997196E-01 1.8677851E+00
 5.1435189E+00 6.9626637E-01 1.8761754E+00
 5.0605946E+00 7.1316396E-01 1.8859366E+00
 4.9773656E+00 7.3087465E-01 1.8968728E+00
 4.8945937E+00 7.4967794E-01 1.9085165E+00
 4.8130138E+00 7.6989381E-01 1.9201266E+00
 4.7332113E+00 7.9183578E-01 1.9307461E+00
 4.6555631E+00 8.1575941E-01 1.9393093E+00
 4.5802622E+00 8.4182063E-01 1.9447618E+00
 4.5074041E+00 8.7004618E-01 1.9461783E+00
 4.4370968E+00 9.0031833E-01 1.9428552E+00
 4.3695116E+00 9.3237036E-01 1.9343594E+00
 4.3048101E+00 9.6578688E-01 1.9205013E+00
 4.2429666E+00 1.0000001E+00 1.9012207E+00
 4.1834454E+00 1.0342094E+00 1.8763254E+00
 5.6793597E+00 6.2537226E-01 1.8544771E+00
 5.6061275E+00 6.4241395E-01 1.8586168E+00
 5.5315342E+00 6.5882034E-01 1.8624725E+00
 5.4553602E+00 6.7513688E-01 1.8665450E+00
 5.3774829E+00 6.9168638E-01 1.8712288E+00
 5.2979178E+00 7.0862974E-01 1.8768371E+00
 5.2168173E+00 7.2606812E-01 1.8836111E+00
 5.1345089E+00 7.4410598E-01 1.8916891E+00
 5.0515078E+00 7.6289529E-01 1.9010487E+00
 4.9684970E+00 7.8264831E-01 1.9114383E+00
 4.8862386E+00 8.0362554E-01 1.9223330E+00
 4.8054408E+00 8.2610288E-01 1.9329473E+00
 4.7266449E+00 8.5032882E-01 1.9423071E+00
 4.6501794E+00 8.7648280E-01 1.9493605E+00
 4.5761889E+00 9.0464417E-01 1.9530950E+00
 4.5047064E+00 9.3476915E-01 1.9526402E+00
 4.4357189E+00 9.6667144E-01 1.9473334E+00
 4.3691645E+00 1.0000001E+00 1.9367265E+00
 4.3048101E+00 1.0342133E+00 1.9205013E+00
 4.2421221E+00 1.0685273E+00 1.8983189E+00
 5.6781472E+00 6.6418868E-01 1.8704210E+00
 5.6035692E+00 6.8255053E-01 1.8741536E+00
 5.5277114E+00 7.0031785E-01 1.8776294E+00
 5.4504305E+00 7.1802614E-01 1.8813212E+00
 5.3716381E+00 7.3601602E-01 1.8856112E+00
 5.2913586E+00 7.5447851E-01 1.8908031E+00
 5.2097640E+00 7.7353663E-01 1.8971200E+00
 5.1272047E+00 7.9331453E-01 1.9046716E+00
 5.0442226E+00 8.1397409E-01 1.9133932E+00
 4.9615159E+00 8.3572271E-01 1.9229832E+00
 4.8798400E+00 8.5879592E-01 1.9328692E+00
 4.7998710E+00 8.8342486E-01 1.9422351E+00
 4.7221035E+00 9.0979899E-01 1.9501031E+00
 4.6468099E+00 9.3803301E-01 1.9554444E+00
 4.5740623E+00 9.6813947E-01 1.9572882E+00
 4.5037739E+00 1.0000001E+00 1.9548039E+00
 4.4357189E+00 1.0333288E+00 1.9473336E+00
 4.3695116E+00 1.0676298E+00 1.9343596E+00
 4.3045734E+00 1.1021663E+00 1.9154073E+00
 5.6771157E+00 7.0473798E-01 1.8849637E+00
 5.6014096E+00 7.2425801E-01 1.8881136E+00
 5.5245049E+00 7.4328222E-01 1.8910452E+00
 5.4463130E+00 7.6232222E-01 1.8941970E+00
 5.3667847E+00 7.8171540E-01 1.8979280E+00
 5.2859685E+00 8.0166177E-01 1.9025230E+00
 5.2040593E+00 8.2229794E-01 1.9081824E+00
 5.1214325E+00 8.4375968E-01 1.9149852E+00
 5.0386495E+00 8.6621265E-01 1.9228270E+00
 4.9564140E+00 8.8985372E-01 1.9313629E+00
 4.8754639E+00 9.1489158E-01 1.9399859E+00
 4.7964358E+00 9.4151611E-01 1.9478641E+00
 4.7197680E+00 9.6986631E-01 1.9540289E+00
 4.6456580E+00 1.0000002E+00 1.9574814E+00
 4.5740623E+00 1.0318608E+00 1.9572884E+00
 4.5047064E+00 1.0652311E+00 1.9526405E+00
 4.4370969E+00 1.0996819E+00 1.9428556E+00
 4.3705836E+00 1.1345447E+00 1.9273309E+00
 5.6761906E+00 7.4694816E-01 1.8979148E+00
 5.5995173E+00 7.6749654E-01 1.9003346E+00
 5.5217523E+00 7.8767945E-01 1.9025729E+00
 5.4428515E+00 8.0797316E-01 1.9050297E+00
 5.3627979E+00 8.2869956E-01 1.9080356E+00
 5.2816652E+00 8.5005583E-01 1.9118512E+00
 5.1996702E+00 8.7218432E-01 1.9166516E+00
 5.1172070E+00 8.9522683E-01 1.9224847E+00
 5.0348472E+00 9.1934817E-01 1.9292101E+00
 4.9532869E+00 9.4473292E-01 1.9364495E+00
 4.8732336E+00 9.7156518E-01 1.9435740E+00
 4.7952724E+00 1.0000003E+00 1.9497503E+00
 4.7197681E+00 1.0301341E+00 1.9540290E+00
 4.6468101E+00 1.0619674E+00 1.9554448E+00
 4.5761891E+00 1.0953562E+00 1.9530955E+00
 4.5074042E+00 1.1299541E+00 1.9461789E+00
 4.4397538E+00 1.1651789E+00 1.9339780E+00
 5.6753669E+00 7.9067481E-01 1.9090771E+00
 5.5978824E+00 8.1213676E-01 1.9106403E+00
 5.5194482E+00 8.3337487E-01 1.9120486E+00
 5.4400528E+00 8.5482631E-01 1.9136628E+00
 5.3597051E+00 8.7678725E-01 1.9157822E+00
 5.2784992E+00 8.9944507E-01 1.9186413E+00
 5.1966685E+00 9.2294240E-01 1.9223887E+00
 5.1146172E+00 9.4742361E-01 1.9270425E+00
 5.0329138E+00 9.7305145E-01 1.9324321E+00
 4.9522318E+00 1.0000003E+00 1.9381555E+00
 4.8732336E+00 1.0284354E+00 1.9435741E+00
 4.7964359E+00 1.0584844E+00 1.9478644E+00
 4.7221037E+00 1.0902015E+00 1.9501036E+00
 4.6501796E+00 1.1235176E+00 1.9493612E+00
 4.5802624E+00 1.1581797E+00 1.9447626E+00
 4.5116792E+00 1.1937071E+00 1.9355064E+00
 5.6746656E+00 8.3572239E-01 1.9182648E+00
 5.5965442E+00 8.5797898E-01 1.9188610E+00
 5.5176457E+00 8.8015689E-01 1.9193153E+00
 5.4379827E+00 9.0264900E-01 1.9199496E+00
 5.3575832E+00 9.2571913E-01 1.9210319E+00
 5.2765554E+00 9.4953987E-01 1.9227699E+00
 5.1951413E+00 9.7425147E-01 1.9252863E+00
 5.1137436E+00 1.0000002E+00 1.9285720E+00
 5.0329137E+00 1.0269491E+00 1.9324322E+00
 4.9532869E+00 1.0552677E+00 1.9364497E+00
 4.8754640E+00 1.0851090E+00 1.9399862E+00
 4.7998713E+00 1.1165757E+00 1.9422358E+00
 4.7266453E+00 1.1496717E+00 1.9423079E+00
 4.6555635E+00 1.1842411E+00 1.9393102E+00
 4.5860791E+00 1.2199158E+00 1.9323949E+00
 5.6741134E+00 8.8185057E-01 1.9253139E+00
 5.5955499E+00 9.0477032E-01 1.9248489E+00
 5.5164056E+00 9.2775591E-01 1.9242402E+00
 5.4367097E+00 9.5115014E-01 1.9237725E+00
 5.3565026E+00 9.7517981E-01 1.9236836E+00
 5.2758995E+00 1.0000002E+00 1.9241556E+00
 5.1951412E+00 1.0257489E+00 1.9252863E+00
 5.1146171E+00 1.0525769E+00 1.9270425E+00
 5.0348471E+00 1.0806524E+00 1.9292103E+00
 4.9564139E+00 1.1101469E+00 1.9313632E+00
 4.8798401E+00 1.1412047E+00 1.9328698E+00
 4.8054412E+00 1.1738977E+00 1.9329481E+00
 4.7332118E+00 1.2081648E+00 1.9307472E+00
 4.6628008E+00 1.2437551E+00 1.9254172E+00
 5.6737325E+00 9.2878075E-01 1.9300918E+00
 5.5949375E+00 9.5221765E-01 1.9284899E+00
 5.5157735E+00 9.7586150E-01 1.9267277E+00
 5.4362800E+00 1.0000001E+00 1.9250555E+00
 5.3565026E+00 1.0248205E+00 1.9236836E+00
 5.2765553E+00 1.0504605E+00 1.9227700E+00
 5.1966684E+00 1.0770580E+00 1.9223887E+00
 5.1172068E+00 1.1047736E+00 1.9224848E+00
 5.0386492E+00 1.1337879E+00 1.9228272E+00
 4.9615157E+00 1.1642779E+00 1.9229836E+00
 4.8862387E+00 1.1963751E+00 1.9223337E+00
 4.8130143E+00 1.2301068E+00 1.9201276E+00
 4.7417181E+00 1.2653352E+00 1.9155621E+00
 5.6735383E+00 9.7620471E-01 1.9325049E+00
 5.5947307E+00 1.0000001E+00 1.9297117E+00
 5.5157735E+00 1.0241387E+00 1.9267277E+00
 5.4367096E+00 1.0488501E+00 1.9237725E+00
 5.3575831E+00 1.0742812E+00 1.9210319E+00
 5.2784991E+00 1.1005553E+00 1.9186413E+00
 5.1996699E+00 1.1278161E+00 1.9166517E+00
 5.1214322E+00 1.1562408E+00 1.9149853E+00
 5.0442222E+00 1.1860264E+00 1.9133935E+00
 4.9684967E+00 1.2173522E+00 1.9114387E+00
 4.8945938E+00 1.2503226E+00 1.9085173E+00
 4.8225982E+00 1.2849040E+00 1.9039223E+00
 5.6735383E+00 1.0237954E+00 1.9325049E+00
 5.5949375E+00 1.0477825E+00 1.9284899E+00
 5.5164055E+00 1.0722443E+00 1.9242402E+00
 5.4379826E+00 1.0973512E+00 1.9199496E+00
 5.3597049E+00 1.1232130E+00 1.9157822E+00
 5.2816650E+00 1.1499445E+00 1.9118512E+00
 5.2040590E+00 1.1777024E+00 1.9081825E+00
 5.1272044E+00 1.2066859E+00 1.9046717E+00
 5.0515074E+00 1.2371051E+00 1.9010489E+00
 4.9773652E+00 1.2691258E+00 1.8968733E+00
 4.9050152E+00 1.3028033E+00 1.8915683E+00
 5.6737325E+00 1.0712194E+00 1.9300918E+00
 5.5955498E+00 1.0952298E+00 1.9248489E+00
 5.5176456E+00 1.1198433E+00 1.9193153E+00
 5.4400526E+00 1.1451739E+00 1.9136628E+00
 5.3627977E+00 1.1713007E+00 1.9080356E+00
 5.2859681E+00 1.1983385E+00 1.9025230E+00
 5.2097636E+00 1.2264637E+00 1.8971201E+00
 5.1345086E+00 1.2558944E+00 1.8916892E+00
 5.0605942E+00 1.2868364E+00 1.8859369E+00
 4.9883392E+00 1.3194136E+00 1.8794274E+00
 5.6741133E+00 1.1181496E+00 1.9253139E+00
 5.5965441E+00 1.1420212E+00 1.9188610E+00
 5.5194480E+00 1.1666253E+00 1.9120486E+00
 5.4428513E+00 1.1920271E+00 1.9050297E+00
 5.3667844E+00 1.2182848E+00 1.8979280E+00
 5.2913582E+00 1.2455218E+00 1.8908032E+00
 5.2168169E+00 1.2739322E+00 1.8836112E+00
 5.1435185E+00 1.3037339E+00 1.8761755E+00
 5.0718114E+00 1.3350938E+00 1.8681856E+00
 5.6746655E+00 1.1642778E+00 1.9182648E+00
 5.5978823E+00 1.1878634E+00 1.9106403E+00
 5.5217521E+00 1.2123207E+00 1.9025729E+00
 5.4463128E+00 1.2376780E+00 1.8941970E+00
 5.3716377E+00 1.2639842E+00 1.8856112E+00
 5.2979174E+00 1.2913705E+00 1.8768372E+00
 5.2254777E+00 1.3200283E+00 1.8677852E+00
 5.1546756E+00 1.3501345E+00 1.8582450E+00
 5.6753668E+00 1.2093253E+00 1.9090771E+00
 5.5995172E+00 1.2325036E+00 1.9003346E+00
 5.5245047E+00 1.2567180E+00 1.8910452E+00
 5.4504302E+00 1.2819741E+00 1.8813212E+00
 5.3774826E+00 1.3083138E+00 1.8712288E+00
 5.3059840E+00 1.3358540E+00 1.8607459E+00
 5.2362990E+00 1.3647355E+00 1.8497423E+00
 5.6761905E+00 1.2530520E+00 1.8979149E+00
 5.6014094E+00 1.2757422E+00 1.8881137E+00
 5.5277111E+00 1.2996823E+00 1.8776294E+00
 5.4553599E+00 1.3248633E+00 1.8665450E+00
 5.3847305E+00 1.3512911E+00 1.8548922E+00
 5.3162227E+00 1.3790101E+00 1.8426138E+00
 5.6771156E+00 1.2952622E+00 1.8849638E+00
 5.6035691E+00 1.3174496E+00 1.8741536E+00
 5.5315339E+00 1.3411798E+00 1.8624726E+00
 5.4615533E+00 1.3664016E+00 1.8499734E+00
 5.3941467E+00 1.3930059E+00 1.8366702E+00
 5.6781471E+00 1.3358115E+00 1.8704211E+00
 5.6061273E+00 1.3575862E+00 1.8586169E+00
 5.5364436E+00 1.3813043E+00 1.8456740E+00
 5.4698892E+00 1.4067453E+00 1.8316524E+00
 5.6793596E+00 1.3746279E+00 1.8544772E+00
 5.6094600E+00 1.3962276E+00 1.8416232E+00
 5.5433443E+00 1.4202528E+00 1.8272713E+00
 5.6809486E+00 1.4117307E+00 1.8372973E+00
 5.6145621E+00 1.4336575E+00 1.8231876E+00
 5.6834202E+00 1.4471838E+00 1.8190326E+00
 5.7507649E+00 1.4624550E+00 1.8136684E+00
 5.7510910E+00 1.4288574E+00 1.8319035E+00
 5.7513308E+00 1.3931723E+00 1.8493841E+00
 5.7515160E+00 1.3554823E+00 1.8658564E+00
 5.7516602E+00 1.3158859E+00 1.8810920E+00
 5.7517780E+00 1.2745166E+00 1.8948613E+00
 5.7518770E+00 1.2315208E+00 1.9069507E+00
 5.7519601E+00 1.1870844E+00 1.9171601E+00
 5.7520271E+00 1.1414344E+00 1.9253092E+00
 5.7520764E+00 1.0948355E+00 1.9312465E+00
 5.7521067E+00 1.0475840E+00 1.9348570E+00
 5.7521169E+00 1.0000001E+00 1.9360686E+00
 5.7521067E+00 9.5241611E-01 1.9348570E+00
 5.7520765E+00 9.0516464E-01 1.9312465E+00
 5.7520271E+00 8.5856570E-01 1.9253092E+00
 5.7519601E+00 8.1291578E-01 1.9171601E+00
 5.7518770E+00 7.6847936E-01 1.9069507E+00
 5.7517780E+00 7.2548353E-01 1.8948612E+00
 5.7516602E+00 6.8411421E-01 1.8810920E+00
 5.7515161E+00 6.4451782E-01 1.8658564E+00
 5.7513308E+00 6.0682782E-01 1.8493840E+00
 5.7510910E+00 5.7114277E-01 1.8319034E+00
 5.7507650E+00 5.3754518E-01 1.8136683E+00
 5.8110634E+00 5.1567901E-01 1.8037590E+00
 5.8777642E+00 5.2456923E-01 1.8120326E+00
 5.9472199E+00 5.3418378E-01 1.8202784E+00
 6.0190562E+00 5.4463831E-01 1.8283443E+00
 6.0930029E+00 5.5602236E-01 1.8360581E+00
 6.1687798E+00 5.6843179E-01 1.8432682E+00
 6.2461496E+00 5.8194484E-01 1.8498414E+00
 6.3248594E+00 5.9662049E-01 1.8556672E+00
 6.4046506E+00 6.1250099E-01 1.8606582E+00
 6.4852322E+00 6.2961583E-01 1.8647427E+00
 6.5662553E+00 6.4798836E-01 1.8678509E+00
 6.6472952E+00 6.6764190E-01 1.8698976E+00
 6.7278563E+00 6.8860369E-01 1.8707665E+00
 6.8074025E+00 7.1090435E-01 1.8703016E+00
 6.8854024E+00 7.3457266E-01 1.8683085E+00
 6.9613693E+00 7.5962641E-01 1.8645682E+00
 7.0348813E+00 7.8606278E-01 1.8588577E+00
 7.1055804E+00 8.1385070E-01 1.8509737E+00
 7.1731589E+00 8.4292693E-01 1.8407541E+00
 7.2373484E+00 8.7319869E-01 1.8280939E+00
 7.2978785E+00 9.0451893E-01 1.8129638E+00
 7.3544887E+00 9.3666560E-01 1.7954036E+00
 7.4067509E+00 9.6914512E-01 1.7756154E+00
 5.8182975E+00 1.4499442E+00 1.8238319E+00
 5.8871185E+00 1.4388979E+00 1.8327203E+00
 5.9580758E+00 1.4275664E+00 1.8412151E+00
 6.0309171E+00 1.4155739E+00 1.8492975E+00
 6.1055729E+00 1.4026579E+00 1.8569036E+00
 6.1818382E+00 1.3886799E+00 1.8639079E+00
 6.2594876E+00 1.3735525E+00 1.8701863E+00
 6.3382821E+00 1.3572283E+00 1.8756285E+00
 6.4179585E+00 1.3396818E+00 1.8801443E+00
 6.4982131E+00 1.3208997E+00 1.8836583E+00
 6.5786781E+00 1.3008731E+00 1.8860956E+00
 6.6589120E+00 1.2795924E+00 1.8873654E+00
 6.7384115E+00 1.2570449E+00 1.8873466E+00
 6.8166468E+00 1.2332165E+00 1.8858813E+00
 6.8931050E+00 1.2080962E+00 1.8827801E+00
 6.9673255E+00 1.1816832E+00 1.8778363E+00
 7.0389185E+00 1.1539949E+00 1.8708458E+00
 7.1075717E+00 1.1250765E+00 1.8616248E+00
 7.1730562E+00 1.0950135E+00 1.8500203E+00
 7.2352653E+00 1.0639507E+00 1.8359001E+00
 7.2942907E+00 1.0321125E+00 1.8191159E+00
 7.3505899E+00 1.0000001E+00 1.7994148E+00
 5.8213296E+00 1.4144296E+00 1.8423910E+00
 5.8926776E+00 1.4012671E+00 1.8517154E+00
 5.9652892E+00 1.3882071E+00 1.8603205E+00
 6.0394095E+00 1.3745802E+00 1.8683559E+00
 6.1149804E+00 1.3600581E+00 1.8757764E+00
 6.1918992E+00 1.3444498E+00 1.8824846E+00
 6.2699776E+00 1.3276677E+00 1.8883596E+00
 6.3489946E+00 1.3096736E+00 1.8932924E+00
 6.4286873E+00 1.2904565E+00 1.8971916E+00
 6.5087401E+00 1.2700170E+00 1.8999804E+00
 6.5887689E+00 1.2483590E+00 1.9015811E+00
 6.6683191E+00 1.2254858E+00 1.9018999E+00
 6.7468847E+00 1.2013973E+00 1.9008134E+00
 6.8239470E+00 1.1760923E+00 1.8981650E+00
 6.8990185E+00 1.1495705E+00 1.8937710E+00
 6.9716810E+00 1.1218389E+00 1.8874343E+00
 7.0416140E+00 1.0929208E+00 1.8789575E+00
 7.1086346E+00 1.0628745E+00 1.8681460E+00
 7.1727655E+00 1.0318230E+00 1.8547889E+00
 7.2343442E+00 1.0000001E+00 1.8386076E+00
 7.2942907E+00 9.6788770E-01 1.8191159E+00
 5.8233623E+00 1.3771649E+00 1.8598183E+00
 5.8963818E+00 1.3622790E+00 1.8691635E+00
 5.9704654E+00 1.3475220E+00 1.8777103E+00
 6.0457410E+00 1.3322579E+00 1.8855558E+00
 6.1222229E+00 1.3160954E+00 1.8926708E+00
 6.1998141E+00 1.2988380E+00 1.8989541E+00
 6.2783551E+00 1.2803976E+00 1.9042870E+00
 6.3576285E+00 1.2607485E+00 1.9085601E+00
 6.4373671E+00 1.2398921E+00 1.9116831E+00
 6.5172428E+00 1.2178417E+00 1.9135792E+00
 6.5968580E+00 1.1946128E+00 1.9141701E+00
 6.6757507E+00 1.1702191E+00 1.9133614E+00
 6.7534192E+00 1.1446701E+00 1.9110300E+00
 6.8293662E+00 1.1179708E+00 1.9070217E+00
 6.9031466E+00 1.0901251E+00 1.9011566E+00
 6.9744191E+00 1.0611439E+00 1.8932373E+00
 7.0430056E+00 1.0310665E+00 1.8830495E+00
 7.1089758E+00 1.0000001E+00 1.8703441E+00
 7.1727655E+00 9.6817713E-01 1.8547889E+00
 7.2352653E+00 9.3604950E-01 1.8359001E+00
 5.8249060E+00 1.3381366E+00 1.8759795E+00
 5.8992217E+00 1.3217049E+00 1.8850985E+00
 5.9744912E+00 1.3053562E+00 1.8933831E+00
 6.0507720E+00 1.2884804E+00 1.9008792E+00
 6.1280514E+00 1.2706969E+00 1.9075338E+00
 6.2062366E+00 1.2518126E+00 1.9132377E+00
 6.2851657E+00 1.2317534E+00 1.9178681E+00
 6.3646197E+00 1.2105062E+00 1.9213165E+00
 6.4443223E+00 1.1880855E+00 1.9234944E+00
 6.5239348E+00 1.1645155E+00 1.9243271E+00
 6.6030518E+00 1.1398214E+00 1.9237382E+00
 6.6812123E+00 1.1140233E+00 1.9216344E+00
 6.7579311E+00 1.0871343E+00 1.9178943E+00
 6.8327492E+00 1.0591601E+00 1.9123653E+00
 6.9052954E+00 1.0301063E+00 1.9048644E+00
 6.9753629E+00 1.0000001E+00 1.8951783E+00
 7.0430056E+00 9.6893366E-01 1.8830495E+00
 7.1086346E+00 9.3712568E-01 1.8681460E+00
 7.1730562E+00 9.0498667E-01 1.8500202E+00
 5.8261951E+00 1.2973411E+00 1.8907190E+00
 5.9015969E+00 1.2794970E+00 1.8994153E+00
 5.9778504E+00 1.2616433E+00 1.9072546E+00
 6.0549587E+00 1.2432149E+00 1.9142299E+00
 6.1328787E+00 1.2238614E+00 1.9202576E+00
 6.2115044E+00 1.2034132E+00 1.9252146E+00
 6.2906671E+00 1.1818146E+00 1.9289746E+00
 6.3701407E+00 1.1590679E+00 1.9314305E+00
 6.4496416E+00 1.1351998E+00 1.9324977E+00
 6.5288252E+00 1.1102436E+00 1.9321056E+00
 6.6072866E+00 1.0842294E+00 1.9301809E+00
 6.6845781E+00 1.0571784E+00 1.9266332E+00
 6.7602482E+00 1.0291007E+00 1.9213418E+00
 6.8339039E+00 1.0000001E+00 1.9141509E+00
 6.9052954E+00 9.6989384E-01 1.9048643E+00
 6.9744191E+00 9.3885623E-01 1.8932373E+00
 7.0416140E+00 9.0707936E-01 1.8789575E+00
 7.1075717E+00 8.7492367E-01 1.8616247E+00
 5.8273304E+00 1.2548585E+00 1.9038485E+00
 5.9036616E+00 1.2357091E+00 1.9119536E+00
 5.9807205E+00 1.2164355E+00 1.9191782E+00
 6.0584680E+00 1.1965311E+00 1.9254637E+00
 6.1368359E+00 1.1756895E+00 1.9306962E+00
 6.2157042E+00 1.1537737E+00 1.9347396E+00
 6.2948963E+00 1.1307510E+00 1.9374655E+00
 6.3741806E+00 1.1066395E+00 1.9387707E+00
 6.4532702E+00 1.0814756E+00 1.9385760E+00
 6.5318223E+00 1.0552974E+00 1.9368163E+00
 6.6094443E+00 1.0281338E+00 1.9334224E+00
 6.6857175E+00 1.0000001E+00 1.9283053E+00
 6.7602482E+00 9.7089942E-01 1.9213418E+00
 6.8327492E+00 9.4084003E-01 1.9123653E+00
 6.9031466E+00 9.0987504E-01 1.9011566E+00
 6.9716810E+00 8.7816129E-01 1.8874343E+00
 7.0389185E+00 8.4600528E-01 1.8708457E+00
 5.8283299E+00 1.2108372E+00 1.9151685E+00
 5.9054366E+00 1.1904794E+00 1.9225326E+00
 5.9831160E+00 1.1698795E+00 1.9289840E+00
 6.0613000E+00 1.1485958E+00 1.9344179E+00
 6.1399017E+00 1.1263752E+00 1.9386944E+00
 6.2187911E+00 1.1031187E+00 1.9416677E+00
 6.2977867E+00 1.0788176E+00 1.9432104E+00
 6.3766558E+00 1.0535038E+00 1.9432251E+00
 6.4551151E+00 1.0272194E+00 1.9416395E+00
 6.5328336E+00 1.0000001E+00 1.9383941E+00
 6.6094443E+00 9.7186635E-01 1.9334224E+00
 6.6845781E+00 9.4282176E-01 1.9266332E+00
 6.7579311E+00 9.1286584E-01 1.9178943E+00
 6.8293662E+00 8.8202935E-01 1.9070217E+00
 6.8990185E+00 8.5042962E-01 1.8937710E+00
 6.9673255E+00 8.1831695E-01 1.8778363E+00
 5.8291755E+00 1.1654756E+00 1.9244892E+00
 5.9068858E+00 1.1440144E+00 1.9309754E+00
 5.9849871E+00 1.1221973E+00 1.9365068E+00
 6.0633924E+00 1.0996537E+00 1.9409396E+00
 6.1420034E+00 1.0761894E+00 1.9441134E+00
 6.2206853E+00 1.0517453E+00 1.9458779E+00
 6.2992568E+00 1.0263352E+00 1.9461096E+00
 6.3774905E+00 1.0000001E+00 1.9447186E+00
 6.4551151E+00 9.7278079E-01 1.9416395E+00
 6.5318223E+00 9.4470279E-01 1.9368162E+00
 6.6072866E+00 9.1577079E-01 1.9301809E+00
 6.6812123E+00 8.8597686E-01 1.9216344E+00
 6.7534192E+00 8.5533011E-01 1.9110299E+00
 6.8239470E+00 8.2390787E-01 1.8981649E+00
 6.8931050E+00 7.9190395E-01 1.8827801E+00
 5.8298395E+00 1.1190175E+00 1.9316423E+00
 5.9079613E+00 1.0965741E+00 1.9371274E+00
 5.9862734E+00 1.0736688E+00 1.9416068E+00
 6.0646784E+00 1.0500078E+00 1.9449056E+00
 6.1430732E+00 1.0254584E+00 1.9468503E+00
 6.2213242E+00 1.0000001E+00 1.9472905E+00
 6.2992568E+00 9.7366500E-01 1.9461096E+00
 6.3766558E+00 9.4649632E-01 1.9432250E+00
 6.4532702E+00 9.1852454E-01 1.9385760E+00
 6.5288252E+00 8.8975656E-01 1.9321055E+00
 6.6030518E+00 8.6017881E-01 1.9237381E+00
 6.6757507E+00 8.2978102E-01 1.9133614E+00
 6.7468847E+00 7.9860283E-01 1.9008133E+00
 6.8166468E+00 7.6678365E-01 1.8858813E+00
 5.8302968E+00 1.0717452E+00 1.9364917E+00
 5.9086232E+00 1.0484593E+00 1.9408691E+00
 5.9869288E+00 1.0246156E+00 1.9441831E+00
 6.0651124E+00 1.0000001E+00 1.9462366E+00
 6.1430732E+00 9.7454178E-01 1.9468503E+00
 6.2206853E+00 9.4825488E-01 1.9458779E+00
 6.2977867E+00 9.2118251E-01 1.9432104E+00
 6.3741806E+00 8.9336071E-01 1.9387706E+00
 6.4496416E+00 8.6480033E-01 1.9324977E+00
 6.5239348E+00 8.3548463E-01 1.9243271E+00
 6.5968580E+00 8.0538735E-01 1.9141701E+00
 6.6683191E+00 7.7451441E-01 1.9018998E+00
 6.7384115E+00 7.4295527E-01 1.8873465E+00
 5.8305299E+00 1.0239716E+00 1.9389412E+00
 5.9088466E+00 1.0000001E+00 1.9421249E+00
 5.9869287E+00 9.7538456E-01 1.9441831E+00
 6.0646784E+00 9.4999239E-01 1.9449055E+00
 6.1420034E+00 9.2381070E-01 1.9441134E+00
 6.2187911E+00 8.9688145E-01 1.9416677E+00
 6.2948963E+00 8.6924916E-01 1.9374655E+00
 6.3701407E+00 8.4093225E-01 1.9314304E+00
 6.4443223E+00 8.1191470E-01 1.9234943E+00
 6.5172428E+00 7.8215850E-01 1.9135791E+00
 6.5887689E+00 7.5164113E-01 1.9015810E+00
 6.6589120E+00 7.2040780E-01 1.8873653E+00
 5.8305299E+00 9.7602856E-01 1.9389411E+00
 5.9086232E+00 9.5154078E-01 1.9408690E+00
 5.9862734E+00 9.2633133E-01 1.9416068E+00
 6.0633924E+00 9.0034646E-01 1.9409396E+00
 6.1399017E+00 8.7362492E-01 1.9386944E+00
 6.2157041E+00 8.4622646E-01 1.9347395E+00
 6.2906671E+00 8.1818559E-01 1.9289745E+00
 6.3646196E+00 7.8949397E-01 1.9213164E+00
 6.4373671E+00 7.6010809E-01 1.9116831E+00
 6.5087401E+00 7.2998323E-01 1.8999803E+00
 6.5786781E+00 6.9912708E-01 1.8860955E+00
 5.8302968E+00 9.2825490E-01 1.9364917E+00
 5.9079613E+00 9.0342607E-01 1.9371274E+00
 5.9849870E+00 8.7780284E-01 1.9365068E+00
 6.0613000E+00 8.5140434E-01 1.9344179E+00
 6.1368358E+00 8.2431066E-01 1.9306962E+00
 6.2115043E+00 7.9658696E-01 1.9252146E+00
 6.2851657E+00 7.6824673E-01 1.9178680E+00
 6.3576285E+00 7.3925173E-01 1.9085600E+00
 6.4286873E+00 7.0954369E-01 1.8971915E+00
 6.4982131E+00 6.7910047E-01 1.8836582E+00
 5.8298395E+00 8.8098264E-01 1.9316423E+00
 5.9068858E+00 8.5598569E-01 1.9309754E+00
 5.9831160E+00 8.3012066E-01 1.9289840E+00
 6.0584680E+00 8.0346902E-01 1.9254636E+00
 6.1328786E+00 7.7613873E-01 1.9202576E+00
 6.2062366E+00 7.4818760E-01 1.9132376E+00
 6.2783550E+00 7.1960260E-01 1.9042869E+00
 6.3489945E+00 6.9032660E-01 1.8932923E+00
 6.4179585E+00 6.6031836E-01 1.8801442E+00
 5.8291755E+00 8.3452450E-01 1.9244892E+00
 5.9054366E+00 8.0952073E-01 1.9225325E+00
 5.9807204E+00 7.8356469E-01 1.9191782E+00
 6.0549587E+00 7.5678526E-01 1.9142299E+00
 6.1280513E+00 7.2930331E-01 1.9075338E+00
 6.1998141E+00 7.0116221E-01 1.8989540E+00
 6.2699776E+00 6.7233252E-01 1.8883596E+00
 6.3382821E+00 6.4277186E-01 1.8756284E+00
 5.8283299E+00 7.8916297E-01 1.9151684E+00
 5.9036616E+00 7.6429105E-01 1.9119536E+00
 5.9778504E+00 7.3835684E-01 1.9072545E+00
 6.0507719E+00 7.1151979E-01 1.9008791E+00
 6.1222228E+00 6.8390475E-01 1.8926707E+00
 6.1918992E+00 6.5555044E-01 1.8824845E+00
 6.2594876E+00 6.2644768E-01 1.8701862E+00
 5.8273304E+00 7.4514162E-01 1.9038484E+00
 5.9015968E+00 7.2050318E-01 1.8994153E+00
 5.9744911E+00 6.9464398E-01 1.8933830E+00
 6.0457410E+00 6.6774224E-01 1.8855558E+00
 6.1149803E+00 6.3994212E-01 1.8757763E+00
 6.1818382E+00 6.1132029E-01 1.8639078E+00
 5.8261951E+00 7.0265909E-01 1.8907190E+00
 5.8992216E+00 6.7829526E-01 1.8850985E+00
 5.9704654E+00 6.5247819E-01 1.8777103E+00
 6.0394094E+00 6.2542003E-01 1.8683559E+00
 6.1055728E+00 5.9734232E-01 1.8569035E+00
 5.8249060E+00 6.6186359E-01 1.8759795E+00
 5.8963818E+00 6.3772121E-01 1.8691634E+00
 5.9652892E+00 6.1179307E-01 1.8603205E+00
 6.0309171E+00 5.8442628E-01 1.8492974E+00
 5.8233623E+00 6.2283523E-01 1.8598182E+00
 5.8926776E+00 5.9873303E-01 1.8517154E+00
 5.9580758E+00 5.7243381E-01 1.8412151E+00
 5.8213296E+00 5.8557059E-01 1.8423910E+00
 5.8871184E+00 5.6110231E-01 1.8327202E+00
 5.8182974E+00 5.5005597E-01 1.8238319E+00
 5.7134082E+00 1.5147358E+00 1.7798115E+00
 5.6723611E+00 1.5392107E+00 1.7610442E+00
 5.6295654E+00 1.5640949E+00 1.7406553E+00
 5.5852949E+00 1.5891872E+00 1.7187028E+00
 5.5396906E+00 1.6144041E+00 1.6951813E+00
 5.4929807E+00 1.6396644E+00 1.6700890E+00
 5.4453883E+00 1.6648969E+00 1.6434174E+00
 5.3971580E+00 1.6900180E+00 1.6151670E+00
 5.3485663E+00 1.7149319E+00 1.5853439E+00
 5.2999217E+00 1.7395250E+00 1.5539605E+00
 5.2515630E+00 1.7636616E+00 1.5210368E+00
 5.2038515E+00 1.7871801E+00 1.4866025E+00
 5.1571595E+00 1.8098928E+00 1.4507012E+00
 5.1118543E+00 1.8315886E+00 1.4133958E+00
 5.0682813E+00 1.8520402E+00 1.3747733E+00
 5.0267480E+00 1.8710154E+00 1.3349502E+00
 4.9875140E+00 1.8882907E+00 1.2940753E+00
 4.9507886E+00 1.9036649E+00 1.2523297E+00
 4.9167363E+00 1.9169717E+00 1.2099219E+00
 4.8854939E+00 1.9280882E+00 1.1670799E+00
 4.8571837E+00 1.9369342E+00 1.1240749E+00
 4.8318239E+00 1.9434809E+00 1.0812044E+00
 4.8093781E+00 1.9477571E+00 1.0389981E+00
 4.0650212E+00 1.0941335E+00 1.8062924E+00
 4.0560811E+00 1.1554321E+00 1.7907729E+00
 4.0503187E+00 1.2178180E+00 1.7719132E+00
 4.0486132E+00 1.2812753E+00 1.7499451E+00
 4.0514976E+00 1.3454646E+00 1.7249099E+00
 4.0593667E+00 1.4098520E+00 1.6968304E+00
 4.0725011E+00 1.4737637E+00 1.6657514E+00
 4.0910801E+00 1.5364328E+00 1.6317728E+00
 4.1151737E+00 1.5970274E+00 1.5950715E+00
 4.1447268E+00 1.6546819E+00 1.5559148E+00
 4.1795421E+00 1.7085383E+00 1.5146650E+00
 4.2192711E+00 1.7577959E+00 1.4717752E+00
 4.2634196E+00 1.8017680E+00 1.4277767E+00
 4.3113710E+00 1.8399377E+00 1.3832574E+00
 4.3624290E+00 1.8720065E+00 1.3388330E+00
 4.4158746E+00 1.8979250E+00 1.2951125E+00
 4.4710279E+00 1.9179019E+00 1.2526621E+00
 4.5272952E+00 1.9323839E+00 1.2119681E+00
 4.5841775E+00 1.9420093E+00 1.1734024E+00
 4.6412632E+00 1.9475433E+00 1.1371765E+00
 4.6981889E+00 1.9498072E+00 1.1032600E+00
 4.7544694E+00 1.9496188E+00 1.0712851E+00
 4.1179827E+00 1.1316188E+00 1.8337378E+00
 4.1122858E+00 1.1952370E+00 1.8179583E+00
 4.1096288E+00 1.2588408E+00 1.7985897E+00
 4.1110056E+00 1.3227165E+00 1.7759085E+00
 4.1170198E+00 1.3866652E+00 1.7500045E+00
 4.1280505E+00 1.4501980E+00 1.7209203E+00
 4.1443147E+00 1.5126458E+00 1.6887187E+00
 4.1658979E+00 1.5732297E+00 1.6535273E+00
 4.1927625E+00 1.6311148E+00 1.6155648E+00
 4.2247399E+00 1.6854598E+00 1.5751527E+00
 4.2615248E+00 1.7354696E+00 1.5327151E+00
 4.3026791E+00 1.7804525E+00 1.4887675E+00
 4.3476538E+00 1.8198763E+00 1.4438969E+00
 4.3958288E+00 1.8534163E+00 1.3987321E+00
 4.4465665E+00 1.8809874E+00 1.3539082E+00
 4.4992683E+00 1.9027530E+00 1.3100261E+00
 4.5534118E+00 1.9191072E+00 1.2676088E+00
 4.6085609E+00 1.9306332E+00 1.2270494E+00
 4.6643484E+00 1.9380485E+00 1.1885373E+00
 4.7204283E+00 1.9421390E+00 1.1519768E+00
 4.7764832E+00 1.9436978E+00 1.1167100E+00
 4.1760156E+00 1.1675092E+00 1.8575096E+00
 4.1734009E+00 1.2321416E+00 1.8411226E+00
 4.1738299E+00 1.2962511E+00 1.8210166E+00
 4.1782756E+00 1.3600317E+00 1.7974319E+00
 4.1873529E+00 1.4232867E+00 1.7704716E+00
 4.2014015E+00 1.4855248E+00 1.7401979E+00
 4.2205623E+00 1.5460693E+00 1.7067044E+00
 4.2448266E+00 1.6041440E+00 1.6701637E+00
 4.2740552E+00 1.6589394E+00 1.6308534E+00
 4.3079836E+00 1.7096748E+00 1.5891626E+00
 4.3462285E+00 1.7556586E+00 1.5455846E+00
 4.3883078E+00 1.7963459E+00 1.5006981E+00
 4.4336768E+00 1.8313878E+00 1.4551383E+00
 4.4817771E+00 1.8606644E+00 1.4095587E+00
 4.5320834E+00 1.8842942E+00 1.3645883E+00
 4.5841344E+00 1.9026197E+00 1.3207822E+00
 4.6375359E+00 1.9161715E+00 1.2785604E+00
 4.6919338E+00 1.9256199E+00 1.2381333E+00
 4.7469836E+00 1.9317210E+00 1.1993789E+00
 4.8022906E+00 1.9352482E+00 1.1617424E+00
 4.2387006E+00 1.2018400E+00 1.8768371E+00
 4.2390316E+00 1.2665670E+00 1.8595583E+00
 4.2424494E+00 1.3304366E+00 1.8384827E+00
 4.2498707E+00 1.3935063E+00 1.8138055E+00
 4.2618649E+00 1.4555094E+00 1.7856284E+00
 4.2787058E+00 1.5159254E+00 1.7540388E+00
 4.3004509E+00 1.5740745E+00 1.7191753E+00
 4.3270026E+00 1.6292054E+00 1.6812716E+00
 4.3581395E+00 1.6805687E+00 1.6406764E+00
 4.3935339E+00 1.7274839E+00 1.5978521E+00
 4.4327719E+00 1.7694003E+00 1.5533597E+00
 4.4753851E+00 1.8059479E+00 1.5078296E+00
 4.5208911E+00 1.8369718E+00 1.4619238E+00
 4.5688304E+00 1.8625438E+00 1.4162907E+00
 4.6187897E+00 1.8829515E+00 1.3715122E+00
 4.6703997E+00 1.8986685E+00 1.3280426E+00
 4.7233099E+00 1.9103149E+00 1.2861245E+00
 4.7771408E+00 1.9186082E+00 1.2456947E+00
 4.8314250E+00 1.9243004E+00 1.2062967E+00
 4.3055581E+00 1.2343210E+00 1.8911523E+00
 4.3086654E+00 1.2984304E+00 1.8727367E+00
 4.3149202E+00 1.3613958E+00 1.8504934E+00