# TIME = 3.900000
variables = x, y, z
zone N=5762 E=11520 F=FEPOINT ET=TRIANGLE
 5.3579663E+00 1.4884957E+00 1.7900815E+00
 5.3579663E+00 1.4884957E+00 2.0991838E-01
 5.3579663E+00 5.1150428E-01 1.7900816E+00
 5.3579665E+00 5.1150424E-01 2.0991830E-01
 3.6462935E+00 1.0000000E+00 1.7799461E+00
 7.0578501E+00 1.0000000E+00 1.7574827E+00
 3.6462939E+00 1.0000000E+00 2.2005431E-01
 7.0578502E+00 1.0000000E+00 2.4251701E-01
 4.4097205E+00 1.9520000E+00 9.9999996E-01
 4.4097205E+00 4.7999799E-02 9.9999996E-01
 6.3021597E+00 1.9393423E+00 9.9999996E-01
 6.3021597E+00 6.0657815E-02 9.9999996E-01
 5.2988196E+00 1.4789353E+00 1.7943659E+00
 5.2334932E+00 1.4684917E+00 1.7993846E+00
 5.1650770E+00 1.4577633E+00 1.8049886E+00
 5.0938275E+00 1.4467244E+00 1.8113113E+00
 5.0200407E+00 1.4353860E+00 1.8184171E+00
 4.9440070E+00 1.4236962E+00 1.8263637E+00
 4.8659781E+00 1.4115732E+00 1.8351693E+00
 4.7862371E+00 1.3988997E+00 1.8448021E+00
 4.7051008E+00 1.3855227E+00 1.8551589E+00
 4.6229365E+00 1.3712509E+00 1.8660401E+00
 4.5401767E+00 1.3558519E+00 1.8771189E+00
 4.4573285E+00 1.3390567E+00 1.8879115E+00
 4.3749562E+00 1.3205739E+00 1.8977638E+00
 4.2936261E+00 1.3001221E+00 1.9058761E+00
 4.2138498E+00 1.2774755E+00 1.9113743E+00
 4.1360776E+00 1.2525153E+00 1.9134204E+00
 4.0607530E+00 1.2252666E+00 1.9113323E+00
 3.9883706E+00 1.1959096E+00 1.9046800E+00
 3.9194762E+00 1.1647596E+00 1.8933280E+00
 3.8546148E+00 1.1322286E+00 1.8774250E+00
 3.7942984E+00 1.0988002E+00 1.8573721E+00
 3.7389446E+00 1.0649921E+00 1.8337523E+00
 3.6889358E+00 1.0314353E+00 1.8073285E+00
 5.2920432E+00 5.5466698E-01 1.8135188E+00
 5.2246519E+00 5.6694216E-01 1.8189870E+00
 5.1546189E+00 5.7909122E-01 1.8248152E+00
 5.0822478E+00 5.9143231E-01 1.8312622E+00
 5.0075999E+00 6.0416209E-01 1.8384875E+00
 4.9308885E+00 6.1735848E-01 1.8465387E+00
 4.8523587E+00 6.3111892E-01 1.8554169E+00
 4.7723041E+00 6.4556366E-01 1.8650623E+00
 4.6910661E+00 6.6084779E-01 1.8753385E+00
 4.6090393E+00 6.7715948E-01 1.8860068E+00
 4.5266833E+00 6.9471777E-01 1.8966965E+00
 4.4445246E+00 7.1376216E-01 1.9068806E+00
 4.3631298E+00 7.3453189E-01 1.9158721E+00
 4.2830475E+00 7.5723219E-01 1.9228611E+00
 4.2047613E+00 7.8199407E-01 1.9269957E+00
 4.1286946E+00 8.0883822E-01 1.9274942E+00
 4.0552687E+00 8.3765632E-01 1.9237564E+00
 3.9849468E+00 8.6821806E-01 1.9154422E+00
 3.9182205E+00 9.0019674E-01 1.9024957E+00
 3.8555137E+00 9.3319125E-01 1.8850993E+00
 3.7969956E+00 9.6670593E-01 1.8635440E+00
 3.7422930E+00 1.0000000E+00 1.8379880E+00
 5.2897342E+00 5.8923342E-01 1.8314484E+00
 5.2198852E+00 6.0334913E-01 1.8371659E+00
 5.1482753E+00 6.1694397E-01 1.8430461E+00
 5.0745723E+00 6.3073898E-01 1.8495215E+00
 4.9988483E+00 6.4497728E-01 1.8567422E+00
 4.9212254E+00 6.5979187E-01 1.8647616E+00
 4.8419522E+00 6.7528659E-01 1.8735593E+00
 4.7613373E+00 6.9159009E-01 1.8830508E+00
 4.6797487E+00 7.0885770E-01 1.8930665E+00
 4.5976104E+00 7.2727121E-01 1.9033291E+00
 4.5154103E+00 7.4703070E-01 1.9134244E+00
 4.4336948E+00 7.6833934E-01 1.9227844E+00
 4.3530338E+00 7.9137864E-01 1.9306930E+00
 4.2739618E+00 8.1627651E-01 1.9363359E+00
 4.1969384E+00 8.4307594E-01 1.9388897E+00
 4.1223615E+00 8.7171462E-01 1.9376327E+00
 4.0506201E+00 9.0202447E-01 1.9320449E+00
 3.9821113E+00 9.3375021E-01 1.9218626E+00
 3.9171497E+00 9.6656170E-01 1.9070536E+00
 3.8557256E+00 1.0000000E+00 1.8876803E+00
 3.7969956E+00 1.0332941E+00 1.8635440E+00
 5.2881862E+00 6.2558964E-01 1.8484159E+00
 5.2167772E+00 6.4116421E-01 1.8540280E+00
 5.1437133E+00 6.5624010E-01 1.8598201E+00
 5.0687859E+00 6.7153024E-01 1.8661742E+00
 4.9919752E+00 6.8735075E-01 1.8732468E+00
 4.9134286E+00 7.0384289E-01 1.8810712E+00
 4.8333978E+00 7.2112496E-01 1.8896095E+00
 4.7522183E+00 7.3932738E-01 1.8987497E+00
 4.6702851E+00 7.5860279E-01 1.9082900E+00
 4.5880514E+00 7.7911976E-01 1.9179151E+00
 4.5060305E+00 8.0105162E-01 1.9271716E+00
 4.4247846E+00 8.2455747E-01 1.9354577E+00
 4.3448836E+00 8.4975679E-01 1.9420401E+00
 4.2668452E+00 8.7670283E-01 1.9461140E+00
 4.1911020E+00 9.0536264E-01 1.9468967E+00
 4.1180145E+00 9.3561294E-01 1.9437325E+00
 4.0479015E+00 9.6725125E-01 1.9361721E+00
 3.9809877E+00 9.9999999E-01 1.9239861E+00
 3.9171497E+00 1.0334383E+00 1.9070536E+00
 3.8555137E+00 1.0668087E+00 1.8850993E+00
 5.2868863E+00 6.6382792E-01 1.8642669E+00
 5.2141682E+00 6.8074993E-01 1.8695831E+00
 5.1398736E+00 6.9725826E-01 1.8751141E+00
 5.0638441E+00 7.1406537E-01 1.8811934E+00
 4.9860807E+00 7.3148557E-01 1.8879482E+00
 4.9067407E+00 7.4967142E-01 1.8953937E+00
 4.8261025E+00 7.6874289E-01 1.9034685E+00
 4.7445258E+00 7.8882975E-01 1.9120342E+00
 4.6624327E+00 8.1007470E-01 1.9208572E+00
 4.5803010E+00 8.3262595E-01 1.9295889E+00
 4.4986636E+00 8.5662236E-01 1.9377446E+00
 4.4180904E+00 8.8217335E-01 1.9447023E+00
 4.3391423E+00 9.0933667E-01 1.9497282E+00
 4.2623121E+00 9.3809981E-01 1.9520446E+00
 4.1879914E+00 9.6837384E-01 1.9509213E+00
 4.1164701E+00 9.9999999E-01 1.9457665E+00
 4.0479015E+00 1.0327487E+00 1.9361721E+00
 3.9821113E+00 1.0662498E+00 1.9218626E+00
 3.9182206E+00 1.0998032E+00 1.9024956E+00
 5.2856854E+00 7.0398136E-01 1.8788183E+00
 5.2117979E+00 7.2217738E-01 1.8836786E+00
 5.1364410E+00 7.4009026E-01 1.8887892E+00
 5.0594860E+00 7.5839940E-01 1.8944254E+00
 4.9809570E+00 7.7740531E-01 1.9006810E+00
 4.9010336E+00 7.9725770E-01 1.9075479E+00
 4.8200176E+00 8.1807491E-01 1.9149413E+00
 4.7382935E+00 8.3997901E-01 1.9226966E+00
 4.6563060E+00 8.6309681E-01 1.9305526E+00
 4.5745512E+00 8.8754924E-01 1.9381340E+00
 4.4935723E+00 9.1343556E-01 1.9449370E+00
 4.4139354E+00 9.4081471E-01 1.9503351E+00
 4.3361800E+00 9.6968970E-01 1.9536123E+00
 4.2607587E+00 9.9999999E-01 1.9540325E+00
 4.1879914E+00 1.0316261E+00 1.9509213E+00
 4.1180145E+00 1.0643870E+00 1.9437325E+00
 4.0506201E+00 1.0979755E+00 1.9320449E+00
 3.9849468E+00 1.1317819E+00 1.9154422E+00
 5.2845798E+00 7.4596974E-01 1.8918517E+00
 5.2096687E+00 7.6537871E-01 1.8961077E+00
 5.1334251E+00 7.8465741E-01 1.9006391E+00
 5.0557450E+00 8.0442869E-01 1.9056587E+00
 4.9766726E+00 8.2496995E-01 1.9112260E+00
 4.8964097E+00 8.4642178E-01 1.9173088E+00
 4.8152800E+00 8.6889504E-01 1.9237999E+00
 4.7336884E+00 8.9249893E-01 1.9305113E+00
 4.6520965E+00 9.1733864E-01 1.9371596E+00
 4.5710102E+00 9.4350357E-01 1.9433524E+00
 4.4909711E+00 9.7105248E-01 1.9485802E+00
 4.4125273E+00 1.0000000E+00 1.9522280E+00
 4.3361800E+00 1.0303103E+00 1.9536124E+00
 4.2623121E+00 1.0619002E+00 1.9520447E+00
 4.1911020E+00 1.0946373E+00 1.9468967E+00
 4.1223615E+00 1.1282854E+00 1.9376327E+00
 4.0552687E+00 1.1623437E+00 1.9237563E+00
 5.2836027E+00 7.8963310E-01 1.9031399E+00
 5.2078362E+00 8.1018761E-01 1.9066501E+00
 5.1309026E+00 8.3076930E-01 1.9104433E+00
 5.0527176E+00 8.5193200E-01 1.9146720E+00
 4.9733437E+00 8.7392130E-01 1.9193624E+00
 4.8930023E+00 8.9686377E-01 1.9244596E+00
 4.8120350E+00 9.2085806E-01 1.9298363E+00
 4.7308620E+00 9.4599590E-01 1.9352855E+00
 4.6499535E+00 9.7235745E-01 1.9405090E+00
 4.5698145E+00 1.0000001E+00 1.9451079E+00
 4.4909711E+00 1.0289476E+00 1.9485802E+00
 4.4139354E+00 1.0591853E+00 1.9503352E+00
 4.3391423E+00 1.0906633E+00 1.9497283E+00
 4.2668453E+00 1.1232972E+00 1.9461141E+00
 4.1969384E+00 1.1569240E+00 1.9388897E+00
 4.1286946E+00 1.1911618E+00 1.9274942E+00
 5.2827862E+00 8.3475685E-01 1.9124685E+00
 5.2063553E+00 8.5636673E-01 1.9150973E+00
 5.1289466E+00 8.7815910E-01 1.9179979E+00
 5.0504917E+00 9.0060748E-01 1.9212673E+00
 4.9710690E+00 9.2391893E-01 1.9249014E+00
 4.8909157E+00 9.4820152E-01 1.9288255E+00
 4.8103865E+00 9.7353804E-01 1.9328956E+00
 4.7299093E+00 1.0000001E+00 1.9368917E+00
 4.6499536E+00 1.0276427E+00 1.9405091E+00
 4.5710103E+00 1.0564965E+00 1.9433526E+00
 4.4935724E+00 1.0865645E+00 1.9449372E+00
 4.4180905E+00 1.1178267E+00 1.9447025E+00
 4.3448837E+00 1.1502432E+00 1.9420403E+00
 4.2739618E+00 1.1837235E+00 1.9363360E+00
 4.2047613E+00 1.2180059E+00 1.9269958E+00
 5.2821536E+00 8.8107568E-01 1.9196479E+00
 5.2052679E+00 9.0362316E-01 1.9212703E+00
 5.1276120E+00 9.2650247E-01 1.9231346E+00
 5.0491307E+00 9.5009581E-01 1.9252899E+00
 4.9699150E+00 9.7456628E-01 1.9277065E+00
 4.8902131E+00 1.0000001E+00 1.9302938E+00
 4.8103865E+00 1.0264622E+00 1.9328957E+00
 4.7308621E+00 1.0540043E+00 1.9352857E+00
 4.6520967E+00 1.0826615E+00 1.9371599E+00
 4.5745514E+00 1.1124509E+00 1.9381344E+00
 4.4986638E+00 1.1433777E+00 1.9377450E+00
 4.4247847E+00 1.1754426E+00 1.9354580E+00
 4.3530339E+00 1.2086214E+00 1.9306932E+00
 4.2830476E+00 1.2427678E+00 1.9228613E+00
 5.2817225E+00 9.2828120E-01 1.9245246E+00
 5.2046037E+00 9.5162222E-01 1.9250316E+00
 5.1269356E+00 9.7543450E-01 1.9257339E+00
 5.0486728E+00 1.0000000E+00 1.9266419E+00
 4.9699150E+00 1.0254339E+00 1.9277066E+00
 4.8909156E+00 1.0517987E+00 1.9288257E+00
 4.8120351E+00 1.0791422E+00 1.9298366E+00
 4.7336886E+00 1.1075013E+00 1.9305117E+00
 4.6563062E+00 1.1369034E+00 1.9305532E+00
 4.5803013E+00 1.1673742E+00 1.9295894E+00
 4.5060308E+00 1.1989485E+00 1.9271721E+00
 4.4336949E+00 1.2316608E+00 1.9227848E+00
 4.3631299E+00 1.2654682E+00 1.9158724E+00
 5.2815040E+00 9.7603233E-01 1.9269908E+00
 5.2043804E+00 1.0000000E+00 1.9262951E+00
 5.1269356E+00 1.0245655E+00 1.9257340E+00
 5.0491306E+00 1.0499043E+00 1.9252900E+00
 4.9710689E+00 1.0760812E+00 1.9249015E+00
 4.8930022E+00 1.1031365E+00 1.9244599E+00
 4.8152800E+00 1.1311052E+00 1.9238003E+00
 4.7382938E+00 1.1600213E+00 1.9226972E+00
 4.6624330E+00 1.1899255E+00 1.9208579E+00
 4.5880517E+00 1.2208805E+00 1.9179157E+00
 4.5154106E+00 1.2529695E+00 1.9134250E+00
 4.4445248E+00 1.2862380E+00 1.9068811E+00
 5.2815040E+00 1.0239676E+00 1.9269908E+00
 5.2046037E+00 1.0483778E+00 1.9250316E+00
 5.1276119E+00 1.0734976E+00 1.9231347E+00
 5.0504914E+00 1.0993926E+00 1.9212674E+00
 4.9733435E+00 1.1260789E+00 1.9193626E+00
 4.8964096E+00 1.1535785E+00 1.9173092E+00
 4.8200177E+00 1.1819254E+00 1.9149419E+00
 4.7445260E+00 1.2111706E+00 1.9120349E+00
 4.6702855E+00 1.2413975E+00 1.9082908E+00
 4.5976107E+00 1.2727291E+00 1.9033298E+00
 4.5266836E+00 1.3052825E+00 1.8966971E+00
 5.2817224E+00 1.0717188E+00 1.9245246E+00
 5.2052678E+00 1.0963768E+00 1.9212703E+00
 5.1289464E+00 1.1218409E+00 1.9179980E+00
 5.0527173E+00 1.1480681E+00 1.9146722E+00
 4.9766722E+00 1.1750302E+00 1.9112263E+00
 4.9010334E+00 1.2027426E+00 1.9075484E+00
 4.8261026E+00 1.2312574E+00 1.9034693E+00
 4.7522186E+00 1.2606730E+00 1.8987506E+00
 4.6797491E+00 1.2911426E+00 1.8930674E+00
 4.6090397E+00 1.3228408E+00 1.8860076E+00
 5.2821535E+00 1.1189243E+00 1.9196478E+00
 5.2063551E+00 1.1436333E+00 1.9150974E+00
 5.1309024E+00 1.1692307E+00 1.9104434E+00
 5.0557446E+00 1.1955714E+00 1.9056589E+00
 4.9809566E+00 1.2225949E+00 1.9006814E+00
 4.9067405E+00 1.2503288E+00 1.8953944E+00
 4.8333979E+00 1.2788754E+00 1.8896103E+00
 4.7613376E+00 1.3084103E+00 1.8830517E+00
 4.6910665E+00 1.3391526E+00 1.8753394E+00
 5.2827861E+00 1.1652431E+00 1.9124685E+00
 5.2078360E+00 1.1898124E+00 1.9066501E+00
 5.1334248E+00 1.2153426E+00 1.9006392E+00
 5.0594855E+00 1.2416007E+00 1.8944257E+00
 4.9860802E+00 1.2685146E+00 1.8879486E+00
 4.9134283E+00 1.2961574E+00 1.8810719E+00
 4.8419523E+00 1.3247137E+00 1.8735602E+00
 4.7723043E+00 1.3544367E+00 1.8650633E+00
 5.2836026E+00 1.2103669E+00 1.9031399E+00
 5.2096685E+00 1.2346213E+00 1.8961077E+00
 5.1364407E+00 1.2599098E+00 1.8887893E+00
 5.0638436E+00 1.2859347E+00 1.8811936E+00
 4.9919747E+00 1.3126494E+00 1.8732472E+00
 4.9212251E+00 1.3402084E+00 1.8647623E+00
 4.8523587E+00 1.3688814E+00 1.8554178E+00
 5.2845797E+00 1.2540303E+00 1.8918517E+00
 5.2117977E+00 1.2778226E+00 1.8836786E+00
 5.1398733E+00 1.3027418E+00 1.8751143E+00
 5.0687854E+00 1.3284699E+00 1.8661745E+00
 4.9988478E+00 1.3550229E+00 1.8567426E+00
 4.9308882E+00 1.3826418E+00 1.8465393E+00
 5.2856853E+00 1.2960186E+00 1.8788183E+00
 5.2141679E+00 1.3192501E+00 1.8695832E+00
 5.1437130E+00 1.3437599E+00 1.8598202E+00
 5.0745719E+00 1.3692611E+00 1.8495217E+00
 5.0075995E+00 1.3958381E+00 1.8384879E+00
 5.2868862E+00 1.3361721E+00 1.8642669E+00
 5.2167770E+00 1.3588358E+00 1.8540280E+00
 5.1482750E+00 1.3830561E+00 1.8430463E+00
 5.0822475E+00 1.4085678E+00 1.8312624E+00
 5.2881861E+00 1.3744104E+00 1.8484159E+00
 5.2198850E+00 1.3966509E+00 1.8371659E+00
 5.1546187E+00 1.4209088E+00 1.8248153E+00
 5.2897341E+00 1.4107666E+00 1.8314484E+00
 5.2246517E+00 1.4330579E+00 1.8189870E+00
 5.2920432E+00 1.4453330E+00 1.8135188E+00
 5.3580658E+00 1.4596137E+00 1.8072167E+00
 5.3581618E+00 1.4267151E+00 1.8250977E+00
 5.3582106E+00 1.3917851E+00 1.8422679E+00
 5.3582458E+00 1.3547277E+00 1.8585475E+00
 5.3582752E+00 1.3156269E+00 1.8736926E+00
 5.3583021E+00 1.2746187E+00 1.8874494E+00
 5.3583262E+00 1.2318525E+00 1.8995816E+00
 5.3583471E+00 1.1875202E+00 1.9098665E+00
 5.3583641E+00 1.1418647E+00 1.9181015E+00
 5.3583767E+00 1.0951726E+00 1.9241155E+00
 5.3583843E+00 1.0477679E+00 1.9277782E+00
 5.3583869E+00 9.9999998E-01 1.9290084E+00
 5.3583843E+00 9.5223209E-01 1.9277782E+00
 5.3583767E+00 9.0482733E-01 1.9241155E+00
 5.3583641E+00 8.5813531E-01 1.9181015E+00
 5.3583471E+00 8.1247978E-01 1.9098665E+00
 5.3583262E+00 7.6814749E-01 1.8995816E+00
 5.3583021E+00 7.2538130E-01 1.8874494E+00
 5.3582753E+00 6.8437303E-01 1.8736926E+00
 5.3582458E+00 6.4527226E-01 1.8585476E+00
 5.3582106E+00 6.0821483E-01 1.8422680E+00
 5.3581618E+00 5.7328486E-01 1.8250977E+00
 5.3580658E+00 5.4038626E-01 1.8072168E+00
 5.4171881E+00 5.1946325E-01 1.7970090E+00
 5.4825468E+00 5.2827578E-01 1.8048843E+00
 5.5509498E+00 5.3752466E-01 1.8132660E+00
 5.6221205E+00 5.4734477E-01 1.8220840E+00
 5.6957610E+00 5.5784192E-01 1.8311623E+00
 5.7715568E+00 5.6917650E-01 1.8402896E+00
 5.8492267E+00 5.8152274E-01 1.8492079E+00
 5.9284491E+00 5.9505540E-01 1.8576271E+00
 6.0088767E+00 6.0993202E-01 1.8652479E+00
 6.0901368E+00 6.2627838E-01 1.8717879E+00
 6.1718326E+00 6.4418143E-01 1.8769993E+00
 6.2535307E+00 6.6368910E-01 1.8806746E+00
 6.3347472E+00 6.8481624E-01 1.8826360E+00
 6.4149498E+00 7.0755118E-01 1.8827211E+00
 6.4935833E+00 7.3185978E-01 1.8807697E+00
 6.5701100E+00 7.5768470E-01 1.8766230E+00
 6.6440438E+00 7.8494198E-01 1.8701327E+00
 6.7149685E+00 8.1351714E-01 1.8611777E+00
 6.7825368E+00 8.4326290E-01 1.8496813E+00
 6.8464552E+00 8.7400083E-01 1.8356276E+00
 6.9064325E+00 9.0550491E-01 1.8190864E+00
 6.9621913E+00 9.3751321E-01 1.8002112E+00
 7.0133594E+00 9.6960481E-01 1.7793014E+00
 5.4241375E+00 1.4470226E+00 1.8165279E+00
 5.4915170E+00 1.4362892E+00 1.8249889E+00
 5.5615026E+00 1.4254865E+00 1.8336818E+00
 5.6337687E+00 1.4142000E+00 1.8426421E+00
 5.7082370E+00 1.4021398E+00 1.8517847E+00
 5.7846713E+00 1.3891366E+00 1.8608829E+00
 5.8627930E+00 1.3750249E+00 1.8696587E+00
 5.9422757E+00 1.3596546E+00 1.8778018E+00
 6.0227559E+00 1.3428970E+00 1.8850010E+00
 6.1038463E+00 1.3246579E+00 1.8909705E+00
 6.1851338E+00 1.3048822E+00 1.8954653E+00
 6.2661688E+00 1.2835524E+00 1.8982841E+00
 6.3464542E+00 1.2606828E+00 1.8992568E+00
 6.4254549E+00 1.2363137E+00 1.8982300E+00
 6.5026270E+00 1.2105086E+00 1.8950559E+00
 6.5774576E+00 1.1833531E+00 1.8895942E+00
 6.6494950E+00 1.1549544E+00 1.8817219E+00
 6.7183641E+00 1.1254389E+00 1.8713488E+00
 6.7837674E+00 1.0949501E+00 1.8584295E+00
 6.8455140E+00 1.0636647E+00 1.8429563E+00
 6.9036401E+00 1.0318379E+00 1.8249043E+00
 6.9586774E+00 1.0000000E+00 1.8040931E+00
 5.4265979E+00 1.4124045E+00 1.8346290E+00
 5.4964140E+00 1.3997460E+00 1.8435050E+00
 5.5679498E+00 1.3873707E+00 1.8523461E+00
 5.6415205E+00 1.3744872E+00 1.8613761E+00
 5.7170345E+00 1.3607723E+00 1.8704874E+00
 5.7943412E+00 1.3460229E+00 1.8794524E+00
 5.8731605E+00 1.3300894E+00 1.8879678E+00
 5.9531537E+00 1.3128408E+00 1.8957057E+00
 6.0339394E+00 1.2941764E+00 1.9023426E+00
 6.1151114E+00 1.2740322E+00 1.9075888E+00
 6.1962372E+00 1.2523843E+00 1.9112020E+00
 6.2768482E+00 1.2292452E+00 1.9129875E+00
 6.3564337E+00 1.2046585E+00 1.9127840E+00
 6.4344559E+00 1.1786933E+00 1.9104495E+00
 6.5103832E+00 1.1514398E+00 1.9058521E+00
 6.5837306E+00 1.1230051E+00 1.8988725E+00
 6.6540902E+00 1.0935061E+00 1.8894131E+00
 6.7211606E+00 1.0630634E+00 1.8774038E+00
 6.7848141E+00 1.0318155E+00 1.8627843E+00
 6.8452846E+00 1.0000000E+00 1.8454257E+00
 6.9036401E+00 9.6816210E-01 1.8249043E+00
 5.4282431E+00 1.3759453E+00 1.8517403E+00
 5.4996109E+00 1.3617113E+00 1.8606382E+00
 5.5725864E+00 1.3477215E+00 1.8694856E+00
 5.6473632E+00 1.3332011E+00 1.8784369E+00
 5.7239387E+00 1.3177701E+00 1.8873814E+00
 5.8021372E+00 1.3012358E+00 1.8960615E+00
 5.8816754E+00 1.2834584E+00 1.9041544E+00
 5.9621917E+00 1.2643316E+00 1.9113138E+00
 6.0432846E+00 1.2437822E+00 1.9172070E+00
 6.1245274E+00 1.2217777E+00 1.9215428E+00
 6.2054688E+00 1.1983253E+00 1.9240845E+00
 6.2856241E+00 1.1734679E+00 1.9246468E+00
 6.3644739E+00 1.1472778E+00 1.9230811E+00
 6.4414849E+00 1.1198499E+00 1.9192611E+00
 6.5161468E+00 1.0912937E+00 1.9130745E+00
 6.5880166E+00 1.0617246E+00 1.9044242E+00
 6.6567654E+00 1.0312531E+00 1.8932288E+00
 6.7222644E+00 1.0000000E+00 1.8794044E+00
 6.7848141E+00 9.6818454E-01 1.8627842E+00
 6.8455140E+00 9.3633527E-01 1.8429562E+00
 5.4296098E+00 1.3375786E+00 1.8677231E+00
 5.5022822E+00 1.3218578E+00 1.8764403E+00
 5.5764785E+00 1.3062884E+00 1.8851098E+00
 5.6523429E+00 1.2901049E+00 1.8938223E+00
 5.7298510E+00 1.2729448E+00 1.9024263E+00
 5.8088163E+00 1.2546242E+00 1.9106394E+00
 5.8889300E+00 1.2350261E+00 1.9181166E+00
 5.9698100E+00 1.2140698E+00 1.9244984E+00
 6.0510337E+00 1.1917134E+00 1.9294471E+00
 6.1321569E+00 1.1679563E+00 1.9326750E+00
 6.2127138E+00 1.1428374E+00 1.9339553E+00
 6.2922105E+00 1.1164288E+00 1.9331169E+00
 6.3701289E+00 1.0888280E+00 1.9300284E+00
 6.4459528E+00 1.0601475E+00 1.9245837E+00
 6.5192108E+00 1.0305027E+00 1.9166915E+00
 6.5895359E+00 1.0000000E+00 1.9062703E+00
 6.6567654E+00 9.6874688E-01 1.8932287E+00
 6.7211606E+00 9.3693665E-01 1.8774038E+00
 6.7837674E+00 9.0504992E-01 1.8584295E+00
 5.4308663E+00 1.2972789E+00 1.8823985E+00
 5.5047025E+00 1.2801282E+00 1.8907644E+00
 5.5799526E+00 1.2629949E+00 1.8990844E+00
 5.6567296E+00 1.2451584E+00 1.9073791E+00
 5.7349855E+00 1.2262864E+00 1.9154547E+00
 5.8145115E+00 1.2062195E+00 1.9230026E+00
 5.8949768E+00 1.1848662E+00 1.9296609E+00
 5.9759781E+00 1.1621765E+00 1.9350617E+00
 6.0570760E+00 1.1381414E+00 1.9388681E+00
 6.1378138E+00 1.1127930E+00 1.9408018E+00
 6.2177179E+00 1.0862004E+00 1.9406511E+00
 6.2962957E+00 1.0584610E+00 1.9382639E+00
 6.3730440E+00 1.0296889E+00 1.9335301E+00
 6.4474822E+00 1.0000000E+00 1.9263645E+00
 6.5192108E+00 9.6949729E-01 1.9166915E+00
 6.5880166E+00 9.3827544E-01 1.9044241E+00
 6.6540901E+00 9.0649385E-01 1.8894131E+00
 6.7183641E+00 8.7456114E-01 1.8713488E+00
 5.4320217E+00 1.2551289E+00 1.8955464E+00
 5.5068758E+00 1.2365953E+00 1.9033998E+00
 5.5830039E+00 1.2179274E+00 1.9111979E+00
 5.6604941E+00 1.1984741E+00 1.9188897E+00
 5.7392776E+00 1.1779444E+00 1.9262426E+00
 5.8191241E+00 1.1562101E+00 1.9329255E+00
 5.8996826E+00 1.1332103E+00 1.9385653E+00
 5.9805335E+00 1.1089280E+00 1.9427922E+00
 6.0612255E+00 1.0833877E+00 1.9452767E+00
 6.1412961E+00 1.0566531E+00 1.9457556E+00
 6.2202737E+00 1.0288193E+00 1.9440371E+00
 6.2976797E+00 1.0000000E+00 1.9399914E+00
 6.3730440E+00 9.7031114E-01 1.9335301E+00
 6.4459528E+00 9.3985254E-01 1.9245837E+00
 6.5161468E+00 9.0870626E-01 1.9130744E+00
 6.5837306E+00 8.7699493E-01 1.8988725E+00
 6.6494950E+00 8.4504558E-01 1.8817219E+00
 5.4330432E+00 1.2112893E+00 1.9069361E+00
 5.5087465E+00 1.1914281E+00 1.9141203E+00
 5.5855561E+00 1.1712808E+00 1.9212226E+00
 5.6635402E+00 1.1502796E+00 1.9281264E+00
 5.7426118E+00 1.1281843E+00 1.9345650E+00
 5.8225222E+00 1.1049025E+00 1.9401915E+00
 5.9029048E+00 1.0804069E+00 1.9446281E+00
 5.9833285E+00 1.0547143E+00 1.9475101E+00
 6.0633374E+00 1.0278818E+00 1.9485220E+00
 6.1424717E+00 1.0000000E+00 1.9474206E+00
 6.2202737E+00 9.7118068E-01 1.9440371E+00
 6.2962957E+00 9.4153900E-01 1.9382639E+00
 6.3701289E+00 9.1117199E-01 1.9300284E+00
 6.4414849E+00 8.8015014E-01 1.9192611E+00
 6.5103831E+00 8.4856019E-01 1.9058521E+00
 6.5774576E+00 8.1664694E-01 1.8895941E+00
 5.4338971E+00 1.1659760E+00 1.9163501E+00
 5.5102585E+00 1.1448675E+00 1.9227122E+00
 5.5875353E+00 1.1233274E+00 1.9289486E+00
 5.6657798E+00 1.1008840E+00 1.9348854E+00
 5.7448898E+00 1.0773543E+00 1.9402298E+00
 5.8246027E+00 1.0526852E+00 1.9446261E+00
 5.9045414E+00 1.0268840E+00 1.9476992E+00
 5.9842705E+00 1.0000000E+00 1.9490966E+00
 6.0633374E+00 9.7211816E-01 1.9485220E+00
 6.1412961E+00 9.4334686E-01 1.9457556E+00
 6.2177180E+00 9.1379963E-01 1.9406511E+00
 6.2922105E+00 8.8357116E-01 1.9331168E+00
 6.3644739E+00 8.5272215E-01 1.9230811E+00
 6.4344559E+00 8.2130670E-01 1.9104495E+00
 6.5026270E+00 7.8949144E-01 1.8950559E+00
 5.4345588E+00 1.1194564E+00 1.9235961E+00
 5.5113688E+00 1.0972108E+00 1.9289918E+00
 5.5888856E+00 1.0743986E+00 1.9342024E+00
 5.6671490E+00 1.0506552E+00 1.9390079E+00
 5.7460454E+00 1.0258598E+00 1.9430983E+00
 5.8253031E+00 1.0000000E+00 1.9461172E+00
 5.9045414E+00 9.7311605E-01 1.9476992E+00
 5.9833285E+00 9.4528566E-01 1.9475101E+00
 6.0612255E+00 9.1661231E-01 1.9452767E+00
 6.1378138E+00 8.8720703E-01 1.9408018E+00
 6.2127138E+00 8.5716261E-01 1.9339552E+00
 6.2856241E+00 8.2653210E-01 1.9246468E+00
 6.3564337E+00 7.9534149E-01 1.9127839E+00
 6.4254549E+00 7.6368630E-01 1.8982300E+00
 5.4350098E+00 1.0720416E+00 1.9285185E+00
 5.5120470E+00 1.0487981E+00 1.9328184E+00
 5.5895700E+00 1.0248674E+00 1.9368612E+00
 5.6676096E+00 9.9999999E-01 1.9403936E+00
 5.7460454E+00 9.7414015E-01 1.9430984E+00
 5.8246027E+00 9.4731477E-01 1.9446261E+00
 5.9029048E+00 9.1959311E-01 1.9446281E+00
 5.9805335E+00 8.9107204E-01 1.9427922E+00
 6.0570760E+00 8.6185862E-01 1.9388681E+00
 6.1321569E+00 8.3204368E-01 1.9326750E+00
 6.2054688E+00 8.0167475E-01 1.9240845E+00
 6.2768482E+00 7.7075484E-01 1.9129874E+00
 6.3464542E+00 7.3931722E-01 1.8992568E+00
 5.4352383E+00 1.0240759E+00 1.9310079E+00
 5.5122751E+00 9.9999998E-01 1.9341040E+00
 5.5895700E+00 9.7513256E-01 1.9368612E+00
 5.6671489E+00 9.4934482E-01 1.9390079E+00
 5.7448898E+00 9.2264571E-01 1.9402298E+00
 5.8225222E+00 8.9509748E-01 1.9401915E+00
 5.8996826E+00 8.6678967E-01 1.9385653E+00
 5.9759780E+00 8.3782346E-01 1.9350616E+00
 6.0510337E+00 8.0828658E-01 1.9294471E+00
 6.1245274E+00 7.7822230E-01 1.9215428E+00
 6.1962372E+00 7.4761576E-01 1.9112020E+00
 6.2661688E+00 7.1644759E-01 1.8982840E+00
 5.4352383E+00 9.7592411E-01 1.9310079E+00
 5.5120470E+00 9.5120182E-01 1.9328184E+00
 5.5888856E+00 9.2560136E-01 1.9342024E+00
 5.6657797E+00 8.9911602E-01 1.9348854E+00
 5.7426118E+00 8.7181572E-01 1.9345650E+00
 5.8191241E+00 8.4378987E-01 1.9329255E+00
 5.8949767E+00 8.1513381E-01 1.9296609E+00
 5.9698100E+00 7.8593018E-01 1.9244984E+00
 6.0432846E+00 7.5621777E-01 1.9172070E+00
 6.1151114E+00 7.2596777E-01 1.9075888E+00
 6.1851338E+00 6.9511782E-01 1.8954653E+00
 5.4350098E+00 9.2795836E-01 1.9285185E+00
 5.5113688E+00 9.0278921E-01 1.9289918E+00
 5.5875352E+00 8.7667254E-01 1.9289486E+00
 5.6635402E+00 8.4972039E-01 1.9281264E+00
 5.7392776E+00 8.2205559E-01 1.9262426E+00
 5.8145115E+00 7.9378052E-01 1.9230026E+00
 5.8889300E+00 7.6497387E-01 1.9181166E+00
 5.9621917E+00 7.3566844E-01 1.9113137E+00
 6.0339394E+00 7.0582358E-01 1.9023426E+00
 6.1038463E+00 6.7534213E-01 1.8909704E+00
 5.4345587E+00 8.8054357E-01 1.9235961E+00
 5.5102585E+00 8.5513245E-01 1.9227122E+00
 5.5855561E+00 8.2871920E-01 1.9212227E+00
 5.6604941E+00 8.0152587E-01 1.9188897E+00
 5.7349854E+00 7.7371363E-01 1.9154548E+00
 5.8088162E+00 7.4537577E-01 1.9106394E+00
 5.8816754E+00 7.1654159E-01 1.9041544E+00
 5.9531537E+00 6.8715917E-01 1.8957056E+00
 6.0227559E+00 6.5710300E-01 1.8850010E+00
 5.4338971E+00 8.3402398E-01 1.9163501E+00
 5.5087464E+00 8.0857183E-01 1.9141203E+00
 5.5830039E+00 7.8207258E-01 1.9111979E+00
 5.6567295E+00 7.5484154E-01 1.9073791E+00
 5.7298509E+00 7.2705524E-01 1.9024263E+00
 5.8021372E+00 6.9876418E-01 1.8960615E+00
 5.8731605E+00 6.6991063E-01 1.8879678E+00
 5.9422757E+00 6.4034538E-01 1.8778017E+00
 5.4330431E+00 7.8871071E-01 1.9069362E+00
 5.5068758E+00 7.6340471E-01 1.9033998E+00
 5.5799525E+00 7.3700505E-01 1.8990845E+00
 5.6523428E+00 7.0989506E-01 1.8938223E+00
 5.7239387E+00 6.8222989E-01 1.8873815E+00
 5.7943412E+00 6.5397708E-01 1.8794524E+00
 5.8627930E+00 6.2497508E-01 1.8696586E+00
 5.4320217E+00 7.4487106E-01 1.8955464E+00
 5.5047024E+00 7.1987180E-01 1.8907645E+00
 5.5764784E+00 6.9371161E-01 1.8851099E+00
 5.6473631E+00 6.6679885E-01 1.8784370E+00
 5.7170345E+00 6.3922764E-01 1.8704874E+00
 5.7846712E+00 6.1086340E-01 1.8608829E+00
 5.4308663E+00 7.0272105E-01 1.8823986E+00
 5.5022821E+00 6.7814220E-01 1.8764404E+00
 5.5725864E+00 6.5227848E-01 1.8694857E+00
 5.6415204E+00 6.2551283E-01 1.8613761E+00
 5.7082369E+00 5.9786015E-01 1.8517847E+00
 5.4296097E+00 6.6242133E-01 1.8677231E+00
 5.4996108E+00 6.3828868E-01 1.8606382E+00
 5.5679497E+00 6.1262932E-01 1.8523461E+00
 5.6337686E+00 5.8579996E-01 1.8426422E+00
 5.4282431E+00 6.2405468E-01 1.8517403E+00
 5.4964139E+00 6.0025395E-01 1.8435051E+00
 5.5615026E+00 5.7451345E-01 1.8336818E+00
 5.4265979E+00 5.8759551E-01 1.8346291E+00
 5.4915170E+00 5.6371079E-01 1.8249890E+00
 5.4241375E+00 5.5297734E-01 1.8165280E+00
 5.3215403E+00 1.5107239E+00 1.7748476E+00
 5.2810379E+00 1.5351243E+00 1.7572178E+00
 5.2388030E+00 1.5601835E+00 1.7380814E+00
 5.1950213E+00 1.5857716E+00 1.7173984E+00
 5.1498411E+00 1.6117762E+00 1.6951245E+00
 5.1035229E+00 1.6380763E+00 1.6712101E+00
 5.0563154E+00 1.6645542E+00 1.6455892E+00
 5.0084924E+00 1.6910667E+00 1.6182033E+00
 4.9603627E+00 1.7174441E+00 1.5890064E+00
 4.9122628E+00 1.7434879E+00 1.5579734E+00
 4.8645469E+00 1.7689743E+00 1.5251050E+00
 4.8175751E+00 1.7936595E+00 1.4904348E+00
 4.7717012E+00 1.8172869E+00 1.4540340E+00
 4.7272618E+00 1.8395966E+00 1.4160164E+00
 4.6845647E+00 1.8603370E+00 1.3765398E+00
 4.6438792E+00 1.8792771E+00 1.3358051E+00
 4.6054283E+00 1.8962185E+00 1.2940505E+00
 4.5693839E+00 1.9110058E+00 1.2515427E+00
 4.5358680E+00 1.9235336E+00 1.2085678E+00
 4.5049700E+00 1.9337479E+00 1.1654231E+00
 4.4767816E+00 1.9416416E+00 1.1224380E+00
 4.4513693E+00 1.9472565E+00 1.0799337E+00
 4.4288326E+00 1.9506833E+00 1.0383769E+00
 3.6789793E+00 1.0913066E+00 1.7967575E+00
 3.6697480E+00 1.1508350E+00 1.7818269E+00
 3.6636675E+00 1.2117704E+00 1.7635863E+00
 3.6617321E+00 1.2741393E+00 1.7422217E+00
 3.6645071E+00 1.3375447E+00 1.7177104E+00
 3.6723984E+00 1.4013856E+00 1.6900191E+00
 3.6857180E+00 1.4649339E+00 1.6591707E+00
 3.7046849E+00 1.5273704E+00 1.6252774E+00
 3.7293958E+00 1.5878124E+00 1.5885520E+00
 3.7597964E+00 1.6453540E+00 1.5493120E+00
 3.7956639E+00 1.6991165E+00 1.5079761E+00
 3.8366021E+00 1.7483048E+00 1.4650531E+00
 3.8820537E+00 1.7922652E+00 1.4211232E+00
 3.9313301E+00 1.8305379E+00 1.3768106E+00
 3.9836574E+00 1.8628961E+00 1.3327484E+00
 4.0382335E+00 1.8893640E+00 1.2895407E+00
 4.0942882E+00 1.9102094E+00 1.2477260E+00
 4.1511321E+00 1.9259075E+00 1.2077468E+00
 4.2081773E+00 1.9370821E+00 1.1699315E+00
 4.2649394E+00 1.9444381E+00 1.1344682E+00
 4.3209913E+00 1.9487005E+00 1.1013196E+00
 4.3758384E+00 1.9505689E+00 1.0700522E+00
 3.7320012E+00 1.1274451E+00 1.8228873E+00
 3.7259237E+00 1.1889520E+00 1.8077022E+00
 3.7228734E+00 1.2509008E+00 1.7889864E+00
 3.7240328E+00 1.3136516E+00 1.7669736E+00
 3.7300054E+00 1.3769167E+00 1.7416572E+00
 3.7411485E+00 1.4401006E+00 1.7130061E+00
 3.7576971E+00 1.5024458E+00 1.6810613E+00
 3.7797755E+00 1.5630992E+00 1.6459709E+00
 3.8073735E+00 1.6211650E+00 1.6079987E+00
 3.8403245E+00 1.6757588E+00 1.5675231E+00
 3.8782964E+00 1.7260657E+00 1.5250275E+00
 3.9208006E+00 1.7714003E+00 1.4810834E+00
 3.9672176E+00 1.8112601E+00 1.4363234E+00
 4.0168391E+00 1.8453680E+00 1.3914067E+00
 4.0689216E+00 1.8736933E+00 1.3469793E+00
 4.1227421E+00 1.8964475E+00 1.3036338E+00
 4.1776466E+00 1.9140523E+00 1.2618725E+00
 4.2330809E+00 1.9270851E+00 1.2220750E+00
 4.2885971E+00 1.9362170E+00 1.1844437E+00
 4.3437943E+00 1.9421574E+00 1.1488920E+00
 4.3982792E+00 1.9456191E+00 1.1146584E+00
 3.7901895E+00 1.1621991E+00 1.8458758E+00
 3.7871076E+00 1.2245536E+00 1.8301356E+00
 3.7870869E+00 1.2869442E+00 1.8107486E+00
 3.7913342E+00 1.3496578E+00 1.7878998E+00
 3.8004401E+00 1.4123952E+00 1.7615795E+00
 3.8147013E+00 1.4745308E+00 1.7317740E+00
 3.8342695E+00 1.5352745E+00 1.6985610E+00
 3.8591724E+00 1.5937577E+00 1.6621410E+00
 3.8892960E+00 1.6490997E+00 1.6228426E+00
 3.9243721E+00 1.7004710E+00 1.5811151E+00
 3.9639818E+00 1.7471567E+00 1.5375124E+00
 4.0075769E+00 1.7886130E+00 1.4926672E+00
 4.0545170E+00 1.8245121E+00 1.4472567E+00
 4.1041186E+00 1.8547670E+00 1.4019609E+00
 4.1557053E+00 1.8795304E+00 1.3574188E+00
 4.2086537E+00 1.8991668E+00 1.3141866E+00
 4.2624255E+00 1.9142027E+00 1.2726955E+00
 4.3165760E+00 1.9252687E+00 1.2331946E+00
 4.3707129E+00 1.9330568E+00 1.1955933E+00
 4.4243664E+00 1.9382872E+00 1.1591945E+00
 3.8532107E+00 1.1958031E+00 1.8649966E+00
 3.8530485E+00 1.2583127E+00 1.8484312E+00
 3.8560399E+00 1.3205637E+00 1.8281488E+00
 3.8633460E+00 1.3827192E+00 1.8042704E+00
 3.8754900E+00 1.4444112E+00 1.7767812E+00
 3.8926898E+00 1.5049783E+00 1.7456991E+00
 3.9150076E+00 1.5636154E+00 1.7111542E+00
 3.9423760E+00 1.6194682E+00 1.6734132E+00
 3.9745889E+00 1.6717083E+00 1.6328782E+00
 4.0112997E+00 1.7196016E+00 1.5900723E+00
 4.0520367E+00 1.7625688E+00 1.5456147E+00
 4.0962342E+00 1.8002333E+00 1.5001865E+00
 4.1432737E+00 1.8324498E+00 1.4544883E+00
 4.1925286E+00 1.8593069E+00 1.4091937E+00
 4.2434053E+00 1.8811035E+00 1.3649034E+00
 4.2953767E+00 1.8983043E+00 1.3220998E+00
 4.3479990E+00 1.9114894E+00 1.2810793E+00
 4.4008651E+00 1.9213166E+00 1.2418187E+00
 4.4534593E+00 1.9285040E+00 1.2037101E+00
 3.9206817E+00 1.2279986E+00 1.8797229E+00
 3.9233753E+00 1.2901099E+00 1.8620994E+00
 3.9293367E+00 1.3516738E+00 1.8407287E+00