# TIME = 7.000000
VARIABLES = X, Y, Z, FX, FY, FZ
ZONE N=29232 E=58212 F=FEPOINT ET=TRIANGLE
  0.000E+00  9.502E-01  1.243E-03 3.2405476E+00 5.8253939E-02 1.1715739E+00
  0.000E+00  1.000E+00  0.000E+00 3.2391058E+00 3.0892186E-06 1.1730682E+00
  4.318E-02  9.751E-01  3.108E-04 3.2389383E+00 2.8233617E-02 1.1367625E+00
  0.000E+00  1.050E+00  1.243E-03 3.2405470E+00 -5.8247761E-02 1.1715739E+00
  4.318E-02  1.025E+00  3.108E-04 3.2389381E+00 -2.8227658E-02 1.1367625E+00
  0.000E+00  1.100E+00  4.969E-03 3.2460741E+00 -1.1655256E-01 1.1672100E+00
  4.318E-02  1.075E+00  2.796E-03 3.2423905E+00 -8.4713125E-02 1.1339018E+00
  0.000E+00  1.149E+00  1.117E-02 3.2579657E+00 -1.7491985E-01 1.1601707E+00
  4.318E-02  1.124E+00  7.761E-03 3.2512633E+00 -1.4127382E-01 1.1283592E+00
  0.000E+00  1.198E+00  1.983E-02 3.2756317E+00 -2.3297046E-01 1.1503274E+00
  4.318E-02  1.174E+00  1.519E-02 3.2667309E+00 -1.9777785E-01 1.1202172E+00
  0.000E+00  1.247E+00  3.092E-02 3.2921889E+00 -2.8993941E-01 1.1372335E+00
  4.318E-02  1.223E+00  2.507E-02 3.2849169E+00 -2.5361946E-01 1.1091591E+00
  0.000E+00  1.295E+00  4.443E-02 3.2996396E+00 -3.4564147E-01 1.1209249E+00
  4.318E-02  1.271E+00  3.738E-02 3.2969689E+00 -3.0816800E-01 1.0948318E+00
  0.000E+00  1.342E+00  6.031E-02 3.3111191E+00 -4.0088252E-01 1.1022005E+00
  4.318E-02  1.318E+00  5.207E-02 3.3007279E+00 -3.6183277E-01 1.0777559E+00
  0.000E+00  1.388E+00  7.852E-02 3.3447480E+00 -4.5575018E-01 1.0811871E+00
  4.318E-02  1.365E+00  6.913E-02 3.3293816E+00 -4.1531006E-01 1.0585801E+00
  0.000E+00  1.434E+00  9.903E-02 3.3532785E+00 -5.0913039E-01 1.0571076E+00
  4.318E-02  1.411E+00  8.849E-02 3.3551665E+00 -4.6787098E-01 1.0367701E+00
  0.000E+00  1.478E+00  1.218E-01 3.3711698E+00 -5.6104169E-01 1.0302964E+00
  4.318E-02  1.456E+00  1.101E-01 3.3532245E+00 -5.1883343E-01 1.0120114E+00
  0.000E+00  1.521E+00  1.467E-01 3.3968375E+00 -6.1175391E-01 1.0011097E+00
  4.318E-02  1.500E+00  1.340E-01 3.3871858E+00 -5.6859801E-01 9.8488638E-01
  0.000E+00  1.563E+00  1.738E-01 3.3940146E+00 -6.6089873E-01 9.6936359E-01
  4.318E-02  1.543E+00  1.600E-01 3.3869176E+00 -6.1703557E-01 9.5535999E-01
  0.000E+00  1.604E+00  2.029E-01 3.4149765E+00 -7.0838548E-01 9.3520485E-01
  4.318E-02  1.584E+00  1.881E-01 3.4180052E+00 -6.6386706E-01 9.2338948E-01
  0.000E+00  1.643E+00  2.340E-01 3.4226050E+00 -7.5412943E-01 8.9874113E-01
  4.318E-02  1.623E+00  2.182E-01 3.4090084E+00 -7.0907655E-01 8.8915805E-01
  0.000E+00  1.680E+00  2.669E-01 3.4240678E+00 -7.9798723E-01 8.6003111E-01
  4.318E-02  1.662E+00  2.502E-01 3.4254210E+00 -7.5251557E-01 8.5270912E-01
  0.000E+00  1.716E+00  3.018E-01 3.4253709E+00 -8.3986512E-01 8.1918469E-01
  4.318E-02  1.698E+00  2.841E-01 3.4253824E+00 -7.9408365E-01 8.1413784E-01
  0.000E+00  1.750E+00  3.383E-01 3.4254091E+00 -8.7965539E-01 7.7630279E-01
  4.318E-02  1.733E+00  3.198E-01 3.4240789E+00 -8.3367845E-01 7.7354279E-01
  0.000E+00  1.782E+00  3.765E-01 3.4089963E+00 -9.1725645E-01 7.3149098E-01
  4.318E-02  1.766E+00  3.572E-01 3.4226157E+00 -8.7120254E-01 7.3102864E-01
  0.000E+00  1.812E+00  4.163E-01 3.4179929E+00 -9.5257006E-01 6.8485281E-01
  4.318E-02  1.797E+00  3.962E-01 3.4149869E+00 -9.0654926E-01 6.8668627E-01
  0.000E+00  1.840E+00  4.575E-01 3.3869049E+00 -9.8555083E-01 6.3654109E-01
  4.318E-02  1.826E+00  4.367E-01 3.3940247E+00 -9.3966170E-01 6.4065463E-01
  0.000E+00  1.866E+00  5.000E-01 3.3871725E+00 -1.0160099E+00 5.8657239E-01
  4.318E-02  1.853E+00  4.786E-01 3.3968471E+00 -9.7043462E-01 5.9301542E-01
  0.000E+00  1.890E+00  5.438E-01 3.3532108E+00 -1.0439925E+00 5.3523499E-01
  4.318E-02  1.878E+00  5.217E-01 3.3711790E+00 -9.9872707E-01 5.4385672E-01
  0.000E+00  1.912E+00  5.887E-01 3.3551527E+00 -1.0695340E+00 4.8266229E-01
  4.318E-02  1.901E+00  5.661E-01 3.3532874E+00 -1.0247171E+00 4.9353564E-01
  0.000E+00  1.931E+00  6.347E-01 3.3293677E+00 -1.0920337E+00 4.2844039E-01
  4.318E-02  1.921E+00  6.116E-01 3.3447564E+00 -1.0480590E+00 4.4179084E-01
  0.000E+00  1.948E+00  6.815E-01 3.3007136E+00 -1.1118156E+00 3.7327279E-01
  4.318E-02  1.940E+00  6.580E-01 3.3111269E+00 -1.0684290E+00 3.8860439E-01
  0.000E+00  1.963E+00  7.292E-01 3.2969542E+00 -1.1294307E+00 3.1791164E-01
  4.318E-02  1.956E+00  7.052E-01 3.2996466E+00 -1.0865794E+00 3.3505594E-01
  0.000E+00  1.975E+00  7.775E-01 3.2849017E+00 -1.1442105E+00 2.6163884E-01
  4.318E-02  1.969E+00  7.532E-01 3.2921954E+00 -1.1023879E+00 2.8106045E-01
  0.000E+00  1.985E+00  8.264E-01 3.2667153E+00 -1.1556183E+00 2.0403223E-01
  4.318E-02  1.980E+00  8.019E-01 3.2756379E+00 -1.1150807E+00 2.2583673E-01
  0.000E+00  1.992E+00  8.757E-01 3.2512474E+00 -1.1640178E+00 1.4574237E-01
  4.318E-02  1.989E+00  8.510E-01 3.2579718E+00 -1.1246228E+00 1.6956446E-01
  0.000E+00  1.997E+00  9.253E-01 3.2423744E+00 -1.1697358E+00 8.7394120E-02
  4.318E-02  1.995E+00  9.004E-01 3.2460800E+00 -1.1314467E+00 1.1298528E-01
  0.000E+00  2.000E+00  9.751E-01 3.2389218E+00 -1.1726870E+00 2.9123479E-02
  4.318E-02  1.999E+00  9.502E-01 3.2405527E+00 -1.1356771E+00 5.6466761E-02
  0.000E+00  2.000E+00  1.025E+00 3.2389217E+00 -1.1726869E+00 -2.9122217E-02
  4.318E-02  2.000E+00  1.000E+00 3.2391112E+00 -1.1371257E+00 6.0051413E-07
  0.000E+00  1.997E+00  1.075E+00 3.2423743E+00 -1.1697357E+00 -8.7392874E-02
  4.318E-02  1.999E+00  1.050E+00 3.2405526E+00 -1.1356771E+00 -5.6465556E-02
  0.000E+00  1.992E+00  1.124E+00 3.2512472E+00 -1.1640177E+00 -1.4574114E-01
  4.318E-02  1.995E+00  1.100E+00 3.2460798E+00 -1.1314466E+00 -1.1298406E-01
  0.000E+00  1.985E+00  1.174E+00 3.2667150E+00 -1.1556183E+00 -2.0403100E-01
  4.318E-02  1.989E+00  1.149E+00 3.2579715E+00 -1.1246227E+00 -1.6956325E-01
  0.000E+00  1.975E+00  1.223E+00 3.2849013E+00 -1.1442107E+00 -2.6163759E-01
  4.318E-02  1.980E+00  1.198E+00 3.2756375E+00 -1.1150808E+00 -2.2583553E-01
  0.000E+00  1.963E+00  1.271E+00 3.2969538E+00 -1.1294308E+00 -3.1791038E-01
  4.318E-02  1.969E+00  1.247E+00 3.2921949E+00 -1.1023881E+00 -2.8105925E-01
  0.000E+00  1.948E+00  1.318E+00 3.3007131E+00 -1.1118153E+00 -3.7327153E-01
  4.318E-02  1.956E+00  1.295E+00 3.2996461E+00 -1.0865792E+00 -3.3505474E-01
  0.000E+00  1.931E+00  1.365E+00 3.3293671E+00 -1.0920338E+00 -4.2843914E-01
  4.318E-02  1.940E+00  1.342E+00 3.3111262E+00 -1.0684288E+00 -3.8860319E-01
  0.000E+00  1.912E+00  1.411E+00 3.3551520E+00 -1.0695343E+00 -4.8266105E-01
  4.318E-02  1.921E+00  1.388E+00 3.3447557E+00 -1.0480594E+00 -4.4178965E-01
  0.000E+00  1.890E+00  1.456E+00 3.3532101E+00 -1.0439922E+00 -5.3523373E-01
  4.318E-02  1.901E+00  1.434E+00 3.3532865E+00 -1.0247170E+00 -4.9353444E-01
  0.000E+00  1.866E+00  1.500E+00 3.3871717E+00 -1.0160101E+00 -5.8657115E-01
  4.318E-02  1.878E+00  1.478E+00 3.3711781E+00 -9.9872702E-01 -5.4385553E-01
  0.000E+00  1.840E+00  1.543E+00 3.3869039E+00 -9.8555083E-01 -6.3653984E-01
  4.318E-02  1.853E+00  1.521E+00 3.3968461E+00 -9.7043490E-01 -5.9301424E-01
  0.000E+00  1.812E+00  1.584E+00 3.4179919E+00 -9.5257009E-01 -6.8485157E-01
  4.318E-02  1.826E+00  1.563E+00 3.3940236E+00 -9.3966166E-01 -6.4065345E-01
  0.000E+00  1.782E+00  1.623E+00 3.4089953E+00 -9.1725653E-01 -7.3148973E-01
  4.318E-02  1.797E+00  1.604E+00 3.4149858E+00 -9.0654946E-01 -6.8668510E-01
  0.000E+00  1.750E+00  1.662E+00 3.4254080E+00 -8.7965544E-01 -7.7630155E-01
  4.318E-02  1.766E+00  1.643E+00 3.4226145E+00 -8.7120259E-01 -7.3102746E-01
  0.000E+00  1.716E+00  1.698E+00 3.4253697E+00 -8.3986522E-01 -8.1918344E-01
  4.318E-02  1.733E+00  1.680E+00 3.4240776E+00 -8.3367856E-01 -7.7354162E-01
  0.000E+00  1.680E+00  1.733E+00 3.4240665E+00 -7.9798727E-01 -8.6002986E-01
  4.318E-02  1.698E+00  1.716E+00 3.4253811E+00 -7.9408370E-01 -8.1413667E-01
  0.000E+00  1.643E+00  1.766E+00 3.4226036E+00 -7.5412939E-01 -8.9873985E-01
  4.318E-02  1.662E+00  1.750E+00 3.4254196E+00 -7.5251569E-01 -8.5270797E-01
  0.000E+00  1.604E+00  1.797E+00 3.4149751E+00 -7.0838540E-01 -9.3520356E-01
  4.318E-02  1.623E+00  1.782E+00 3.4090071E+00 -7.0907671E-01 -8.8915692E-01
  0.000E+00  1.563E+00  1.826E+00 3.3940132E+00 -6.6089883E-01 -9.6936234E-01
  4.318E-02  1.584E+00  1.812E+00 3.4180039E+00 -6.6386719E-01 -9.2338835E-01
  0.000E+00  1.521E+00  1.853E+00 3.3968362E+00 -6.1175432E-01 -1.0011085E+00
  4.318E-02  1.543E+00  1.840E+00 3.3869161E+00 -6.1703551E-01 -9.5535881E-01
  0.000E+00  1.478E+00  1.878E+00 3.3711686E+00 -5.6104205E-01 -1.0302952E+00
  4.318E-02  1.500E+00  1.866E+00 3.3871841E+00 -5.6859786E-01 -9.8488516E-01
  0.000E+00  1.434E+00  1.901E+00 3.3532773E+00 -5.0913023E-01 -1.0571063E+00
  4.318E-02  1.456E+00  1.890E+00 3.3532227E+00 -5.1883343E-01 -1.0120102E+00
  0.000E+00  1.388E+00  1.921E+00 3.3447465E+00 -4.5574953E-01 -1.0811857E+00
  4.318E-02  1.411E+00  1.912E+00 3.3551647E+00 -4.6787135E-01 -1.0367690E+00
  0.000E+00  1.342E+00  1.940E+00 3.3111172E+00 -4.0088200E-01 -1.1021990E+00
  4.318E-02  1.365E+00  1.931E+00 3.3293801E+00 -4.1531054E-01 -1.0585791E+00
  0.000E+00  1.295E+00  1.956E+00 3.2996374E+00 -3.4564156E-01 -1.1209236E+00
  4.318E-02  1.318E+00  1.948E+00 3.3007267E+00 -3.6183298E-01 -1.0777549E+00
  0.000E+00  1.247E+00  1.969E+00 3.2921868E+00 -2.8993995E-01 -1.1372323E+00
  4.318E-02  1.271E+00  1.963E+00 3.2969677E+00 -3.0816785E-01 -1.0948307E+00
  0.000E+00  1.198E+00  1.980E+00 3.2756299E+00 -2.3297101E-01 -1.1503263E+00
  4.318E-02  1.223E+00  1.975E+00 3.2849155E+00 -2.5361917E-01 -1.1091578E+00
  0.000E+00  1.149E+00  1.989E+00 3.2579641E+00 -1.7492014E-01 -1.1601696E+00
  4.318E-02  1.174E+00  1.985E+00 3.2667292E+00 -1.9777766E-01 -1.1202160E+00
  0.000E+00  1.100E+00  1.995E+00 3.2460725E+00 -1.1655262E-01 -1.1672089E+00
  4.318E-02  1.124E+00  1.992E+00 3.2512615E+00 -1.4127376E-01 -1.1283580E+00
  0.000E+00  1.050E+00  1.999E+00 3.2405454E+00 -5.8247752E-02 -1.1715728E+00
  4.318E-02  1.075E+00  1.997E+00 3.2423888E+00 -8.4713144E-02 -1.1339006E+00
  0.000E+00  1.000E+00  2.000E+00 3.2391041E+00 3.0791223E-06 -1.1730671E+00
  4.318E-02  1.025E+00  2.000E+00 3.2389364E+00 -2.8227680E-02 -1.1367613E+00
  0.000E+00  9.502E-01  1.999E+00 3.2405459E+00 5.8253909E-02 -1.1715728E+00
  4.318E-02  9.751E-01  2.000E+00 3.2389366E+00 2.8233618E-02 -1.1367613E+00
  0.000E+00  9.004E-01  1.995E+00 3.2460736E+00 1.1655878E-01 -1.1672089E+00
  4.318E-02  9.253E-01  1.997E+00 3.2423896E+00 8.4719080E-02 -1.1339006E+00
  0.000E+00  8.510E-01  1.989E+00 3.2579657E+00 1.7492629E-01 -1.1601695E+00
  4.318E-02  8.757E-01  1.992E+00 3.2512628E+00 1.4127970E-01 -1.1283579E+00
  0.000E+00  8.019E-01  1.980E+00 3.2756320E+00 2.3297716E-01 -1.1503262E+00
  4.318E-02  8.264E-01  1.985E+00 3.2667311E+00 1.9778359E-01 -1.1202159E+00
  0.000E+00  7.532E-01  1.969E+00 3.2921895E+00 2.8994610E-01 -1.1372322E+00
  4.318E-02  7.775E-01  1.975E+00 3.2849178E+00 2.5362510E-01 -1.1091577E+00
  0.000E+00  7.052E-01  1.956E+00 3.2996405E+00 3.4564770E-01 -1.1209234E+00
  4.318E-02  7.292E-01  1.963E+00 3.2969706E+00 3.0817377E-01 -1.0948305E+00
  0.000E+00  6.580E-01  1.940E+00 3.3111208E+00 4.0088813E-01 -1.1021988E+00
  4.318E-02  6.815E-01  1.948E+00 3.3007300E+00 3.6183890E-01 -1.0777547E+00
  0.000E+00  6.116E-01  1.921E+00 3.3447506E+00 4.5575564E-01 -1.0811855E+00
  4.318E-02  6.347E-01  1.931E+00 3.3293840E+00 4.1531645E-01 -1.0585789E+00
  0.000E+00  5.661E-01  1.901E+00 3.3532818E+00 5.0913635E-01 -1.0571060E+00
  4.318E-02  5.887E-01  1.912E+00 3.3551690E+00 4.6787724E-01 -1.0367688E+00
  0.000E+00  5.217E-01  1.878E+00 3.3711735E+00 5.6104815E-01 -1.0302949E+00
  4.318E-02  5.438E-01  1.890E+00 3.3532275E+00 5.1883933E-01 -1.0120100E+00
  0.000E+00  4.786E-01  1.853E+00 3.3968416E+00 6.1176041E-01 -1.0011082E+00
  4.318E-02  5.000E-01  1.866E+00 3.3871894E+00 5.6860372E-01 -9.8488490E-01
  0.000E+00  4.367E-01  1.826E+00 3.3940190E+00 6.6090492E-01 -9.6936205E-01
  4.318E-02  4.575E-01  1.840E+00 3.3869218E+00 6.1704140E-01 -9.5535854E-01
  0.000E+00  3.962E-01  1.797E+00 3.4149813E+00 7.0839148E-01 -9.3520326E-01
  4.318E-02  4.163E-01  1.812E+00 3.4180099E+00 6.6387305E-01 -9.2338806E-01
  0.000E+00  3.572E-01  1.766E+00 3.4226102E+00 7.5413545E-01 -8.9873955E-01
  4.318E-02  3.765E-01  1.782E+00 3.4090135E+00 7.0908258E-01 -8.8915662E-01
  0.000E+00  3.198E-01  1.733E+00 3.4240735E+00 7.9799334E-01 -8.6002955E-01
  4.318E-02  3.383E-01  1.750E+00 3.4254264E+00 7.5252152E-01 -8.5270767E-01
  0.000E+00  2.841E-01  1.698E+00 3.4253770E+00 8.3987124E-01 -8.1918313E-01
  4.318E-02  3.018E-01  1.716E+00 3.4253882E+00 7.9408956E-01 -8.1413637E-01
  0.000E+00  2.502E-01  1.662E+00 3.4254156E+00 8.7966149E-01 -7.7630124E-01
  4.318E-02  2.669E-01  1.680E+00 3.4240851E+00 8.3368435E-01 -7.7354132E-01
  0.000E+00  2.182E-01  1.623E+00 3.4090031E+00 9.1726251E-01 -7.3148942E-01
  4.318E-02  2.340E-01  1.643E+00 3.4226222E+00 8.7120845E-01 -7.3102717E-01
  0.000E+00  1.881E-01  1.584E+00 3.4180000E+00 9.5257611E-01 -6.8485127E-01
  4.318E-02  2.029E-01  1.604E+00 3.4149938E+00 9.0655517E-01 -6.8668481E-01
  0.000E+00  1.600E-01  1.543E+00 3.3869123E+00 9.8555688E-01 -6.3653956E-01
  4.318E-02  1.738E-01  1.563E+00 3.3940319E+00 9.3966760E-01 -6.4065317E-01
  0.000E+00  1.340E-01  1.500E+00 3.3871803E+00 1.0160159E+00 -5.8657088E-01
  4.318E-02  1.467E-01  1.521E+00 3.3968546E+00 9.7044051E-01 -5.9301397E-01
  0.000E+00  1.101E-01  1.456E+00 3.3532189E+00 1.0439986E+00 -5.3523349E-01
  4.318E-02  1.218E-01  1.478E+00 3.3711868E+00 9.9873295E-01 -5.4385528E-01
  0.000E+00  8.849E-02  1.411E+00 3.3551610E+00 1.0695401E+00 -4.8266082E-01
  4.318E-02  9.903E-02  1.434E+00 3.3532954E+00 1.0247229E+00 -4.9353421E-01
  0.000E+00  6.913E-02  1.365E+00 3.3293762E+00 1.0920397E+00 -4.2843893E-01
  4.318E-02  7.852E-02  1.388E+00 3.3447648E+00 1.0480648E+00 -4.4178943E-01
  0.000E+00  5.207E-02  1.318E+00 3.3007224E+00 1.1118217E+00 -3.7327135E-01
  4.318E-02  6.031E-02  1.342E+00 3.3111355E+00 1.0684348E+00 -3.8860300E-01
  0.000E+00  3.738E-02  1.271E+00 3.2969632E+00 1.1294368E+00 -3.1791022E-01
  4.318E-02  4.443E-02  1.295E+00 3.2996554E+00 1.0865852E+00 -3.3505458E-01
  0.000E+00  2.507E-02  1.223E+00 3.2849108E+00 1.1442165E+00 -2.6163746E-01
  4.318E-02  3.092E-02  1.247E+00 3.2922044E+00 1.1023937E+00 -2.8105911E-01
  0.000E+00  1.519E-02  1.174E+00 3.2667245E+00 1.1556243E+00 -2.0403089E-01
  4.318E-02  1.983E-02  1.198E+00 3.2756471E+00 1.1150865E+00 -2.2583541E-01
  0.000E+00  7.761E-03  1.124E+00 3.2512568E+00 1.1640238E+00 -1.4574107E-01
  4.318E-02  1.117E-02  1.149E+00 3.2579811E+00 1.1246286E+00 -1.6956317E-01
  0.000E+00  2.796E-03  1.075E+00 3.2423840E+00 1.1697418E+00 -8.7392836E-02
  4.318E-02  4.969E-03  1.100E+00 3.2460895E+00 1.1314525E+00 -1.1298401E-01
  0.000E+00  3.108E-04  1.025E+00 3.2389314E+00 1.1726930E+00 -2.9122211E-02
  4.318E-02  1.243E-03  1.050E+00 3.2405623E+00 1.1356829E+00 -5.6465535E-02
  0.000E+00  3.108E-04  9.751E-01 3.2389315E+00 1.1726929E+00 2.9123452E-02
  4.318E-02  0.000E+00  1.000E+00 3.2391209E+00 1.1371314E+00 5.9032125E-07
  0.000E+00  2.796E-03  9.253E-01 3.2423841E+00 1.1697417E+00 8.7394062E-02
  4.318E-02  1.243E-03  9.502E-01 3.2405624E+00 1.1356828E+00 5.6466720E-02
  0.000E+00  7.761E-03  8.757E-01 3.2512570E+00 1.1640237E+00 1.4574228E-01
  4.318E-02  4.969E-03  9.004E-01 3.2460897E+00 1.1314524E+00 1.1298521E-01
  0.000E+00  1.519E-02  8.264E-01 3.2667249E+00 1.1556243E+00 2.0403211E-01
  4.318E-02  1.117E-02  8.510E-01 3.2579814E+00 1.1246285E+00 1.6956436E-01
  0.000E+00  2.507E-02  7.775E-01 3.2849112E+00 1.1442167E+00 2.6163869E-01
  4.318E-02  1.983E-02  8.019E-01 3.2756474E+00 1.1150866E+00 2.2583660E-01
  0.000E+00  3.738E-02  7.292E-01 3.2969636E+00 1.1294368E+00 3.1791146E-01
  4.318E-02  3.092E-02  7.532E-01 3.2922048E+00 1.1023939E+00 2.8106029E-01
  0.000E+00  5.207E-02  6.815E-01 3.3007229E+00 1.1118213E+00 3.7327258E-01
  4.318E-02  4.443E-02  7.052E-01 3.2996560E+00 1.0865850E+00 3.3505576E-01
  0.000E+00  6.913E-02  6.347E-01 3.3293768E+00 1.0920398E+00 4.2844016E-01
  4.318E-02  6.031E-02  6.580E-01 3.3111361E+00 1.0684345E+00 3.8860418E-01
  0.000E+00  8.849E-02  5.887E-01 3.3551617E+00 1.0695403E+00 4.8266205E-01
  4.318E-02  7.852E-02  6.116E-01 3.3447655E+00 1.0480651E+00 4.4179062E-01
  0.000E+00  1.101E-01  5.438E-01 3.3532197E+00 1.0439982E+00 5.3523471E-01
  4.318E-02  9.903E-02  5.661E-01 3.3532962E+00 1.0247227E+00 4.9353539E-01
  0.000E+00  1.340E-01  5.000E-01 3.3871811E+00 1.0160161E+00 5.8657211E-01
  4.318E-02  1.218E-01  5.217E-01 3.3711877E+00 9.9873275E-01 5.4385645E-01
  0.000E+00  1.600E-01  4.575E-01 3.3869133E+00 9.8555684E-01 6.3654079E-01
  4.318E-02  1.467E-01  4.786E-01 3.3968556E+00 9.7044063E-01 5.9301514E-01
  0.000E+00  1.881E-01  4.163E-01 3.4180010E+00 9.5257610E-01 6.8485250E-01
  4.318E-02  1.738E-01  4.367E-01 3.3940329E+00 9.3966739E-01 6.4065433E-01
  0.000E+00  2.182E-01  3.765E-01 3.4090042E+00 9.1726254E-01 7.3149065E-01
  4.318E-02  2.029E-01  3.962E-01 3.4149949E+00 9.0655519E-01 6.8668597E-01
  0.000E+00  2.502E-01  3.383E-01 3.4254167E+00 8.7966144E-01 7.7630247E-01
  4.318E-02  2.340E-01  3.572E-01 3.4226234E+00 8.7120834E-01 7.3102833E-01
  0.000E+00  2.841E-01  3.018E-01 3.4253782E+00 8.3987121E-01 8.1918436E-01
  4.318E-02  2.669E-01  3.198E-01 3.4240863E+00 8.3368434E-01 7.7354248E-01
  0.000E+00  3.198E-01  2.669E-01 3.4240747E+00 7.9799330E-01 8.6003078E-01
  4.318E-02  3.018E-01  2.841E-01 3.4253895E+00 7.9408949E-01 8.1413753E-01
  0.000E+00  3.572E-01  2.340E-01 3.4226116E+00 7.5413552E-01 8.9874081E-01
  4.318E-02  3.383E-01  2.502E-01 3.4254278E+00 7.5252145E-01 8.5270881E-01
  0.000E+00  3.962E-01  2.029E-01 3.4149828E+00 7.0839157E-01 9.3520454E-01
  4.318E-02  3.765E-01  2.182E-01 3.4090149E+00 7.0908242E-01 8.8915774E-01
  0.000E+00  4.367E-01  1.738E-01 3.3940205E+00 6.6090483E-01 9.6936329E-01
  4.318E-02  4.163E-01  1.881E-01 3.4180113E+00 6.6387295E-01 9.2338919E-01
  0.000E+00  4.786E-01  1.467E-01 3.3968430E+00 6.1176003E-01 1.0011094E+00
  4.318E-02  4.575E-01  1.600E-01 3.3869232E+00 6.1704145E-01 9.5535971E-01
  0.000E+00  5.217E-01  1.218E-01 3.3711748E+00 5.6104781E-01 1.0302961E+00
  4.318E-02  5.000E-01  1.340E-01 3.3871910E+00 5.6860393E-01 9.8488611E-01
  0.000E+00  5.661E-01  9.903E-02 3.3532830E+00 5.0913651E-01 1.0571073E+00
  4.318E-02  5.438E-01  1.101E-01 3.3532293E+00 5.1883933E-01 1.0120112E+00
  0.000E+00  6.116E-01  7.852E-02 3.3447521E+00 4.5575632E-01 1.0811868E+00
  4.318E-02  5.887E-01  8.849E-02 3.3551708E+00 4.6787691E-01 1.0367698E+00
  0.000E+00  6.580E-01  6.031E-02 3.3111227E+00 4.0088867E-01 1.1022003E+00
  4.318E-02  6.347E-01  6.913E-02 3.3293855E+00 4.1531599E-01 1.0585799E+00
  0.000E+00  7.052E-01  4.443E-02 3.2996427E+00 3.4564763E-01 1.1209247E+00
  4.318E-02  6.815E-01  5.207E-02 3.3007312E+00 3.6183871E-01 1.0777557E+00
  0.000E+00  7.532E-01  3.092E-02 3.2921916E+00 2.8994557E-01 1.1372334E+00
  4.318E-02  7.292E-01  3.738E-02 3.2969718E+00 3.0817394E-01 1.0948317E+00
  0.000E+00  8.019E-01  1.983E-02 3.2756338E+00 2.3297663E-01 1.1503273E+00
  4.318E-02  7.775E-01  2.507E-02 3.2849193E+00 2.5362541E-01 1.1091589E+00
  0.000E+00  8.510E-01  1.117E-02 3.2579673E+00 1.7492602E-01 1.1601706E+00
  4.318E-02  8.264E-01  1.519E-02 3.2667328E+00 1.9778381E-01 1.1202171E+00
  0.000E+00  9.004E-01  4.969E-03 3.2460752E+00 1.1655873E-01 1.1672099E+00
  4.318E-02  8.757E-01  7.761E-03 3.2512646E+00 1.4127977E-01 1.1283592E+00
  4.318E-02  9.253E-01  2.796E-03 3.2423913E+00 8.4719083E-02 1.1339018E+00
  1.000E+01  1.050E+00  1.243E-03 3.2405470E+00 -5.8247761E-02 1.1715739E+00
  1.000E+01  1.000E+00  5.551E-16 3.2391058E+00 3.0892186E-06 1.1730682E+00
  9.957E+00  1.025E+00  3.108E-04 3.2389315E+00 -3.0014097E-02 1.2087101E+00
  1.000E+01  9.502E-01  1.243E-03 3.2405476E+00 5.8253939E-02 1.1715739E+00
  9.957E+00  9.751E-01  3.108E-04 3.2389317E+00 3.0020491E-02 1.2087101E+00
  1.000E+01  9.004E-01  4.969E-03 3.2460752E+00 1.1655873E-01 1.1672099E+00
  9.957E+00  9.253E-01  2.796E-03 3.2423847E+00 9.0080835E-02 1.2056683E+00
  1.000E+01  8.510E-01  1.117E-02 3.2579673E+00 1.7492602E-01 1.1601706E+00
  9.957E+00  8.757E-01  7.761E-03 3.2512579E+00 1.5022128E-01 1.1997748E+00
  1.000E+01  8.019E-01  1.983E-02 3.2756338E+00 2.3297663E-01 1.1503273E+00
  9.957E+00  8.264E-01  1.519E-02 3.2667260E+00 2.1030165E-01 1.1911174E+00
  1.000E+01  7.532E-01  3.092E-02 3.2921916E+00 2.8994557E-01 1.1372334E+00
  9.957E+00  7.775E-01  2.507E-02 3.2849127E+00 2.6967784E-01 1.1793594E+00
  1.000E+01  7.052E-01  4.443E-02 3.2996427E+00 3.4564763E-01 1.1209247E+00
  9.957E+00  7.292E-01  3.738E-02 3.2969653E+00 3.2767914E-01 1.1641255E+00
  1.000E+01  6.580E-01  6.031E-02 3.3111227E+00 4.0088867E-01 1.1022003E+00
  9.957E+00  6.815E-01  5.207E-02 3.3007248E+00 3.8474048E-01 1.1459688E+00
  1.000E+01  6.116E-01  7.852E-02 3.3447521E+00 4.5575632E-01 1.0811868E+00
  9.957E+00  6.347E-01  6.913E-02 3.3293789E+00 4.4160217E-01 1.1255790E+00
  1.000E+01  5.661E-01  9.903E-02 3.3532830E+00 5.0913651E-01 1.0571073E+00
  9.957E+00  5.887E-01  8.849E-02 3.3551640E+00 4.9748944E-01 1.1023884E+00
  1.000E+01  5.217E-01  1.218E-01 3.3711748E+00 5.6104781E-01 1.0302961E+00
  9.957E+00  5.438E-01  1.101E-01 3.3532225E+00 5.5167723E-01 1.0760626E+00
  1.000E+01  4.786E-01  1.467E-01 3.3968430E+00 6.1176003E-01 1.0011094E+00
  9.957E+00  5.000E-01  1.340E-01 3.3871843E+00 6.0459173E-01 1.0472210E+00
  1.000E+01  4.367E-01  1.738E-01 3.3940205E+00 6.6090483E-01 9.6936329E-01
  9.957E+00  4.575E-01  1.600E-01 3.3869167E+00 6.5609507E-01 1.0158260E+00
  1.000E+01  3.962E-01  2.029E-01 3.4149828E+00 7.0839157E-01 9.3520454E-01
  9.957E+00  4.163E-01  1.881E-01 3.4180047E+00 7.0589042E-01 9.8183198E-01
  1.000E+01  3.572E-01  2.340E-01 3.4226116E+00 7.5413552E-01 8.9874081E-01
  9.957E+00  3.765E-01  2.182E-01 3.4090082E+00 7.5396110E-01 9.4543387E-01
  1.000E+01  3.198E-01  2.669E-01 3.4240747E+00 7.9799330E-01 8.6003078E-01
  9.957E+00  3.383E-01  2.502E-01 3.4254211E+00 8.0014944E-01 9.0667802E-01
  1.000E+01  2.841E-01  3.018E-01 3.4253782E+00 8.3987121E-01 8.1918436E-01
  9.957E+00  3.018E-01  2.841E-01 3.4253829E+00 8.4434841E-01 8.6566558E-01
  1.000E+01  2.502E-01  3.383E-01 3.4254167E+00 8.7966144E-01 7.7630247E-01
  9.957E+00  2.669E-01  3.198E-01 3.4240797E+00 8.8644936E-01 8.2250126E-01
  1.000E+01  2.182E-01  3.765E-01 3.4090042E+00 9.1726254E-01 7.3149065E-01
  9.957E+00  2.340E-01  3.572E-01 3.4226168E+00 9.2634838E-01 7.7729633E-01
  1.000E+01  1.881E-01  4.163E-01 3.4180010E+00 9.5257610E-01 6.8485250E-01
  9.957E+00  2.029E-01  3.962E-01 3.4149883E+00 9.6393234E-01 7.3014744E-01
  1.000E+01  1.600E-01  4.575E-01 3.3869133E+00 9.8555684E-01 6.3654079E-01
  9.957E+00  1.738E-01  4.367E-01 3.3940262E+00 9.9914016E-01 6.8120214E-01
  1.000E+01  1.340E-01  5.000E-01 3.3871811E+00 1.0160161E+00 5.8657211E-01
  9.957E+00  1.467E-01  4.786E-01 3.3968489E+00 1.0318612E+00 6.3054782E-01
  1.000E+01  1.101E-01  5.438E-01 3.3532197E+00 1.0439982E+00 5.3523471E-01
  9.957E+00  1.218E-01  5.217E-01 3.3711811E+00 1.0619442E+00 5.7827799E-01
  1.000E+01  8.849E-02  5.887E-01 3.3551617E+00 1.0695403E+00 4.8266205E-01
  9.957E+00  9.903E-02  5.661E-01 3.3532897E+00 1.0895794E+00 5.2477218E-01
  1.000E+01  6.913E-02  6.347E-01 3.3293768E+00 1.0920398E+00 4.2844016E-01
  9.957E+00  7.852E-02  6.116E-01 3.3447589E+00 1.1143990E+00 4.6975210E-01
  1.000E+01  5.207E-02  6.815E-01 3.3007229E+00 1.1118213E+00 3.7327258E-01
  9.957E+00  6.031E-02  6.580E-01 3.3111294E+00 1.1360574E+00 4.1319909E-01
  1.000E+01  3.738E-02  7.292E-01 3.2969636E+00 1.1294368E+00 3.1791146E-01
  9.957E+00  4.443E-02  7.052E-01 3.2996492E+00 1.1553566E+00 3.5626148E-01
  1.000E+01  2.507E-02  7.775E-01 3.2849112E+00 1.1442167E+00 2.6163869E-01
  9.957E+00  3.092E-02  7.532E-01 3.2921982E+00 1.1721661E+00 2.9884879E-01
  1.000E+01  1.519E-02  8.264E-01 3.2667249E+00 1.1556243E+00 2.0403211E-01
  9.957E+00  1.983E-02  8.019E-01 3.2756408E+00 1.1856623E+00 2.4013022E-01
  1.000E+01  7.761E-03  8.757E-01 3.2512570E+00 1.1640237E+00 1.4574228E-01
  9.957E+00  1.117E-02  8.510E-01 3.2579748E+00 1.1958082E+00 1.8029663E-01
  1.000E+01  2.796E-03  9.253E-01 3.2423841E+00 1.1697417E+00 8.7394062E-02
  9.957E+00  4.969E-03  9.004E-01 3.2460831E+00 1.2030640E+00 1.2013651E-01
  1.000E+01  3.108E-04  9.751E-01 3.2389315E+00 1.1726929E+00 2.9123452E-02
  9.957E+00  1.243E-03  9.502E-01 3.2405558E+00 1.2075622E+00 6.0040771E-02
  1.000E+01  3.108E-04  1.025E+00 3.2389314E+00 1.1726930E+00 -2.9122211E-02
  9.957E+00  0.000E+00  1.000E+00 3.2391143E+00 1.2091024E+00 6.2342118E-07
  1.000E+01  2.796E-03  1.075E+00 3.2423840E+00 1.1697418E+00 -8.7392836E-02
  9.957E+00  1.243E-03  1.050E+00 3.2405557E+00 1.2075622E+00 -6.0039517E-02
  1.000E+01  7.761E-03  1.124E+00 3.2512568E+00 1.1640238E+00 -1.4574107E-01
  9.957E+00  4.969E-03  1.100E+00 3.2460829E+00 1.2030641E+00 -1.2013524E-01
  1.000E+01  1.519E-02  1.174E+00 3.2667245E+00 1.1556243E+00 -2.0403089E-01
  9.957E+00  1.117E-02  1.149E+00 3.2579745E+00 1.1958083E+00 -1.8029536E-01
  1.000E+01  2.507E-02  1.223E+00 3.2849108E+00 1.1442165E+00 -2.6163746E-01
  9.957E+00  1.983E-02  1.198E+00 3.2756404E+00 1.1856622E+00 -2.4012896E-01
  1.000E+01  3.738E-02  1.271E+00 3.2969632E+00 1.1294368E+00 -3.1791022E-01
  9.957E+00  3.092E-02  1.247E+00 3.2921977E+00 1.1721659E+00 -2.9884754E-01
  1.000E+01  5.207E-02  1.318E+00 3.3007224E+00 1.1118217E+00 -3.7327135E-01
  9.957E+00  4.443E-02  1.295E+00 3.2996487E+00 1.1553568E+00 -3.5626023E-01
  1.000E+01  6.913E-02  1.365E+00 3.3293762E+00 1.0920397E+00 -4.2843893E-01
  9.957E+00  6.031E-02  1.342E+00 3.3111288E+00 1.1360577E+00 -4.1319784E-01
  1.000E+01  8.849E-02  1.411E+00 3.3551610E+00 1.0695401E+00 -4.8266082E-01
  9.957E+00  7.852E-02  1.388E+00 3.3447581E+00 1.1143987E+00 -4.6975085E-01
  1.000E+01  1.101E-01  1.456E+00 3.3532189E+00 1.0439986E+00 -5.3523349E-01
  9.957E+00  9.903E-02  1.434E+00 3.3532889E+00 1.0895796E+00 -5.2477093E-01
  1.000E+01  1.340E-01  1.500E+00 3.3871803E+00 1.0160159E+00 -5.8657088E-01
  9.957E+00  1.218E-01  1.478E+00 3.3711802E+00 1.0619444E+00 -5.7827674E-01
  1.000E+01  1.600E-01  1.543E+00 3.3869123E+00 9.8555688E-01 -6.3653956E-01
  9.957E+00  1.467E-01  1.521E+00 3.3968479E+00 1.0318611E+00 -6.3054657E-01
  1.000E+01  1.881E-01  1.584E+00 3.4180000E+00 9.5257611E-01 -6.8485127E-01
  9.957E+00  1.738E-01  1.563E+00 3.3940252E+00 9.9914038E-01 -6.8120091E-01
  1.000E+01  2.182E-01  1.623E+00 3.4090031E+00 9.1726251E-01 -7.3148942E-01
  9.957E+00  2.029E-01  1.604E+00 3.4149872E+00 9.6393231E-01 -7.3014621E-01
  1.000E+01  2.502E-01  1.662E+00 3.4254156E+00 8.7966149E-01 -7.7630124E-01
  9.957E+00  2.340E-01  1.643E+00 3.4226156E+00 9.2634849E-01 -7.7729510E-01
  1.000E+01  2.841E-01  1.698E+00 3.4253770E+00 8.3987124E-01 -8.1918313E-01
  9.957E+00  2.669E-01  1.680E+00 3.4240785E+00 8.8644937E-01 -8.2250003E-01
  1.000E+01  3.198E-01  1.733E+00 3.4240735E+00 7.9799334E-01 -8.6002955E-01
  9.957E+00  3.018E-01  1.716E+00 3.4253816E+00 8.4434848E-01 -8.6566436E-01
  1.000E+01  3.572E-01  1.766E+00 3.4226102E+00 7.5413545E-01 -8.9873955E-01
  9.957E+00  3.383E-01  1.750E+00 3.4254198E+00 8.0014953E-01 -9.0667681E-01
  1.000E+01  3.962E-01  1.797E+00 3.4149813E+00 7.0839148E-01 -9.3520326E-01
  9.957E+00  3.765E-01  1.782E+00 3.4090069E+00 7.5396127E-01 -9.4543268E-01
  1.000E+01  4.367E-01  1.826E+00 3.3940190E+00 6.6090492E-01 -9.6936205E-01
  9.957E+00  4.163E-01  1.812E+00 3.4180033E+00 7.0589051E-01 -9.8183079E-01
  1.000E+01  4.786E-01  1.853E+00 3.3968416E+00 6.1176041E-01 -1.0011082E+00
  9.957E+00  4.575E-01  1.840E+00 3.3869152E+00 6.5609500E-01 -1.0158248E+00
  1.000E+01  5.217E-01  1.878E+00 3.3711735E+00 5.6104815E-01 -1.0302949E+00
  9.957E+00  5.000E-01  1.866E+00 3.3871827E+00 6.0459149E-01 -1.0472197E+00
  1.000E+01  5.661E-01  1.901E+00 3.3532818E+00 5.0913635E-01 -1.0571060E+00
  9.957E+00  5.438E-01  1.890E+00 3.3532208E+00 5.5167723E-01 -1.0760614E+00
  1.000E+01  6.116E-01  1.921E+00 3.3447506E+00 4.5575564E-01 -1.0811855E+00
  9.957E+00  5.887E-01  1.912E+00 3.3551624E+00 4.9748982E-01 -1.1023872E+00
  1.000E+01  6.580E-01  1.940E+00 3.3111208E+00 4.0088813E-01 -1.1021988E+00
  9.957E+00  6.347E-01  1.931E+00 3.3293774E+00 4.4160270E-01 -1.1255779E+00
  1.000E+01  7.052E-01  1.956E+00 3.2996405E+00 3.4564770E-01 -1.1209234E+00
  9.957E+00  6.815E-01  1.948E+00 3.3007234E+00 3.8474072E-01 -1.1459677E+00
  1.000E+01  7.532E-01  1.969E+00 3.2921895E+00 2.8994610E-01 -1.1372322E+00
  9.957E+00  7.292E-01  1.963E+00 3.2969640E+00 3.2767894E-01 -1.1641243E+00
  1.000E+01  8.019E-01  1.980E+00 3.2756320E+00 2.3297716E-01 -1.1503262E+00
  9.957E+00  7.775E-01  1.975E+00 3.2849112E+00 2.6967747E-01 -1.1793582E+00
  1.000E+01  8.510E-01  1.989E+00 3.2579657E+00 1.7492629E-01 -1.1601695E+00
  9.957E+00  8.264E-01  1.985E+00 3.2667244E+00 2.1030138E-01 -1.1911161E+00
  1.000E+01  9.004E-01  1.995E+00 3.2460736E+00 1.1655878E-01 -1.1672089E+00
  9.957E+00  8.757E-01  1.992E+00 3.2512562E+00 1.5022119E-01 -1.1997735E+00
  1.000E+01  9.502E-01  1.999E+00 3.2405459E+00 5.8253909E-02 -1.1715728E+00
  9.957E+00  9.253E-01  1.997E+00 3.2423829E+00 9.0080844E-02 -1.2056670E+00
  1.000E+01  1.000E+00  2.000E+00 3.2391041E+00 3.0791223E-06 -1.1730671E+00
  9.957E+00  9.751E-01  2.000E+00 3.2389300E+00 3.0020499E-02 -1.2087088E+00
  1.000E+01  1.050E+00  1.999E+00 3.2405454E+00 -5.8247752E-02 -1.1715728E+00
  9.957E+00  1.025E+00  2.000E+00 3.2389298E+00 -3.0014127E-02 -1.2087088E+00
  1.000E+01  1.100E+00  1.995E+00 3.2460725E+00 -1.1655262E-01 -1.1672089E+00
  9.957E+00  1.075E+00  1.997E+00 3.2423821E+00 -9.0074474E-02 -1.2056670E+00
  1.000E+01  1.149E+00  1.989E+00 3.2579641E+00 -1.7492014E-01 -1.1601696E+00
  9.957E+00  1.124E+00  1.992E+00 3.2512549E+00 -1.5021482E-01 -1.1997735E+00
  1.000E+01  1.198E+00  1.980E+00 3.2756299E+00 -2.3297101E-01 -1.1503263E+00
  9.957E+00  1.174E+00  1.985E+00 3.2667226E+00 -2.1029502E-01 -1.1911162E+00