# TIME = 1.000000
VARIABLES = X, Y, Z, FX, FY, FZ
ZONE N=29232 E=58212 F=FEPOINT ET=TRIANGLE
  0.000E+00  9.502E-01  1.243E-03 3.2541729E+00 3.6811701E-02 7.4036399E-01
  0.000E+00  1.000E+00  0.000E+00 3.2527342E+00 4.5997048E-07 7.4130832E-01
  4.318E-02  9.751E-01  3.108E-04 3.2525612E+00 1.7547312E-02 7.0655575E-01
  0.000E+00  1.050E+00  1.243E-03 3.2541719E+00 -3.6810781E-02 7.4036400E-01
  4.318E-02  1.025E+00  3.108E-04 3.2525607E+00 -1.7546311E-02 7.0655575E-01
  0.000E+00  1.100E+00  4.969E-03 3.2596941E+00 -7.3656211E-02 7.3760625E-01
  4.318E-02  1.075E+00  2.796E-03 3.2560088E+00 -5.2654921E-02 7.0477772E-01
  0.000E+00  1.149E+00  1.117E-02 3.2715900E+00 -1.1054122E-01 7.3315779E-01
  4.318E-02  1.124E+00  7.761E-03 3.2648820E+00 -8.7810171E-02 7.0133276E-01
  0.000E+00  1.198E+00  1.983E-02 3.2892694E+00 -1.4722601E-01 7.2693732E-01
  4.318E-02  1.174E+00  1.519E-02 3.2803613E+00 -1.2293012E-01 6.9627212E-01
  0.000E+00  1.247E+00  3.092E-02 3.3058240E+00 -1.8322687E-01 7.1866268E-01
  4.318E-02  1.223E+00  2.507E-02 3.2985573E+00 -1.5763846E-01 6.8939895E-01
  0.000E+00  1.295E+00  4.443E-02 3.3132249E+00 -2.1842669E-01 7.0835649E-01
  4.318E-02  1.271E+00  3.738E-02 3.3105835E+00 -1.9154345E-01 6.8049396E-01
  0.000E+00  1.342E+00  6.031E-02 3.3246608E+00 -2.5333505E-01 6.9652370E-01
  4.318E-02  1.318E+00  5.207E-02 3.3142712E+00 -2.2489941E-01 6.6988057E-01
  0.000E+00  1.388E+00  7.852E-02 3.3583391E+00 -2.8800786E-01 6.8324452E-01
  4.318E-02  1.365E+00  6.913E-02 3.3429495E+00 -2.5813870E-01 6.5796190E-01
  0.000E+00  1.434E+00  9.903E-02 3.3668190E+00 -3.2174134E-01 6.6802786E-01
  4.318E-02  1.411E+00  8.849E-02 3.3687540E+00 -2.9080802E-01 6.4440585E-01
  0.000E+00  1.478E+00  1.218E-01 3.3846914E+00 -3.5454662E-01 6.5108496E-01
  4.318E-02  1.456E+00  1.101E-01 3.3667166E+00 -3.2248355E-01 6.2901705E-01
  0.000E+00  1.521E+00  1.467E-01 3.4103916E+00 -3.8659380E-01 6.3264079E-01
  4.318E-02  1.500E+00  1.340E-01 3.4007339E+00 -3.5341459E-01 6.1215741E-01
  0.000E+00  1.563E+00  1.738E-01 3.4074896E+00 -4.1765019E-01 6.1257919E-01
  4.318E-02  1.543E+00  1.600E-01 3.4003959E+00 -3.8352105E-01 5.9380523E-01
  0.000E+00  1.604E+00  2.029E-01 3.4284856E+00 -4.4765882E-01 5.9099295E-01
  4.318E-02  1.584E+00  1.881E-01 3.4315434E+00 -4.1262938E-01 5.7393398E-01
  0.000E+00  1.643E+00  2.340E-01 3.4361011E+00 -4.7656624E-01 5.6795012E-01
  4.318E-02  1.623E+00  2.182E-01 3.4224716E+00 -4.4072947E-01 5.5265742E-01
  0.000E+00  1.680E+00  2.669E-01 3.4375557E+00 -5.0428175E-01 5.4348776E-01
  4.318E-02  1.662E+00  2.502E-01 3.4389167E+00 -4.6772901E-01 5.3000257E-01
  0.000E+00  1.716E+00  3.018E-01 3.4388540E+00 -5.3074606E-01 5.1767531E-01
  4.318E-02  1.698E+00  2.841E-01 3.4388633E+00 -4.9356567E-01 5.0602854E-01
  0.000E+00  1.750E+00  3.383E-01 3.4389068E+00 -5.5589108E-01 4.9057655E-01
  4.318E-02  1.733E+00  3.198E-01 3.4375643E+00 -5.1817583E-01 4.8079663E-01
  0.000E+00  1.782E+00  3.765E-01 3.4224611E+00 -5.7965263E-01 4.6225820E-01
  4.318E-02  1.766E+00  3.572E-01 3.4361091E+00 -5.4149896E-01 4.5437192E-01
  0.000E+00  1.812E+00  4.163E-01 3.4315324E+00 -6.0196867E-01 4.3278571E-01
  4.318E-02  1.797E+00  3.962E-01 3.4284930E+00 -5.6346874E-01 4.2681087E-01
  0.000E+00  1.840E+00  4.575E-01 3.4003843E+00 -6.2281048E-01 4.0225560E-01
  4.318E-02  1.826E+00  4.367E-01 3.4074963E+00 -5.8404982E-01 3.9819988E-01
  0.000E+00  1.866E+00  5.000E-01 3.4007216E+00 -6.4205875E-01 3.7067841E-01
  4.318E-02  1.853E+00  4.786E-01 3.4103976E+00 -6.0317671E-01 3.6858965E-01
  0.000E+00  1.890E+00  5.438E-01 3.3667037E+00 -6.5974204E-01 3.3823625E-01
  4.318E-02  1.878E+00  5.217E-01 3.3846968E+00 -6.2076185E-01 3.3803495E-01
  0.000E+00  1.912E+00  5.887E-01 3.3687406E+00 -6.7588266E-01 3.0501344E-01
  4.318E-02  1.901E+00  5.661E-01 3.3668237E+00 -6.3691588E-01 3.0675776E-01
  0.000E+00  1.931E+00  6.347E-01 3.3429356E+00 -6.9010107E-01 2.7074846E-01
  4.318E-02  1.921E+00  6.116E-01 3.3583430E+00 -6.5142408E-01 2.7459574E-01
  0.000E+00  1.948E+00  6.815E-01 3.3142565E+00 -7.0260204E-01 2.3588586E-01
  4.318E-02  1.940E+00  6.580E-01 3.3246640E+00 -6.6408512E-01 2.4153769E-01
  0.000E+00  1.963E+00  7.292E-01 3.3105680E+00 -7.1373365E-01 2.0090086E-01
  4.318E-02  1.956E+00  7.052E-01 3.3132271E+00 -6.7536651E-01 2.0825454E-01
  0.000E+00  1.975E+00  7.775E-01 3.2985412E+00 -7.2307353E-01 1.6533977E-01
  4.318E-02  1.969E+00  7.532E-01 3.3058254E+00 -6.8519224E-01 1.7469344E-01
  0.000E+00  1.985E+00  8.264E-01 3.2803446E+00 -7.3028253E-01 1.2893585E-01
  4.318E-02  1.980E+00  8.019E-01 3.2892702E+00 -6.9308141E-01 1.4036896E-01
  0.000E+00  1.992E+00  8.757E-01 3.2648648E+00 -7.3559052E-01 9.2100168E-02
  4.318E-02  1.989E+00  8.510E-01 3.2715904E+00 -6.9901231E-01 1.0539278E-01
  0.000E+00  1.997E+00  9.253E-01 3.2559912E+00 -7.3920391E-01 5.5227547E-02
  4.318E-02  1.995E+00  9.004E-01 3.2596941E+00 -7.0325372E-01 7.0225864E-02
  0.000E+00  2.000E+00  9.751E-01 3.2525426E+00 -7.4106889E-01 1.8403949E-02
  4.318E-02  1.999E+00  9.502E-01 3.2541714E+00 -7.0588310E-01 3.5096661E-02
  0.000E+00  2.000E+00  1.025E+00 3.2525426E+00 -7.4106889E-01 -1.8403887E-02
  4.318E-02  2.000E+00  1.000E+00 3.2527332E+00 -7.0678345E-01 7.0985617E-09
  0.000E+00  1.997E+00  1.075E+00 3.2559910E+00 -7.3920390E-01 -5.5227494E-02
  4.318E-02  1.999E+00  1.050E+00 3.2541713E+00 -7.0588306E-01 -3.5096645E-02
  0.000E+00  1.992E+00  1.124E+00 3.2648646E+00 -7.3559050E-01 -9.2100139E-02
  4.318E-02  1.995E+00  1.100E+00 3.2596939E+00 -7.0325364E-01 -7.0225838E-02
  0.000E+00  1.985E+00  1.174E+00 3.2803443E+00 -7.3028259E-01 -1.2893585E-01
  4.318E-02  1.989E+00  1.149E+00 3.2715901E+00 -6.9901225E-01 -1.0539274E-01
  0.000E+00  1.975E+00  1.223E+00 3.2985408E+00 -7.2307371E-01 -1.6533978E-01
  4.318E-02  1.980E+00  1.198E+00 3.2892698E+00 -6.9308149E-01 -1.4036890E-01
  0.000E+00  1.963E+00  1.271E+00 3.3105675E+00 -7.1373372E-01 -2.0090086E-01
  4.318E-02  1.969E+00  1.247E+00 3.3058249E+00 -6.8519239E-01 -1.7469338E-01
  0.000E+00  1.948E+00  1.318E+00 3.3142559E+00 -7.0260185E-01 -2.3588584E-01
  4.318E-02  1.956E+00  1.295E+00 3.3132265E+00 -6.7536643E-01 -2.0825449E-01
  0.000E+00  1.931E+00  1.365E+00 3.3429349E+00 -6.9010117E-01 -2.7074845E-01
  4.318E-02  1.940E+00  1.342E+00 3.3246633E+00 -6.6408503E-01 -2.4153766E-01
  0.000E+00  1.912E+00  1.411E+00 3.3687398E+00 -6.7588284E-01 -3.0501342E-01
  4.318E-02  1.921E+00  1.388E+00 3.3583423E+00 -6.5142436E-01 -2.7459570E-01
  0.000E+00  1.890E+00  1.456E+00 3.3667028E+00 -6.5974185E-01 -3.3823622E-01
  4.318E-02  1.901E+00  1.434E+00 3.3668228E+00 -6.3691589E-01 -3.0675773E-01
  0.000E+00  1.866E+00  1.500E+00 3.4007206E+00 -6.4205891E-01 -3.7067839E-01
  4.318E-02  1.878E+00  1.478E+00 3.3846958E+00 -6.2076188E-01 -3.3803493E-01
  0.000E+00  1.840E+00  1.543E+00 3.4003833E+00 -6.2281052E-01 -4.0225559E-01
  4.318E-02  1.853E+00  1.521E+00 3.4103966E+00 -6.0317694E-01 -3.6858964E-01
  0.000E+00  1.812E+00  1.584E+00 3.4315313E+00 -6.0196874E-01 -4.3278569E-01
  4.318E-02  1.826E+00  1.563E+00 3.4074952E+00 -5.8404985E-01 -3.9819986E-01
  0.000E+00  1.782E+00  1.623E+00 3.4224599E+00 -5.7965273E-01 -4.6225818E-01
  4.318E-02  1.797E+00  1.604E+00 3.4284919E+00 -5.6346893E-01 -4.2681086E-01
  0.000E+00  1.750E+00  1.662E+00 3.4389055E+00 -5.5589114E-01 -4.9057654E-01
  4.318E-02  1.766E+00  1.643E+00 3.4361079E+00 -5.4149906E-01 -4.5437191E-01
  0.000E+00  1.716E+00  1.698E+00 3.4388527E+00 -5.3074615E-01 -5.1767529E-01
  4.318E-02  1.733E+00  1.680E+00 3.4375630E+00 -5.1817599E-01 -4.8079663E-01
  0.000E+00  1.680E+00  1.733E+00 3.4375543E+00 -5.0428186E-01 -5.4348774E-01
  4.318E-02  1.698E+00  1.716E+00 3.4388620E+00 -4.9356579E-01 -5.0602854E-01
  0.000E+00  1.643E+00  1.766E+00 3.4360997E+00 -4.7656640E-01 -5.6795011E-01
  4.318E-02  1.662E+00  1.750E+00 3.4389152E+00 -4.6772912E-01 -5.3000257E-01
  0.000E+00  1.604E+00  1.797E+00 3.4284842E+00 -4.4765897E-01 -5.9099295E-01
  4.318E-02  1.623E+00  1.782E+00 3.4224701E+00 -4.4072954E-01 -5.5265743E-01
  0.000E+00  1.563E+00  1.826E+00 3.4074880E+00 -4.1765019E-01 -6.1257919E-01
  4.318E-02  1.584E+00  1.812E+00 3.4315419E+00 -4.1262952E-01 -5.7393399E-01
  0.000E+00  1.521E+00  1.853E+00 3.4103901E+00 -3.8659365E-01 -6.3264077E-01
  4.318E-02  1.543E+00  1.840E+00 3.4003944E+00 -3.8352129E-01 -5.9380524E-01
  0.000E+00  1.478E+00  1.878E+00 3.3846900E+00 -3.5454665E-01 -6.5108499E-01
  4.318E-02  1.500E+00  1.866E+00 3.4007323E+00 -3.5341488E-01 -6.1215742E-01
  0.000E+00  1.434E+00  1.901E+00 3.3668175E+00 -3.2174192E-01 -6.6802804E-01
  4.318E-02  1.456E+00  1.890E+00 3.3667150E+00 -3.2248355E-01 -6.2901701E-01
  0.000E+00  1.388E+00  1.921E+00 3.3583373E+00 -2.8800889E-01 -6.8324483E-01
  4.318E-02  1.411E+00  1.912E+00 3.3687523E+00 -2.9080762E-01 -6.4440572E-01
  0.000E+00  1.342E+00  1.940E+00 3.3246588E+00 -2.5333570E-01 -6.9652400E-01
  4.318E-02  1.365E+00  1.931E+00 3.3429479E+00 -2.5813825E-01 -6.5796173E-01
  0.000E+00  1.295E+00  1.956E+00 3.3132228E+00 -2.1842629E-01 -7.0835657E-01
  4.318E-02  1.318E+00  1.948E+00 3.3142696E+00 -2.2489948E-01 -6.6988048E-01
  0.000E+00  1.247E+00  1.969E+00 3.3058221E+00 -1.8322552E-01 -7.1866251E-01
  4.318E-02  1.271E+00  1.963E+00 3.3105817E+00 -1.9154425E-01 -6.8049403E-01
  0.000E+00  1.198E+00  1.980E+00 3.2892677E+00 -1.4722440E-01 -7.2693696E-01
  4.318E-02  1.223E+00  1.975E+00 3.2985555E+00 -1.5763968E-01 -6.8939918E-01
  0.000E+00  1.149E+00  1.989E+00 3.2715883E+00 -1.1054000E-01 -7.3315733E-01
  4.318E-02  1.174E+00  1.985E+00 3.2803595E+00 -1.2293125E-01 -6.9627245E-01
  0.000E+00  1.100E+00  1.995E+00 3.2596924E+00 -7.3655565E-02 -7.3760575E-01
  4.318E-02  1.124E+00  1.992E+00 3.2648802E+00 -8.7810932E-02 -7.0133314E-01
  0.000E+00  1.050E+00  1.999E+00 3.2541701E+00 -3.6810583E-02 -7.4036347E-01
  4.318E-02  1.075E+00  1.997E+00 3.2560071E+00 -5.2655330E-02 -7.0477813E-01
  0.000E+00  1.000E+00  2.000E+00 3.2527324E+00 3.7145909E-07 -7.4130778E-01
  4.318E-02  1.025E+00  2.000E+00 3.2525590E+00 -1.7546486E-02 -7.0655618E-01
  0.000E+00  9.502E-01  1.999E+00 3.2541711E+00 3.6811326E-02 -7.4036347E-01
  4.318E-02  9.751E-01  2.000E+00 3.2525595E+00 1.7547309E-02 -7.0655618E-01
  0.000E+00  9.004E-01  1.995E+00 3.2596944E+00 7.3656308E-02 -7.3760575E-01
  4.318E-02  9.253E-01  1.997E+00 3.2560086E+00 5.2656153E-02 -7.0477813E-01
  0.000E+00  8.510E-01  1.989E+00 3.2715913E+00 1.1054074E-01 -7.3315733E-01
  4.318E-02  8.757E-01  1.992E+00 3.2648827E+00 8.7811756E-02 -7.0133314E-01
  0.000E+00  8.019E-01  1.980E+00 3.2892716E+00 1.4722514E-01 -7.2693696E-01
  4.318E-02  8.264E-01  1.985E+00 3.2803630E+00 1.2293207E-01 -6.9627245E-01
  0.000E+00  7.532E-01  1.969E+00 3.3058271E+00 1.8322627E-01 -7.1866251E-01
  4.318E-02  7.775E-01  1.975E+00 3.2985600E+00 1.5764050E-01 -6.8939918E-01
  0.000E+00  7.052E-01  1.956E+00 3.3132287E+00 2.1842704E-01 -7.0835658E-01
  4.318E-02  7.292E-01  1.963E+00 3.3105872E+00 1.9154508E-01 -6.8049402E-01
  0.000E+00  6.580E-01  1.940E+00 3.3246656E+00 2.5333644E-01 -6.9652400E-01
  4.318E-02  6.815E-01  1.948E+00 3.3142759E+00 2.2490030E-01 -6.6988047E-01
  0.000E+00  6.116E-01  1.921E+00 3.3583450E+00 2.8800963E-01 -6.8324484E-01
  4.318E-02  6.347E-01  1.931E+00 3.3429552E+00 2.5813908E-01 -6.5796172E-01
  0.000E+00  5.661E-01  1.901E+00 3.3668261E+00 3.2174267E-01 -6.6802804E-01
  4.318E-02  5.887E-01  1.912E+00 3.3687605E+00 2.9080844E-01 -6.4440572E-01
  0.000E+00  5.217E-01  1.878E+00 3.3846994E+00 3.5454740E-01 -6.5108500E-01
  4.318E-02  5.438E-01  1.890E+00 3.3667240E+00 3.2248438E-01 -6.2901700E-01
  0.000E+00  4.786E-01  1.853E+00 3.4104003E+00 3.8659439E-01 -6.3264078E-01
  4.318E-02  5.000E-01  1.866E+00 3.4007421E+00 3.5341569E-01 -6.1215742E-01
  0.000E+00  4.367E-01  1.826E+00 3.4074990E+00 4.1765094E-01 -6.1257919E-01
  4.318E-02  4.575E-01  1.840E+00 3.4004050E+00 3.8352212E-01 -5.9380524E-01
  0.000E+00  3.962E-01  1.797E+00 3.4284959E+00 4.4765972E-01 -5.9099296E-01
  4.318E-02  4.163E-01  1.812E+00 3.4315532E+00 4.1263034E-01 -5.7393399E-01
  0.000E+00  3.572E-01  1.766E+00 3.4361121E+00 4.7656714E-01 -5.6795012E-01
  4.318E-02  3.765E-01  1.782E+00 3.4224822E+00 4.4073037E-01 -5.5265743E-01
  0.000E+00  3.198E-01  1.733E+00 3.4375674E+00 5.0428261E-01 -5.4348775E-01
  4.318E-02  3.383E-01  1.750E+00 3.4389280E+00 4.6772994E-01 -5.3000258E-01
  0.000E+00  2.841E-01  1.698E+00 3.4388664E+00 5.3074689E-01 -5.1767531E-01
  4.318E-02  3.018E-01  1.716E+00 3.4388753E+00 4.9356662E-01 -5.0602855E-01
  0.000E+00  2.502E-01  1.662E+00 3.4389197E+00 5.5589190E-01 -4.9057656E-01
  4.318E-02  2.669E-01  1.680E+00 3.4375769E+00 5.1817679E-01 -4.8079664E-01
  0.000E+00  2.182E-01  1.623E+00 3.4224747E+00 5.7965345E-01 -4.6225821E-01
  4.318E-02  2.340E-01  1.643E+00 3.4361224E+00 5.4149992E-01 -4.5437192E-01
  0.000E+00  1.881E-01  1.584E+00 3.4315465E+00 6.0196950E-01 -4.3278572E-01
  4.318E-02  2.029E-01  1.604E+00 3.4285069E+00 5.6346970E-01 -4.2681087E-01
  0.000E+00  1.600E-01  1.543E+00 3.4003990E+00 6.2281130E-01 -4.0225562E-01
  4.318E-02  1.738E-01  1.563E+00 3.4075107E+00 5.8405077E-01 -3.9819989E-01
  0.000E+00  1.340E-01  1.500E+00 3.4007367E+00 6.4205957E-01 -3.7067842E-01
  4.318E-02  1.467E-01  1.521E+00 3.4104125E+00 6.0317766E-01 -3.6858966E-01
  0.000E+00  1.101E-01  1.456E+00 3.3667193E+00 6.5974285E-01 -3.3823627E-01
  4.318E-02  1.218E-01  1.478E+00 3.3847121E+00 6.2076280E-01 -3.3803496E-01
  0.000E+00  8.849E-02  1.411E+00 3.3687567E+00 6.7588348E-01 -3.0501347E-01
  4.318E-02  9.903E-02  1.434E+00 3.3668395E+00 6.3691683E-01 -3.0675776E-01
  0.000E+00  6.913E-02  1.365E+00 3.3429520E+00 6.9010189E-01 -2.7074849E-01
  4.318E-02  7.852E-02  1.388E+00 3.3583592E+00 6.5142501E-01 -2.7459575E-01
  0.000E+00  5.207E-02  1.318E+00 3.3142733E+00 7.0260287E-01 -2.3588590E-01
  4.318E-02  6.031E-02  1.342E+00 3.3246806E+00 6.6408604E-01 -2.4153770E-01
  0.000E+00  3.738E-02  1.271E+00 3.3105851E+00 7.1373449E-01 -2.0090092E-01
  4.318E-02  4.443E-02  1.295E+00 3.3132440E+00 6.7536742E-01 -2.0825455E-01
  0.000E+00  2.507E-02  1.223E+00 3.2985585E+00 7.2307437E-01 -1.6533985E-01
  4.318E-02  3.092E-02  1.247E+00 3.3058426E+00 6.8519314E-01 -1.7469344E-01
  0.000E+00  1.519E-02  1.174E+00 3.2803622E+00 7.3028339E-01 -1.2893592E-01
  4.318E-02  1.983E-02  1.198E+00 3.2892877E+00 6.9308230E-01 -1.4036896E-01
  0.000E+00  7.761E-03  1.124E+00 3.2648826E+00 7.3559139E-01 -9.2100214E-02
  4.318E-02  1.117E-02  1.149E+00 3.2716081E+00 6.9901318E-01 -1.0539281E-01
  0.000E+00  2.796E-03  1.075E+00 3.2560091E+00 7.3920476E-01 -5.5227575E-02
  4.318E-02  4.969E-03  1.100E+00 3.2597120E+00 7.0325459E-01 -7.0225915E-02
  0.000E+00  3.108E-04  1.025E+00 3.2525607E+00 7.4106972E-01 -1.8403973E-02
  4.318E-02  1.243E-03  1.050E+00 3.2541894E+00 7.0588398E-01 -3.5096728E-02
  0.000E+00  3.108E-04  9.751E-01 3.2525607E+00 7.4106968E-01 1.8403858E-02
  4.318E-02  0.000E+00  1.000E+00 3.2527513E+00 7.0678433E-01 -8.1361216E-08
  0.000E+00  2.796E-03  9.253E-01 3.2560093E+00 7.3920466E-01 5.5227451E-02
  4.318E-02  1.243E-03  9.502E-01 3.2541895E+00 7.0588395E-01 3.5096567E-02
  0.000E+00  7.761E-03  8.757E-01 3.2648828E+00 7.3559125E-01 9.2100068E-02
  4.318E-02  4.969E-03  9.004E-01 3.2597122E+00 7.0325454E-01 7.0225765E-02
  0.000E+00  1.519E-02  8.264E-01 3.2803625E+00 7.3028334E-01 1.2893575E-01
  4.318E-02  1.117E-02  8.510E-01 3.2716084E+00 6.9901315E-01 1.0539268E-01
  0.000E+00  2.507E-02  7.775E-01 3.2985589E+00 7.2307447E-01 1.6533966E-01
  4.318E-02  1.983E-02  8.019E-01 3.2892881E+00 6.9308238E-01 1.4036885E-01
  0.000E+00  3.738E-02  7.292E-01 3.3105856E+00 7.1373450E-01 2.0090075E-01
  4.318E-02  3.092E-02  7.532E-01 3.3058431E+00 6.8519326E-01 1.7469333E-01
  0.000E+00  5.207E-02  6.815E-01 3.3142739E+00 7.0260264E-01 2.3588574E-01
  4.318E-02  4.443E-02  7.052E-01 3.3132446E+00 6.7536729E-01 2.0825442E-01
  0.000E+00  6.913E-02  6.347E-01 3.3429527E+00 6.9010197E-01 2.7074834E-01
  4.318E-02  6.031E-02  6.580E-01 3.3246812E+00 6.6408588E-01 2.4153757E-01
  0.000E+00  8.849E-02  5.887E-01 3.3687574E+00 6.7588365E-01 3.0501332E-01
  4.318E-02  7.852E-02  6.116E-01 3.3583600E+00 6.5142520E-01 2.7459562E-01
  0.000E+00  1.101E-01  5.438E-01 3.3667202E+00 6.5974266E-01 3.3823612E-01
  4.318E-02  9.903E-02  5.661E-01 3.3668404E+00 6.3691672E-01 3.0675763E-01
  0.000E+00  1.340E-01  5.000E-01 3.4007377E+00 6.4205972E-01 3.7067829E-01
  4.318E-02  1.218E-01  5.217E-01 3.3847131E+00 6.2076270E-01 3.3803483E-01
  0.000E+00  1.600E-01  4.575E-01 3.4004000E+00 6.2281132E-01 4.0225548E-01
  4.318E-02  1.467E-01  4.786E-01 3.4104135E+00 6.0317777E-01 3.6858953E-01
  0.000E+00  1.881E-01  4.163E-01 3.4315477E+00 6.0196954E-01 4.3278558E-01
  4.318E-02  1.738E-01  4.367E-01 3.4075118E+00 5.8405068E-01 3.9819975E-01
  0.000E+00  2.182E-01  3.765E-01 3.4224759E+00 5.7965353E-01 4.6225807E-01
  4.318E-02  2.029E-01  3.962E-01 3.4285080E+00 5.6346976E-01 4.2681075E-01
  0.000E+00  2.502E-01  3.383E-01 3.4389210E+00 5.5589195E-01 4.9057643E-01
  4.318E-02  2.340E-01  3.572E-01 3.4361236E+00 5.4149989E-01 4.5437179E-01
  0.000E+00  2.841E-01  3.018E-01 3.4388677E+00 5.3074696E-01 5.1767519E-01
  4.318E-02  2.669E-01  3.198E-01 3.4375782E+00 5.1817682E-01 4.8079651E-01
  0.000E+00  3.198E-01  2.669E-01 3.4375687E+00 5.0428263E-01 5.4348764E-01
  4.318E-02  3.018E-01  2.841E-01 3.4388767E+00 4.9356662E-01 5.0602842E-01
  0.000E+00  3.572E-01  2.340E-01 3.4361135E+00 4.7656713E-01 5.6795001E-01
  4.318E-02  3.383E-01  2.502E-01 3.4389294E+00 4.6772999E-01 5.3000245E-01
  0.000E+00  3.962E-01  2.029E-01 3.4284973E+00 4.4765972E-01 5.9099284E-01
  4.318E-02  3.765E-01  2.182E-01 3.4224836E+00 4.4073044E-01 5.5265731E-01
  0.000E+00  4.367E-01  1.738E-01 3.4075005E+00 4.1765108E-01 6.1257909E-01
  4.318E-02  4.163E-01  1.881E-01 3.4315547E+00 4.1263036E-01 5.7393388E-01
  0.000E+00  4.786E-01  1.467E-01 3.4104018E+00 3.8659470E-01 6.3264069E-01
  4.318E-02  4.575E-01  1.600E-01 3.4004065E+00 3.8352202E-01 5.9380513E-01
  0.000E+00  5.217E-01  1.218E-01 3.3847008E+00 3.5454752E-01 6.5108487E-01
  4.318E-02  5.000E-01  1.340E-01 3.4007437E+00 3.5341558E-01 6.1215732E-01
  0.000E+00  5.661E-01  9.903E-02 3.3668276E+00 3.2174224E-01 6.6802777E-01
  4.318E-02  5.438E-01  1.101E-01 3.3667256E+00 3.2248453E-01 6.2901696E-01
  0.000E+00  6.116E-01  7.852E-02 3.3583468E+00 2.8800877E-01 6.8324443E-01
  4.318E-02  5.887E-01  8.849E-02 3.3687621E+00 2.9080901E-01 6.4440578E-01
  0.000E+00  6.580E-01  6.031E-02 3.3246676E+00 2.5333595E-01 6.9652363E-01
  4.318E-02  6.347E-01  6.913E-02 3.3429568E+00 2.5813969E-01 6.5796183E-01
  0.000E+00  7.052E-01  4.443E-02 3.3132307E+00 2.1842761E-01 7.0835643E-01
  4.318E-02  6.815E-01  5.207E-02 3.3142776E+00 2.2490041E-01 6.6988051E-01
  0.000E+00  7.532E-01  3.092E-02 3.3058289E+00 1.8322779E-01 7.1866263E-01
  4.318E-02  7.292E-01  3.738E-02 3.3105889E+00 1.9154445E-01 6.8049390E-01
  0.000E+00  8.019E-01  1.983E-02 3.2892733E+00 1.4722692E-01 7.2693728E-01
  4.318E-02  7.775E-01  2.507E-02 3.2985617E+00 1.5763946E-01 6.8939890E-01
  0.000E+00  8.510E-01  1.117E-02 3.2715930E+00 1.1054214E-01 7.3315776E-01
  4.318E-02  8.264E-01  1.519E-02 3.2803648E+00 1.2293112E-01 6.9627208E-01
  0.000E+00  9.004E-01  4.969E-03 3.2596961E+00 7.3657130E-02 7.3760623E-01
  4.318E-02  8.757E-01  7.761E-03 3.2648845E+00 8.7811170E-02 7.0133273E-01
  4.318E-02  9.253E-01  2.796E-03 3.2560103E+00 5.2655921E-02 7.0477771E-01
  1.000E+01  1.050E+00  1.243E-03 3.2541719E+00 -3.6810781E-02 7.4036400E-01
  1.000E+01  1.000E+00  5.551E-16 3.2527342E+00 4.5997048E-07 7.4130832E-01
  9.957E+00  1.025E+00  3.108E-04 3.2525589E+00 -1.9261942E-02 7.7563965E-01
  1.000E+01  9.502E-01  1.243E-03 3.2541729E+00 3.6811701E-02 7.4036399E-01
  9.957E+00  9.751E-01  3.108E-04 3.2525594E+00 1.9262781E-02 7.7563964E-01
  1.000E+01  9.004E-01  4.969E-03 3.2596961E+00 7.3657130E-02 7.3760623E-01
  9.957E+00  9.253E-01  2.796E-03 3.2560085E+00 5.7803992E-02 7.7368770E-01
  1.000E+01  8.510E-01  1.117E-02 3.2715930E+00 1.1054214E-01 7.3315776E-01
  9.957E+00  8.757E-01  7.761E-03 3.2648826E+00 9.6396518E-02 7.6990582E-01
  1.000E+01  8.019E-01  1.983E-02 3.2892733E+00 1.4722692E-01 7.2693728E-01
  9.957E+00  8.264E-01  1.519E-02 3.2803629E+00 1.3495047E-01 7.6435036E-01
  1.000E+01  7.532E-01  3.092E-02 3.3058289E+00 1.8322779E-01 7.1866263E-01
  9.957E+00  7.775E-01  2.507E-02 3.2985598E+00 1.7305275E-01 7.5680525E-01
  1.000E+01  7.052E-01  4.443E-02 3.3132307E+00 2.1842761E-01 7.0835643E-01
  9.957E+00  7.292E-01  3.738E-02 3.3105869E+00 2.1027312E-01 7.4702970E-01
  1.000E+01  6.580E-01  6.031E-02 3.3246676E+00 2.5333595E-01 6.9652363E-01
  9.957E+00  6.815E-01  5.207E-02 3.3142756E+00 2.4689050E-01 7.3537855E-01
  1.000E+01  6.116E-01  7.852E-02 3.3583468E+00 2.8800877E-01 6.8324443E-01
  9.957E+00  6.347E-01  6.913E-02 3.3429548E+00 2.8337946E-01 7.2229426E-01
  1.000E+01  5.661E-01  9.903E-02 3.3668276E+00 3.2174224E-01 6.6802777E-01
  9.957E+00  5.887E-01  8.849E-02 3.3687602E+00 3.1924272E-01 7.0741257E-01
  1.000E+01  5.217E-01  1.218E-01 3.3847008E+00 3.5454752E-01 6.5108487E-01
  9.957E+00  5.438E-01  1.101E-01 3.3667237E+00 3.5401524E-01 6.9051909E-01
  1.000E+01  4.786E-01  1.467E-01 3.4104018E+00 3.8659470E-01 6.3264069E-01
  9.957E+00  5.000E-01  1.340E-01 3.4007419E+00 3.8797083E-01 6.7201118E-01
  1.000E+01  4.367E-01  1.738E-01 3.4075005E+00 4.1765108E-01 6.1257909E-01
  9.957E+00  4.575E-01  1.600E-01 3.4004047E+00 4.2102107E-01 6.5186484E-01
  1.000E+01  3.962E-01  2.029E-01 3.4284973E+00 4.4765972E-01 5.9099284E-01
  9.957E+00  4.163E-01  1.881E-01 3.4315529E+00 4.5297529E-01 6.3005059E-01
  1.000E+01  3.572E-01  2.340E-01 3.4361135E+00 4.7656713E-01 5.6795001E-01
  9.957E+00  3.765E-01  2.182E-01 3.4224817E+00 4.8382268E-01 6.0669360E-01
  1.000E+01  3.198E-01  2.669E-01 3.4375687E+00 5.0428263E-01 5.4348764E-01
  9.957E+00  3.383E-01  2.502E-01 3.4389275E+00 5.1346213E-01 5.8182365E-01
  1.000E+01  2.841E-01  3.018E-01 3.4388677E+00 5.3074696E-01 5.1767519E-01
  9.957E+00  3.018E-01  2.841E-01 3.4388748E+00 5.4182497E-01 5.5550563E-01
  1.000E+01  2.502E-01  3.383E-01 3.4389210E+00 5.5589195E-01 4.9057643E-01
  9.957E+00  2.669E-01  3.198E-01 3.4375763E+00 5.6884151E-01 5.2780672E-01
  1.000E+01  2.182E-01  3.765E-01 3.4224759E+00 5.7965353E-01 4.6225807E-01
  9.957E+00  2.340E-01  3.572E-01 3.4361217E+00 5.9444506E-01 4.9879832E-01
  1.000E+01  1.881E-01  4.163E-01 3.4315477E+00 6.0196954E-01 4.3278558E-01
  9.957E+00  2.029E-01  3.962E-01 3.4285061E+00 6.1856299E-01 4.6854245E-01
  1.000E+01  1.600E-01  4.575E-01 3.4004000E+00 6.2281132E-01 4.0225548E-01
  9.957E+00  1.738E-01  4.367E-01 3.4075099E+00 6.4115610E-01 4.3713375E-01
  1.000E+01  1.340E-01  5.000E-01 3.4007377E+00 6.4205972E-01 3.7067829E-01
  9.957E+00  1.467E-01  4.786E-01 3.4104116E+00 6.6215346E-01 4.0462840E-01
  1.000E+01  1.101E-01  5.438E-01 3.3667202E+00 6.5974266E-01 3.3823612E-01
  9.957E+00  1.218E-01  5.217E-01 3.3847112E+00 6.8145802E-01 3.7108640E-01
  1.000E+01  8.849E-02  5.887E-01 3.3687574E+00 6.7588365E-01 3.0501332E-01
  9.957E+00  9.903E-02  5.661E-01 3.3668385E+00 6.9919170E-01 3.3675121E-01
  1.000E+01  6.913E-02  6.347E-01 3.3429527E+00 6.9010197E-01 2.7074834E-01
  9.957E+00  7.852E-02  6.116E-01 3.3583581E+00 7.1511859E-01 3.0144424E-01
  1.000E+01  5.207E-02  6.815E-01 3.3142739E+00 7.0260264E-01 2.3588574E-01
  9.957E+00  6.031E-02  6.580E-01 3.3246793E+00 7.2901695E-01 2.6515359E-01
  1.000E+01  3.738E-02  7.292E-01 3.3105856E+00 7.1373450E-01 2.0090075E-01
  9.957E+00  4.443E-02  7.052E-01 3.3132426E+00 7.4140135E-01 2.2861614E-01
  1.000E+01  2.507E-02  7.775E-01 3.2985589E+00 7.2307447E-01 1.6533966E-01
  9.957E+00  3.092E-02  7.532E-01 3.3058412E+00 7.5218813E-01 1.9177382E-01
  1.000E+01  1.519E-02  8.264E-01 3.2803625E+00 7.3028334E-01 1.2893575E-01
  9.957E+00  1.983E-02  8.019E-01 3.2892862E+00 7.6084873E-01 1.5409356E-01
  1.000E+01  7.761E-03  8.757E-01 3.2648828E+00 7.3559125E-01 9.2100068E-02
  9.957E+00  1.117E-02  8.510E-01 3.2716065E+00 7.6735949E-01 1.1569778E-01
  1.000E+01  2.796E-03  9.253E-01 3.2560093E+00 7.3920466E-01 5.5227451E-02
  9.957E+00  4.969E-03  9.004E-01 3.2597103E+00 7.7201559E-01 7.7092428E-02
  1.000E+01  3.108E-04  9.751E-01 3.2525607E+00 7.4106968E-01 1.8403858E-02
  9.957E+00  1.243E-03  9.502E-01 3.2541876E+00 7.7490206E-01 3.8528338E-02
  1.000E+01  3.108E-04  1.025E+00 3.2525607E+00 7.4106972E-01 -1.8403973E-02
  9.957E+00  0.000E+00  1.000E+00 3.2527494E+00 7.7589046E-01 -1.0350727E-07
  1.000E+01  2.796E-03  1.075E+00 3.2560091E+00 7.3920476E-01 -5.5227575E-02
  9.957E+00  1.243E-03  1.050E+00 3.2541875E+00 7.7490209E-01 -3.8528543E-02
  1.000E+01  7.761E-03  1.124E+00 3.2648826E+00 7.3559139E-01 -9.2100214E-02
  9.957E+00  4.969E-03  1.100E+00 3.2597101E+00 7.7201565E-01 -7.7092623E-02
  1.000E+01  1.519E-02  1.174E+00 3.2803622E+00 7.3028339E-01 -1.2893592E-01
  9.957E+00  1.117E-02  1.149E+00 3.2716062E+00 7.6735952E-01 -1.1569796E-01
  1.000E+01  2.507E-02  1.223E+00 3.2985585E+00 7.2307437E-01 -1.6533985E-01
  9.957E+00  1.983E-02  1.198E+00 3.2892858E+00 7.6084864E-01 -1.5409372E-01
  1.000E+01  3.738E-02  1.271E+00 3.3105851E+00 7.1373449E-01 -2.0090092E-01
  9.957E+00  3.092E-02  1.247E+00 3.3058407E+00 7.5218800E-01 -1.9177398E-01
  1.000E+01  5.207E-02  1.318E+00 3.3142733E+00 7.0260287E-01 -2.3588590E-01
  9.957E+00  4.443E-02  1.295E+00 3.3132420E+00 7.4140150E-01 -2.2861631E-01
  1.000E+01  6.913E-02  1.365E+00 3.3429520E+00 6.9010189E-01 -2.7074849E-01
  9.957E+00  6.031E-02  1.342E+00 3.3246786E+00 7.2901713E-01 -2.6515377E-01
  1.000E+01  8.849E-02  1.411E+00 3.3687567E+00 6.7588348E-01 -3.0501347E-01
  9.957E+00  7.852E-02  1.388E+00 3.3583573E+00 7.1511839E-01 -3.0144441E-01
  1.000E+01  1.101E-01  1.456E+00 3.3667193E+00 6.5974285E-01 -3.3823627E-01
  9.957E+00  9.903E-02  1.434E+00 3.3668377E+00 6.9919182E-01 -3.3675139E-01
  1.000E+01  1.340E-01  1.500E+00 3.4007367E+00 6.4205957E-01 -3.7067842E-01
  9.957E+00  1.218E-01  1.478E+00 3.3847103E+00 6.8145812E-01 -3.7108657E-01
  1.000E+01  1.600E-01  1.543E+00 3.4003990E+00 6.2281130E-01 -4.0225562E-01
  9.957E+00  1.467E-01  1.521E+00 3.4104106E+00 6.6215334E-01 -4.0462858E-01
  1.000E+01  1.881E-01  1.584E+00 3.4315465E+00 6.0196950E-01 -4.3278572E-01
  9.957E+00  1.738E-01  1.563E+00 3.4075088E+00 6.4115620E-01 -4.3713393E-01
  1.000E+01  2.182E-01  1.623E+00 3.4224747E+00 5.7965345E-01 -4.6225821E-01
  9.957E+00  2.029E-01  1.604E+00 3.4285050E+00 6.1856292E-01 -4.6854262E-01
  1.000E+01  2.502E-01  1.662E+00 3.4389197E+00 5.5589190E-01 -4.9057656E-01
  9.957E+00  2.340E-01  1.643E+00 3.4361205E+00 5.9444509E-01 -4.9879849E-01
  1.000E+01  2.841E-01  1.698E+00 3.4388664E+00 5.3074689E-01 -5.1767531E-01
  9.957E+00  2.669E-01  1.680E+00 3.4375751E+00 5.6884148E-01 -5.2780689E-01
  1.000E+01  3.198E-01  1.733E+00 3.4375674E+00 5.0428261E-01 -5.4348775E-01
  9.957E+00  3.018E-01  1.716E+00 3.4388734E+00 5.4182496E-01 -5.5550580E-01
  1.000E+01  3.572E-01  1.766E+00 3.4361121E+00 4.7656714E-01 -5.6795012E-01
  9.957E+00  3.383E-01  1.750E+00 3.4389260E+00 5.1346208E-01 -5.8182381E-01
  1.000E+01  3.962E-01  1.797E+00 3.4284959E+00 4.4765972E-01 -5.9099296E-01
  9.957E+00  3.765E-01  1.782E+00 3.4224803E+00 4.8382263E-01 -6.0669376E-01
  1.000E+01  4.367E-01  1.826E+00 3.4074990E+00 4.1765094E-01 -6.1257919E-01
  9.957E+00  4.163E-01  1.812E+00 3.4315514E+00 4.5297527E-01 -6.3005075E-01
  1.000E+01  4.786E-01  1.853E+00 3.4104003E+00 3.8659439E-01 -6.3264078E-01
  9.957E+00  4.575E-01  1.840E+00 3.4004031E+00 4.2102116E-01 -6.5186500E-01
  1.000E+01  5.217E-01  1.878E+00 3.3846994E+00 3.5454740E-01 -6.5108500E-01
  9.957E+00  5.000E-01  1.866E+00 3.4007402E+00 3.8797092E-01 -6.7201134E-01
  1.000E+01  5.661E-01  1.901E+00 3.3668261E+00 3.2174267E-01 -6.6802804E-01
  9.957E+00  5.438E-01  1.890E+00 3.3667219E+00 3.5401509E-01 -6.9051917E-01
  1.000E+01  6.116E-01  1.921E+00 3.3583450E+00 2.8800963E-01 -6.8324484E-01
  9.957E+00  5.887E-01  1.912E+00 3.3687585E+00 3.1924220E-01 -7.0741253E-01
  1.000E+01  6.580E-01  1.940E+00 3.3246656E+00 2.5333644E-01 -6.9652400E-01
  9.957E+00  6.347E-01  1.931E+00 3.3429533E+00 2.8337890E-01 -7.2229417E-01
  1.000E+01  7.052E-01  1.956E+00 3.3132287E+00 2.1842704E-01 -7.0835658E-01
  9.957E+00  6.815E-01  1.948E+00 3.3142743E+00 2.4689040E-01 -7.3537856E-01
  1.000E+01  7.532E-01  1.969E+00 3.3058271E+00 1.8322627E-01 -7.1866251E-01
  9.957E+00  7.292E-01  1.963E+00 3.3105855E+00 2.1027370E-01 -7.4702988E-01
  1.000E+01  8.019E-01  1.980E+00 3.2892716E+00 1.4722514E-01 -7.2693696E-01
  9.957E+00  7.775E-01  1.975E+00 3.2985581E+00 1.7305374E-01 -7.5680558E-01
  1.000E+01  8.510E-01  1.989E+00 3.2715913E+00 1.1054074E-01 -7.3315733E-01
  9.957E+00  8.264E-01  1.985E+00 3.2803610E+00 1.3495140E-01 -7.6435077E-01
  1.000E+01  9.004E-01  1.995E+00 3.2596944E+00 7.3656308E-02 -7.3760575E-01
  9.957E+00  8.757E-01  1.992E+00 3.2648807E+00 9.6397109E-02 -7.6990627E-01
  1.000E+01  9.502E-01  1.999E+00 3.2541711E+00 3.6811326E-02 -7.4036347E-01
  9.957E+00  9.253E-01  1.997E+00 3.2560066E+00 5.7804234E-02 -7.7368817E-01
  1.000E+01  1.000E+00  2.000E+00 3.2527324E+00 3.7145909E-07 -7.4130778E-01
  9.957E+00  9.751E-01  2.000E+00 3.2525575E+00 1.9262783E-02 -7.7564012E-01
  1.000E+01  1.050E+00  1.999E+00 3.2541701E+00 -3.6810583E-02 -7.4036347E-01
  9.957E+00  1.025E+00  2.000E+00 3.2525570E+00 -1.9262122E-02 -7.7564012E-01
  1.000E+01  1.100E+00  1.995E+00 3.2596924E+00 -7.3655565E-02 -7.3760575E-01
  9.957E+00  1.075E+00  1.997E+00 3.2560051E+00 -5.7803573E-02 -7.7368817E-01
  1.000E+01  1.149E+00  1.989E+00 3.2715883E+00 -1.1054000E-01 -7.3315733E-01
  9.957E+00  1.124E+00  1.992E+00 3.2648782E+00 -9.6396448E-02 -7.6990627E-01
  1.000E+01  1.198E+00  1.980E+00 3.2892677E+00 -1.4722440E-01 -7.2693696E-01
  9.957E+00  1.174E+00  1.985E+00 3.2803576E+00 -1.3495074E-01 -7.6435077E-01