# TIME = 4.000000
VARIABLES = X, Y, Z, FX, FY, FZ
ZONE N=29232 E=58212 F=FEPOINT ET=TRIANGLE
  0.000E+00  9.502E-01  1.243E-03 3.2446180E+00 4.6818871E-02 9.4163663E-01
  0.000E+00  1.000E+00  0.000E+00 3.2431779E+00 6.8716757E-07 9.4283766E-01
  4.318E-02  9.751E-01  3.108E-04 3.2430077E+00 2.2526173E-02 9.0702648E-01
  0.000E+00  1.050E+00  1.243E-03 3.2446188E+00 -4.6817496E-02 9.4163663E-01
  4.318E-02  1.025E+00  3.108E-04 3.2430081E+00 -2.2524681E-02 9.0702648E-01
  0.000E+00  1.100E+00  4.969E-03 3.2501453E+00 -9.3679036E-02 9.3812919E-01
  4.318E-02  1.075E+00  2.796E-03 3.2464599E+00 -6.7594836E-02 9.0474393E-01
  0.000E+00  1.149E+00  1.117E-02 3.2620389E+00 -1.4059086E-01 9.3247144E-01
  4.318E-02  1.124E+00  7.761E-03 3.2553335E+00 -1.1272498E-01 9.0032147E-01
  0.000E+00  1.198E+00  1.983E-02 3.2797096E+00 -1.8724832E-01 9.2455999E-01
  4.318E-02  1.174E+00  1.519E-02 3.2708054E+00 -1.5780982E-01 8.9382492E-01
  0.000E+00  1.247E+00  3.092E-02 3.2962665E+00 -2.3303660E-01 9.1403600E-01
  4.318E-02  1.223E+00  2.507E-02 3.2889952E+00 -2.0236595E-01 8.8500152E-01
  0.000E+00  1.295E+00  4.443E-02 3.3037028E+00 -2.7780672E-01 9.0092822E-01
  4.318E-02  1.271E+00  3.738E-02 3.3010404E+00 -2.4589027E-01 8.7356975E-01
  0.000E+00  1.342E+00  6.031E-02 3.3151702E+00 -3.2220617E-01 8.8587877E-01
  4.318E-02  1.318E+00  5.207E-02 3.3047788E+00 -2.8870946E-01 8.5994484E-01
  0.000E+00  1.388E+00  7.852E-02 3.3488150E+00 -3.6630536E-01 8.6898953E-01
  4.318E-02  1.365E+00  6.913E-02 3.3334404E+00 -3.3137913E-01 8.4464437E-01
  0.000E+00  1.434E+00  9.903E-02 3.3573313E+00 -4.0920905E-01 8.4963594E-01
  4.318E-02  1.411E+00  8.849E-02 3.3592316E+00 -3.7331770E-01 8.2724209E-01
  0.000E+00  1.478E+00  1.218E-01 3.3752175E+00 -4.5093209E-01 8.2808680E-01
  4.318E-02  1.456E+00  1.101E-01 3.3572618E+00 -4.1398087E-01 8.0748709E-01
  0.000E+00  1.521E+00  1.467E-01 3.4008954E+00 -4.9169129E-01 8.0462836E-01
  4.318E-02  1.500E+00  1.340E-01 3.3912406E+00 -4.5368824E-01 7.8584393E-01
  0.000E+00  1.563E+00  1.738E-01 3.3980494E+00 -5.3119069E-01 7.7911285E-01
  4.318E-02  1.543E+00  1.600E-01 3.3909523E+00 -4.9233678E-01 7.6228473E-01
  0.000E+00  1.604E+00  2.029E-01 3.4190222E+00 -5.6935753E-01 7.5165822E-01
  4.318E-02  1.584E+00  1.881E-01 3.4220584E+00 -5.2970385E-01 7.3677538E-01
  0.000E+00  1.643E+00  2.340E-01 3.4266474E+00 -6.0612366E-01 7.2235100E-01
  4.318E-02  1.623E+00  2.182E-01 3.4130398E+00 -5.6577666E-01 7.0946200E-01
  0.000E+00  1.680E+00  2.669E-01 3.4281083E+00 -6.4137381E-01 6.9123834E-01
  4.318E-02  1.662E+00  2.502E-01 3.4294626E+00 -6.0043678E-01 6.8037928E-01
  0.000E+00  1.716E+00  3.018E-01 3.4294106E+00 -6.7503259E-01 6.5840857E-01
  4.318E-02  1.698E+00  2.841E-01 3.4294202E+00 -6.3360408E-01 6.4960311E-01
  0.000E+00  1.750E+00  3.383E-01 3.4294536E+00 -7.0701347E-01 6.2394282E-01
  4.318E-02  1.733E+00  3.198E-01 3.4281185E+00 -6.6519689E-01 6.1721217E-01
  0.000E+00  1.782E+00  3.765E-01 3.4130315E+00 -7.3723479E-01 5.8792591E-01
  4.318E-02  1.766E+00  3.572E-01 3.4266582E+00 -6.9513749E-01 5.8328998E-01
  0.000E+00  1.812E+00  4.163E-01 3.4220507E+00 -7.6561763E-01 5.5044111E-01
  4.318E-02  1.797E+00  3.962E-01 3.4190337E+00 -7.2334074E-01 5.4790904E-01
  0.000E+00  1.840E+00  4.575E-01 3.3909452E+00 -7.9212546E-01 5.1161118E-01
  4.318E-02  1.826E+00  4.367E-01 3.3980616E+00 -7.4976127E-01 5.1118025E-01
  0.000E+00  1.866E+00  5.000E-01 3.3912341E+00 -8.1660652E-01 4.7144950E-01
  4.318E-02  1.853E+00  4.786E-01 3.4009080E+00 -7.7431505E-01 4.7316874E-01
  0.000E+00  1.890E+00  5.438E-01 3.3572559E+00 -8.3909716E-01 4.3018772E-01
  4.318E-02  1.878E+00  5.217E-01 3.3752304E+00 -7.9688965E-01 4.3394482E-01
  0.000E+00  1.912E+00  5.887E-01 3.3592266E+00 -8.5962576E-01 3.8793308E-01
  4.318E-02  1.901E+00  5.661E-01 3.3573447E+00 -8.1762710E-01 3.9379341E-01
  0.000E+00  1.931E+00  6.347E-01 3.3334359E+00 -8.7770956E-01 3.4435294E-01
  4.318E-02  1.921E+00  6.116E-01 3.3488291E+00 -8.3625169E-01 3.5250606E-01
  0.000E+00  1.948E+00  6.815E-01 3.3047746E+00 -8.9360903E-01 3.0001272E-01
  4.318E-02  1.940E+00  6.580E-01 3.3151851E+00 -8.5250500E-01 3.1006846E-01
  0.000E+00  1.963E+00  7.292E-01 3.3010367E+00 -9.0776688E-01 2.5551687E-01
  4.318E-02  1.956E+00  7.052E-01 3.3037180E+00 -8.6698726E-01 2.6734193E-01
  0.000E+00  1.975E+00  7.775E-01 3.2889921E+00 -9.1964590E-01 2.1028830E-01
  4.318E-02  1.969E+00  7.532E-01 3.2962819E+00 -8.7960086E-01 2.2425865E-01
  0.000E+00  1.985E+00  8.264E-01 3.2708028E+00 -9.2881473E-01 1.6398775E-01
  4.318E-02  1.980E+00  8.019E-01 3.2797253E+00 -8.8972844E-01 1.8019540E-01
  0.000E+00  1.992E+00  8.757E-01 3.2553315E+00 -9.3556573E-01 1.1713804E-01
  4.318E-02  1.989E+00  8.510E-01 3.2620553E+00 -8.9734212E-01 1.3529554E-01
  0.000E+00  1.997E+00  9.253E-01 3.2464585E+00 -9.4016144E-01 7.0241363E-02
  4.318E-02  1.995E+00  9.004E-01 3.2501624E+00 -9.0278694E-01 9.0150793E-02
  0.000E+00  2.000E+00  9.751E-01 3.2430072E+00 -9.4253341E-01 2.3407063E-02
  4.318E-02  1.999E+00  9.502E-01 3.2446366E+00 -9.0616236E-01 4.5054453E-02
  0.000E+00  2.000E+00  1.025E+00 3.2430073E+00 -9.4253338E-01 -2.3407180E-02
  4.318E-02  2.000E+00  1.000E+00 3.2431962E+00 -9.0731816E-01 -1.1385753E-07
  0.000E+00  1.997E+00  1.075E+00 3.2464588E+00 -9.4016134E-01 -7.0241479E-02
  4.318E-02  1.999E+00  1.050E+00 3.2446367E+00 -9.0616231E-01 -4.5054680E-02
  0.000E+00  1.992E+00  1.124E+00 3.2553319E+00 -9.3556560E-01 -1.1713815E-01
  4.318E-02  1.995E+00  1.100E+00 3.2501627E+00 -9.0278684E-01 -9.0151020E-02
  0.000E+00  1.985E+00  1.174E+00 3.2708034E+00 -9.2881469E-01 -1.6398786E-01
  4.318E-02  1.989E+00  1.149E+00 3.2620558E+00 -8.9734204E-01 -1.3529577E-01
  0.000E+00  1.975E+00  1.223E+00 3.2889928E+00 -9.1964601E-01 -2.1028841E-01
  4.318E-02  1.980E+00  1.198E+00 3.2797260E+00 -8.8972851E-01 -1.8019563E-01
  0.000E+00  1.963E+00  1.271E+00 3.3010376E+00 -9.0776686E-01 -2.5551697E-01
  4.318E-02  1.969E+00  1.247E+00 3.2962827E+00 -8.7960098E-01 -2.2425888E-01
  0.000E+00  1.948E+00  1.318E+00 3.3047756E+00 -8.9360867E-01 -3.0001282E-01
  4.318E-02  1.956E+00  1.295E+00 3.3037190E+00 -8.6698706E-01 -2.6734216E-01
  0.000E+00  1.931E+00  1.365E+00 3.3334370E+00 -8.7770957E-01 -3.4435305E-01
  4.318E-02  1.940E+00  1.342E+00 3.3151862E+00 -8.5250478E-01 -3.1006868E-01
  0.000E+00  1.912E+00  1.411E+00 3.3592279E+00 -8.5962587E-01 -3.8793318E-01
  4.318E-02  1.921E+00  1.388E+00 3.3488304E+00 -8.3625191E-01 -3.5250629E-01
  0.000E+00  1.890E+00  1.456E+00 3.3572574E+00 -8.3909680E-01 -4.3018780E-01
  4.318E-02  1.901E+00  1.434E+00 3.3573461E+00 -8.1762695E-01 -3.9379363E-01
  0.000E+00  1.866E+00  1.500E+00 3.3912357E+00 -8.1660659E-01 -4.7144959E-01
  4.318E-02  1.878E+00  1.478E+00 3.3752320E+00 -7.9688950E-01 -4.3394504E-01
  0.000E+00  1.840E+00  1.543E+00 3.3909470E+00 -7.9212536E-01 -5.1161126E-01
  4.318E-02  1.853E+00  1.521E+00 3.4009096E+00 -7.7431515E-01 -4.7316897E-01
  0.000E+00  1.812E+00  1.584E+00 3.4220526E+00 -7.6561756E-01 -5.5044119E-01
  4.318E-02  1.826E+00  1.563E+00 3.3980634E+00 -7.4976110E-01 -5.1118046E-01
  0.000E+00  1.782E+00  1.623E+00 3.4130334E+00 -7.3723476E-01 -5.8792599E-01
  4.318E-02  1.797E+00  1.604E+00 3.4190356E+00 -7.2334076E-01 -5.4790925E-01
  0.000E+00  1.750E+00  1.662E+00 3.4294557E+00 -7.0701339E-01 -6.2394290E-01
  4.318E-02  1.766E+00  1.643E+00 3.4266602E+00 -6.9513738E-01 -5.8329018E-01
  0.000E+00  1.716E+00  1.698E+00 3.4294127E+00 -6.7503253E-01 -6.5840865E-01
  4.318E-02  1.733E+00  1.680E+00 3.4281207E+00 -6.6519684E-01 -6.1721237E-01
  0.000E+00  1.680E+00  1.733E+00 3.4281106E+00 -6.4137368E-01 -6.9123840E-01
  4.318E-02  1.698E+00  1.716E+00 3.4294224E+00 -6.3360399E-01 -6.4960330E-01
  0.000E+00  1.643E+00  1.766E+00 3.4266497E+00 -6.0612352E-01 -7.2235104E-01
  4.318E-02  1.662E+00  1.750E+00 3.4294650E+00 -6.0043673E-01 -6.8037947E-01
  0.000E+00  1.604E+00  1.797E+00 3.4190247E+00 -5.6935744E-01 -7.5165826E-01
  4.318E-02  1.623E+00  1.782E+00 3.4130423E+00 -5.6577659E-01 -7.0946219E-01
  0.000E+00  1.563E+00  1.826E+00 3.3980521E+00 -5.3119071E-01 -7.7911291E-01
  4.318E-02  1.584E+00  1.812E+00 3.4220609E+00 -5.2970372E-01 -7.3677555E-01
  0.000E+00  1.521E+00  1.853E+00 3.4008981E+00 -4.9169135E-01 -8.0462843E-01
  4.318E-02  1.543E+00  1.840E+00 3.3909548E+00 -4.9233656E-01 -7.6228488E-01
  0.000E+00  1.478E+00  1.878E+00 3.3752200E+00 -4.5093194E-01 -8.2808681E-01
  4.318E-02  1.500E+00  1.866E+00 3.3912432E+00 -4.5368805E-01 -7.8584410E-01
  0.000E+00  1.434E+00  1.901E+00 3.3573337E+00 -4.0920847E-01 -8.4963583E-01
  4.318E-02  1.456E+00  1.890E+00 3.3572646E+00 -4.1398088E-01 -8.0748730E-01
  0.000E+00  1.388E+00  1.921E+00 3.3488176E+00 -3.6630446E-01 -8.6898930E-01
  4.318E-02  1.411E+00  1.912E+00 3.3592345E+00 -3.7331802E-01 -8.2724235E-01
  0.000E+00  1.342E+00  1.940E+00 3.3151733E+00 -3.2220546E-01 -8.8587852E-01
  4.318E-02  1.365E+00  1.931E+00 3.3334432E+00 -3.3137953E-01 -8.4464467E-01
  0.000E+00  1.295E+00  1.956E+00 3.3037061E+00 -2.7780679E-01 -9.0092811E-01
  4.318E-02  1.318E+00  1.948E+00 3.3047815E+00 -2.8870950E-01 -8.5994510E-01
  0.000E+00  1.247E+00  1.969E+00 3.2962697E+00 -2.3303754E-01 -9.1403611E-01
  4.318E-02  1.271E+00  1.963E+00 3.3010431E+00 -2.4588968E-01 -8.7356988E-01
  0.000E+00  1.198E+00  1.980E+00 3.2797125E+00 -1.8724968E-01 -9.2456030E-01
  4.318E-02  1.223E+00  1.975E+00 3.2889981E+00 -2.0236490E-01 -8.8500150E-01
  0.000E+00  1.149E+00  1.989E+00 3.2620418E+00 -1.4059209E-01 -9.3247187E-01
  4.318E-02  1.174E+00  1.985E+00 3.2708083E+00 -1.5780869E-01 -8.9382477E-01
  0.000E+00  1.100E+00  1.995E+00 3.2501482E+00 -9.3679803E-02 -9.3812969E-01
  4.318E-02  1.124E+00  1.992E+00 3.2553364E+00 -1.1272409E-01 -9.0032124E-01
  0.000E+00  1.050E+00  1.999E+00 3.2446219E+00 -4.6817769E-02 -9.4163716E-01
  4.318E-02  1.075E+00  1.997E+00 3.2464627E+00 -6.7594264E-02 -9.0474366E-01
  0.000E+00  1.000E+00  2.000E+00 3.2431810E+00 8.4668312E-07 -9.4283819E-01
  4.318E-02  1.025E+00  2.000E+00 3.2430108E+00 -2.2524394E-02 -9.0702619E-01
  0.000E+00  9.502E-01  1.999E+00 3.2446211E+00 4.6819462E-02 -9.4163714E-01
  4.318E-02  9.751E-01  2.000E+00 3.2430104E+00 2.2526205E-02 -9.0702618E-01
  0.000E+00  9.004E-01  1.995E+00 3.2501467E+00 9.3681495E-02 -9.3812965E-01
  4.318E-02  9.253E-01  1.997E+00 3.2464615E+00 6.7596074E-02 -9.0474363E-01
  0.000E+00  8.510E-01  1.989E+00 3.2620394E+00 1.4059378E-01 -9.3247182E-01
  4.318E-02  8.757E-01  1.992E+00 3.2553344E+00 1.1272590E-01 -9.0032120E-01
  0.000E+00  8.019E-01  1.980E+00 3.2797094E+00 1.8725137E-01 -9.2456023E-01
  4.318E-02  8.264E-01  1.985E+00 3.2708056E+00 1.5781050E-01 -8.9382470E-01
  0.000E+00  7.532E-01  1.969E+00 3.2962658E+00 2.3303923E-01 -9.1403603E-01
  4.318E-02  7.775E-01  1.975E+00 3.2889946E+00 2.0236670E-01 -8.8500142E-01
  0.000E+00  7.052E-01  1.956E+00 3.3037015E+00 2.7780847E-01 -9.0092801E-01
  4.318E-02  7.292E-01  1.963E+00 3.3010388E+00 2.4589148E-01 -8.7356979E-01
  0.000E+00  6.580E-01  1.940E+00 3.3151680E+00 3.2220714E-01 -8.8587841E-01
  4.318E-02  6.815E-01  1.948E+00 3.3047765E+00 2.8871130E-01 -8.5994499E-01
  0.000E+00  6.116E-01  1.921E+00 3.3488116E+00 3.6630612E-01 -8.6898918E-01
  4.318E-02  6.347E-01  1.931E+00 3.3334375E+00 3.3138132E-01 -8.4464454E-01
  0.000E+00  5.661E-01  1.901E+00 3.3573269E+00 4.0921015E-01 -8.4963569E-01
  4.318E-02  5.887E-01  1.912E+00 3.3592281E+00 3.7331981E-01 -8.2724221E-01
  0.000E+00  5.217E-01  1.878E+00 3.3752126E+00 4.5093361E-01 -8.2808666E-01
  4.318E-02  5.438E-01  1.890E+00 3.3572576E+00 4.1398267E-01 -8.0748714E-01
  0.000E+00  4.786E-01  1.853E+00 3.4008901E+00 4.9169300E-01 -8.0462826E-01
  4.318E-02  5.000E-01  1.866E+00 3.3912355E+00 4.5368981E-01 -7.8584393E-01
  0.000E+00  4.367E-01  1.826E+00 3.3980434E+00 5.3119237E-01 -7.7911274E-01
  4.318E-02  4.575E-01  1.840E+00 3.3909465E+00 4.9233833E-01 -7.6228470E-01
  0.000E+00  3.962E-01  1.797E+00 3.4190155E+00 5.6935908E-01 -7.5165808E-01
  4.318E-02  4.163E-01  1.812E+00 3.4220520E+00 5.2970548E-01 -7.3677536E-01
  0.000E+00  3.572E-01  1.766E+00 3.4266400E+00 6.0612515E-01 -7.2235085E-01
  4.318E-02  3.765E-01  1.782E+00 3.4130328E+00 5.6577835E-01 -7.0946199E-01
  0.000E+00  3.198E-01  1.733E+00 3.4281003E+00 6.4137531E-01 -6.9123820E-01
  4.318E-02  3.383E-01  1.750E+00 3.4294549E+00 6.0043846E-01 -6.8037927E-01
  0.000E+00  2.841E-01  1.698E+00 3.4294020E+00 6.7503413E-01 -6.5840844E-01
  4.318E-02  3.018E-01  1.716E+00 3.4294119E+00 6.3360574E-01 -6.4960309E-01
  0.000E+00  2.502E-01  1.662E+00 3.4294444E+00 7.0701502E-01 -6.2394269E-01
  4.318E-02  2.669E-01  1.680E+00 3.4281096E+00 6.6519854E-01 -6.1721215E-01
  0.000E+00  2.182E-01  1.623E+00 3.4130218E+00 7.3723633E-01 -5.8792578E-01
  4.318E-02  2.340E-01  1.643E+00 3.4266488E+00 6.9513913E-01 -5.8328996E-01
  0.000E+00  1.881E-01  1.584E+00 3.4220406E+00 7.6561915E-01 -5.5044097E-01
  4.318E-02  2.029E-01  1.604E+00 3.4190238E+00 7.2334239E-01 -5.4790903E-01
  0.000E+00  1.600E-01  1.543E+00 3.3909346E+00 7.9212697E-01 -5.1161105E-01
  4.318E-02  1.738E-01  1.563E+00 3.3980512E+00 7.4976291E-01 -5.1118024E-01
  0.000E+00  1.340E-01  1.500E+00 3.3912229E+00 8.1660803E-01 -4.7144937E-01
  4.318E-02  1.467E-01  1.521E+00 3.4008971E+00 7.7431669E-01 -4.7316874E-01
  0.000E+00  1.101E-01  1.456E+00 3.3572444E+00 8.3909866E-01 -4.3018760E-01
  4.318E-02  1.218E-01  1.478E+00 3.3752191E+00 7.9689130E-01 -4.3394482E-01
  0.000E+00  8.849E-02  1.411E+00 3.3592146E+00 8.5962726E-01 -3.8793297E-01
  4.318E-02  9.903E-02  1.434E+00 3.3573330E+00 8.1762875E-01 -3.9379341E-01
  0.000E+00  6.913E-02  1.365E+00 3.3334235E+00 8.7771105E-01 -3.4435284E-01
  4.318E-02  7.852E-02  1.388E+00 3.3488170E+00 8.3625333E-01 -3.5250607E-01
  0.000E+00  5.207E-02  1.318E+00 3.3047619E+00 8.9361052E-01 -3.0001261E-01
  4.318E-02  6.031E-02  1.342E+00 3.3151726E+00 8.5250664E-01 -3.1006847E-01
  0.000E+00  3.738E-02  1.271E+00 3.3010237E+00 9.0776837E-01 -2.5551677E-01
  4.318E-02  4.443E-02  1.295E+00 3.3037052E+00 8.6698889E-01 -2.6734195E-01
  0.000E+00  2.507E-02  1.223E+00 3.2889788E+00 9.1964739E-01 -2.1028821E-01
  4.318E-02  3.092E-02  1.247E+00 3.2962688E+00 8.7960249E-01 -2.2425868E-01
  0.000E+00  1.519E-02  1.174E+00 3.2707892E+00 9.2881622E-01 -1.6398767E-01
  4.318E-02  1.983E-02  1.198E+00 3.2797119E+00 8.8973007E-01 -1.8019544E-01
  0.000E+00  7.761E-03  1.124E+00 3.2553177E+00 9.3556721E-01 -1.1713797E-01
  4.318E-02  1.117E-02  1.149E+00 3.2620416E+00 8.9734374E-01 -1.3529558E-01
  0.000E+00  2.796E-03  1.075E+00 3.2464445E+00 9.4016292E-01 -7.0241307E-02
  4.318E-02  4.969E-03  1.100E+00 3.2501484E+00 9.0278856E-01 -9.0150843E-02
  0.000E+00  3.108E-04  1.025E+00 3.2429930E+00 9.4253489E-01 -2.3407017E-02
  4.318E-02  1.243E-03  1.050E+00 3.2446224E+00 9.0616397E-01 -4.5054511E-02
  0.000E+00  3.108E-04  9.751E-01 3.2429929E+00 9.4253487E-01 2.3407218E-02
  4.318E-02  0.000E+00  1.000E+00 3.2431819E+00 9.0731976E-01 4.5631808E-08
  0.000E+00  2.796E-03  9.253E-01 3.2464442E+00 9.4016283E-01 7.0241509E-02
  4.318E-02  1.243E-03  9.502E-01 3.2446223E+00 9.0616390E-01 4.5054603E-02
  0.000E+00  7.761E-03  8.757E-01 3.2553173E+00 9.3556709E-01 1.1713817E-01
  4.318E-02  4.969E-03  9.004E-01 3.2501481E+00 9.0278843E-01 9.0150934E-02
  0.000E+00  1.519E-02  8.264E-01 3.2707887E+00 9.2881618E-01 1.6398788E-01
  4.318E-02  1.117E-02  8.510E-01 3.2620411E+00 8.9734362E-01 1.3529567E-01
  0.000E+00  2.507E-02  7.775E-01 3.2889780E+00 9.1964750E-01 2.1028842E-01
  4.318E-02  1.983E-02  8.019E-01 3.2797112E+00 8.8973009E-01 1.8019552E-01
  0.000E+00  3.738E-02  7.292E-01 3.3010228E+00 9.0776835E-01 2.5551697E-01
  4.318E-02  3.092E-02  7.532E-01 3.2962679E+00 8.7960256E-01 2.2425876E-01
  0.000E+00  5.207E-02  6.815E-01 3.3047609E+00 8.9361015E-01 3.0001281E-01
  4.318E-02  4.443E-02  7.052E-01 3.3037042E+00 8.6698864E-01 2.6734203E-01
  0.000E+00  6.913E-02  6.347E-01 3.3334224E+00 8.7771106E-01 3.4435304E-01
  4.318E-02  6.031E-02  6.580E-01 3.3151715E+00 8.5250635E-01 3.1006855E-01
  0.000E+00  8.849E-02  5.887E-01 3.3592133E+00 8.5962736E-01 3.8793317E-01
  4.318E-02  7.852E-02  6.116E-01 3.3488157E+00 8.3625347E-01 3.5250615E-01
  0.000E+00  1.101E-01  5.438E-01 3.3572429E+00 8.3909828E-01 4.3018779E-01
  4.318E-02  9.903E-02  5.661E-01 3.3573316E+00 8.1762852E-01 3.9379348E-01
  0.000E+00  1.340E-01  5.000E-01 3.3912213E+00 8.1660807E-01 4.7144957E-01
  4.318E-02  1.218E-01  5.217E-01 3.3752176E+00 7.9689108E-01 4.3394489E-01
  0.000E+00  1.600E-01  4.575E-01 3.3909328E+00 7.9212684E-01 5.1161124E-01
  4.318E-02  1.467E-01  4.786E-01 3.4008954E+00 7.7431672E-01 4.7316880E-01
  0.000E+00  1.881E-01  4.163E-01 3.4220387E+00 7.6561903E-01 5.5044116E-01
  4.318E-02  1.738E-01  4.367E-01 3.3980494E+00 7.4976268E-01 5.1118029E-01
  0.000E+00  2.182E-01  3.765E-01 3.4130198E+00 7.3723622E-01 5.8792595E-01
  4.318E-02  2.029E-01  3.962E-01 3.4190218E+00 7.2334234E-01 5.4790909E-01
  0.000E+00  2.502E-01  3.383E-01 3.4294424E+00 7.0701485E-01 6.2394285E-01
  4.318E-02  2.340E-01  3.572E-01 3.4266468E+00 6.9513897E-01 5.8329001E-01
  0.000E+00  2.841E-01  3.018E-01 3.4293998E+00 6.7503400E-01 6.5840861E-01
  4.318E-02  2.669E-01  3.198E-01 3.4281075E+00 6.6519844E-01 6.1721220E-01
  0.000E+00  3.198E-01  2.669E-01 3.4280980E+00 6.4137519E-01 6.9123837E-01
  4.318E-02  3.018E-01  2.841E-01 3.4294097E+00 6.3360557E-01 6.4960313E-01
  0.000E+00  3.572E-01  2.340E-01 3.4266376E+00 6.0612505E-01 7.2235102E-01
  4.318E-02  3.383E-01  2.502E-01 3.4294526E+00 6.0043829E-01 6.8037930E-01
  0.000E+00  3.962E-01  2.029E-01 3.4190130E+00 5.6935891E-01 7.5165824E-01
  4.318E-02  3.765E-01  2.182E-01 3.4130303E+00 5.6577816E-01 7.0946202E-01
  0.000E+00  4.367E-01  1.738E-01 3.3980408E+00 5.3119207E-01 7.7911286E-01
  4.318E-02  4.163E-01  1.881E-01 3.4220495E+00 5.2970536E-01 7.3677539E-01
  0.000E+00  4.786E-01  1.467E-01 3.4008874E+00 4.9169267E-01 8.0462837E-01
  4.318E-02  4.575E-01  1.600E-01 3.3909440E+00 4.9233827E-01 7.6228473E-01
  0.000E+00  5.217E-01  1.218E-01 3.3752101E+00 4.5093347E-01 8.2808680E-01
  4.318E-02  5.000E-01  1.340E-01 3.3912329E+00 4.5368975E-01 7.8584394E-01
  0.000E+00  5.661E-01  9.903E-02 3.3573245E+00 4.0921042E-01 8.4963594E-01
  4.318E-02  5.438E-01  1.101E-01 3.3572547E+00 4.1398236E-01 8.0748710E-01
  0.000E+00  6.116E-01  7.852E-02 3.3488089E+00 3.6630673E-01 8.6898953E-01
  4.318E-02  5.887E-01  8.849E-02 3.3592252E+00 3.7331920E-01 8.2724209E-01
  0.000E+00  6.580E-01  6.031E-02 3.3151649E+00 3.2220754E-01 8.8587877E-01
  4.318E-02  6.347E-01  6.913E-02 3.3334347E+00 3.3138063E-01 8.4464437E-01
  0.000E+00  7.052E-01  4.443E-02 3.3036982E+00 2.7780809E-01 9.0092822E-01
  4.318E-02  6.815E-01  5.207E-02 3.3047738E+00 2.8871096E-01 8.5994484E-01
  0.000E+00  7.532E-01  3.092E-02 3.2962626E+00 2.3303798E-01 9.1403600E-01
  4.318E-02  7.292E-01  3.738E-02 3.3010361E+00 2.4589176E-01 8.7356975E-01
  0.000E+00  8.019E-01  1.983E-02 3.2797065E+00 1.8724969E-01 9.2455999E-01
  4.318E-02  7.775E-01  2.507E-02 3.2889917E+00 2.0236744E-01 8.8500152E-01
  0.000E+00  8.510E-01  1.117E-02 3.2620366E+00 1.4059224E-01 9.3247144E-01
  4.318E-02  8.264E-01  1.519E-02 3.2708026E+00 1.5781131E-01 8.9382492E-01
  0.000E+00  9.004E-01  4.969E-03 3.2501437E+00 9.3680411E-02 9.3812919E-01
  4.318E-02  8.757E-01  7.761E-03 3.2553315E+00 1.1272648E-01 9.0032147E-01
  4.318E-02  9.253E-01  2.796E-03 3.2464587E+00 6.7596328E-02 9.0474393E-01
  1.000E+01  1.050E+00  1.243E-03 3.2446188E+00 -4.6817496E-02 9.4163663E-01
  1.000E+01  1.000E+00  5.551E-16 3.2431779E+00 6.8716757E-07 9.4283766E-01
  9.957E+00  1.025E+00  3.108E-04 3.2430046E+00 -2.4290137E-02 9.7811517E-01
  1.000E+01  9.502E-01  1.243E-03 3.2446180E+00 4.6818871E-02 9.4163663E-01
  9.957E+00  9.751E-01  3.108E-04 3.2430042E+00 2.4291393E-02 9.7811517E-01
  1.000E+01  9.004E-01  4.969E-03 3.2501437E+00 9.3680411E-02 9.3812919E-01
  9.957E+00  9.253E-01  2.796E-03 3.2464552E+00 7.2893763E-02 9.7565367E-01
  1.000E+01  8.510E-01  1.117E-02 3.2620366E+00 1.4059224E-01 9.3247144E-01
  9.957E+00  8.757E-01  7.761E-03 3.2553280E+00 1.2156092E-01 9.7088452E-01
  1.000E+01  8.019E-01  1.983E-02 3.2797065E+00 1.8724969E-01 9.2455999E-01
  9.957E+00  8.264E-01  1.519E-02 3.2707992E+00 1.7017936E-01 9.6387880E-01
  1.000E+01  7.532E-01  3.092E-02 3.2962626E+00 2.3303798E-01 9.1403600E-01
  9.957E+00  7.775E-01  2.507E-02 3.2889884E+00 2.1822787E-01 9.5436399E-01
  1.000E+01  7.052E-01  4.443E-02 3.3036982E+00 2.7780809E-01 9.0092822E-01
  9.957E+00  7.292E-01  3.738E-02 3.3010329E+00 2.6516377E-01 9.4203640E-01
  1.000E+01  6.580E-01  6.031E-02 3.3151649E+00 3.2220754E-01 8.8587877E-01
  9.957E+00  6.815E-01  5.207E-02 3.3047706E+00 3.1133907E-01 9.2734360E-01
  1.000E+01  6.116E-01  7.852E-02 3.3488089E+00 3.6630673E-01 8.6898953E-01
  9.957E+00  6.347E-01  6.913E-02 3.3334314E+00 3.5735278E-01 9.1084367E-01
  1.000E+01  5.661E-01  9.903E-02 3.3573245E+00 4.0921042E-01 8.4963594E-01
  9.957E+00  5.887E-01  8.849E-02 3.3592217E+00 4.0257795E-01 8.9207730E-01
  1.000E+01  5.217E-01  1.218E-01 3.3752101E+00 4.5093347E-01 8.2808680E-01
  9.957E+00  5.438E-01  1.101E-01 3.3572512E+00 4.4642791E-01 8.7077400E-01
  1.000E+01  4.786E-01  1.467E-01 3.4008874E+00 4.9169267E-01 8.0462837E-01
  9.957E+00  5.000E-01  1.340E-01 3.3912295E+00 4.8924758E-01 8.4743475E-01
  1.000E+01  4.367E-01  1.738E-01 3.3980408E+00 5.3119207E-01 7.7911286E-01
  9.957E+00  4.575E-01  1.600E-01 3.3909407E+00 5.3092535E-01 8.2202931E-01
  1.000E+01  3.962E-01  2.029E-01 3.4190130E+00 5.6935891E-01 7.5165824E-01
  9.957E+00  4.163E-01  1.881E-01 3.4220462E+00 5.7122091E-01 7.9452057E-01
  1.000E+01  3.572E-01  2.340E-01 3.4266376E+00 6.0612505E-01 7.2235102E-01
  9.957E+00  3.765E-01  2.182E-01 3.4130269E+00 6.1012076E-01 7.6506640E-01
  1.000E+01  3.198E-01  2.669E-01 3.4280980E+00 6.4137519E-01 6.9123837E-01
  9.957E+00  3.383E-01  2.502E-01 3.4294492E+00 6.4749738E-01 7.3370431E-01
  1.000E+01  2.841E-01  3.018E-01 3.4293998E+00 6.7503400E-01 6.5840861E-01
  9.957E+00  3.018E-01  2.841E-01 3.4294063E+00 6.8326417E-01 7.0051614E-01
  1.000E+01  2.502E-01  3.383E-01 3.4294424E+00 7.0701485E-01 6.2394285E-01
  9.957E+00  2.669E-01  3.198E-01 3.4281041E+00 7.1733322E-01 6.6558661E-01
  1.000E+01  2.182E-01  3.765E-01 3.4130198E+00 7.3723622E-01 5.8792595E-01
  9.957E+00  2.340E-01  3.572E-01 3.4266434E+00 7.4962040E-01 6.2900577E-01
  1.000E+01  1.881E-01  4.163E-01 3.4220387E+00 7.6561903E-01 5.5044116E-01
  9.957E+00  2.029E-01  3.962E-01 3.4190184E+00 7.8003417E-01 5.9085182E-01
  1.000E+01  1.600E-01  4.575E-01 3.3909328E+00 7.9212684E-01 5.1161124E-01
  9.957E+00  1.738E-01  4.367E-01 3.3980459E+00 8.0852510E-01 5.5124415E-01
  1.000E+01  1.340E-01  5.000E-01 3.3912213E+00 8.1660807E-01 4.7144957E-01
  9.957E+00  1.467E-01  4.786E-01 3.4008920E+00 8.3500368E-01 5.1025352E-01
  1.000E+01  1.101E-01  5.438E-01 3.3572429E+00 8.3909828E-01 4.3018779E-01
  9.957E+00  1.218E-01  5.217E-01 3.3752142E+00 8.5934756E-01 4.6795561E-01
  1.000E+01  8.849E-02  5.887E-01 3.3592133E+00 8.5962736E-01 3.8793317E-01
  9.957E+00  9.903E-02  5.661E-01 3.3573283E+00 8.8171051E-01 4.2465748E-01
  1.000E+01  6.913E-02  6.347E-01 3.3334224E+00 8.7771106E-01 3.4435304E-01
  9.957E+00  7.852E-02  6.116E-01 3.3488124E+00 9.0179504E-01 3.8013395E-01
  1.000E+01  5.207E-02  6.815E-01 3.3047609E+00 8.9361015E-01 3.0001281E-01
  9.957E+00  6.031E-02  6.580E-01 3.3151680E+00 9.1932151E-01 3.3436995E-01
  1.000E+01  3.738E-02  7.292E-01 3.3010228E+00 9.0776835E-01 2.5551697E-01
  9.957E+00  4.443E-02  7.052E-01 3.3037008E+00 9.3493881E-01 2.8829471E-01
  1.000E+01  2.507E-02  7.775E-01 3.2889780E+00 9.1964750E-01 2.1028842E-01
  9.957E+00  3.092E-02  7.532E-01 3.2962645E+00 9.4854143E-01 2.4183500E-01
  1.000E+01  1.519E-02  8.264E-01 3.2707887E+00 9.2881618E-01 1.6398788E-01
  9.957E+00  1.983E-02  8.019E-01 3.2797079E+00 9.5946283E-01 1.9431860E-01
  1.000E+01  7.761E-03  8.757E-01 3.2553173E+00 9.3556709E-01 1.1713817E-01
  9.957E+00  1.117E-02  8.510E-01 3.2620378E+00 9.6767316E-01 1.4589991E-01
  1.000E+01  2.796E-03  9.253E-01 3.2464442E+00 9.4016283E-01 7.0241509E-02
  9.957E+00  4.969E-03  9.004E-01 3.2501447E+00 9.7354473E-01 9.7216961E-02
  1.000E+01  3.108E-04  9.751E-01 3.2429929E+00 9.4253487E-01 2.3407218E-02
  9.957E+00  1.243E-03  9.502E-01 3.2446189E+00 9.7718473E-01 4.8586078E-02
  1.000E+01  3.108E-04  1.025E+00 3.2429930E+00 9.4253489E-01 -2.3407017E-02
  9.957E+00  0.000E+00  1.000E+00 3.2431785E+00 9.7843116E-01 1.6081610E-07
  1.000E+01  2.796E-03  1.075E+00 3.2464445E+00 9.4016292E-01 -7.0241307E-02
  9.957E+00  1.243E-03  1.050E+00 3.2446191E+00 9.7718480E-01 -4.8585757E-02
  1.000E+01  7.761E-03  1.124E+00 3.2553177E+00 9.3556721E-01 -1.1713797E-01
  9.957E+00  4.969E-03  1.100E+00 3.2501451E+00 9.7354487E-01 -9.7216644E-02
  1.000E+01  1.519E-02  1.174E+00 3.2707892E+00 9.2881622E-01 -1.6398767E-01
  9.957E+00  1.117E-02  1.149E+00 3.2620382E+00 9.6767330E-01 -1.4589959E-01
  1.000E+01  2.507E-02  1.223E+00 3.2889788E+00 9.1964739E-01 -2.1028821E-01
  9.957E+00  1.983E-02  1.198E+00 3.2797085E+00 9.5946280E-01 -1.9431829E-01
  1.000E+01  3.738E-02  1.271E+00 3.3010237E+00 9.0776837E-01 -2.5551677E-01
  9.957E+00  3.092E-02  1.247E+00 3.2962653E+00 9.4854135E-01 -2.4183469E-01
  1.000E+01  5.207E-02  1.318E+00 3.3047619E+00 8.9361052E-01 -3.0001261E-01
  9.957E+00  4.443E-02  1.295E+00 3.3037017E+00 9.3493908E-01 -2.8829440E-01
  1.000E+01  6.913E-02  1.365E+00 3.3334235E+00 8.7771105E-01 -3.4435284E-01
  9.957E+00  6.031E-02  1.342E+00 3.3151691E+00 9.1932183E-01 -3.3436964E-01
  1.000E+01  8.849E-02  1.411E+00 3.3592146E+00 8.5962726E-01 -3.8793297E-01
  9.957E+00  7.852E-02  1.388E+00 3.3488136E+00 9.0179489E-01 -3.8013364E-01
  1.000E+01  1.101E-01  1.456E+00 3.3572444E+00 8.3909866E-01 -4.3018760E-01
  9.957E+00  9.903E-02  1.434E+00 3.3573297E+00 8.8171075E-01 -4.2465719E-01
  1.000E+01  1.340E-01  1.500E+00 3.3912229E+00 8.1660803E-01 -4.7144937E-01
  9.957E+00  1.218E-01  1.478E+00 3.3752158E+00 8.5934780E-01 -4.6795532E-01
  1.000E+01  1.600E-01  1.543E+00 3.3909346E+00 7.9212697E-01 -5.1161105E-01
  9.957E+00  1.467E-01  1.521E+00 3.4008936E+00 8.3500365E-01 -5.1025323E-01
  1.000E+01  1.881E-01  1.584E+00 3.4220406E+00 7.6561915E-01 -5.5044097E-01
  9.957E+00  1.738E-01  1.563E+00 3.3980477E+00 8.0852535E-01 -5.5124387E-01
  1.000E+01  2.182E-01  1.623E+00 3.4130218E+00 7.3723633E-01 -5.8792578E-01
  9.957E+00  2.029E-01  1.604E+00 3.4190204E+00 7.8003422E-01 -5.9085154E-01
  1.000E+01  2.502E-01  1.662E+00 3.4294444E+00 7.0701502E-01 -6.2394269E-01
  9.957E+00  2.340E-01  1.643E+00 3.4266454E+00 7.4962058E-01 -6.2900549E-01
  1.000E+01  2.841E-01  1.698E+00 3.4294020E+00 6.7503413E-01 -6.5840844E-01
  9.957E+00  2.669E-01  1.680E+00 3.4281063E+00 7.1733332E-01 -6.6558634E-01
  1.000E+01  3.198E-01  1.733E+00 3.4281003E+00 6.4137531E-01 -6.9123820E-01
  9.957E+00  3.018E-01  1.716E+00 3.4294085E+00 6.8326436E-01 -7.0051588E-01
  1.000E+01  3.572E-01  1.766E+00 3.4266400E+00 6.0612515E-01 -7.2235085E-01
  9.957E+00  3.383E-01  1.750E+00 3.4294515E+00 6.4749756E-01 -7.3370406E-01
  1.000E+01  3.962E-01  1.797E+00 3.4190155E+00 5.6935908E-01 -7.5165808E-01
  9.957E+00  3.765E-01  1.782E+00 3.4130293E+00 6.1012095E-01 -7.6506617E-01
  1.000E+01  4.367E-01  1.826E+00 3.3980434E+00 5.3119237E-01 -7.7911274E-01
  9.957E+00  4.163E-01  1.812E+00 3.4220486E+00 5.7122102E-01 -7.9452033E-01
  1.000E+01  4.786E-01  1.853E+00 3.4008901E+00 4.9169300E-01 -8.0462826E-01
  9.957E+00  4.575E-01  1.840E+00 3.3909432E+00 5.3092543E-01 -8.2202904E-01
  1.000E+01  5.217E-01  1.878E+00 3.3752126E+00 4.5093361E-01 -8.2808666E-01
  9.957E+00  5.000E-01  1.866E+00 3.3912322E+00 4.8924770E-01 -8.4743449E-01
  1.000E+01  5.661E-01  1.901E+00 3.3573269E+00 4.0921015E-01 -8.4963569E-01
  9.957E+00  5.438E-01  1.890E+00 3.3572542E+00 4.4642826E-01 -8.7077380E-01
  1.000E+01  6.116E-01  1.921E+00 3.3488116E+00 3.6630612E-01 -8.6898918E-01
  9.957E+00  5.887E-01  1.912E+00 3.3592247E+00 4.0257853E-01 -8.9207721E-01
  1.000E+01  6.580E-01  1.940E+00 3.3151680E+00 3.2220714E-01 -8.8587841E-01
  9.957E+00  6.347E-01  1.931E+00 3.3334341E+00 3.5735339E-01 -9.1084365E-01
  1.000E+01  7.052E-01  1.956E+00 3.3037015E+00 2.7780847E-01 -9.0092801E-01
  9.957E+00  6.815E-01  1.948E+00 3.3047731E+00 3.1133938E-01 -9.2734352E-01
  1.000E+01  7.532E-01  1.969E+00 3.2962658E+00 2.3303923E-01 -9.1403603E-01
  9.957E+00  7.292E-01  1.963E+00 3.3010354E+00 2.6516353E-01 -9.4203620E-01
  1.000E+01  8.019E-01  1.980E+00 3.2797094E+00 1.8725137E-01 -9.2456023E-01
  9.957E+00  7.775E-01  1.975E+00 3.2889911E+00 2.1822719E-01 -9.5436365E-01
  1.000E+01  8.510E-01  1.989E+00 3.2620394E+00 1.4059378E-01 -9.3247182E-01
  9.957E+00  8.264E-01  1.985E+00 3.2708021E+00 1.7017858E-01 -9.6387837E-01
  1.000E+01  9.004E-01  1.995E+00 3.2501467E+00 9.3681495E-02 -9.3812965E-01
  9.957E+00  8.757E-01  1.992E+00 3.2553311E+00 1.2156032E-01 -9.7088404E-01
  1.000E+01  9.502E-01  1.999E+00 3.2446211E+00 4.6819462E-02 -9.4163714E-01
  9.957E+00  9.253E-01  1.997E+00 3.2464582E+00 7.2893483E-02 -9.7565315E-01
  1.000E+01  1.000E+00  2.000E+00 3.2431810E+00 8.4668312E-07 -9.4283819E-01
  9.957E+00  9.751E-01  2.000E+00 3.2430071E+00 2.4291413E-02 -9.7811464E-01
  1.000E+01  1.050E+00  1.999E+00 3.2446219E+00 -4.6817769E-02 -9.4163716E-01
  9.957E+00  1.025E+00  2.000E+00 3.2430075E+00 -2.4289839E-02 -9.7811465E-01
  1.000E+01  1.100E+00  1.995E+00 3.2501482E+00 -9.3679803E-02 -9.3812969E-01
  9.957E+00  1.075E+00  1.997E+00 3.2464594E+00 -7.2891910E-02 -9.7565317E-01
  1.000E+01  1.149E+00  1.989E+00 3.2620418E+00 -1.4059209E-01 -9.3247187E-01
  9.957E+00  1.124E+00  1.992E+00 3.2553330E+00 -1.2155875E-01 -9.7088408E-01
  1.000E+01  1.198E+00  1.980E+00 3.2797125E+00 -1.8724968E-01 -9.2456030E-01
  9.957E+00  1.174E+00  1.985E+00 3.2708049E+00 -1.7017700E-01 -9.6387843E-01