# TIME = 2.000000
VARIABLES = X, Y, Z, FX, FY, FZ
ZONE N=29232 E=58212 F=FEPOINT ET=TRIANGLE
  0.000E+00  9.502E-01  1.243E-03 3.2500484E+00 3.9888132E-02 8.0225091E-01
  0.000E+00  1.000E+00  0.000E+00 3.2486096E+00 -8.6576691E-08 8.0327416E-01
  4.318E-02  9.751E-01  3.108E-04 3.2484371E+00 1.9074413E-02 7.6807153E-01
  0.000E+00  1.050E+00  1.243E-03 3.2500491E+00 -3.9888305E-02 8.0225091E-01
  4.318E-02  1.025E+00  3.108E-04 3.2484375E+00 -1.9074572E-02 7.6807153E-01
  0.000E+00  1.100E+00  4.969E-03 3.2555735E+00 -7.9813485E-02 7.9926265E-01
  4.318E-02  1.075E+00  2.796E-03 3.2518877E+00 -5.7239886E-02 7.6613867E-01
  0.000E+00  1.149E+00  1.117E-02 3.2674689E+00 -1.1978146E-01 7.9444238E-01
  4.318E-02  1.124E+00  7.761E-03 3.2607615E+00 -9.5455989E-02 7.6239373E-01
  0.000E+00  1.198E+00  1.983E-02 3.2851449E+00 -1.5953248E-01 7.8770199E-01
  4.318E-02  1.174E+00  1.519E-02 3.2762380E+00 -1.3363379E-01 7.5689246E-01
  0.000E+00  1.247E+00  3.092E-02 3.3017012E+00 -1.9854264E-01 7.7873572E-01
  4.318E-02  1.223E+00  2.507E-02 3.2944316E+00 -1.7136406E-01 7.4942084E-01
  0.000E+00  1.295E+00  4.443E-02 3.3091179E+00 -2.3668515E-01 7.6756810E-01
  4.318E-02  1.271E+00  3.738E-02 3.3064663E+00 -2.0822081E-01 7.3974045E-01
  0.000E+00  1.342E+00  6.031E-02 3.3205678E+00 -2.7451197E-01 7.5474628E-01
  4.318E-02  1.318E+00  5.207E-02 3.3101765E+00 -2.4448053E-01 7.2820291E-01
  0.000E+00  1.388E+00  7.852E-02 3.3542315E+00 -3.1208329E-01 7.4035708E-01
  4.318E-02  1.365E+00  6.913E-02 3.3388480E+00 -2.8061349E-01 7.1524648E-01
  0.000E+00  1.434E+00  9.903E-02 3.3627275E+00 -3.4863632E-01 7.2386836E-01
  4.318E-02  1.411E+00  8.849E-02 3.3646472E+00 -3.1612712E-01 7.0051019E-01
  0.000E+00  1.478E+00  1.218E-01 3.3806064E+00 -3.8418351E-01 7.0550908E-01
  4.318E-02  1.456E+00  1.101E-01 3.3626397E+00 -3.5056063E-01 6.8378161E-01
  0.000E+00  1.521E+00  1.467E-01 3.4062973E+00 -4.1890943E-01 6.8552311E-01
  4.318E-02  1.500E+00  1.340E-01 3.3966404E+00 -3.8418477E-01 6.6545412E-01
  0.000E+00  1.563E+00  1.738E-01 3.4034201E+00 -4.5256195E-01 6.6378456E-01
  4.318E-02  1.543E+00  1.600E-01 3.3963243E+00 -4.1691239E-01 6.4550411E-01
  0.000E+00  1.604E+00  2.029E-01 3.4244062E+00 -4.8507908E-01 6.4039390E-01
  4.318E-02  1.584E+00  1.881E-01 3.4274540E+00 -4.4855494E-01 6.2390275E-01
  0.000E+00  1.643E+00  2.340E-01 3.4320262E+00 -5.1640286E-01 6.1542490E-01
  4.318E-02  1.623E+00  2.182E-01 3.4184058E+00 -4.7910151E-01 6.0077375E-01
  0.000E+00  1.680E+00  2.669E-01 3.4334838E+00 -5.4643510E-01 5.8891769E-01
  4.318E-02  1.662E+00  2.502E-01 3.4348414E+00 -5.0845176E-01 5.7614645E-01
  0.000E+00  1.716E+00  3.018E-01 3.4347842E+00 -5.7511155E-01 5.6094757E-01
  4.318E-02  1.698E+00  2.841E-01 3.4347932E+00 -5.3653788E-01 5.5008513E-01
  0.000E+00  1.750E+00  3.383E-01 3.4348330E+00 -6.0235847E-01 5.3158361E-01
  4.318E-02  1.733E+00  3.198E-01 3.4334933E+00 -5.6329071E-01 5.2265642E-01
  0.000E+00  1.782E+00  3.765E-01 3.4183979E+00 -6.2810626E-01 5.0089811E-01
  4.318E-02  1.766E+00  3.572E-01 3.4320362E+00 -5.8864445E-01 4.9393106E-01
  0.000E+00  1.812E+00  4.163E-01 3.4274468E+00 -6.5228772E-01 4.6896200E-01
  4.318E-02  1.797E+00  3.962E-01 3.4244167E+00 -6.1252703E-01 4.6397042E-01
  0.000E+00  1.840E+00  4.575E-01 3.3963176E+00 -6.7487171E-01 4.3587988E-01
  4.318E-02  1.826E+00  4.367E-01 3.4034310E+00 -6.3489998E-01 4.3286844E-01
  0.000E+00  1.866E+00  5.000E-01 3.3966340E+00 -6.9572895E-01 4.0166313E-01
  4.318E-02  1.853E+00  4.786E-01 3.4063086E+00 -6.5569216E-01 4.0068023E-01
  0.000E+00  1.890E+00  5.438E-01 3.3626338E+00 -7.1489041E-01 3.6650914E-01
  4.318E-02  1.878E+00  5.217E-01 3.3806183E+00 -6.7480836E-01 3.6746532E-01
  0.000E+00  1.912E+00  5.887E-01 3.3646420E+00 -7.3238025E-01 3.3050925E-01
  4.318E-02  1.901E+00  5.661E-01 3.3627400E+00 -6.9236885E-01 3.3346502E-01
  0.000E+00  1.931E+00  6.347E-01 3.3388435E+00 -7.4778719E-01 2.9338006E-01
  4.318E-02  1.921E+00  6.116E-01 3.3542443E+00 -7.0814019E-01 2.9850284E-01
  0.000E+00  1.948E+00  6.815E-01 3.3101725E+00 -7.6133313E-01 2.5560330E-01
  4.318E-02  1.940E+00  6.580E-01 3.3205808E+00 -7.2190355E-01 2.6256662E-01
  0.000E+00  1.963E+00  7.292E-01 3.3064627E+00 -7.7339527E-01 2.1769395E-01
  4.318E-02  1.956E+00  7.052E-01 3.3091310E+00 -7.3416715E-01 2.2638573E-01
  0.000E+00  1.975E+00  7.775E-01 3.2944283E+00 -7.8351590E-01 1.7916035E-01
  4.318E-02  1.969E+00  7.532E-01 3.3017145E+00 -7.4484837E-01 1.8990272E-01
  0.000E+00  1.985E+00  8.264E-01 3.2762351E+00 -7.9132752E-01 1.3971344E-01
  4.318E-02  1.980E+00  8.019E-01 3.2851589E+00 -7.5342442E-01 1.5258985E-01
  0.000E+00  1.992E+00  8.757E-01 3.2607591E+00 -7.9707921E-01 9.9798662E-02
  4.318E-02  1.989E+00  8.510E-01 3.2674835E+00 -7.5987168E-01 1.1456854E-01
  0.000E+00  1.997E+00  9.253E-01 3.2518858E+00 -8.0099463E-01 5.9843875E-02
  4.318E-02  1.995E+00  9.004E-01 3.2555888E+00 -7.6448236E-01 7.6339869E-02
  0.000E+00  2.000E+00  9.751E-01 3.2484362E+00 -8.0301550E-01 1.9942226E-02
  4.318E-02  1.999E+00  9.502E-01 3.2500648E+00 -7.6734067E-01 3.8152212E-02
  0.000E+00  2.000E+00  1.025E+00 3.2484362E+00 -8.0301548E-01 -1.9942337E-02
  4.318E-02  2.000E+00  1.000E+00 3.2486257E+00 -7.6831941E-01 -5.7358163E-08
  0.000E+00  1.997E+00  1.075E+00 3.2518860E+00 -8.0099458E-01 -5.9843986E-02
  4.318E-02  1.999E+00  1.050E+00 3.2500649E+00 -7.6734063E-01 -3.8152327E-02
  0.000E+00  1.992E+00  1.124E+00 3.2607594E+00 -7.9707913E-01 -9.9798778E-02
  4.318E-02  1.995E+00  1.100E+00 3.2555890E+00 -7.6448227E-01 -7.6339983E-02
  0.000E+00  1.985E+00  1.174E+00 3.2762355E+00 -7.9132752E-01 -1.3971356E-01
  4.318E-02  1.989E+00  1.149E+00 3.2674839E+00 -7.5987161E-01 -1.1456865E-01
  0.000E+00  1.975E+00  1.223E+00 3.2944288E+00 -7.8351604E-01 -1.7916047E-01
  4.318E-02  1.980E+00  1.198E+00 3.2851594E+00 -7.5342449E-01 -1.5258995E-01
  0.000E+00  1.963E+00  1.271E+00 3.3064634E+00 -7.7339529E-01 -2.1769407E-01
  4.318E-02  1.969E+00  1.247E+00 3.3017151E+00 -7.4484850E-01 -1.8990282E-01
  0.000E+00  1.948E+00  1.318E+00 3.3101733E+00 -7.6133286E-01 -2.5560341E-01
  4.318E-02  1.956E+00  1.295E+00 3.3091317E+00 -7.3416702E-01 -2.2638583E-01
  0.000E+00  1.931E+00  1.365E+00 3.3388445E+00 -7.4778725E-01 -2.9338018E-01
  4.318E-02  1.940E+00  1.342E+00 3.3205817E+00 -7.2190340E-01 -2.6256673E-01
  0.000E+00  1.912E+00  1.411E+00 3.3646431E+00 -7.3238039E-01 -3.3050936E-01
  4.318E-02  1.921E+00  1.388E+00 3.3542453E+00 -7.0814043E-01 -2.9850295E-01
  0.000E+00  1.890E+00  1.456E+00 3.3626350E+00 -7.1489014E-01 -3.6650924E-01
  4.318E-02  1.901E+00  1.434E+00 3.3627410E+00 -6.9236878E-01 -3.3346513E-01
  0.000E+00  1.866E+00  1.500E+00 3.3966353E+00 -6.9572905E-01 -4.0166324E-01
  4.318E-02  1.878E+00  1.478E+00 3.3806195E+00 -6.7480830E-01 -3.6746543E-01
  0.000E+00  1.840E+00  1.543E+00 3.3963190E+00 -6.7487166E-01 -4.3587997E-01
  4.318E-02  1.853E+00  1.521E+00 3.4063099E+00 -6.5569232E-01 -4.0068034E-01
  0.000E+00  1.812E+00  1.584E+00 3.4274483E+00 -6.5228769E-01 -4.6896209E-01
  4.318E-02  1.826E+00  1.563E+00 3.4034324E+00 -6.3489993E-01 -4.3286855E-01
  0.000E+00  1.782E+00  1.623E+00 3.4183995E+00 -6.2810626E-01 -5.0089819E-01
  4.318E-02  1.797E+00  1.604E+00 3.4244182E+00 -6.1252713E-01 -4.6397054E-01
  0.000E+00  1.750E+00  1.662E+00 3.4348347E+00 -6.0235842E-01 -5.3158369E-01
  4.318E-02  1.766E+00  1.643E+00 3.4320378E+00 -5.8864446E-01 -4.9393117E-01
  0.000E+00  1.716E+00  1.698E+00 3.4347860E+00 -5.7511155E-01 -5.6094765E-01
  4.318E-02  1.733E+00  1.680E+00 3.4334949E+00 -5.6329077E-01 -5.2265654E-01
  0.000E+00  1.680E+00  1.733E+00 3.4334857E+00 -5.4643509E-01 -5.8891777E-01
  4.318E-02  1.698E+00  1.716E+00 3.4347949E+00 -5.3653789E-01 -5.5008525E-01
  0.000E+00  1.643E+00  1.766E+00 3.4320281E+00 -5.1640285E-01 -6.1542497E-01
  4.318E-02  1.662E+00  1.750E+00 3.4348433E+00 -5.0845178E-01 -5.7614657E-01
  0.000E+00  1.604E+00  1.797E+00 3.4244082E+00 -4.8507903E-01 -6.4039398E-01
  4.318E-02  1.623E+00  1.782E+00 3.4184077E+00 -4.7910151E-01 -6.0077386E-01
  0.000E+00  1.563E+00  1.826E+00 3.4034220E+00 -4.5256189E-01 -6.6378464E-01
  4.318E-02  1.584E+00  1.812E+00 3.4274561E+00 -4.4855497E-01 -6.2390286E-01
  0.000E+00  1.521E+00  1.853E+00 3.4062994E+00 -4.1890944E-01 -6.8552322E-01
  4.318E-02  1.543E+00  1.840E+00 3.3963264E+00 -4.1691240E-01 -6.4550419E-01
  0.000E+00  1.478E+00  1.878E+00 3.3806087E+00 -3.8418356E-01 -7.0550919E-01
  4.318E-02  1.500E+00  1.866E+00 3.3966424E+00 -3.8418477E-01 -6.6545418E-01
  0.000E+00  1.434E+00  1.901E+00 3.3627301E+00 -3.4863640E-01 -7.2386845E-01
  4.318E-02  1.456E+00  1.890E+00 3.3626416E+00 -3.5056057E-01 -6.8378168E-01
  0.000E+00  1.388E+00  1.921E+00 3.3542338E+00 -3.1208339E-01 -7.4035716E-01
  4.318E-02  1.411E+00  1.912E+00 3.3646492E+00 -3.1612701E-01 -7.0051029E-01
  0.000E+00  1.342E+00  1.940E+00 3.3205696E+00 -2.7451206E-01 -7.5474636E-01
  4.318E-02  1.365E+00  1.931E+00 3.3388504E+00 -2.8061334E-01 -7.1524657E-01
  0.000E+00  1.295E+00  1.956E+00 3.3091196E+00 -2.3668511E-01 -7.6756818E-01
  4.318E-02  1.318E+00  1.948E+00 3.3101791E+00 -2.4448043E-01 -7.2820298E-01
  0.000E+00  1.247E+00  1.969E+00 3.3017031E+00 -1.9854233E-01 -7.7873576E-01
  4.318E-02  1.271E+00  1.963E+00 3.3064689E+00 -2.0822089E-01 -7.3974052E-01
  0.000E+00  1.198E+00  1.980E+00 3.2851472E+00 -1.5953192E-01 -7.8770196E-01
  4.318E-02  1.223E+00  1.975E+00 3.2944340E+00 -1.7136434E-01 -7.4942094E-01
  0.000E+00  1.149E+00  1.989E+00 3.2674714E+00 -1.1978084E-01 -7.9444229E-01
  4.318E-02  1.174E+00  1.985E+00 3.2762403E+00 -1.3363414E-01 -7.5689261E-01
  0.000E+00  1.100E+00  1.995E+00 3.2555761E+00 -7.9812993E-02 -7.9926251E-01
  4.318E-02  1.124E+00  1.992E+00 3.2607638E+00 -9.5456281E-02 -7.6239391E-01
  0.000E+00  1.050E+00  1.999E+00 3.2500515E+00 -3.9888023E-02 -8.0225074E-01
  4.318E-02  1.075E+00  1.997E+00 3.2518900E+00 -5.7240044E-02 -7.6613887E-01
  0.000E+00  1.000E+00  2.000E+00 3.2486119E+00 -3.0633818E-08 -8.0327397E-01
  4.318E-02  1.025E+00  2.000E+00 3.2484399E+00 -1.9074586E-02 -7.6807174E-01
  0.000E+00  9.502E-01  1.999E+00 3.2500508E+00 3.9887961E-02 -8.0225074E-01
  4.318E-02  9.751E-01  2.000E+00 3.2484396E+00 1.9074539E-02 -7.6807174E-01
  0.000E+00  9.004E-01  1.995E+00 3.2555747E+00 7.9812931E-02 -7.9926251E-01
  4.318E-02  9.253E-01  1.997E+00 3.2518890E+00 5.7239997E-02 -7.6613886E-01
  0.000E+00  8.510E-01  1.989E+00 3.2674694E+00 1.1978078E-01 -7.9444228E-01
  4.318E-02  8.757E-01  1.992E+00 3.2607621E+00 9.5456233E-02 -7.6239390E-01
  0.000E+00  8.019E-01  1.980E+00 3.2851446E+00 1.5953186E-01 -7.8770195E-01
  4.318E-02  8.264E-01  1.985E+00 3.2762379E+00 1.3363409E-01 -7.5689260E-01
  0.000E+00  7.532E-01  1.969E+00 3.3016998E+00 1.9854227E-01 -7.7873574E-01
  4.318E-02  7.775E-01  1.975E+00 3.2944310E+00 1.7136429E-01 -7.4942092E-01
  0.000E+00  7.052E-01  1.956E+00 3.3091156E+00 2.3668505E-01 -7.6756816E-01
  4.318E-02  7.292E-01  1.963E+00 3.3064653E+00 2.0822084E-01 -7.3974050E-01
  0.000E+00  6.580E-01  1.940E+00 3.3205651E+00 2.7451200E-01 -7.5474634E-01
  4.318E-02  6.815E-01  1.948E+00 3.3101749E+00 2.4448038E-01 -7.2820296E-01
  0.000E+00  6.116E-01  1.921E+00 3.3542286E+00 3.1208332E-01 -7.4035714E-01
  4.318E-02  6.347E-01  1.931E+00 3.3388455E+00 2.8061329E-01 -7.1524654E-01
  0.000E+00  5.661E-01  1.901E+00 3.3627243E+00 3.4863634E-01 -7.2386843E-01
  4.318E-02  5.887E-01  1.912E+00 3.3646438E+00 3.1612696E-01 -7.0051025E-01
  0.000E+00  5.217E-01  1.878E+00 3.3806025E+00 3.8418349E-01 -7.0550916E-01
  4.318E-02  5.438E-01  1.890E+00 3.3626356E+00 3.5056052E-01 -6.8378165E-01
  0.000E+00  4.786E-01  1.853E+00 3.4062925E+00 4.1890937E-01 -6.8552318E-01
  4.318E-02  5.000E-01  1.866E+00 3.3966358E+00 3.8418470E-01 -6.6545415E-01
  0.000E+00  4.367E-01  1.826E+00 3.4034146E+00 4.5256182E-01 -6.6378460E-01
  4.318E-02  4.575E-01  1.840E+00 3.3963193E+00 4.1691236E-01 -6.4550415E-01
  0.000E+00  3.962E-01  1.797E+00 3.4244003E+00 4.8507896E-01 -6.4039394E-01
  4.318E-02  4.163E-01  1.812E+00 3.4274485E+00 4.4855491E-01 -6.2390282E-01
  0.000E+00  3.572E-01  1.766E+00 3.4320198E+00 5.1640278E-01 -6.1542493E-01
  4.318E-02  3.765E-01  1.782E+00 3.4183996E+00 4.7910146E-01 -6.0077382E-01
  0.000E+00  3.198E-01  1.733E+00 3.4334770E+00 5.4643502E-01 -5.8891773E-01
  4.318E-02  3.383E-01  1.750E+00 3.4348347E+00 5.0845171E-01 -5.7614652E-01
  0.000E+00  2.841E-01  1.698E+00 3.4347768E+00 5.7511146E-01 -5.6094760E-01
  4.318E-02  3.018E-01  1.716E+00 3.4347860E+00 5.3653783E-01 -5.5008520E-01
  0.000E+00  2.502E-01  1.662E+00 3.4348251E+00 6.0235836E-01 -5.3158364E-01
  4.318E-02  2.669E-01  1.680E+00 3.4334856E+00 5.6329068E-01 -5.2265649E-01
  0.000E+00  2.182E-01  1.623E+00 3.4183896E+00 6.2810615E-01 -5.0089815E-01
  4.318E-02  2.340E-01  1.643E+00 3.4320280E+00 5.8864442E-01 -4.9393112E-01
  0.000E+00  1.881E-01  1.584E+00 3.4274381E+00 6.5228761E-01 -4.6896204E-01
  4.318E-02  2.029E-01  1.604E+00 3.4244081E+00 6.1252700E-01 -4.6397049E-01
  0.000E+00  1.600E-01  1.543E+00 3.3963085E+00 6.7487160E-01 -4.3587992E-01
  4.318E-02  1.738E-01  1.563E+00 3.4034220E+00 6.3489995E-01 -4.3286850E-01
  0.000E+00  1.340E-01  1.500E+00 3.3966245E+00 6.9572885E-01 -4.0166319E-01
  4.318E-02  1.467E-01  1.521E+00 3.4062993E+00 6.5569212E-01 -4.0068028E-01
  0.000E+00  1.101E-01  1.456E+00 3.3626239E+00 7.1489031E-01 -3.6650919E-01
  4.318E-02  1.218E-01  1.478E+00 3.3806085E+00 6.7480831E-01 -3.6746538E-01
  0.000E+00  8.849E-02  1.411E+00 3.3646318E+00 7.3238016E-01 -3.3050930E-01
  4.318E-02  9.903E-02  1.434E+00 3.3627299E+00 6.9236880E-01 -3.3346508E-01
  0.000E+00  6.913E-02  1.365E+00 3.3388330E+00 7.4778709E-01 -2.9338012E-01
  4.318E-02  7.852E-02  1.388E+00 3.3542339E+00 7.0814014E-01 -2.9850290E-01
  0.000E+00  5.207E-02  1.318E+00 3.3101617E+00 7.6133303E-01 -2.5560336E-01
  4.318E-02  6.031E-02  1.342E+00 3.3205701E+00 7.2190349E-01 -2.6256667E-01
  0.000E+00  3.738E-02  1.271E+00 3.3064516E+00 7.7339517E-01 -2.1769401E-01
  4.318E-02  4.443E-02  1.295E+00 3.3091200E+00 7.3416708E-01 -2.2638578E-01
  0.000E+00  2.507E-02  1.223E+00 3.2944169E+00 7.8351581E-01 -1.7916042E-01
  4.318E-02  3.092E-02  1.247E+00 3.3017033E+00 7.4484830E-01 -1.8990276E-01
  0.000E+00  1.519E-02  1.174E+00 3.2762235E+00 7.9132743E-01 -1.3971351E-01
  4.318E-02  1.983E-02  1.198E+00 3.2851474E+00 7.5342434E-01 -1.5258990E-01
  0.000E+00  7.761E-03  1.124E+00 3.2607473E+00 7.9707912E-01 -9.9798721E-02
  4.318E-02  1.117E-02  1.149E+00 3.2674718E+00 7.5987159E-01 -1.1456859E-01
  0.000E+00  2.796E-03  1.075E+00 3.2518739E+00 8.0099454E-01 -5.9843930E-02
  4.318E-02  4.969E-03  1.100E+00 3.2555769E+00 7.6448226E-01 -7.6339926E-02
  0.000E+00  3.108E-04  1.025E+00 3.2484241E+00 8.0301539E-01 -1.9942280E-02
  4.318E-02  1.243E-03  1.050E+00 3.2500528E+00 7.6734057E-01 -3.8152270E-02
  0.000E+00  3.108E-04  9.751E-01 3.2484240E+00 8.0301536E-01 1.9942282E-02
  4.318E-02  0.000E+00  1.000E+00 3.2486135E+00 7.6831931E-01 -1.4334700E-09
  0.000E+00  2.796E-03  9.253E-01 3.2518737E+00 8.0099445E-01 5.9843930E-02
  4.318E-02  1.243E-03  9.502E-01 3.2500527E+00 7.6734053E-01 3.8152267E-02
  0.000E+00  7.761E-03  8.757E-01 3.2607470E+00 7.9707899E-01 9.9798716E-02
  4.318E-02  4.969E-03  9.004E-01 3.2555766E+00 7.6448217E-01 7.6339923E-02
  0.000E+00  1.519E-02  8.264E-01 3.2762231E+00 7.9132739E-01 1.3971349E-01
  4.318E-02  1.117E-02  8.510E-01 3.2674714E+00 7.5987150E-01 1.1456859E-01
  0.000E+00  2.507E-02  7.775E-01 3.2944164E+00 7.8351591E-01 1.7916040E-01
  4.318E-02  1.983E-02  8.019E-01 3.2851469E+00 7.5342437E-01 1.5258990E-01
  0.000E+00  3.738E-02  7.292E-01 3.3064509E+00 7.7339516E-01 2.1769400E-01
  4.318E-02  3.092E-02  7.532E-01 3.3017026E+00 7.4484837E-01 1.8990277E-01
  0.000E+00  5.207E-02  6.815E-01 3.3101608E+00 7.6133273E-01 2.5560335E-01
  4.318E-02  4.443E-02  7.052E-01 3.3091193E+00 7.3416688E-01 2.2638578E-01
  0.000E+00  6.913E-02  6.347E-01 3.3388320E+00 7.4778711E-01 2.9338011E-01
  4.318E-02  6.031E-02  6.580E-01 3.3205692E+00 7.2190326E-01 2.6256667E-01
  0.000E+00  8.849E-02  5.887E-01 3.3646308E+00 7.3238026E-01 3.3050930E-01
  4.318E-02  7.852E-02  6.116E-01 3.3542329E+00 7.0814028E-01 2.9850289E-01
  0.000E+00  1.101E-01  5.438E-01 3.3626227E+00 7.1489001E-01 3.6650918E-01
  4.318E-02  9.903E-02  5.661E-01 3.3627288E+00 6.9236863E-01 3.3346507E-01
  0.000E+00  1.340E-01  5.000E-01 3.3966232E+00 6.9572893E-01 4.0166318E-01
  4.318E-02  1.218E-01  5.217E-01 3.3806073E+00 6.7480814E-01 3.6746537E-01
  0.000E+00  1.600E-01  4.575E-01 3.3963071E+00 6.7487154E-01 4.3587992E-01
  4.318E-02  1.467E-01  4.786E-01 3.4062980E+00 6.5569216E-01 4.0068027E-01
  0.000E+00  1.881E-01  4.163E-01 3.4274366E+00 6.5228757E-01 4.6896204E-01
  4.318E-02  1.738E-01  4.367E-01 3.4034206E+00 6.3489976E-01 4.3286848E-01
  0.000E+00  2.182E-01  3.765E-01 3.4183880E+00 6.2810614E-01 5.0089815E-01
  4.318E-02  2.029E-01  3.962E-01 3.4244066E+00 6.1252696E-01 4.6397047E-01
  0.000E+00  2.502E-01  3.383E-01 3.4348235E+00 6.0235831E-01 5.3158365E-01
  4.318E-02  2.340E-01  3.572E-01 3.4320264E+00 5.8864429E-01 4.9393109E-01
  0.000E+00  2.841E-01  3.018E-01 3.4347751E+00 5.7511142E-01 5.6094760E-01
  4.318E-02  2.669E-01  3.198E-01 3.4334839E+00 5.6329060E-01 5.2265646E-01
  0.000E+00  3.198E-01  2.669E-01 3.4334751E+00 5.4643493E-01 5.8891773E-01
  4.318E-02  3.018E-01  2.841E-01 3.4347842E+00 5.3653773E-01 5.5008517E-01
  0.000E+00  3.572E-01  2.340E-01 3.4320179E+00 5.1640270E-01 6.1542493E-01
  4.318E-02  3.383E-01  2.502E-01 3.4348329E+00 5.0845163E-01 5.7614649E-01
  0.000E+00  3.962E-01  2.029E-01 3.4243984E+00 4.8507891E-01 6.4039393E-01
  4.318E-02  3.765E-01  2.182E-01 3.4183977E+00 4.7910135E-01 6.0077377E-01
  0.000E+00  4.367E-01  1.738E-01 3.4034127E+00 4.5256178E-01 6.6378458E-01
  4.318E-02  4.163E-01  1.881E-01 3.4274464E+00 4.4855480E-01 6.2390278E-01
  0.000E+00  4.786E-01  1.467E-01 3.4062905E+00 4.1890927E-01 6.8552313E-01
  4.318E-02  4.575E-01  1.600E-01 3.3963172E+00 4.1691224E-01 6.4550413E-01
  0.000E+00  5.217E-01  1.218E-01 3.3806001E+00 3.8418334E-01 7.0550910E-01
  4.318E-02  5.000E-01  1.340E-01 3.3966338E+00 3.8418463E-01 6.6545415E-01
  0.000E+00  5.661E-01  9.903E-02 3.3627218E+00 3.4863615E-01 7.2386837E-01
  4.318E-02  5.438E-01  1.101E-01 3.3626336E+00 3.5056047E-01 6.8378164E-01
  0.000E+00  6.116E-01  7.852E-02 3.3542263E+00 3.1208313E-01 7.4035709E-01
  4.318E-02  5.887E-01  8.849E-02 3.3646418E+00 3.1612697E-01 7.0051022E-01
  0.000E+00  6.580E-01  6.031E-02 3.3205633E+00 2.7451179E-01 7.5474628E-01
  4.318E-02  6.347E-01  6.913E-02 3.3388432E+00 2.8061334E-01 7.1524650E-01
  0.000E+00  7.052E-01  4.443E-02 3.3091140E+00 2.3668497E-01 7.6756811E-01
  4.318E-02  6.815E-01  5.207E-02 3.3101723E+00 2.4448038E-01 7.2820293E-01
  0.000E+00  7.532E-01  3.092E-02 3.3016979E+00 1.9854247E-01 7.7873573E-01
  4.318E-02  7.292E-01  3.738E-02 3.3064627E+00 2.0822066E-01 7.3974047E-01
  0.000E+00  8.019E-01  1.983E-02 3.2851423E+00 1.5953230E-01 7.8770200E-01
  4.318E-02  7.775E-01  2.507E-02 3.2944286E+00 1.7136391E-01 7.4942085E-01
  0.000E+00  8.510E-01  1.117E-02 3.2674669E+00 1.1978128E-01 7.9444239E-01
  4.318E-02  8.264E-01  1.519E-02 3.2762357E+00 1.3363363E-01 7.5689247E-01
  0.000E+00  9.004E-01  4.969E-03 3.2555722E+00 7.9813313E-02 7.9926266E-01
  4.318E-02  8.757E-01  7.761E-03 3.2607599E+00 9.5455831E-02 7.6239374E-01
  4.318E-02  9.253E-01  2.796E-03 3.2518867E+00 5.7239727E-02 7.6613867E-01
  1.000E+01  1.050E+00  1.243E-03 3.2500491E+00 -3.9888305E-02 8.0225091E-01
  1.000E+01  1.000E+00  5.551E-16 3.2486096E+00 -8.6576691E-08 8.0327416E-01
  9.957E+00  1.025E+00  3.108E-04 3.2484357E+00 -2.0811629E-02 8.3802127E-01
  1.000E+01  9.502E-01  1.243E-03 3.2500484E+00 3.9888132E-02 8.0225091E-01
  9.957E+00  9.751E-01  3.108E-04 3.2484354E+00 2.0811442E-02 8.3802127E-01
  1.000E+01  9.004E-01  4.969E-03 3.2555722E+00 7.9813313E-02 7.9926266E-01
  9.957E+00  9.253E-01  2.796E-03 3.2518849E+00 6.2452369E-02 8.3591233E-01
  1.000E+01  8.510E-01  1.117E-02 3.2674669E+00 1.1978128E-01 7.9444239E-01
  9.957E+00  8.757E-01  7.761E-03 3.2607580E+00 1.0414883E-01 8.3182627E-01
  1.000E+01  8.019E-01  1.983E-02 3.2851423E+00 1.5953230E-01 7.8770200E-01
  9.957E+00  8.264E-01  1.519E-02 3.2762338E+00 1.4580368E-01 8.2582398E-01
  1.000E+01  7.532E-01  3.092E-02 3.3016979E+00 1.9854247E-01 7.7873573E-01
  9.957E+00  7.775E-01  2.507E-02 3.2944268E+00 1.8697043E-01 8.1767201E-01
  1.000E+01  7.052E-01  4.443E-02 3.3091140E+00 2.3668497E-01 7.6756811E-01
  9.957E+00  7.292E-01  3.738E-02 3.3064609E+00 2.2718408E-01 8.0711016E-01
  1.000E+01  6.580E-01  6.031E-02 3.3205633E+00 2.7451179E-01 7.5474628E-01
  9.957E+00  6.815E-01  5.207E-02 3.3101705E+00 2.6674607E-01 7.9452185E-01
  1.000E+01  6.116E-01  7.852E-02 3.3542263E+00 3.1208313E-01 7.4035709E-01
  9.957E+00  6.347E-01  6.913E-02 3.3388414E+00 3.0616944E-01 7.8038521E-01
  1.000E+01  5.661E-01  9.903E-02 3.3627218E+00 3.4863615E-01 7.2386837E-01
  9.957E+00  5.887E-01  8.849E-02 3.3646399E+00 3.4491707E-01 7.6430668E-01
  1.000E+01  5.217E-01  1.218E-01 3.3806001E+00 3.8418334E-01 7.0550910E-01
  9.957E+00  5.438E-01  1.101E-01 3.3626318E+00 3.8248639E-01 7.4605456E-01
  1.000E+01  4.786E-01  1.467E-01 3.4062905E+00 4.1890927E-01 6.8552313E-01
  9.957E+00  5.000E-01  1.340E-01 3.3966320E+00 4.1917299E-01 7.2605814E-01
  1.000E+01  4.367E-01  1.738E-01 3.4034127E+00 4.5256178E-01 6.6378458E-01
  9.957E+00  4.575E-01  1.600E-01 3.3963155E+00 4.5488128E-01 7.0429148E-01
  1.000E+01  3.962E-01  2.029E-01 3.4243984E+00 4.8507891E-01 6.4039393E-01
  9.957E+00  4.163E-01  1.881E-01 3.4274446E+00 4.8940538E-01 6.8072279E-01
  1.000E+01  3.572E-01  2.340E-01 3.4320179E+00 5.1640270E-01 6.1542493E-01
  9.957E+00  3.765E-01  2.182E-01 3.4183959E+00 5.2273370E-01 6.5548728E-01
  1.000E+01  3.198E-01  2.669E-01 3.4334751E+00 5.4643493E-01 5.8891773E-01
  9.957E+00  3.383E-01  2.502E-01 3.4348311E+00 5.5475695E-01 6.2861712E-01
  1.000E+01  2.841E-01  3.018E-01 3.4347751E+00 5.7511142E-01 5.6094760E-01
  9.957E+00  3.018E-01  2.841E-01 3.4347824E+00 5.8540092E-01 6.0018244E-01
  1.000E+01  2.502E-01  3.383E-01 3.4348235E+00 6.0235831E-01 5.3158365E-01
  9.957E+00  2.669E-01  3.198E-01 3.4334821E+00 6.1459030E-01 5.7025581E-01
  1.000E+01  2.182E-01  3.765E-01 3.4183880E+00 6.2810614E-01 5.0089815E-01
  9.957E+00  2.340E-01  3.572E-01 3.4320246E+00 6.4225305E-01 5.3891438E-01
  1.000E+01  1.881E-01  4.163E-01 3.4274366E+00 6.5228757E-01 4.6896204E-01
  9.957E+00  2.029E-01  3.962E-01 3.4244048E+00 6.6831071E-01 5.0622515E-01
  1.000E+01  1.600E-01  4.575E-01 3.3963071E+00 6.7487154E-01 4.3587992E-01
  9.957E+00  1.738E-01  4.367E-01 3.4034188E+00 6.9272092E-01 4.7229039E-01
  1.000E+01  1.340E-01  5.000E-01 3.3966232E+00 6.9572893E-01 4.0166318E-01
  9.957E+00  1.467E-01  4.786E-01 3.4062961E+00 7.1540703E-01 4.3717078E-01
  1.000E+01  1.101E-01  5.438E-01 3.3626227E+00 7.1489001E-01 3.6650918E-01
  9.957E+00  1.218E-01  5.217E-01 3.3806055E+00 7.3626419E-01 4.0093113E-01
  1.000E+01  8.849E-02  5.887E-01 3.3646308E+00 7.3238026E-01 3.3050930E-01
  9.957E+00  9.903E-02  5.661E-01 3.3627270E+00 7.5542414E-01 3.6383452E-01
  1.000E+01  6.913E-02  6.347E-01 3.3388320E+00 7.4778711E-01 2.9338011E-01
  9.957E+00  7.852E-02  6.116E-01 3.3542311E+00 7.7263200E-01 3.2568797E-01
  1.000E+01  5.207E-02  6.815E-01 3.3101608E+00 7.6133273E-01 2.5560335E-01
  9.957E+00  6.031E-02  6.580E-01 3.3205673E+00 7.8764816E-01 2.8647863E-01
  1.000E+01  3.738E-02  7.292E-01 3.3064509E+00 7.7339516E-01 2.1769400E-01
  9.957E+00  4.443E-02  7.052E-01 3.3091174E+00 8.0102861E-01 2.4700266E-01
  1.000E+01  2.507E-02  7.775E-01 3.2944164E+00 7.8351591E-01 1.7916040E-01
  9.957E+00  3.092E-02  7.532E-01 3.3017008E+00 8.1268296E-01 2.0719731E-01
  1.000E+01  1.519E-02  8.264E-01 3.2762231E+00 7.9132739E-01 1.3971349E-01
  9.957E+00  1.983E-02  8.019E-01 3.2851451E+00 8.2204011E-01 1.6648661E-01
  1.000E+01  7.761E-03  8.757E-01 3.2607470E+00 7.9707899E-01 9.9798716E-02
  9.957E+00  1.117E-02  8.510E-01 3.2674696E+00 8.2907449E-01 1.2500284E-01
  1.000E+01  2.796E-03  9.253E-01 3.2518737E+00 8.0099445E-01 5.9843930E-02
  9.957E+00  4.969E-03  9.004E-01 3.2555749E+00 8.3410507E-01 8.3292638E-02
  1.000E+01  3.108E-04  9.751E-01 3.2484240E+00 8.0301536E-01 1.9942282E-02
  9.957E+00  1.243E-03  9.502E-01 3.2500508E+00 8.3722371E-01 4.1627048E-02
  1.000E+01  3.108E-04  1.025E+00 3.2484241E+00 8.0301539E-01 -1.9942280E-02
  9.957E+00  0.000E+00  1.000E+00 3.2486117E+00 8.3829161E-01 -1.2966173E-08
  1.000E+01  2.796E-03  1.075E+00 3.2518739E+00 8.0099454E-01 -5.9843930E-02
  9.957E+00  1.243E-03  1.050E+00 3.2500510E+00 8.3722376E-01 -4.1627073E-02
  1.000E+01  7.761E-03  1.124E+00 3.2607473E+00 7.9707912E-01 -9.9798721E-02
  9.957E+00  4.969E-03  1.100E+00 3.2555751E+00 8.3410517E-01 -8.3292661E-02
  1.000E+01  1.519E-02  1.174E+00 3.2762235E+00 7.9132743E-01 -1.3971351E-01
  9.957E+00  1.117E-02  1.149E+00 3.2674700E+00 8.2907458E-01 -1.2500286E-01
  1.000E+01  2.507E-02  1.223E+00 3.2944169E+00 7.8351581E-01 -1.7916042E-01
  9.957E+00  1.983E-02  1.198E+00 3.2851456E+00 8.2204007E-01 -1.6648663E-01
  1.000E+01  3.738E-02  1.271E+00 3.3064516E+00 7.7339517E-01 -2.1769401E-01
  9.957E+00  3.092E-02  1.247E+00 3.3017014E+00 8.1268287E-01 -2.0719734E-01
  1.000E+01  5.207E-02  1.318E+00 3.3101617E+00 7.6133303E-01 -2.5560336E-01
  9.957E+00  4.443E-02  1.295E+00 3.3091181E+00 8.0102882E-01 -2.4700269E-01
  1.000E+01  6.913E-02  1.365E+00 3.3388330E+00 7.4778709E-01 -2.9338012E-01
  9.957E+00  6.031E-02  1.342E+00 3.3205682E+00 7.8764840E-01 -2.8647866E-01
  1.000E+01  8.849E-02  1.411E+00 3.3646318E+00 7.3238016E-01 -3.3050930E-01
  9.957E+00  7.852E-02  1.388E+00 3.3542321E+00 7.7263184E-01 -3.2568800E-01
  1.000E+01  1.101E-01  1.456E+00 3.3626239E+00 7.1489031E-01 -3.6650919E-01
  9.957E+00  9.903E-02  1.434E+00 3.3627281E+00 7.5542433E-01 -3.6383455E-01
  1.000E+01  1.340E-01  1.500E+00 3.3966245E+00 6.9572885E-01 -4.0166319E-01
  9.957E+00  1.218E-01  1.478E+00 3.3806067E+00 7.3626437E-01 -4.0093116E-01
  1.000E+01  1.600E-01  1.543E+00 3.3963085E+00 6.7487160E-01 -4.3587992E-01
  9.957E+00  1.467E-01  1.521E+00 3.4062974E+00 7.1540698E-01 -4.3717082E-01
  1.000E+01  1.881E-01  1.584E+00 3.4274381E+00 6.5228761E-01 -4.6896204E-01
  9.957E+00  1.738E-01  1.563E+00 3.4034202E+00 6.9272112E-01 -4.7229044E-01
  1.000E+01  2.182E-01  1.623E+00 3.4183896E+00 6.2810615E-01 -5.0089815E-01
  9.957E+00  2.029E-01  1.604E+00 3.4244063E+00 6.6831074E-01 -5.0622519E-01
  1.000E+01  2.502E-01  1.662E+00 3.4348251E+00 6.0235836E-01 -5.3158364E-01
  9.957E+00  2.340E-01  1.643E+00 3.4320262E+00 6.4225319E-01 -5.3891443E-01
  1.000E+01  2.841E-01  1.698E+00 3.4347768E+00 5.7511146E-01 -5.6094760E-01
  9.957E+00  2.669E-01  1.680E+00 3.4334838E+00 6.1459037E-01 -5.7025586E-01
  1.000E+01  3.198E-01  1.733E+00 3.4334770E+00 5.4643502E-01 -5.8891773E-01
  9.957E+00  3.018E-01  1.716E+00 3.4347841E+00 5.8540102E-01 -6.0018250E-01
  1.000E+01  3.572E-01  1.766E+00 3.4320198E+00 5.1640278E-01 -6.1542493E-01
  9.957E+00  3.383E-01  1.750E+00 3.4348329E+00 5.5475703E-01 -6.2861718E-01
  1.000E+01  3.962E-01  1.797E+00 3.4244003E+00 4.8507896E-01 -6.4039394E-01
  9.957E+00  3.765E-01  1.782E+00 3.4183978E+00 5.2273381E-01 -6.5548733E-01
  1.000E+01  4.367E-01  1.826E+00 3.4034146E+00 4.5256182E-01 -6.6378460E-01
  9.957E+00  4.163E-01  1.812E+00 3.4274467E+00 4.8940550E-01 -6.8072284E-01
  1.000E+01  4.786E-01  1.853E+00 3.4062925E+00 4.1890937E-01 -6.8552318E-01
  9.957E+00  4.575E-01  1.840E+00 3.3963175E+00 4.5488138E-01 -7.0429153E-01
  1.000E+01  5.217E-01  1.878E+00 3.3806025E+00 3.8418349E-01 -7.0550916E-01
  9.957E+00  5.000E-01  1.866E+00 3.3966340E+00 4.1917301E-01 -7.2605819E-01
  1.000E+01  5.661E-01  1.901E+00 3.3627243E+00 3.4863634E-01 -7.2386843E-01
  9.957E+00  5.438E-01  1.890E+00 3.3626337E+00 3.8248641E-01 -7.4605460E-01
  1.000E+01  6.116E-01  1.921E+00 3.3542286E+00 3.1208332E-01 -7.4035714E-01
  9.957E+00  5.887E-01  1.912E+00 3.3646419E+00 3.4491711E-01 -7.6430670E-01
  1.000E+01  6.580E-01  1.940E+00 3.3205651E+00 2.7451200E-01 -7.5474634E-01
  9.957E+00  6.347E-01  1.931E+00 3.3388437E+00 3.0616949E-01 -7.8038524E-01
  1.000E+01  7.052E-01  1.956E+00 3.3091156E+00 2.3668505E-01 -7.6756816E-01
  9.957E+00  6.815E-01  1.948E+00 3.3101732E+00 2.6674612E-01 -7.9452190E-01
  1.000E+01  7.532E-01  1.969E+00 3.3016998E+00 1.9854227E-01 -7.7873574E-01
  9.957E+00  7.292E-01  1.963E+00 3.3064636E+00 2.2718422E-01 -8.0711024E-01
  1.000E+01  8.019E-01  1.980E+00 3.2851446E+00 1.5953186E-01 -7.8770195E-01
  9.957E+00  7.775E-01  1.975E+00 3.2944293E+00 1.8697073E-01 -8.1767213E-01
  1.000E+01  8.510E-01  1.989E+00 3.2674694E+00 1.1978078E-01 -7.9444228E-01
  9.957E+00  8.264E-01  1.985E+00 3.2762361E+00 1.4580410E-01 -8.2582414E-01
  1.000E+01  9.004E-01  1.995E+00 3.2555747E+00 7.9812931E-02 -7.9926251E-01
  9.957E+00  8.757E-01  1.992E+00 3.2607602E+00 1.0414924E-01 -8.3182645E-01
  1.000E+01  9.502E-01  1.999E+00 3.2500508E+00 3.9887961E-02 -8.0225074E-01
  9.957E+00  9.253E-01  1.997E+00 3.2518872E+00 6.2452666E-02 -8.3591254E-01
  1.000E+01  1.000E+00  2.000E+00 3.2486119E+00 -3.0633818E-08 -8.0327397E-01
  9.957E+00  9.751E-01  2.000E+00 3.2484377E+00 2.0811582E-02 -8.3802150E-01
  1.000E+01  1.050E+00  1.999E+00 3.2500515E+00 -3.9888023E-02 -8.0225074E-01
  9.957E+00  1.025E+00  2.000E+00 3.2484380E+00 -2.0811657E-02 -8.3802150E-01
  1.000E+01  1.100E+00  1.995E+00 3.2555761E+00 -7.9812993E-02 -7.9926251E-01
  9.957E+00  1.075E+00  1.997E+00 3.2518882E+00 -6.2452742E-02 -8.3591254E-01
  1.000E+01  1.149E+00  1.989E+00 3.2674714E+00 -1.1978084E-01 -7.9444229E-01
  9.957E+00  1.124E+00  1.992E+00 3.2607619E+00 -1.0414932E-01 -8.3182646E-01
  1.000E+01  1.198E+00  1.980E+00 3.2851472E+00 -1.5953192E-01 -7.8770196E-01
  9.957E+00  1.174E+00  1.985E+00 3.2762384E+00 -1.4580418E-01 -8.2582415E-01