# TIME = 5.200000
variables = x, y, z
zone N=5762 E=11520 F=FEPOINT ET=TRIANGLE
 5.8779246E+00 1.4272924E+00 1.6910465E+00
 5.8779246E+00 1.4272924E+00 3.0895382E-01
 5.8779246E+00 5.7270866E-01 1.6910466E+00
 5.8779247E+00 5.7270863E-01 3.0895370E-01
 4.3920763E+00 1.0000005E+00 1.6653244E+00
 7.3636920E+00 1.0000005E+00 1.6629010E+00
 4.3920762E+00 1.0000005E+00 3.3467580E-01
 7.3636920E+00 1.0000005E+00 3.3709941E-01
 5.0490587E+00 1.8443815E+00 1.0000001E+00
 5.0490587E+00 1.5561974E-01 1.0000001E+00
 6.7050406E+00 1.8226421E+00 1.0000001E+00
 6.7050406E+00 1.7735882E-01 1.0000001E+00
 5.8257640E+00 1.4200217E+00 1.6967017E+00
 5.7681889E+00 1.4121018E+00 1.7033436E+00
 5.7079950E+00 1.4039834E+00 1.7106697E+00
 5.6453987E+00 1.3955719E+00 1.7187220E+00
 5.5806497E+00 1.3868025E+00 1.7274410E+00
 5.5140137E+00 1.3775462E+00 1.7367256E+00
 5.4457360E+00 1.3676460E+00 1.7464040E+00
 5.3760908E+00 1.3569152E+00 1.7562310E+00
 5.3053797E+00 1.3451495E+00 1.7658880E+00
 5.2339375E+00 1.3321401E+00 1.7749904E+00
 5.1621307E+00 1.3176889E+00 1.7831046E+00
 5.0903570E+00 1.3016260E+00 1.7897712E+00
 5.0190437E+00 1.2838262E+00 1.7945346E+00
 4.9486447E+00 1.2642225E+00 1.7969725E+00
 4.8796325E+00 1.2428159E+00 1.7967264E+00
 4.8124859E+00 1.2196783E+00 1.7935260E+00
 4.7476719E+00 1.1949490E+00 1.7872060E+00
 4.6856290E+00 1.1688252E+00 1.7777139E+00
 4.6267518E+00 1.1415502E+00 1.7651088E+00
 4.5713823E+00 1.1133975E+00 1.7495538E+00
 4.5198255E+00 1.0846744E+00 1.7313155E+00
 4.4723222E+00 1.0557064E+00 1.7107346E+00
 4.4291578E+00 1.0269535E+00 1.6882820E+00
 5.8196108E+00 6.0950486E-01 1.7138232E+00
 5.7602470E+00 6.1913199E-01 1.7210146E+00
 5.6986253E+00 6.2862702E-01 1.7286774E+00
 5.6350515E+00 6.3830625E-01 1.7369281E+00
 5.5695746E+00 6.4842934E-01 1.7457990E+00
 5.5024013E+00 6.5915386E-01 1.7551767E+00
 5.4337655E+00 6.7064640E-01 1.7648676E+00
 5.3639424E+00 6.8308108E-01 1.7745956E+00
 5.2932461E+00 6.9664189E-01 1.7840130E+00
 5.2220244E+00 7.1150829E-01 1.7927118E+00
 5.1506550E+00 7.2783977E-01 1.8002440E+00
 5.0795428E+00 7.4575979E-01 1.8061470E+00
 5.0091176E+00 7.6534183E-01 1.8099745E+00
 4.9398290E+00 7.8659947E-01 1.8113261E+00
 4.8721378E+00 8.0948225E-01 1.8098767E+00
 4.8065021E+00 8.3387842E-01 1.8053967E+00
 4.7433605E+00 8.5962413E-01 1.7977662E+00
 4.6831116E+00 8.8651615E-01 1.7869754E+00
 4.6260922E+00 9.1431945E-01 1.7731148E+00
 4.5725220E+00 9.4275947E-01 1.7563387E+00
 4.5223961E+00 9.7149784E-01 1.7367870E+00
 4.4753142E+00 1.0000005E+00 1.7144486E+00
 5.8174283E+00 6.3996175E-01 1.7297017E+00
 5.7557597E+00 6.5133020E-01 1.7372865E+00
 5.6926924E+00 6.6222104E-01 1.7451210E+00
 5.6279355E+00 6.7330017E-01 1.7534918E+00
 5.5615572E+00 6.8487683E-01 1.7624145E+00
 5.4936698E+00 6.9715966E-01 1.7717768E+00
 5.4244962E+00 7.1031249E-01 1.7813573E+00
 5.3543145E+00 7.2450065E-01 1.7908525E+00
 5.2834514E+00 7.3988637E-01 1.7998873E+00
 5.2122690E+00 7.5661879E-01 1.8080318E+00
 5.1411570E+00 7.7481789E-01 1.8148252E+00
 5.0705292E+00 7.9456100E-01 1.8198038E+00
 5.0008180E+00 8.1587175E-01 1.8225332E+00
 4.9324689E+00 8.3871536E-01 1.8226375E+00
 4.8659290E+00 8.6300014E-01 1.8198264E+00
 4.8016309E+00 8.8858712E-01 1.8139114E+00
 4.7399687E+00 9.1530348E-01 1.8048120E+00
 4.6812572E+00 9.4295207E-01 1.7925407E+00
 4.6256450E+00 9.7129605E-01 1.7771567E+00
 4.5729574E+00 1.0000005E+00 1.7586625E+00
 4.5223960E+00 1.0285033E+00 1.7367870E+00
 5.8159591E+00 6.7197805E-01 1.7446820E+00
 5.7528501E+00 6.8475499E-01 1.7522931E+00
 5.6884637E+00 6.9707416E-01 1.7601592E+00
 5.6226340E+00 7.0959369E-01 1.7685077E+00
 5.5553456E+00 7.2269178E-01 1.7773545E+00
 5.4867229E+00 7.3658216E-01 1.7865589E+00
 5.4169818E+00 7.5143059E-01 1.7958757E+00
 5.3464147E+00 7.6738680E-01 1.8049731E+00
 5.2753636E+00 7.8458972E-01 1.8134513E+00
 5.2042051E+00 8.0315494E-01 1.8208623E+00
 5.1333410E+00 8.2316171E-01 1.8267371E+00
 5.0631914E+00 8.4464144E-01 1.8306165E+00
 4.9941891E+00 8.6757162E-01 1.8320831E+00
 4.9267702E+00 8.9187650E-01 1.8307903E+00
 4.8613593E+00 9.1743558E-01 1.8264846E+00
 4.7983453E+00 9.4409757E-01 1.8190144E+00
 4.7380331E+00 9.7168990E-01 1.8083203E+00
 4.6805478E+00 1.0000006E+00 1.7943908E+00
 4.6256450E+00 1.0287050E+00 1.7771567E+00
 4.5725220E+00 1.0572416E+00 1.7563387E+00
 5.8147775E+00 7.0559981E-01 1.7586394E+00
 5.7505064E+00 7.1967527E-01 1.7660820E+00
 5.6850298E+00 7.3337461E-01 1.7738054E+00
 5.6182440E+00 7.4735556E-01 1.7819844E+00
 5.5501543E+00 7.6199383E-01 1.7905978E+00
 5.4808895E+00 7.7750508E-01 1.7994778E+00
 5.4106826E+00 7.9404287E-01 1.8083513E+00
 5.3398409E+00 8.1173875E-01 1.8168616E+00
 5.2687223E+00 8.3070297E-01 1.8245886E+00
 5.1977165E+00 8.5101527E-01 1.8310726E+00
 5.1272330E+00 8.7271298E-01 1.8358442E+00
 5.0576938E+00 8.9578423E-01 1.8384561E+00
 4.9895240E+00 9.2016698E-01 1.8385155E+00
 4.9231394E+00 9.4575657E-01 1.8357087E+00
 4.8589230E+00 9.7241890E-01 1.8298170E+00
 4.7971793E+00 1.0000005E+00 1.8207119E+00
 4.7380331E+00 1.0283112E+00 1.8083203E+00
 4.6812572E+00 1.0570490E+00 1.7925408E+00
 4.6260922E+00 1.0856817E+00 1.7731149E+00
 5.8137178E+00 7.4085629E-01 1.7714282E+00
 5.7484261E+00 7.5615225E-01 1.7785441E+00
 5.6820206E+00 7.7119999E-01 1.7859684E+00
 5.6144360E+00 7.8662970E-01 1.7938174E+00
 5.5457012E+00 8.0279736E-01 1.8020276E+00
 5.4759625E+00 8.1990343E-01 1.8104007E+00
 5.4054690E+00 8.3808439E-01 1.8186383E+00
 5.3345445E+00 8.5744687E-01 1.8263631E+00
 5.2635595E+00 8.7806960E-01 1.8331416E+00
 5.1929117E+00 8.9999425E-01 1.8385107E+00
 5.1230128E+00 9.2321811E-01 1.8420095E+00
 5.0542776E+00 9.4769177E-01 1.8432112E+00
 4.9871117E+00 9.7332528E-01 1.8417524E+00
 4.9218921E+00 1.0000005E+00 1.8373525E+00
 4.8589230E+00 1.0275822E+00 1.8298170E+00
 4.7983453E+00 1.0559035E+00 1.8190144E+00
 4.7399687E+00 1.0846976E+00 1.8048120E+00
 4.6831116E+00 1.1134850E+00 1.7869754E+00
 5.8127444E+00 7.7768178E-01 1.7828665E+00
 5.7465612E+00 7.9413616E-01 1.7895132E+00
 5.6793838E+00 8.1049560E-01 1.7964866E+00
 5.6111752E+00 8.2734006E-01 1.8038408E+00
 5.5419849E+00 8.4499357E-01 1.8114711E+00
 5.4719760E+00 8.6363283E-01 1.8191503E+00
 5.4014132E+00 8.8337060E-01 1.8265588E+00
 5.3306321E+00 9.0428530E-01 1.8333051E+00
 5.2600116E+00 9.2642150E-01 1.8389507E+00
 5.1899508E+00 9.4978429E-01 1.8430379E+00
 5.1208544E+00 9.7433590E-01 1.8451229E+00
 5.0531184E+00 1.0000005E+00 1.8448052E+00
 4.9871117E+00 1.0266758E+00 1.8417524E+00
 4.9231394E+00 1.0542445E+00 1.8357088E+00
 4.8613593E+00 1.0825655E+00 1.8264846E+00
 4.8016308E+00 1.1114140E+00 1.8139114E+00
 4.7433605E+00 1.1403770E+00 1.7977662E+00
 5.8118783E+00 8.1594062E-01 1.7927618E+00
 5.7449482E+00 8.3349335E-01 1.7988056E+00
 5.6771706E+00 8.5111017E-01 1.8051773E+00
 5.6085299E+00 8.6930954E-01 1.8118720E+00
 5.5390916E+00 8.8837301E-01 1.8187465E+00
 5.4690335E+00 9.0844741E-01 1.8255494E+00
 5.3986311E+00 9.2961796E-01 1.8319459E+00
 5.3282280E+00 9.5193236E-01 1.8375377E+00
 5.2582035E+00 9.7540224E-01 1.8418898E+00
 5.1889502E+00 1.0000005E+00 1.8445583E+00
 5.1208544E+00 1.0256652E+00 1.8451229E+00
 5.0542776E+00 1.0523093E+00 1.8432112E+00
 4.9895240E+00 1.0798341E+00 1.8385155E+00
 4.9267702E+00 1.1081246E+00 1.8307903E+00
 4.8659290E+00 1.1370010E+00 1.8198264E+00
 4.8065021E+00 1.1661227E+00 1.8053967E+00
 5.8111490E+00 8.5545001E-01 1.8009318E+00
 5.7436376E+00 8.7402489E-01 1.8062446E+00
 5.6754476E+00 8.9282148E-01 1.8118679E+00
 5.6065789E+00 9.1228605E-01 1.8177432E+00
 5.5371100E+00 9.3265024E-01 1.8236946E+00
 5.4672282E+00 9.5402666E-01 1.8294522E+00
 5.3972159E+00 9.7647078E-01 1.8346731E+00
 5.3274168E+00 1.0000005E+00 1.8389603E+00
 5.2582035E+00 1.0245989E+00 1.8418898E+00
 5.1899508E+00 1.0502168E+00 1.8430379E+00
 5.1230128E+00 1.0767830E+00 1.8420095E+00
 5.0576938E+00 1.1042169E+00 1.8384561E+00
 4.9941891E+00 1.1324295E+00 1.8320831E+00
 4.9324689E+00 1.1612857E+00 1.8226375E+00
 4.8721378E+00 1.1905189E+00 1.8098767E+00
 5.8105813E+00 8.9598370E-01 1.8072152E+00
 5.7426716E+00 9.1548208E-01 1.8116774E+00
 5.6742687E+00 9.3535400E-01 1.8164146E+00
 5.6053836E+00 9.5596360E-01 1.8213223E+00
 5.5361031E+00 9.7748710E-01 1.8261992E+00
 5.4666198E+00 1.0000005E+00 1.8307641E+00
 5.3972159E+00 1.0235303E+00 1.8346731E+00
 5.3282280E+00 1.0480687E+00 1.8375377E+00
 5.2600116E+00 1.0735796E+00 1.8389507E+00
 5.1929117E+00 1.1000068E+00 1.8385107E+00
 5.1272330E+00 1.1272881E+00 1.8358442E+00
 5.0631914E+00 1.1553597E+00 1.8306165E+00
 5.0008179E+00 1.1841293E+00 1.8225332E+00
 4.9398290E+00 1.2134016E+00 1.8113262E+00
 5.8101932E+00 9.3727789E-01 1.8114813E+00
 5.7420804E+00 9.5757825E-01 1.8149864E+00
 5.6736703E+00 9.7839440E-01 1.8187146E+00
 5.6049811E+00 1.0000005E+00 1.8225250E+00
 5.5361031E+00 1.0225140E+00 1.8261992E+00
 5.4672282E+00 1.0459744E+00 1.8294522E+00
 5.3986311E+00 1.0703831E+00 1.8319458E+00
 5.3306321E+00 1.0957158E+00 1.8333051E+00
 5.2635595E+00 1.1219315E+00 1.8331416E+00
 5.1977165E+00 1.1489858E+00 1.8310726E+00
 5.1333410E+00 1.1768394E+00 1.8267371E+00
 5.0705292E+00 1.2054401E+00 1.8198038E+00
 5.0091176E+00 1.2346593E+00 1.8099745E+00
 5.8099963E+00 9.7904031E-01 1.8136381E+00
 5.7418814E+00 1.0000005E+00 1.8160978E+00
 5.6736703E+00 1.0216067E+00 1.8187146E+00
 5.6053836E+00 1.0440375E+00 1.8213223E+00
 5.5371100E+00 1.0673508E+00 1.8236946E+00
 5.4690335E+00 1.0915537E+00 1.8255494E+00
 5.4014132E+00 1.1166305E+00 1.8265588E+00
 5.3345445E+00 1.1425542E+00 1.8263630E+00
 5.2687223E+00 1.1692981E+00 1.8245886E+00
 5.2042051E+00 1.1968462E+00 1.8208623E+00
 5.1411570E+00 1.2251832E+00 1.8148252E+00
 5.0795428E+00 1.2542413E+00 1.8061470E+00
 5.8099963E+00 1.0209608E+00 1.8136381E+00
 5.7420804E+00 1.0424228E+00 1.8149864E+00
 5.6742687E+00 1.0646471E+00 1.8164146E+00
 5.6065789E+00 1.0877150E+00 1.8177432E+00
 5.5390916E+00 1.1116281E+00 1.8187465E+00
 5.4719760E+00 1.1363683E+00 1.8191502E+00
 5.4054690E+00 1.1619167E+00 1.8186383E+00
 5.3398409E+00 1.1882623E+00 1.8168616E+00
 5.2753636E+00 1.2154114E+00 1.8134513E+00
 5.2122689E+00 1.2433823E+00 1.8080317E+00
 5.1506550E+00 1.2721613E+00 1.8002440E+00
 5.8101932E+00 1.0627232E+00 1.8114812E+00
 5.7426716E+00 1.0845190E+00 1.8116774E+00
 5.6754476E+00 1.1071796E+00 1.8118679E+00
 5.6085299E+00 1.1306916E+00 1.8118720E+00
 5.5419849E+00 1.1550075E+00 1.8114710E+00
 5.4759625E+00 1.1800977E+00 1.8104006E+00
 5.4106826E+00 1.2059582E+00 1.8083513E+00
 5.3464147E+00 1.2326143E+00 1.8049731E+00
 5.2834514E+00 1.2601147E+00 1.7998873E+00
 5.2220244E+00 1.2884928E+00 1.7927118E+00
 5.8105813E+00 1.1040174E+00 1.8072151E+00
 5.7436376E+00 1.1259762E+00 1.8062446E+00
 5.6771706E+00 1.1488909E+00 1.8051773E+00
 5.6111752E+00 1.1726610E+00 1.8038408E+00
 5.5457011E+00 1.1972037E+00 1.8020275E+00
 5.4808895E+00 1.2224960E+00 1.7994778E+00
 5.4169817E+00 1.2485705E+00 1.7958757E+00
 5.3543145E+00 1.2755004E+00 1.7908525E+00
 5.2932461E+00 1.3033592E+00 1.7840130E+00
 5.8111490E+00 1.1445511E+00 1.8009317E+00
 5.7449482E+00 1.1665077E+00 1.7988056E+00
 5.6793838E+00 1.1895055E+00 1.7964865E+00
 5.6144360E+00 1.2133714E+00 1.7938173E+00
 5.5501543E+00 1.2380073E+00 1.7905977E+00
 5.4867229E+00 1.2634189E+00 1.7865588E+00
 5.4244962E+00 1.2896886E+00 1.7813573E+00
 5.3639424E+00 1.3169200E+00 1.7745955E+00
 5.8118783E+00 1.1840605E+00 1.7927617E+00
 5.7465612E+00 1.2058649E+00 1.7895132E+00
 5.6820206E+00 1.2288011E+00 1.7859684E+00
 5.6182440E+00 1.2526455E+00 1.7819844E+00
 5.5553456E+00 1.2773093E+00 1.7773545E+00
 5.4936698E+00 1.3028414E+00 1.7717767E+00
 5.4337654E+00 1.3293547E+00 1.7648676E+00
 5.8127444E+00 1.2223193E+00 1.7828665E+00
 5.7484261E+00 1.2438488E+00 1.7785441E+00
 5.6850298E+00 1.2666265E+00 1.7738053E+00
 5.6226340E+00 1.2904074E+00 1.7685077E+00
 5.5615572E+00 1.3151242E+00 1.7624144E+00
 5.5024013E+00 1.3408472E+00 1.7551767E+00
 5.8137178E+00 1.2591448E+00 1.7714282E+00
 5.7505064E+00 1.2803258E+00 1.7660819E+00
 5.6884637E+00 1.3029269E+00 1.7601591E+00
 5.6279355E+00 1.3267009E+00 1.7534918E+00
 5.5695746E+00 1.3515717E+00 1.7457990E+00
 5.8147775E+00 1.2944013E+00 1.7586394E+00
 5.7528501E+00 1.3152461E+00 1.7522930E+00
 5.6926924E+00 1.3377800E+00 1.7451210E+00
 5.6350515E+00 1.3616948E+00 1.7369280E+00
 5.8159591E+00 1.3280230E+00 1.7446820E+00
 5.7557597E+00 1.3486709E+00 1.7372864E+00
 5.6986253E+00 1.3713740E+00 1.7286774E+00
 5.8174283E+00 1.3600393E+00 1.7297017E+00
 5.7602470E+00 1.3808691E+00 1.7210145E+00
 5.8196108E+00 1.3904962E+00 1.7138231E+00
 5.8779303E+00 1.4019000E+00 1.7060834E+00
 5.8779419E+00 1.3729458E+00 1.7217983E+00
 5.8779526E+00 1.3422785E+00 1.7368475E+00
 5.8779607E+00 1.3097882E+00 1.7510908E+00
 5.8779670E+00 1.2755424E+00 1.7643231E+00
 5.8779721E+00 1.2396638E+00 1.7763262E+00
 5.8779765E+00 1.2022826E+00 1.7868990E+00
 5.8779801E+00 1.1635650E+00 1.7958525E+00
 5.8779831E+00 1.1237186E+00 1.8030154E+00
 5.8779852E+00 1.0829880E+00 1.8082432E+00
 5.8779865E+00 1.0416492E+00 1.8114259E+00
 5.8779869E+00 1.0000005E+00 1.8124946E+00
 5.8779865E+00 9.5835188E-01 1.8114259E+00
 5.8779852E+00 9.1701310E-01 1.8082433E+00
 5.8779831E+00 8.7628250E-01 1.8030154E+00
 5.8779801E+00 8.3643608E-01 1.7958525E+00
 5.8779765E+00 7.9771852E-01 1.7868991E+00
 5.8779721E+00 7.6033726E-01 1.7763263E+00
 5.8779670E+00 7.2445869E-01 1.7643232E+00
 5.8779607E+00 6.9021283E-01 1.7510908E+00
 5.8779526E+00 6.5772257E-01 1.7368475E+00
 5.8779419E+00 6.2705530E-01 1.7217983E+00
 5.8779303E+00 5.9810102E-01 1.7060834E+00
 5.9300889E+00 5.8078602E-01 1.6953633E+00
 5.9876631E+00 5.8956211E-01 1.7005041E+00
 6.0478434E+00 5.9853809E-01 1.7062328E+00
 6.1104021E+00 6.0779986E-01 1.7125937E+00
 6.1750828E+00 6.1740029E-01 1.7195347E+00
 6.2416143E+00 6.2745180E-01 1.7269696E+00
 6.3097467E+00 6.3809068E-01 1.7347526E+00
 6.3792003E+00 6.4947779E-01 1.7426788E+00
 6.4496673E+00 6.6178746E-01 1.7504860E+00
 6.5208055E+00 6.7519681E-01 1.7578614E+00
 6.5922429E+00 6.8987305E-01 1.7644555E+00
 6.6635811E+00 7.0596102E-01 1.7698992E+00
 6.7344019E+00 7.2357072E-01 1.7738244E+00
 6.8042741E+00 7.4276771E-01 1.7758848E+00
 6.8727629E+00 7.6356591E-01 1.7757763E+00
 6.9394412E+00 7.8592540E-01 1.7732531E+00
 7.0039030E+00 8.0975386E-01 1.7681410E+00
 7.0657728E+00 8.3491245E-01 1.7603436E+00
 7.1247109E+00 8.6122265E-01 1.7498459E+00
 7.1804147E+00 8.8847692E-01 1.7367133E+00
 7.2325941E+00 9.1643118E-01 1.7210996E+00
 7.2809994E+00 9.4481607E-01 1.7032276E+00
 7.3253059E+00 9.7320688E-01 1.6834481E+00
 5.9362574E+00 1.3896581E+00 1.7122902E+00
 5.9956170E+00 1.3792224E+00 1.7178932E+00
 6.0572157E+00 1.3689302E+00 1.7238788E+00
 6.1207397E+00 1.3584753E+00 1.7303686E+00
 6.1861351E+00 1.3476096E+00 1.7373983E+00
 6.2531912E+00 1.3361923E+00 1.7448701E+00
 6.3216704E+00 1.3240777E+00 1.7526195E+00
 6.3912928E+00 1.3111165E+00 1.7604147E+00
 6.4617377E+00 1.2971517E+00 1.7679690E+00
 6.5326505E+00 1.2820309E+00 1.7749496E+00
 6.6036477E+00 1.2656181E+00 1.7809941E+00
 6.6743241E+00 1.2478060E+00 1.7857292E+00
 6.7442599E+00 1.2285264E+00 1.7887920E+00
 6.8130283E+00 1.2077572E+00 1.7898512E+00
 6.8802059E+00 1.1855252E+00 1.7886266E+00
 6.9453846E+00 1.1619047E+00 1.7849034E+00
 7.0081833E+00 1.1370100E+00 1.7785428E+00
 7.0682609E+00 1.1109876E+00 1.7694837E+00
 7.1253302E+00 1.0840120E+00 1.7577386E+00
 7.1792062E+00 1.0562987E+00 1.7433664E+00
 7.2299145E+00 1.0281303E+00 1.7264105E+00
 7.2778744E+00 1.0000005E+00 1.7067793E+00
 5.9384604E+00 1.3592395E+00 1.7280752E+00
 6.0001170E+00 1.3471078E+00 1.7339730E+00
 6.0631500E+00 1.3354846E+00 1.7400528E+00
 6.1278445E+00 1.3237073E+00 1.7465910E+00
 6.1941288E+00 1.3114796E+00 1.7536084E+00
 6.2618875E+00 1.2986094E+00 1.7610084E+00
 6.3308948E+00 1.2849533E+00 1.7686017E+00
 6.4008681E+00 1.2703688E+00 1.7761331E+00
 6.4714743E+00 1.2547176E+00 1.7832925E+00
 6.5423439E+00 1.2378720E+00 1.7897286E+00
 6.6130815E+00 1.2197282E+00 1.7950674E+00
 6.6832737E+00 1.2002164E+00 1.7989327E+00
 6.7524981E+00 1.1793088E+00 1.8009693E+00
 6.8203327E+00 1.1570228E+00 1.8008629E+00
 6.8863677E+00 1.1334197E+00 1.7983588E+00
 6.9502193E+00 1.1085965E+00 1.7932733E+00
 7.0115476E+00 1.0826757E+00 1.7854982E+00
 7.0700921E+00 1.0557992E+00 1.7749894E+00
 7.1257517E+00 1.0281476E+00 1.7617303E+00
 7.1787429E+00 1.0000005E+00 1.7456451E+00
 7.2299145E+00 9.7187080E-01 1.7264105E+00
 5.9399466E+00 1.3272780E+00 1.7429815E+00
 6.0030359E+00 1.3138007E+00 1.7488319E+00
 6.0673779E+00 1.3008220E+00 1.7548715E+00
 6.1331345E+00 1.2876898E+00 1.7613219E+00
 6.2003182E+00 1.2740389E+00 1.7682031E+00
 6.2688025E+00 1.2596722E+00 1.7753931E+00
 6.3383692E+00 1.2444435E+00 1.7826821E+00
 6.4087215E+00 1.2282236E+00 1.7897905E+00
 6.4795110E+00 1.2108934E+00 1.7963874E+00
 6.5503533E+00 1.1923529E+00 1.8021057E+00
 6.6208413E+00 1.1725315E+00 1.8065635E+00
 6.6905553E+00 1.1513971E+00 1.8093864E+00
 6.7590737E+00 1.1289593E+00 1.8102309E+00
 6.8259844E+00 1.1052694E+00 1.8088039E+00
 6.8908998E+00 1.0804121E+00 1.8048781E+00
 6.9534782E+00 1.0544939E+00 1.7982975E+00
 7.0134667E+00 1.0276372E+00 1.7889686E+00
 7.0707927E+00 1.0000005E+00 1.7768231E+00
 7.1257517E+00 9.7185351E-01 1.7617303E+00
 7.1792063E+00 9.4370239E-01 1.7433664E+00
 5.9411408E+00 1.2937207E+00 1.7568742E+00
 6.0053858E+00 1.2790173E+00 1.7624919E+00
 6.0708100E+00 1.2647406E+00 1.7683261E+00
 6.1375138E+00 1.2502407E+00 1.7745482E+00
 6.2054900E+00 1.2351556E+00 1.7811434E+00
 6.2746085E+00 1.2192858E+00 1.7879655E+00
 6.3446343E+00 1.2024957E+00 1.7947801E+00
 6.4152560E+00 1.1846714E+00 1.8012867E+00
 6.4861091E+00 1.1657177E+00 1.8071368E+00
 6.5567966E+00 1.1455642E+00 1.8119528E+00
 6.6269032E+00 1.1241750E+00 1.8153511E+00
 6.6960085E+00 1.1015533E+00 1.8169655E+00
 6.7636991E+00 1.0777413E+00 1.8164703E+00
 6.8295835E+00 1.0528132E+00 1.8135967E+00
 6.8933150E+00 1.0268637E+00 1.8081435E+00
 6.9546345E+00 1.0000005E+00 1.7999705E+00
 7.0134667E+00 9.7236389E-01 1.7889686E+00
 7.0700921E+00 9.4420190E-01 1.7749895E+00
 7.1253302E+00 9.1598908E-01 1.7577386E+00
 5.9422103E+00 1.2585360E+00 1.7696034E+00
 6.0074708E+00 1.2426923E+00 1.7748369E+00
 6.0738172E+00 1.2271576E+00 1.7803171E+00
 6.1413124E+00 1.2113108E+00 1.7861591E+00
 6.2099265E+00 1.1948095E+00 1.7923085E+00
 6.2795123E+00 1.1774686E+00 1.7985915E+00
 6.3498195E+00 1.1591674E+00 1.8047519E+00
 6.4205204E+00 1.1398131E+00 1.8104711E+00
 6.4912380E+00 1.1193368E+00 1.8153892E+00
 6.5615669E+00 1.0977002E+00 1.8191245E+00
 6.6310906E+00 1.0749003E+00 1.8212994E+00
 6.6993962E+00 1.0509709E+00 1.8215626E+00
 6.7660901E+00 1.0259764E+00 1.8196105E+00
 6.8308196E+00 1.0000005E+00 1.8151990E+00
 6.8933150E+00 9.7313734E-01 1.8081435E+00
 6.9534782E+00 9.4550716E-01 1.7982975E+00
 7.0115476E+00 9.1732543E-01 1.7854982E+00
 7.0682609E+00 8.8901349E-01 1.7694838E+00
 5.9431918E+00 1.2217892E+00 1.7809870E+00
 6.0093396E+00 1.2048746E+00 1.7857003E+00
 6.0764521E+00 1.1881260E+00 1.7906833E+00
 6.1445651E+00 1.1709731E+00 1.7959908E+00
 6.2136287E+00 1.1531051E+00 1.8015296E+00
 6.2834800E+00 1.1343591E+00 1.8070998E+00
 6.3538533E+00 1.1146351E+00 1.8124266E+00
 6.4244091E+00 1.0938645E+00 1.8171792E+00
 6.4947623E+00 1.0720074E+00 1.8209926E+00
 6.5645062E+00 1.0490556E+00 1.8234888E+00
 6.6332320E+00 1.0250351E+00 1.8243030E+00
 6.7005456E+00 1.0000005E+00 1.8231038E+00
 6.7660901E+00 9.7402467E-01 1.8196105E+00
 6.8295835E+00 9.4718788E-01 1.8135968E+00
 6.8908998E+00 9.1958901E-01 1.8048781E+00
 6.9502193E+00 8.9140460E-01 1.7932733E+00
 7.0081833E+00 8.6299104E-01 1.7785428E+00
 5.9440648E+00 1.1836158E+00 1.7908337E+00
 6.0109557E+00 1.1656969E+00 1.7949011E+00
 6.0786637E+00 1.1477950E+00 1.7992459E+00
 6.1472037E+00 1.1294014E+00 1.8038657E+00
 6.2165109E+00 1.1102467E+00 1.8086311E+00
 6.2864085E+00 1.0901957E+00 1.8133203E+00
 6.3566200E+00 1.0691728E+00 1.8176449E+00
 6.4267986E+00 1.0471357E+00 1.8212682E+00
 6.4965582E+00 1.0240722E+00 1.8238271E+00
 6.5654995E+00 1.0000005E+00 1.8249544E+00
 6.6332320E+00 9.7496600E-01 1.8243030E+00
 6.6993962E+00 9.4903020E-01 1.8215626E+00
 6.7636991E+00 9.2225977E-01 1.8164703E+00
 6.8259844E+00 8.9473166E-01 1.8088039E+00
 6.8863677E+00 8.6658141E-01 1.7983588E+00
 6.9453846E+00 8.3809641E-01 1.7849035E+00
 5.9447996E+00 1.1441980E+00 1.7989626E+00
 6.0122687E+00 1.1253567E+00 1.8022654E+00
 6.0803852E+00 1.1063840E+00 1.8058364E+00
 6.1491496E+00 1.0868430E+00 1.8096212E+00
 6.2184848E+00 1.0665127E+00 1.8134597E+00
 6.2882050E+00 1.0452897E+00 1.8171134E+00
 6.3580274E+00 1.0231246E+00 1.8202863E+00
 6.4276048E+00 1.0000005E+00 1.8226424E+00
 6.4965582E+00 9.7592894E-01 1.8238271E+00
 6.5645062E+00 9.5094551E-01 1.8234888E+00
 6.6310906E+00 9.2510083E-01 1.8212994E+00
 6.6960085E+00 8.9844776E-01 1.8169655E+00
 6.7590737E+00 8.7104177E-01 1.8102309E+00
 6.8203327E+00 8.4297831E-01 1.8008629E+00
 6.8802059E+00 8.1447587E-01 1.7886267E+00
 5.9453716E+00 1.1037612E+00 1.8052140E+00
 6.0132364E+00 1.0841004E+00 1.8076429E+00
 6.0815630E+00 1.0641644E+00 1.8103142E+00
 6.1503417E+00 1.0435978E+00 1.8131292E+00
 6.2194878E+00 1.0222330E+00 1.8159035E+00
 6.2888105E+00 1.0000005E+00 1.8183882E+00
 6.3580274E+00 9.7687645E-01 1.8202863E+00
 6.4267986E+00 9.5286535E-01 1.8212682E+00
 6.4947623E+00 9.2799372E-01 1.8209926E+00
 6.5615669E+00 9.0230090E-01 1.8191245E+00
 6.6269032E+00 8.7582606E-01 1.8153511E+00
 6.6905553E+00 8.4860403E-01 1.8093864E+00
 6.7524981E+00 8.2069232E-01 1.8009694E+00
 6.8130283E+00 7.9224393E-01 1.7898513E+00
 5.9457627E+00 1.0625678E+00 1.8094581E+00
 6.0138286E+00 1.0422118E+00 1.8109179E+00
 6.0821608E+00 1.0214449E+00 1.8125792E+00
 6.1507431E+00 1.0000005E+00 1.8143078E+00
 6.2194878E+00 9.7776808E-01 1.8159035E+00
 6.2882050E+00 9.5471138E-01 1.8171134E+00
 6.3566200E+00 9.3082829E-01 1.8176449E+00
 6.4244091E+00 9.0613656E-01 1.8171793E+00
 6.4912380E+00 8.8066426E-01 1.8153892E+00
 6.5567966E+00 8.5443691E-01 1.8119528E+00
 6.6208413E+00 8.2746954E-01 1.8065635E+00
 6.6832737E+00 7.9978467E-01 1.7989328E+00
 6.7442599E+00 7.7147465E-01 1.7887920E+00
 5.9459611E+00 1.0209087E+00 1.8116037E+00
 6.0140280E+00 1.0000005E+00 1.8120179E+00
 6.0821608E+00 9.7855619E-01 1.8125792E+00
 6.1503417E+00 9.5640331E-01 1.8131292E+00
 6.2184848E+00 9.3348841E-01 1.8134597E+00
 6.2864085E+00 9.0980541E-01 1.8133203E+00
 6.3538533E+00 8.8536601E-01 1.8124266E+00
 6.4205204E+00 8.6018802E-01 1.8104711E+00
 6.4861091E+00 8.3428341E-01 1.8071368E+00
 6.5503533E+00 8.0764821E-01 1.8021057E+00
 6.6130815E+00 7.8027285E-01 1.7950674E+00
 6.6743242E+00 7.5219503E-01 1.7857292E+00
 5.9459611E+00 9.7909238E-01 1.8116037E+00
 6.0138286E+00 9.5778927E-01 1.8109179E+00
 6.0815630E+00 9.3583667E-01 1.8103142E+00
 6.1491496E+00 9.1315810E-01 1.8096212E+00
 6.2165109E+00 8.8975441E-01 1.8086311E+00
 6.2834800E+00 8.6564202E-01 1.8070998E+00
 6.3498195E+00 8.4083374E-01 1.8047519E+00
 6.4152560E+00 8.1532964E-01 1.8012867E+00
 6.4795110E+00 7.8910769E-01 1.7963875E+00
 6.5423440E+00 7.6212910E-01 1.7897286E+00
 6.6036477E+00 7.3438298E-01 1.7809942E+00
 5.9457627E+00 9.3743327E-01 1.8094581E+00
 6.0132364E+00 9.1590069E-01 1.8076429E+00
 6.0803852E+00 8.9361710E-01 1.8058364E+00
 6.1472037E+00 8.7059965E-01 1.8038657E+00
 6.2136286E+00 8.4689597E-01 1.8015296E+00
 6.2795123E+00 8.2253249E-01 1.7985916E+00
 6.3446343E+00 7.9750537E-01 1.7947801E+00
 6.4087215E+00 7.7177745E-01 1.7897905E+00
 6.4714743E+00 7.4528352E-01 1.7832926E+00
 6.5326505E+00 7.1797020E-01 1.7749496E+00
 5.9453716E+00 8.9623990E-01 1.8052140E+00
 6.0122687E+00 8.7464438E-01 1.8022654E+00
 6.0786637E+00 8.5220605E-01 1.7992459E+00
 6.1445651E+00 8.2902794E-01 1.7959908E+00
 6.2099265E+00 8.0519162E-01 1.7923085E+00
 6.2746085E+00 7.8071532E-01 1.7879655E+00
 6.3383692E+00 7.5555761E-01 1.7826821E+00
 6.4008681E+00 7.2963227E-01 1.7761331E+00
 6.4617377E+00 7.0284940E-01 1.7679690E+00
 5.9447996E+00 8.5580305E-01 1.7989627E+00
 6.0109557E+00 8.3430417E-01 1.7949011E+00
 6.0764521E+00 8.1187507E-01 1.7906833E+00
 6.1413124E+00 7.8869028E-01 1.7861591E+00
 6.2054900E+00 7.6484553E-01 1.7811434E+00
 6.2688025E+00 7.4032888E-01 1.7753932E+00
 6.3308948E+00 7.1504782E-01 1.7686017E+00
 6.3912928E+00 6.8888459E-01 1.7604148E+00
 5.9440648E+00 8.1638526E-01 1.7908337E+00
 6.0093396E+00 7.9512649E-01 1.7857003E+00
 6.0738172E+00 7.7284344E-01 1.7803171E+00
 6.1375138E+00 7.4976034E-01 1.7745483E+00
 6.2003182E+00 7.2596222E-01 1.7682031E+00
 6.2618875E+00 7.0139165E-01 1.7610084E+00
 6.3216704E+00 6.7592334E-01 1.7526195E+00
 5.9431918E+00 7.7821184E-01 1.7809871E+00
 6.0074708E+00 7.5730876E-01 1.7748369E+00
 6.0708100E+00 7.3526050E-01 1.7683262E+00
 6.1331345E+00 7.1231127E-01 1.7613219E+00
 6.1941288E+00 6.8852145E-01 1.7536084E+00
 6.2531912E+00 6.6380879E-01 1.7448702E+00
 5.9422103E+00 7.4146508E-01 1.7696035E+00
 6.0053858E+00 7.2098380E-01 1.7624920E+00
 6.0673779E+00 6.9917909E-01 1.7548716E+00
 6.1278445E+00 6.7629378E-01 1.7465911E+00
 6.1861351E+00 6.5239150E-01 1.7373983E+00
 5.9411408E+00 7.0628042E-01 1.7568742E+00
 6.0030359E+00 6.8620038E-01 1.7488320E+00
 6.0631500E+00 6.6451650E-01 1.7400528E+00
 6.1207397E+00 6.4152578E-01 1.7303687E+00
 5.9399466E+00 6.7272308E-01 1.7429815E+00
 6.0001170E+00 6.5289325E-01 1.7339731E+00
 6.0572157E+00 6.3107092E-01 1.7238788E+00
 5.9384604E+00 6.4076158E-01 1.7280752E+00
 5.9956170E+00 6.2077862E-01 1.7178933E+00
 5.9362574E+00 6.1034295E-01 1.7122902E+00
 5.8457831E+00 1.4475369E+00 1.6787929E+00
 5.8100348E+00 1.4699165E+00 1.6645405E+00
 5.7728364E+00 1.4929872E+00 1.6490112E+00
 5.7343338E+00 1.5166405E+00 1.6321327E+00
 5.6946380E+00 1.5407748E+00 1.6138282E+00
 5.6539851E+00 1.5652654E+00 1.5940110E+00
 5.6125990E+00 1.5899778E+00 1.5725830E+00
 5.5707236E+00 1.6147469E+00 1.5494522E+00
 5.5286305E+00 1.6393758E+00 1.5245415E+00
 5.4866131E+00 1.6636361E+00 1.4977985E+00
 5.4449794E+00 1.6872742E+00 1.4692056E+00
 5.4040407E+00 1.7100208E+00 1.4387874E+00
 5.3641002E+00 1.7316031E+00 1.4066172E+00
 5.3254428E+00 1.7517587E+00 1.3728189E+00
 5.2883254E+00 1.7702493E+00 1.3375665E+00
 5.2529696E+00 1.7868726E+00 1.3010774E+00
 5.2195562E+00 1.8014728E+00 1.2636039E+00
 5.1882257E+00 1.8139451E+00 1.2254207E+00
 5.1590824E+00 1.8242376E+00 1.1868153E+00
 5.1322099E+00 1.8323492E+00 1.1480789E+00
 5.1076888E+00 1.8383226E+00 1.1095203E+00
 5.0855627E+00 1.8422416E+00 1.0714328E+00
 5.0658792E+00 1.8442249E+00 1.0343110E+00
 4.4204614E+00 1.0783389E+00 1.6792174E+00
 4.4124496E+00 1.1293938E+00 1.6664542E+00
 4.4071968E+00 1.1815418E+00 1.6508562E+00
 4.4055348E+00 1.2347944E+00 1.6325572E+00
 4.4079607E+00 1.2888235E+00 1.6115504E+00
 4.4148222E+00 1.3431224E+00 1.5878336E+00
 4.4263617E+00 1.3970845E+00 1.5614570E+00
 4.4427277E+00 1.4500492E+00 1.5325499E+00
 4.4639615E+00 1.5013319E+00 1.5013298E+00
 4.4899820E+00 1.5502581E+00 1.4680998E+00
 4.5205789E+00 1.5962014E+00 1.4332379E+00
 4.5554163E+00 1.6386201E+00 1.3971793E+00
 4.5940478E+00 1.6770877E+00 1.3603949E+00
 4.6359395E+00 1.7113150E+00 1.3233663E+00
 4.6805012E+00 1.7411598E+00 1.2865610E+00
 4.7271195E+00 1.7666262E+00 1.2504098E+00
 4.7751919E+00 1.7878502E+00 1.2152887E+00
 4.8241559E+00 1.8050788E+00 1.1815066E+00
 4.8735019E+00 1.8186402E+00 1.1492970E+00
 4.9227819E+00 1.8289184E+00 1.1187923E+00
 4.9715990E+00 1.8363284E+00 1.0899503E+00
 5.0195224E+00 1.8412938E+00 1.0624081E+00
 4.4663135E+00 1.1093798E+00 1.7013309E+00
 4.4611886E+00 1.1622090E+00 1.6882769E+00
 4.4586690E+00 1.2152382E+00 1.6722147E+00
 4.4597279E+00 1.2687732E+00 1.6533459E+00
 4.4649049E+00 1.3226141E+00 1.6317013E+00
 4.4745102E+00 1.3763023E+00 1.6072905E+00
 4.4887212E+00 1.4292488E+00 1.5801782E+00
 4.5076119E+00 1.4808014E+00 1.5505162E+00
 4.5311476E+00 1.5302940E+00 1.5185510E+00
 4.5591759E+00 1.5770883E+00 1.4846161E+00
 4.5914235E+00 1.6206137E+00 1.4491184E+00
 4.6275062E+00 1.6604015E+00 1.4125160E+00
 4.6669474E+00 1.6961107E+00 1.3752951E+00
 4.7092054E+00 1.7275430E+00 1.3379432E+00
 4.7537058E+00 1.7546468E+00 1.3009242E+00
 4.7998766E+00 1.7775073E+00 1.2646558E+00
 4.8471810E+00 1.7963290E+00 1.2294908E+00
 4.8951428E+00 1.8114106E+00 1.1956938E+00
 4.9433528E+00 1.8231203E+00 1.1633903E+00
 4.9914378E+00 1.8318727E+00 1.1324635E+00
 5.0390368E+00 1.8381081E+00 1.1022900E+00
 4.5163070E+00 1.1392214E+00 1.7213221E+00
 4.5138689E+00 1.1928430E+00 1.7077598E+00
 4.5140219E+00 1.2462921E+00 1.6911142E+00
 4.5177480E+00 1.2998230E+00 1.6715741E+00
 4.5255871E+00 1.3532574E+00 1.6491826E+00
 4.5378049E+00 1.4061467E+00 1.6239663E+00
 4.5545160E+00 1.4579074E+00 1.5960139E+00
 4.5757254E+00 1.5079007E+00 1.5655086E+00
 4.6013299E+00 1.5554878E+00 1.5327312E+00
 4.6311137E+00 1.6000766E+00 1.4980498E+00
 4.6647516E+00 1.6411602E+00 1.4619004E+00
 4.7018228E+00 1.6783482E+00 1.4247640E+00
 4.7418343E+00 1.7113868E+00 1.3871388E+00
 4.7842511E+00 1.7401672E+00 1.3495138E+00
 4.8285311E+00 1.7647215E+00 1.3123422E+00
 4.8741606E+00 1.7852085E+00 1.2760173E+00
 4.9206826E+00 1.8018922E+00 1.2408405E+00
 4.9677011E+00 1.8151198E+00 1.2069654E+00
 5.0148478E+00 1.8253034E+00 1.1742660E+00
 5.0617070E+00 1.8328940E+00 1.1421643E+00
 4.5702229E+00 1.1681595E+00 1.7387728E+00
 4.5703395E+00 1.2219869E+00 1.7245175E+00
 4.5730898E+00 1.2754104E+00 1.7071497E+00
 4.5794222E+00 1.3285924E+00 1.6868273E+00
 4.5898296E+00 1.3813156E+00 1.6635952E+00
 4.6045205E+00 1.4331237E+00 1.6375002E+00
 4.6235447E+00 1.4834396E+00 1.6086627E+00
 4.6468417E+00 1.5316465E+00 1.5773022E+00
 4.6742464E+00 1.5771458E+00 1.5437367E+00
 4.7054899E+00 1.6194027E+00 1.5083676E+00
 4.7402075E+00 1.6579839E+00 1.4716577E+00
 4.7779575E+00 1.6925825E+00 1.4341040E+00
 4.8182480E+00 1.7230328E+00 1.3962095E+00
 4.8605705E+00 1.7493104E+00 1.3584540E+00
 4.9044359E+00 1.7715237E+00 1.3212660E+00
 4.9494038E+00 1.7898947E+00 1.2849878E+00
 4.9950885E+00 1.8047417E+00 1.2498131E+00
 5.0411143E+00 1.8164634E+00 1.2156706E+00
 5.0870232E+00 1.8255174E+00 1.1820685E+00
 4.6278436E+00 1.1961312E+00 1.7533773E+00
 4.6304065E+00 1.2497480E+00 1.7382715E+00
 4.6356819E+00 1.3027632E+00 1.7200605E+00