# TIME = 5.000000
VARIABLES = X, Y, Z, FX, FY, FZ
ZONE N=29232 E=58212 F=FEPOINT ET=TRIANGLE
  0.000E+00  9.502E-01  1.243E-03 3.4404136E+00 3.6900620E-02 7.4205032E-01
  0.000E+00  1.000E+00  0.000E+00 3.4390202E+00 6.8016325E-06 7.4299711E-01
  4.318E-02  9.751E-01  3.108E-04 3.4388041E+00 1.8081143E-02 7.2778224E-01
  0.000E+00  1.050E+00  1.243E-03 3.4404135E+00 -3.6887031E-02 7.4205104E-01
  4.318E-02  1.025E+00  3.108E-04 3.4388041E+00 -1.8067517E-02 7.2778260E-01
  0.000E+00  1.100E+00  4.969E-03 3.4458730E+00 -7.3815235E-02 7.3928749E-01
  4.318E-02  1.075E+00  2.796E-03 3.4421969E+00 -5.4231618E-02 7.2595145E-01
  0.000E+00  1.149E+00  1.117E-02 3.4578305E+00 -1.1078367E-01 7.3482948E-01
  4.318E-02  1.124E+00  7.761E-03 3.4510785E+00 -9.0443605E-02 7.2240320E-01
  0.000E+00  1.198E+00  1.983E-02 3.4756951E+00 -1.4755262E-01 7.2859555E-01
  4.318E-02  1.174E+00  1.519E-02 3.4667194E+00 -1.2661868E-01 7.1719065E-01
  0.000E+00  1.247E+00  3.092E-02 3.4922171E+00 -1.8363738E-01 7.2030284E-01
  4.318E-02  1.223E+00  2.507E-02 3.4850513E+00 -1.6236890E-01 7.1011104E-01
  0.000E+00  1.295E+00  4.443E-02 3.4989411E+00 -2.1891943E-01 7.0997381E-01
  4.318E-02  1.271E+00  3.738E-02 3.4967259E+00 -1.9729107E-01 7.0093857E-01
  0.000E+00  1.342E+00  6.031E-02 3.5097848E+00 -2.5390807E-01 6.9811433E-01
  4.318E-02  1.318E+00  5.207E-02 3.4994468E+00 -2.3164819E-01 6.9000654E-01
  0.000E+00  1.388E+00  7.852E-02 3.5441337E+00 -2.8865911E-01 6.8480484E-01
  4.318E-02  1.365E+00  6.913E-02 3.5284627E+00 -2.6588625E-01 6.7773020E-01
  0.000E+00  1.434E+00  9.903E-02 3.5519267E+00 -3.2246844E-01 6.6955347E-01
  4.318E-02  1.411E+00  8.849E-02 3.5545367E+00 -2.9953786E-01 6.6376742E-01
  0.000E+00  1.478E+00  1.218E-01 3.5695437E+00 -3.5534825E-01 6.5257210E-01
  4.318E-02  1.456E+00  1.101E-01 3.5512037E+00 -3.3216562E-01 6.4791674E-01
  0.000E+00  1.521E+00  1.467E-01 3.5956859E+00 -3.8746883E-01 6.3408621E-01
  4.318E-02  1.500E+00  1.340E-01 3.5859823E+00 -3.6402596E-01 6.3055085E-01
  0.000E+00  1.563E+00  1.738E-01 3.5917100E+00 -4.1859643E-01 6.1397919E-01
  4.318E-02  1.543E+00  1.600E-01 3.5846953E+00 -3.9503682E-01 6.1164756E-01
  0.000E+00  1.604E+00  2.029E-01 3.6131718E+00 -4.4867367E-01 5.9234397E-01
  4.318E-02  1.584E+00  1.881E-01 3.6166564E+00 -4.2501967E-01 5.9117955E-01
  0.000E+00  1.643E+00  2.340E-01 3.6206126E+00 -4.7764712E-01 5.6924880E-01
  4.318E-02  1.623E+00  2.182E-01 3.6065669E+00 -4.5396414E-01 5.6926408E-01
  0.000E+00  1.680E+00  2.669E-01 3.6219561E+00 -5.0542600E-01 5.4473090E-01
  4.318E-02  1.662E+00  2.502E-01 3.6234556E+00 -4.8177501E-01 5.4592885E-01
  0.000E+00  1.716E+00  3.018E-01 3.6231915E+00 -5.3195085E-01 5.1885981E-01
  4.318E-02  1.698E+00  2.841E-01 3.6232034E+00 -5.0838807E-01 5.2123481E-01
  0.000E+00  1.750E+00  3.383E-01 3.6234437E+00 -5.5715344E-01 4.9169949E-01
  4.318E-02  1.733E+00  3.198E-01 3.6219678E+00 -5.3373781E-01 4.9524510E-01
  0.000E+00  1.782E+00  3.765E-01 3.6065549E+00 -5.8096943E-01 4.6331678E-01
  4.318E-02  1.766E+00  3.572E-01 3.6206243E+00 -5.5776184E-01 4.6802672E-01
  0.000E+00  1.812E+00  4.163E-01 3.6166444E+00 -6.0333660E-01 4.3377728E-01
  4.318E-02  1.797E+00  3.962E-01 3.6131834E+00 -5.8039191E-01 4.3963789E-01
  0.000E+00  1.840E+00  4.575E-01 3.5846831E+00 -6.2422623E-01 4.0317776E-01
  4.318E-02  1.826E+00  4.367E-01 3.5917216E+00 -6.0159156E-01 4.1016757E-01
  0.000E+00  1.866E+00  5.000E-01 3.5859700E+00 -6.4351865E-01 3.7152875E-01
  4.318E-02  1.853E+00  4.786E-01 3.5956972E+00 -6.2129336E-01 3.7966797E-01
  0.000E+00  1.890E+00  5.438E-01 3.5511913E+00 -6.6124258E-01 3.3901280E-01
  4.318E-02  1.878E+00  5.217E-01 3.5695549E+00 -6.3940710E-01 3.4819553E-01
  0.000E+00  1.912E+00  5.887E-01 3.5545244E+00 -6.7742032E-01 3.0571442E-01
  4.318E-02  1.901E+00  5.661E-01 3.5519377E+00 -6.5604676E-01 3.1597887E-01
  0.000E+00  1.931E+00  6.347E-01 3.5284505E+00 -6.9167147E-01 2.7137148E-01
  4.318E-02  1.921E+00  6.116E-01 3.5441444E+00 -6.7099112E-01 2.8285080E-01
  0.000E+00  1.948E+00  6.815E-01 3.4994344E+00 -7.0420131E-01 2.3642955E-01
  4.318E-02  1.940E+00  6.580E-01 3.5097952E+00 -6.8403287E-01 2.4879980E-01
  0.000E+00  1.963E+00  7.292E-01 3.4967133E+00 -7.1535865E-01 2.0136496E-01
  4.318E-02  1.956E+00  7.052E-01 3.4989513E+00 -6.9565353E-01 2.1451690E-01
  0.000E+00  1.975E+00  7.775E-01 3.4850385E+00 -7.2472018E-01 1.6572294E-01
  4.318E-02  1.969E+00  7.532E-01 3.4922271E+00 -7.0577478E-01 1.7994770E-01
  0.000E+00  1.985E+00  8.264E-01 3.4667064E+00 -7.3194599E-01 1.2923616E-01
  4.318E-02  1.980E+00  8.019E-01 3.4757050E+00 -7.1390131E-01 1.4459218E-01
  0.000E+00  1.992E+00  8.757E-01 3.4510654E+00 -7.3726644E-01 9.2316606E-02
  4.318E-02  1.989E+00  8.510E-01 3.4578404E+00 -7.2001075E-01 1.0856539E-01
  0.000E+00  1.997E+00  9.253E-01 3.4421837E+00 -7.4088843E-01 5.5360024E-02
  4.318E-02  1.995E+00  9.004E-01 3.4458828E+00 -7.2437994E-01 7.2342110E-02
  0.000E+00  2.000E+00  9.751E-01 3.4387909E+00 -7.4275802E-01 1.8452574E-02
  4.318E-02  1.999E+00  9.502E-01 3.4404232E+00 -7.2708869E-01 3.6157666E-02
  0.000E+00  2.000E+00  1.025E+00 3.4387908E+00 -7.4275838E-01 -1.8439088E-02
  4.318E-02  2.000E+00  1.000E+00 3.4390298E+00 -7.2801645E-01 6.7362404E-06
  0.000E+00  1.997E+00  1.075E+00 3.4421835E+00 -7.4088948E-01 -5.5346570E-02
  4.318E-02  1.999E+00  1.050E+00 3.4404230E+00 -7.2708937E-01 -3.6144205E-02
  0.000E+00  1.992E+00  1.124E+00 3.4510650E+00 -7.3726820E-01 -9.2303214E-02
  4.318E-02  1.995E+00  1.100E+00 3.4458825E+00 -7.2438131E-01 -7.2328685E-02
  0.000E+00  1.985E+00  1.174E+00 3.4667058E+00 -7.3194854E-01 -1.2922286E-01
  4.318E-02  1.989E+00  1.149E+00 3.4578399E+00 -7.2001286E-01 -1.0855203E-01
  0.000E+00  1.975E+00  1.223E+00 3.4850378E+00 -7.2472357E-01 -1.6570975E-01
  4.318E-02  1.980E+00  1.198E+00 3.4757044E+00 -7.1390426E-01 -1.4457893E-01
  0.000E+00  1.963E+00  1.271E+00 3.4967125E+00 -7.1536264E-01 -2.0135191E-01
  4.318E-02  1.969E+00  1.247E+00 3.4922263E+00 -7.0577849E-01 -1.7993457E-01
  0.000E+00  1.948E+00  1.318E+00 3.4994335E+00 -7.0420572E-01 -2.3641667E-01
  4.318E-02  1.956E+00  1.295E+00 3.4989503E+00 -6.9565768E-01 -2.1450393E-01
  0.000E+00  1.931E+00  1.365E+00 3.5284494E+00 -6.9167685E-01 -2.7135880E-01
  4.318E-02  1.940E+00  1.342E+00 3.5097941E+00 -6.8403768E-01 -2.4878701E-01
  0.000E+00  1.912E+00  1.411E+00 3.5545232E+00 -6.7742643E-01 -3.0570196E-01
  4.318E-02  1.921E+00  1.388E+00 3.5441432E+00 -6.7099694E-01 -2.8283823E-01
  0.000E+00  1.890E+00  1.456E+00 3.5511900E+00 -6.6124895E-01 -3.3900060E-01
  4.318E-02  1.901E+00  1.434E+00 3.5519364E+00 -6.5605293E-01 -3.1596654E-01
  0.000E+00  1.866E+00  1.500E+00 3.5859685E+00 -6.4352596E-01 -3.7151684E-01
  4.318E-02  1.878E+00  1.478E+00 3.5695535E+00 -6.3941390E-01 -3.4818347E-01
  0.000E+00  1.840E+00  1.543E+00 3.5846815E+00 -6.2423398E-01 -4.0316616E-01
  4.318E-02  1.853E+00  1.521E+00 3.5956957E+00 -6.2130097E-01 -3.7965622E-01
  0.000E+00  1.812E+00  1.584E+00 3.6166426E+00 -6.0334493E-01 -4.3376603E-01
  4.318E-02  1.826E+00  1.563E+00 3.5917199E+00 -6.0159954E-01 -4.1015615E-01
  0.000E+00  1.782E+00  1.623E+00 3.6065530E+00 -5.8097832E-01 -4.6330591E-01
  4.318E-02  1.797E+00  1.604E+00 3.6131816E+00 -5.8040058E-01 -4.3962684E-01
  0.000E+00  1.750E+00  1.662E+00 3.6234417E+00 -5.5716279E-01 -4.9168903E-01
  4.318E-02  1.766E+00  1.643E+00 3.6206225E+00 -5.5777094E-01 -4.6801606E-01
  0.000E+00  1.716E+00  1.698E+00 3.6231894E+00 -5.3196071E-01 -5.1884978E-01
  4.318E-02  1.733E+00  1.680E+00 3.6219659E+00 -5.3374746E-01 -4.9523486E-01
  0.000E+00  1.680E+00  1.733E+00 3.6219539E+00 -5.0543630E-01 -5.4472133E-01
  4.318E-02  1.698E+00  1.716E+00 3.6232013E+00 -5.0839815E-01 -5.2122501E-01
  0.000E+00  1.643E+00  1.766E+00 3.6206105E+00 -4.7765782E-01 -5.6923971E-01
  4.318E-02  1.662E+00  1.750E+00 3.6234534E+00 -4.8178555E-01 -5.4591952E-01
  0.000E+00  1.604E+00  1.797E+00 3.6131696E+00 -4.4868466E-01 -5.9233536E-01
  4.318E-02  1.623E+00  1.782E+00 3.6065646E+00 -4.5397509E-01 -5.6925527E-01
  0.000E+00  1.563E+00  1.826E+00 3.5917078E+00 -4.1860771E-01 -6.1397111E-01
  4.318E-02  1.584E+00  1.812E+00 3.6166540E+00 -4.2503109E-01 -5.9117131E-01
  0.000E+00  1.521E+00  1.853E+00 3.5956837E+00 -3.8748081E-01 -6.3407882E-01
  4.318E-02  1.543E+00  1.840E+00 3.5846928E+00 -3.9504850E-01 -6.1163984E-01
  0.000E+00  1.478E+00  1.878E+00 3.5695415E+00 -3.5536116E-01 -6.5256548E-01
  4.318E-02  1.500E+00  1.866E+00 3.5859797E+00 -3.6403762E-01 -6.3054360E-01
  0.000E+00  1.434E+00  1.901E+00 3.5519242E+00 -3.2248146E-01 -6.6954742E-01
  4.318E-02  1.456E+00  1.890E+00 3.5512010E+00 -3.3217721E-01 -6.4791004E-01
  0.000E+00  1.388E+00  1.921E+00 3.5441306E+00 -2.8867055E-01 -6.8479893E-01
  4.318E-02  1.411E+00  1.912E+00 3.5545340E+00 -2.9955037E-01 -6.6376153E-01
  0.000E+00  1.342E+00  1.940E+00 3.5097815E+00 -2.5391758E-01 -6.9810843E-01
  4.318E-02  1.365E+00  1.931E+00 3.5284603E+00 -2.6590047E-01 -6.7772534E-01
  0.000E+00  1.295E+00  1.956E+00 3.4989381E+00 -2.1892940E-01 -7.0996837E-01
  4.318E-02  1.318E+00  1.948E+00 3.4994446E+00 -2.3166343E-01 -6.9000264E-01
  0.000E+00  1.247E+00  1.969E+00 3.4922146E+00 -1.8365050E-01 -7.2029852E-01
  4.318E-02  1.271E+00  1.963E+00 3.4967237E+00 -1.9730535E-01 -7.0093526E-01
  0.000E+00  1.198E+00  1.980E+00 3.4756928E+00 -1.4756925E-01 -7.2859268E-01
  4.318E-02  1.223E+00  1.975E+00 3.4850489E+00 -1.6238096E-01 -7.1010802E-01
  0.000E+00  1.149E+00  1.989E+00 3.4578280E+00 -1.1080188E-01 -7.3482798E-01
  4.318E-02  1.174E+00  1.985E+00 3.4667167E+00 -1.2662914E-01 -7.1718787E-01
  0.000E+00  1.100E+00  1.995E+00 3.4458703E+00 -7.3832814E-02 -7.3928713E-01
  4.318E-02  1.124E+00  1.992E+00 3.4510756E+00 -9.0453928E-02 -7.2240078E-01
  0.000E+00  1.050E+00  1.999E+00 3.4404105E+00 -3.6902738E-02 -7.4205162E-01
  4.318E-02  1.075E+00  1.997E+00 3.4421938E+00 -5.4242925E-02 -7.2594954E-01
  0.000E+00  1.000E+00  2.000E+00 3.4390171E+00 -6.6687831E-06 -7.4299848E-01
  4.318E-02  1.025E+00  2.000E+00 3.4388010E+00 -1.8080245E-02 -7.2778133E-01
  0.000E+00  9.502E-01  1.999E+00 3.4404106E+00 3.6889414E-02 -7.4205235E-01
  4.318E-02  9.751E-01  2.000E+00 3.4388011E+00 1.8066936E-02 -7.2778169E-01
  0.000E+00  9.004E-01  1.995E+00 3.4458704E+00 7.3819533E-02 -7.3928858E-01
  4.318E-02  9.253E-01  1.997E+00 3.4421939E+00 5.4229645E-02 -7.2595063E-01
  0.000E+00  8.510E-01  1.989E+00 3.4578282E+00 1.1078867E-01 -7.3483015E-01
  4.318E-02  8.757E-01  1.992E+00 3.4510757E+00 9.0440704E-02 -7.2240258E-01
  0.000E+00  8.019E-01  1.980E+00 3.4756931E+00 1.4755614E-01 -7.2859556E-01
  4.318E-02  8.264E-01  1.985E+00 3.4667169E+00 1.2661600E-01 -7.1719039E-01
  0.000E+00  7.532E-01  1.969E+00 3.4922149E+00 1.8363751E-01 -7.2030210E-01
  4.318E-02  7.775E-01  1.975E+00 3.4850492E+00 1.6236794E-01 -7.1011124E-01
  0.000E+00  7.052E-01  1.956E+00 3.4989385E+00 2.1891658E-01 -7.0997263E-01
  4.318E-02  7.292E-01  1.963E+00 3.4967241E+00 1.9729246E-01 -7.0093917E-01
  0.000E+00  6.580E-01  1.940E+00 3.5097819E+00 2.5390494E-01 -6.9811337E-01
  4.318E-02  6.815E-01  1.948E+00 3.4994451E+00 2.3165072E-01 -6.9000723E-01
  0.000E+00  6.116E-01  1.921E+00 3.5441311E+00 2.8865812E-01 -6.8480452E-01
  4.318E-02  6.347E-01  1.931E+00 3.5284608E+00 2.6588795E-01 -6.7773060E-01
  0.000E+00  5.661E-01  1.901E+00 3.5519248E+00 3.2246928E-01 -6.6955365E-01
  4.318E-02  5.887E-01  1.912E+00 3.5545346E+00 2.9953808E-01 -6.6376743E-01
  0.000E+00  5.217E-01  1.878E+00 3.5695422E+00 3.5534925E-01 -6.5257232E-01
  4.318E-02  5.438E-01  1.890E+00 3.5512016E+00 3.3216519E-01 -6.4791656E-01
  0.000E+00  4.786E-01  1.853E+00 3.5956844E+00 3.8746919E-01 -6.3408624E-01
  4.318E-02  5.000E-01  1.866E+00 3.5859804E+00 3.6402586E-01 -6.3055073E-01
  0.000E+00  4.367E-01  1.826E+00 3.5917085E+00 4.1859643E-01 -6.1397911E-01
  4.318E-02  4.575E-01  1.840E+00 3.5846935E+00 3.9503708E-01 -6.1164755E-01
  0.000E+00  3.962E-01  1.797E+00 3.6131704E+00 4.4867375E-01 -5.9234390E-01
  4.318E-02  4.163E-01  1.812E+00 3.6166547E+00 4.2502001E-01 -5.9117957E-01
  0.000E+00  3.572E-01  1.766E+00 3.6206113E+00 4.7764729E-01 -5.6924877E-01
  4.318E-02  3.765E-01  1.782E+00 3.6065654E+00 4.5396440E-01 -5.6926407E-01
  0.000E+00  3.198E-01  1.733E+00 3.6219548E+00 5.0542620E-01 -5.4473088E-01
  4.318E-02  3.383E-01  1.750E+00 3.6234543E+00 4.8177524E-01 -5.4592883E-01
  0.000E+00  2.841E-01  1.698E+00 3.6231903E+00 5.3195103E-01 -5.1885979E-01
  4.318E-02  3.018E-01  1.716E+00 3.6232022E+00 5.0838830E-01 -5.2123479E-01
  0.000E+00  2.502E-01  1.662E+00 3.6234426E+00 5.5715362E-01 -4.9169947E-01
  4.318E-02  2.669E-01  1.680E+00 3.6219668E+00 5.3373803E-01 -4.9524508E-01
  0.000E+00  2.182E-01  1.623E+00 3.6065540E+00 5.8096962E-01 -4.6331676E-01
  4.318E-02  2.340E-01  1.643E+00 3.6206234E+00 5.5776206E-01 -4.6802672E-01
  0.000E+00  1.881E-01  1.584E+00 3.6166437E+00 6.0333679E-01 -4.3377725E-01
  4.318E-02  2.029E-01  1.604E+00 3.6131827E+00 5.8039213E-01 -4.3963788E-01
  0.000E+00  1.600E-01  1.543E+00 3.5846826E+00 6.2422641E-01 -4.0317774E-01
  4.318E-02  1.738E-01  1.563E+00 3.5917210E+00 6.0159178E-01 -4.1016756E-01
  0.000E+00  1.340E-01  1.500E+00 3.5859696E+00 6.4351885E-01 -3.7152873E-01
  4.318E-02  1.467E-01  1.521E+00 3.5956967E+00 6.2129357E-01 -3.7966796E-01
  0.000E+00  1.101E-01  1.456E+00 3.5511911E+00 6.6124278E-01 -3.3901278E-01
  4.318E-02  1.218E-01  1.478E+00 3.5695546E+00 6.3940731E-01 -3.4819551E-01
  0.000E+00  8.849E-02  1.411E+00 3.5545243E+00 6.7742052E-01 -3.0571440E-01
  4.318E-02  9.903E-02  1.434E+00 3.5519375E+00 6.5604696E-01 -3.1597885E-01
  0.000E+00  6.913E-02  1.365E+00 3.5284506E+00 6.9167166E-01 -2.7137147E-01
  4.318E-02  7.852E-02  1.388E+00 3.5441443E+00 6.7099131E-01 -2.8285079E-01
  0.000E+00  5.207E-02  1.318E+00 3.4994347E+00 7.0420150E-01 -2.3642954E-01
  4.318E-02  6.031E-02  1.342E+00 3.5097953E+00 6.8403306E-01 -2.4879978E-01
  0.000E+00  3.738E-02  1.271E+00 3.4967137E+00 7.1535883E-01 -2.0136494E-01
  4.318E-02  4.443E-02  1.295E+00 3.4989515E+00 6.9565371E-01 -2.1451688E-01
  0.000E+00  2.507E-02  1.223E+00 3.4850390E+00 7.2472036E-01 -1.6572293E-01
  4.318E-02  3.092E-02  1.247E+00 3.4922275E+00 7.0577496E-01 -1.7994769E-01
  0.000E+00  1.519E-02  1.174E+00 3.4667070E+00 7.3194616E-01 -1.2923615E-01
  4.318E-02  1.983E-02  1.198E+00 3.4757056E+00 7.1390148E-01 -1.4459216E-01
  0.000E+00  7.761E-03  1.124E+00 3.4510662E+00 7.3726661E-01 -9.2316594E-02
  4.318E-02  1.117E-02  1.149E+00 3.4578411E+00 7.2001091E-01 -1.0856537E-01
  0.000E+00  2.796E-03  1.075E+00 3.4421847E+00 7.4088859E-01 -5.5360008E-02
  4.318E-02  4.969E-03  1.100E+00 3.4458837E+00 7.2438010E-01 -7.2342097E-02
  0.000E+00  3.108E-04  1.025E+00 3.4387920E+00 7.4275817E-01 -1.8452554E-02
  4.318E-02  1.243E-03  1.050E+00 3.4404243E+00 7.2708884E-01 -3.6157660E-02
  0.000E+00  3.108E-04  9.751E-01 3.4387921E+00 7.4275850E-01 1.8439107E-02
  4.318E-02  0.000E+00  1.000E+00 3.4390310E+00 7.2801660E-01 -6.7339922E-06
  0.000E+00  2.796E-03  9.253E-01 3.4421849E+00 7.4088959E-01 5.5346584E-02
  4.318E-02  1.243E-03  9.502E-01 3.4404244E+00 7.2708953E-01 3.6144209E-02
  0.000E+00  7.761E-03  8.757E-01 3.4510666E+00 7.3726830E-01 9.2303223E-02
  4.318E-02  4.969E-03  9.004E-01 3.4458840E+00 7.2438147E-01 7.2328695E-02
  0.000E+00  1.519E-02  8.264E-01 3.4667076E+00 7.3194863E-01 1.2922286E-01
  4.318E-02  1.117E-02  8.510E-01 3.4578416E+00 7.2001301E-01 1.0855205E-01
  0.000E+00  2.507E-02  7.775E-01 3.4850397E+00 7.2472366E-01 1.6570976E-01
  4.318E-02  1.983E-02  8.019E-01 3.4757062E+00 7.1390440E-01 1.4457894E-01
  0.000E+00  3.738E-02  7.292E-01 3.4967145E+00 7.1536272E-01 2.0135191E-01
  4.318E-02  3.092E-02  7.532E-01 3.4922283E+00 7.0577862E-01 1.7993458E-01
  0.000E+00  5.207E-02  6.815E-01 3.4994356E+00 7.0420579E-01 2.3641668E-01
  4.318E-02  4.443E-02  7.052E-01 3.4989524E+00 6.9565781E-01 2.1450394E-01
  0.000E+00  6.913E-02  6.347E-01 3.5284516E+00 6.9167692E-01 2.7135881E-01
  4.318E-02  6.031E-02  6.580E-01 3.5097963E+00 6.8403780E-01 2.4878701E-01
  0.000E+00  8.849E-02  5.887E-01 3.5545255E+00 6.7742650E-01 3.0570197E-01
  4.318E-02  7.852E-02  6.116E-01 3.5441455E+00 6.7099706E-01 2.8283824E-01
  0.000E+00  1.101E-01  5.438E-01 3.5511924E+00 6.6124902E-01 3.3900060E-01
  4.318E-02  9.903E-02  5.661E-01 3.5519388E+00 6.5605305E-01 3.1596654E-01
  0.000E+00  1.340E-01  5.000E-01 3.5859710E+00 6.4352603E-01 3.7151684E-01
  4.318E-02  1.218E-01  5.217E-01 3.5695560E+00 6.3941401E-01 3.4818347E-01
  0.000E+00  1.600E-01  4.575E-01 3.5846842E+00 6.2423406E-01 4.0316617E-01
  4.318E-02  1.467E-01  4.786E-01 3.5956983E+00 6.2130107E-01 3.7965622E-01
  0.000E+00  1.881E-01  4.163E-01 3.6166454E+00 6.0334501E-01 4.3376604E-01
  4.318E-02  1.738E-01  4.367E-01 3.5917226E+00 6.0159963E-01 4.1015614E-01
  0.000E+00  2.182E-01  3.765E-01 3.6065559E+00 5.8097840E-01 4.6330592E-01
  4.318E-02  2.029E-01  3.962E-01 3.6131844E+00 5.8040068E-01 4.3962683E-01
  0.000E+00  2.502E-01  3.383E-01 3.6234446E+00 5.5716288E-01 4.9168903E-01
  4.318E-02  2.340E-01  3.572E-01 3.6206253E+00 5.5777104E-01 4.6801605E-01
  0.000E+00  2.841E-01  3.018E-01 3.6231924E+00 5.3196079E-01 5.1884979E-01
  4.318E-02  2.669E-01  3.198E-01 3.6219687E+00 5.3374755E-01 4.9523485E-01
  0.000E+00  3.198E-01  2.669E-01 3.6219569E+00 5.0543637E-01 5.4472133E-01
  4.318E-02  3.018E-01  2.841E-01 3.6232043E+00 5.0839824E-01 5.2122501E-01
  0.000E+00  3.572E-01  2.340E-01 3.6206135E+00 4.7765791E-01 5.6923973E-01
  4.318E-02  3.383E-01  2.502E-01 3.6234565E+00 4.8178563E-01 5.4591953E-01
  0.000E+00  3.962E-01  2.029E-01 3.6131726E+00 4.4868485E-01 5.9233542E-01
  4.318E-02  3.765E-01  2.182E-01 3.6065677E+00 4.5397515E-01 5.6925526E-01
  0.000E+00  4.367E-01  1.738E-01 3.5917107E+00 4.1860797E-01 6.1397118E-01
  4.318E-02  4.163E-01  1.881E-01 3.6166571E+00 4.2503107E-01 5.9117127E-01
  0.000E+00  4.786E-01  1.467E-01 3.5956866E+00 3.8748071E-01 6.3407877E-01
  4.318E-02  4.575E-01  1.600E-01 3.5846960E+00 3.9504855E-01 6.1163983E-01
  0.000E+00  5.217E-01  1.218E-01 3.5695444E+00 3.5536043E-01 6.5256525E-01
  4.318E-02  5.000E-01  1.340E-01 3.5859830E+00 3.6403803E-01 6.3054370E-01
  0.000E+00  5.661E-01  9.903E-02 3.5519273E+00 3.2248089E-01 6.6954724E-01
  4.318E-02  5.438E-01  1.101E-01 3.5512043E+00 3.3217796E-01 6.4791020E-01
  0.000E+00  6.116E-01  7.852E-02 3.5441342E+00 2.8867180E-01 6.8479924E-01
  4.318E-02  5.887E-01  8.849E-02 3.5545372E+00 2.9955047E-01 6.6376151E-01
  0.000E+00  6.580E-01  6.031E-02 3.5097853E+00 2.5392098E-01 6.9810939E-01
  4.318E-02  6.347E-01  6.913E-02 3.5284632E+00 2.6589908E-01 6.7772494E-01
  0.000E+00  7.052E-01  4.443E-02 3.4989415E+00 2.1893252E-01 7.0996954E-01
  4.318E-02  6.815E-01  5.207E-02 3.4994472E+00 2.3166122E-01 6.9000194E-01
  0.000E+00  7.532E-01  3.092E-02 3.4922174E+00 1.8365062E-01 7.2029926E-01
  4.318E-02  7.292E-01  3.738E-02 3.4967263E+00 1.9730427E-01 7.0093465E-01
  0.000E+00  8.019E-01  1.983E-02 3.4756954E+00 1.4756600E-01 7.2859267E-01
  4.318E-02  7.775E-01  2.507E-02 3.4850516E+00 1.6238224E-01 7.1010781E-01
  0.000E+00  8.510E-01  1.117E-02 3.4578307E+00 1.1079714E-01 7.3482731E-01
  4.318E-02  8.264E-01  1.519E-02 3.4667196E+00 1.2663214E-01 7.1718813E-01
  0.000E+00  9.004E-01  4.969E-03 3.4458732E+00 7.3828782E-02 7.3928604E-01
  4.318E-02  8.757E-01  7.761E-03 3.4510787E+00 9.0457145E-02 7.2240139E-01
  4.318E-02  9.253E-01  2.796E-03 3.4421970E+00 5.4245215E-02 7.2595036E-01
  1.000E+01  1.050E+00  1.243E-03 3.4404135E+00 -3.6887031E-02 7.4205104E-01
  1.000E+01  1.000E+00  5.551E-16 3.4390202E+00 6.8016325E-06 7.4299711E-01
  9.957E+00  1.025E+00  3.108E-04 3.4387969E+00 -1.8812737E-02 7.5779385E-01
  1.000E+01  9.502E-01  1.243E-03 3.4404136E+00 3.6900620E-02 7.4205032E-01
  9.957E+00  9.751E-01  3.108E-04 3.4387969E+00 1.8826311E-02 7.5779349E-01
  1.000E+01  9.004E-01  4.969E-03 3.4458732E+00 7.3828782E-02 7.3928604E-01
  9.957E+00  9.253E-01  2.796E-03 3.4421899E+00 5.6481443E-02 7.5588603E-01
  1.000E+01  8.510E-01  1.117E-02 3.4578307E+00 1.1079714E-01 7.3482731E-01
  9.957E+00  8.757E-01  7.761E-03 3.4510718E+00 9.4186530E-02 7.5219068E-01
  1.000E+01  8.019E-01  1.983E-02 3.4756954E+00 1.4756600E-01 7.2859267E-01
  9.957E+00  8.264E-01  1.519E-02 3.4667131E+00 1.3185338E-01 7.4676247E-01
  1.000E+01  7.532E-01  3.092E-02 3.4922174E+00 1.8365062E-01 7.2029926E-01
  9.957E+00  7.775E-01  2.507E-02 3.4850454E+00 1.6907808E-01 7.3939032E-01
  1.000E+01  7.052E-01  4.443E-02 3.4989415E+00 2.1893252E-01 7.0996954E-01
  9.957E+00  7.292E-01  3.738E-02 3.4967200E+00 2.0544061E-01 7.2983904E-01
  1.000E+01  6.580E-01  6.031E-02 3.5097853E+00 2.5392098E-01 6.9810939E-01
  9.957E+00  6.815E-01  5.207E-02 3.4994406E+00 2.4121442E-01 7.1845547E-01
  1.000E+01  6.116E-01  7.852E-02 3.5441342E+00 2.8867180E-01 6.8479924E-01
  9.957E+00  6.347E-01  6.913E-02 3.5284562E+00 2.7686378E-01 7.0567196E-01
  1.000E+01  5.661E-01  9.903E-02 3.5519273E+00 3.2248089E-01 6.6954724E-01
  9.957E+00  5.887E-01  8.849E-02 3.5545301E+00 3.1190243E-01 6.9113258E-01
  1.000E+01  5.217E-01  1.218E-01 3.5695444E+00 3.5536043E-01 6.5256525E-01
  9.957E+00  5.438E-01  1.101E-01 3.5511975E+00 3.4587523E-01 6.7462760E-01
  1.000E+01  4.786E-01  1.467E-01 3.5956866E+00 3.8748071E-01 6.3407877E-01
  9.957E+00  5.000E-01  1.340E-01 3.5859762E+00 3.7904938E-01 6.5654518E-01
  1.000E+01  4.367E-01  1.738E-01 3.5917107E+00 4.1860797E-01 6.1397118E-01
  9.957E+00  4.575E-01  1.600E-01 3.5846893E+00 4.1133882E-01 6.3686201E-01
  1.000E+01  3.962E-01  2.029E-01 3.6131726E+00 4.4868485E-01 5.9233542E-01
  9.957E+00  4.163E-01  1.881E-01 3.6166504E+00 4.4255752E-01 6.1554933E-01
  1.000E+01  3.572E-01  2.340E-01 3.6206135E+00 4.7765791E-01 5.6923973E-01
  9.957E+00  3.765E-01  2.182E-01 3.6065610E+00 4.7269498E-01 5.9272949E-01
  1.000E+01  3.198E-01  2.669E-01 3.6219569E+00 5.0543637E-01 5.4472133E-01
  9.957E+00  3.383E-01  2.502E-01 3.6234497E+00 5.0165227E-01 5.6843148E-01
  1.000E+01  2.841E-01  3.018E-01 3.6231924E+00 5.3196079E-01 5.1884979E-01
  9.957E+00  3.018E-01  2.841E-01 3.6231975E+00 5.2936230E-01 5.4271874E-01
  1.000E+01  2.502E-01  3.383E-01 3.6234446E+00 5.5716288E-01 4.9168903E-01
  9.957E+00  2.669E-01  3.198E-01 3.6219620E+00 5.5575701E-01 5.1565691E-01
  1.000E+01  2.182E-01  3.765E-01 3.6065559E+00 5.8097840E-01 4.6330592E-01
  9.957E+00  2.340E-01  3.572E-01 3.6206185E+00 5.8077120E-01 4.8731572E-01
  1.000E+01  1.881E-01  4.163E-01 3.6166454E+00 6.0334501E-01 4.3376604E-01
  9.957E+00  2.029E-01  3.962E-01 3.6131776E+00 6.0433396E-01 4.5775581E-01
  1.000E+01  1.600E-01  4.575E-01 3.5846842E+00 6.2423406E-01 4.0316617E-01
  9.957E+00  1.738E-01  4.367E-01 3.5917158E+00 6.2640698E-01 4.2706959E-01
  1.000E+01  1.340E-01  5.000E-01 3.5859710E+00 6.4352603E-01 3.7151684E-01
  9.957E+00  1.467E-01  4.786E-01 3.5956915E+00 6.4692095E-01 3.9531200E-01
  1.000E+01  1.101E-01  5.438E-01 3.5511924E+00 6.6124902E-01 3.3900060E-01
  9.957E+00  1.218E-01  5.217E-01 3.5695493E+00 6.6578106E-01 3.6254163E-01
  1.000E+01  8.849E-02  5.887E-01 3.5545255E+00 6.7742650E-01 3.0570197E-01
  9.957E+00  9.903E-02  5.661E-01 3.5519321E+00 6.8310645E-01 3.2899635E-01
  1.000E+01  6.913E-02  6.347E-01 3.5284516E+00 6.9167692E-01 2.7135881E-01
  9.957E+00  7.852E-02  6.116E-01 3.5441387E+00 6.9866657E-01 2.9450165E-01
  1.000E+01  5.207E-02  6.815E-01 3.4994356E+00 7.0420579E-01 2.3641668E-01
  9.957E+00  6.031E-02  6.580E-01 3.5097896E+00 7.1224482E-01 2.5904593E-01
  1.000E+01  3.738E-02  7.292E-01 3.4967145E+00 7.1536272E-01 2.0135191E-01
  9.957E+00  4.443E-02  7.052E-01 3.4989456E+00 7.2434396E-01 2.2334911E-01
  1.000E+01  2.507E-02  7.775E-01 3.4850397E+00 7.2472366E-01 1.6570976E-01
  9.957E+00  3.092E-02  7.532E-01 3.4922215E+00 7.3488221E-01 1.8735449E-01
  1.000E+01  1.519E-02  8.264E-01 3.4667076E+00 7.3194863E-01 1.2922286E-01
  9.957E+00  1.983E-02  8.019E-01 3.4756995E+00 7.4334320E-01 1.5054122E-01
  1.000E+01  7.761E-03  8.757E-01 3.4510666E+00 7.3726830E-01 9.2303223E-02
  9.957E+00  1.117E-02  8.510E-01 3.4578349E+00 7.4970380E-01 1.1302892E-01
  1.000E+01  2.796E-03  9.253E-01 3.4421849E+00 7.4088959E-01 5.5346584E-02
  9.957E+00  4.969E-03  9.004E-01 3.4458773E+00 7.5425243E-01 7.5311876E-02
  1.000E+01  3.108E-04  9.751E-01 3.4387921E+00 7.4275850E-01 1.8439107E-02
  9.957E+00  1.243E-03  9.502E-01 3.4404177E+00 7.5707214E-01 3.7635152E-02
  1.000E+01  3.108E-04  1.025E+00 3.4387920E+00 7.4275817E-01 -1.8452554E-02
  9.957E+00  0.000E+00  1.000E+00 3.4390242E+00 7.5803744E-01 -6.7319481E-06
  1.000E+01  2.796E-03  1.075E+00 3.4421847E+00 7.4088859E-01 -5.5360008E-02
  9.957E+00  1.243E-03  1.050E+00 3.4404175E+00 7.5707146E-01 -3.7648601E-02
  1.000E+01  7.761E-03  1.124E+00 3.4510662E+00 7.3726661E-01 -9.2316594E-02
  9.957E+00  4.969E-03  1.100E+00 3.4458770E+00 7.5425107E-01 -7.5325281E-02
  1.000E+01  1.519E-02  1.174E+00 3.4667070E+00 7.3194616E-01 -1.2923615E-01
  9.957E+00  1.117E-02  1.149E+00 3.4578344E+00 7.4970171E-01 -1.1304226E-01
  1.000E+01  2.507E-02  1.223E+00 3.4850390E+00 7.2472036E-01 -1.6572293E-01
  9.957E+00  1.983E-02  1.198E+00 3.4756989E+00 7.4334027E-01 -1.5055446E-01
  1.000E+01  3.738E-02  1.271E+00 3.4967137E+00 7.1535883E-01 -2.0136494E-01
  9.957E+00  3.092E-02  1.247E+00 3.4922207E+00 7.3487853E-01 -1.8736759E-01
  1.000E+01  5.207E-02  1.318E+00 3.4994347E+00 7.0420150E-01 -2.3642954E-01
  9.957E+00  4.443E-02  1.295E+00 3.4989447E+00 7.2433986E-01 -2.2336206E-01
  1.000E+01  6.913E-02  1.365E+00 3.5284506E+00 6.9167166E-01 -2.7137147E-01
  9.957E+00  6.031E-02  1.342E+00 3.5097885E+00 7.1224008E-01 -2.5905870E-01
  1.000E+01  8.849E-02  1.411E+00 3.5545243E+00 6.7742052E-01 -3.0571440E-01
  9.957E+00  7.852E-02  1.388E+00 3.5441375E+00 6.9866081E-01 -2.9451420E-01
  1.000E+01  1.101E-01  1.456E+00 3.5511911E+00 6.6124278E-01 -3.3901278E-01
  9.957E+00  9.903E-02  1.434E+00 3.5519308E+00 6.8310037E-01 -3.2900866E-01
  1.000E+01  1.340E-01  1.500E+00 3.5859696E+00 6.4351885E-01 -3.7152873E-01
  9.957E+00  1.218E-01  1.478E+00 3.5695478E+00 6.6577435E-01 -3.6255367E-01
  1.000E+01  1.600E-01  1.543E+00 3.5846826E+00 6.2422641E-01 -4.0317774E-01
  9.957E+00  1.467E-01  1.521E+00 3.5956899E+00 6.4691344E-01 -3.9532373E-01
  1.000E+01  1.881E-01  1.584E+00 3.6166437E+00 6.0333679E-01 -4.3377725E-01
  9.957E+00  1.738E-01  1.563E+00 3.5917141E+00 6.2639913E-01 -4.2708100E-01
  1.000E+01  2.182E-01  1.623E+00 3.6065540E+00 5.8096962E-01 -4.6331676E-01
  9.957E+00  2.029E-01  1.604E+00 3.6131759E+00 6.0432542E-01 -4.5776684E-01
  1.000E+01  2.502E-01  1.662E+00 3.6234426E+00 5.5715362E-01 -4.9169947E-01
  9.957E+00  2.340E-01  1.643E+00 3.6206167E+00 5.8076223E-01 -4.8732637E-01
  1.000E+01  2.841E-01  1.698E+00 3.6231903E+00 5.3195103E-01 -5.1885979E-01
  9.957E+00  2.669E-01  1.680E+00 3.6219600E+00 5.5574750E-01 -5.1566713E-01
  1.000E+01  3.198E-01  1.733E+00 3.6219548E+00 5.0542620E-01 -5.4473088E-01
  9.957E+00  3.018E-01  1.716E+00 3.6231954E+00 5.2935235E-01 -5.4272853E-01
  1.000E+01  3.572E-01  1.766E+00 3.6206113E+00 4.7764729E-01 -5.6924877E-01
  9.957E+00  3.383E-01  1.750E+00 3.6234475E+00 5.0164186E-01 -5.6844079E-01
  1.000E+01  3.962E-01  1.797E+00 3.6131704E+00 4.4867375E-01 -5.9234390E-01
  9.957E+00  3.765E-01  1.782E+00 3.6065586E+00 4.7268421E-01 -5.9273831E-01
  1.000E+01  4.367E-01  1.826E+00 3.5917085E+00 4.1859643E-01 -6.1397911E-01
  9.957E+00  4.163E-01  1.812E+00 3.6166480E+00 4.4254644E-01 -6.1555764E-01
  1.000E+01  4.786E-01  1.853E+00 3.5956844E+00 3.8746919E-01 -6.3408624E-01
  9.957E+00  4.575E-01  1.840E+00 3.5846868E+00 4.1132733E-01 -6.3686974E-01
  1.000E+01  5.217E-01  1.878E+00 3.5695422E+00 3.5534925E-01 -6.5257232E-01
  9.957E+00  5.000E-01  1.866E+00 3.5859735E+00 3.7903720E-01 -6.5655220E-01
  1.000E+01  5.661E-01  1.901E+00 3.5519248E+00 3.2246928E-01 -6.6955365E-01
  9.957E+00  5.438E-01  1.890E+00 3.5511949E+00 3.4586252E-01 -6.7463392E-01
  1.000E+01  6.116E-01  1.921E+00 3.5441311E+00 2.8865812E-01 -6.8480452E-01
  9.957E+00  5.887E-01  1.912E+00 3.5545280E+00 3.1189015E-01 -6.9113844E-01
  1.000E+01  6.580E-01  1.940E+00 3.5097819E+00 2.5390494E-01 -6.9811337E-01
  9.957E+00  6.347E-01  1.931E+00 3.5284543E+00 2.7685268E-01 -7.0567762E-01
  1.000E+01  7.052E-01  1.956E+00 3.4989385E+00 2.1891658E-01 -7.0997263E-01
  9.957E+00  6.815E-01  1.948E+00 3.4994383E+00 2.4120381E-01 -7.1846080E-01
  1.000E+01  7.532E-01  1.969E+00 3.4922149E+00 1.8363751E-01 -7.2030210E-01
  9.957E+00  7.292E-01  1.963E+00 3.4967169E+00 2.0542866E-01 -7.2984360E-01
  1.000E+01  8.019E-01  1.980E+00 3.4756931E+00 1.4755614E-01 -7.2859556E-01
  9.957E+00  7.775E-01  1.975E+00 3.4850418E+00 1.6906373E-01 -7.3939375E-01
  1.000E+01  8.510E-01  1.989E+00 3.4578282E+00 1.1078867E-01 -7.3483015E-01
  9.957E+00  8.264E-01  1.985E+00 3.4667098E+00 1.3183729E-01 -7.4676471E-01
  1.000E+01  9.004E-01  1.995E+00 3.4458704E+00 7.3819533E-02 -7.3928858E-01
  9.957E+00  8.757E-01  1.992E+00 3.4510691E+00 9.4170168E-02 -7.5219186E-01
  1.000E+01  9.502E-01  1.999E+00 3.4404106E+00 3.6889414E-02 -7.4205235E-01
  9.957E+00  9.253E-01  1.997E+00 3.4421876E+00 5.6465929E-02 -7.5588630E-01
  1.000E+01  1.000E+00  2.000E+00 3.4390171E+00 -6.6687831E-06 -7.4299848E-01
  9.957E+00  9.751E-01  2.000E+00 3.4387948E+00 1.8812124E-02 -7.5779294E-01
  1.000E+01  1.050E+00  1.999E+00 3.4404105E+00 -3.6902738E-02 -7.4205162E-01
  9.957E+00  1.025E+00  2.000E+00 3.4387948E+00 -1.8825484E-02 -7.5779258E-01
  1.000E+01  1.100E+00  1.995E+00 3.4458703E+00 -7.3832814E-02 -7.3928713E-01
  9.957E+00  1.075E+00  1.997E+00 3.4421875E+00 -5.6479260E-02 -7.5588521E-01
  1.000E+01  1.149E+00  1.989E+00 3.4578280E+00 -1.1080188E-01 -7.3482798E-01
  9.957E+00  1.124E+00  1.992E+00 3.4510689E+00 -9.4183443E-02 -7.5219005E-01
  1.000E+01  1.198E+00  1.980E+00 3.4756928E+00 -1.4756925E-01 -7.2859268E-01
  9.957E+00  1.174E+00  1.985E+00 3.4667096E+00 -1.3185048E-01 -7.4676219E-01