# TIME = 2.500000
variables = x, y, z
zone N=5762 E=11520 F=FEPOINT ET=TRIANGLE
 5.2126368E+00 1.4866091E+00 1.7870255E+00
 5.2126368E+00 1.4866092E+00 2.1297445E-01
 5.2126368E+00 5.1339148E-01 1.7870246E+00
 5.2126369E+00 5.1339181E-01 2.1297598E-01
 3.5082280E+00 1.0000000E+00 1.7683007E+00
 6.9141009E+00 1.0000000E+00 1.7634856E+00
 3.5082279E+00 1.0000000E+00 2.3169922E-01
 6.9141009E+00 1.0000000E+00 2.3651431E-01
 4.2669097E+00 1.9545403E+00 1.0000000E+00
 4.2669098E+00 4.5459493E-02 1.0000000E+00
 6.1572498E+00 1.9501204E+00 1.0000000E+00
 6.1572498E+00 4.9879363E-02 1.0000000E+00
 5.1538387E+00 1.4775958E+00 1.7920172E+00
 5.0889309E+00 1.4677862E+00 1.7979546E+00
 5.0208519E+00 1.4577238E+00 1.8046454E+00
 4.9499294E+00 1.4473797E+00 1.8121876E+00
 4.8764367E+00 1.4367313E+00 1.8206004E+00
 4.8006459E+00 1.4256818E+00 1.8298715E+00
 4.7228115E+00 1.4140909E+00 1.8399170E+00
 4.6432516E+00 1.4017773E+00 1.8505601E+00
 4.5623296E+00 1.3885200E+00 1.8615177E+00
 4.4804522E+00 1.3740687E+00 1.8723940E+00
 4.3980589E+00 1.3581601E+00 1.8826882E+00
 4.3156164E+00 1.3405397E+00 1.8918150E+00
 4.2336137E+00 1.3209906E+00 1.8991446E+00
 4.1525586E+00 1.2993611E+00 1.9040529E+00
 4.0729786E+00 1.2755891E+00 1.9059807E+00
 3.9954206E+00 1.2497155E+00 1.9044849E+00
 3.9204417E+00 1.2218850E+00 1.8992764E+00
 3.8485849E+00 1.1923328E+00 1.8902343E+00
 3.7803445E+00 1.1613625E+00 1.8774023E+00
 3.7161389E+00 1.1293203E+00 1.8609680E+00
 3.6563269E+00 1.0965869E+00 1.8412508E+00
 3.6012291E+00 1.0635751E+00 1.8186842E+00
 3.5511865E+00 1.0307882E+00 1.7938439E+00
 5.1473096E+00 5.5563195E-01 1.8110820E+00
 5.0804848E+00 5.6712759E-01 1.8174529E+00
 5.0108796E+00 5.7856619E-01 1.8243989E+00
 4.9388402E+00 5.9024966E-01 1.8321236E+00
 4.8644285E+00 6.0235874E-01 1.8407146E+00
 4.7878580E+00 6.1499680E-01 1.8501339E+00
 4.7094074E+00 6.2831219E-01 1.8602679E+00
 4.6294175E+00 6.4248699E-01 1.8709023E+00
 4.5482813E+00 6.5773549E-01 1.8817133E+00
 4.4664282E+00 6.7428979E-01 1.8922653E+00
 4.3843162E+00 6.9238052E-01 1.9020237E+00
 4.3024239E+00 7.1221296E-01 1.9103819E+00
 4.2212463E+00 7.3394079E-01 1.9167058E+00
 4.1412908E+00 7.5764271E-01 1.9203885E+00
 4.0630777E+00 7.8330578E-01 1.9209080E+00
 3.9871387E+00 8.1082046E-01 1.9178744E+00
 3.9140039E+00 8.3998830E-01 1.9110604E+00
 3.8441746E+00 8.7054364E-01 1.9004085E+00
 3.7780921E+00 9.0218153E-01 1.8860195E+00
 3.7160917E+00 9.3458470E-01 1.8681166E+00
 3.6582870E+00 9.6739489E-01 1.8469578E+00
 3.6042491E+00 1.0000000E+00 1.8226217E+00
 5.1452909E+00 5.8985873E-01 1.8288931E+00
 5.0762386E+00 6.0307191E-01 1.8355249E+00
 5.0051837E+00 6.1592686E-01 1.8425576E+00
 4.9318145E+00 6.2910231E-01 1.8503662E+00
 4.8562375E+00 6.4278731E-01 1.8590091E+00
 4.7786238E+00 6.5712476E-01 1.8684429E+00
 4.6992776E+00 6.7226470E-01 1.8785213E+00
 4.6185716E+00 6.8839115E-01 1.8889939E+00
 4.5369290E+00 7.0570840E-01 1.8994954E+00
 4.4548077E+00 7.2442609E-01 1.9095494E+00
 4.3726879E+00 7.4473742E-01 1.9185867E+00
 4.2910652E+00 7.6679518E-01 1.9259797E+00
 4.2104446E+00 7.9068834E-01 1.9310922E+00
 4.1313367E+00 8.1642415E-01 1.9333371E+00
 4.0542573E+00 8.4391909E-01 1.9322331E+00
 3.9797225E+00 8.7300293E-01 1.9274469E+00
 3.9082313E+00 9.0343681E-01 1.9188158E+00
 3.8402302E+00 9.3494376E-01 1.9063430E+00
 3.7760416E+00 9.6724034E-01 1.8901602E+00
 3.7156887E+00 1.0000000E+00 1.8704218E+00
 3.6582870E+00 1.0326052E+00 1.8469578E+00
 5.1438208E+00 6.2593332E-01 1.8457842E+00
 5.0733192E+00 6.4055516E-01 1.8523488E+00
 5.0008647E+00 6.5490461E-01 1.8593489E+00
 4.9262586E+00 6.6962822E-01 1.8670943E+00
 4.8495344E+00 6.8497170E-01 1.8756449E+00
 4.7709085E+00 7.0107713E-01 1.8849276E+00
 4.6907079E+00 7.1810242E-01 1.8947680E+00
 4.6093401E+00 7.3622434E-01 1.9048773E+00
 4.5272601E+00 7.5563107E-01 1.9148507E+00
 4.4449524E+00 7.7650197E-01 1.9241747E+00
 4.3629190E+00 7.9898592E-01 1.9322526E+00
 4.2816699E+00 8.2317845E-01 1.9384452E+00
 4.2017171E+00 8.4910262E-01 1.9421251E+00
 4.1235698E+00 8.7669714E-01 1.9427362E+00
 4.0477323E+00 9.0581636E-01 1.9398468E+00
 3.9746936E+00 9.3624508E-01 1.9331856E+00
 3.9048999E+00 9.6772737E-01 1.9226509E+00
 3.8386831E+00 1.0000000E+00 1.9082834E+00
 3.7760416E+00 1.0327597E+00 1.8901602E+00
 3.7160917E+00 1.0654154E+00 1.8681166E+00
 5.1425102E+00 6.6396535E-01 1.8616065E+00
 5.0707181E+00 6.7996778E-01 1.8679456E+00
 4.9970470E+00 6.9580239E-01 1.8747485E+00
 4.9213224E+00 7.1211605E-01 1.8822765E+00
 4.8436054E+00 7.2914651E-01 1.8905577E+00
 4.7641340E+00 7.4704439E-01 1.8994954E+00
 4.6832719E+00 7.6596192E-01 1.9088821E+00
 4.6014581E+00 7.8606451E-01 1.9183939E+00
 4.5191762E+00 8.0751517E-01 1.9275909E+00
 4.4369342E+00 8.3045567E-01 1.9359306E+00
 4.3552498E+00 8.5498404E-01 1.9428007E+00
 4.2746411E+00 8.8113536E-01 1.9475641E+00
 4.1956190E+00 9.0886748E-01 1.9496167E+00
 4.1186816E+00 9.3805771E-01 1.9484455E+00
 4.0443071E+00 9.6851366E-01 1.9436765E+00
 3.9729351E+00 1.0000000E+00 1.9350984E+00
 3.9048999E+00 1.0322727E+00 1.9226509E+00
 3.8402302E+00 1.0650563E+00 1.9063430E+00
 3.7780921E+00 1.0978185E+00 1.8860195E+00
 5.1412790E+00 7.0397589E-01 1.8761640E+00
 5.0683246E+00 7.2133483E-01 1.8821271E+00
 4.9935907E+00 7.3866184E-01 1.8885751E+00
 4.9169262E+00 7.5656894E-01 1.8957107E+00
 4.8384147E+00 7.7528615E-01 1.9035315E+00
 4.7583259E+00 7.9495889E-01 1.9119120E+00
 4.6770544E+00 8.1573103E-01 1.9206150E+00
 4.5950689E+00 8.3774750E-01 1.9292846E+00
 4.5128766E+00 8.6113978E-01 1.9374535E+00
 4.4310021E+00 8.8600491E-01 1.9445617E+00
 4.3499716E+00 9.1238637E-01 1.9499947E+00
 4.2703024E+00 9.4025829E-01 1.9531326E+00
 4.1924939E+00 9.6951940E-01 1.9534084E+00
 4.1170188E+00 1.0000000E+00 1.9503617E+00
 4.0443071E+00 1.0314864E+00 1.9436765E+00
 3.9746936E+00 1.0637550E+00 1.9331857E+00
 3.9082313E+00 1.0965633E+00 1.9188159E+00
 3.8441746E+00 1.1294564E+00 1.9004085E+00
 5.1401609E+00 7.4587553E-01 1.8892263E+00
 5.0661879E+00 7.6456290E-01 1.8946626E+00
 4.9905670E+00 7.8336402E-01 1.9005891E+00
 4.9131629E+00 8.0283912E-01 1.9071486E+00
 4.8340856E+00 8.2320226E-01 1.9143067E+00
 4.7536323E+00 8.4458978E-01 1.9219114E+00
 4.6722272E+00 8.6712929E-01 1.9296978E+00
 4.5903624E+00 8.9093997E-01 1.9372852E+00
 4.5085627E+00 9.1611490E-01 1.9441881E+00
 4.4273614E+00 9.4270287E-01 1.9498418E+00
 4.3472840E+00 9.7069174E-01 1.9536441E+00
 4.2688367E+00 1.0000000E+00 1.9550062E+00
 4.1924939E+00 1.0304807E+00 1.9534085E+00
 4.1186816E+00 1.0619424E+00 1.9484455E+00
 4.0477323E+00 1.0941837E+00 1.9398469E+00
 3.9797225E+00 1.1269971E+00 1.9274469E+00
 3.9140039E+00 1.1600118E+00 1.9110604E+00
 5.1391816E+00 7.8949418E-01 1.9005548E+00
 5.0643617E+00 8.0946144E-01 1.9053125E+00
 4.9880496E+00 8.2968793E-01 1.9105468E+00
 4.9101294E+00 8.5066920E-01 1.9163426E+00
 4.8307326E+00 8.7259713E-01 1.9226355E+00
 4.7501841E+00 8.9559304E-01 1.9292492E+00
 4.6689303E+00 9.1976350E-01 1.9358964E+00
 4.5874816E+00 9.4519579E-01 1.9421792E+00
 4.5063719E+00 9.7194157E-01 1.9476058E+00
 4.4261344E+00 1.0000000E+00 1.9516196E+00
 4.3472840E+00 1.0293083E+00 1.9536442E+00
 4.2703024E+00 1.0597418E+00 1.9531327E+00
 4.1956190E+00 1.0911326E+00 1.9496168E+00
 4.1235698E+00 1.1233029E+00 1.9427363E+00
 4.0542573E+00 1.1560810E+00 1.9322332E+00
 3.9871387E+00 1.1891796E+00 1.9178745E+00
 5.1383688E+00 8.3460990E-01 1.9099263E+00
 5.0628925E+00 8.5577936E-01 1.9138559E+00
 4.9861042E+00 8.7734675E-01 1.9182289E+00
 4.9079047E+00 8.9973260E-01 1.9230780E+00
 4.8284468E+00 9.2310035E-01 1.9283118E+00
 4.7480766E+00 9.4755172E-01 1.9337335E+00
 4.6672584E+00 9.7316743E-01 1.9390403E+00
 4.5865118E+00 1.0000001E+00 1.9438267E+00
 4.5063719E+00 1.0280585E+00 1.9476058E+00
 4.4273614E+00 1.0572972E+00 1.9498420E+00
 4.3499716E+00 1.0876137E+00 1.9499949E+00
 4.2746411E+00 1.1188647E+00 1.9475642E+00
 4.2017171E+00 1.1508975E+00 1.9421253E+00
 4.1313367E+00 1.1835759E+00 1.9333372E+00
 4.0630777E+00 1.2166943E+00 1.9209081E+00
 5.1377410E+00 8.8094942E-01 1.9171442E+00
 5.0618161E+00 9.0321092E-01 1.9201040E+00
 4.9847791E+00 9.2599902E-01 1.9234564E+00
 4.9065463E+00 9.4964851E-01 1.9271891E+00
 4.8272884E+00 9.7428943E-01 1.9311882E+00
 4.7473677E+00 1.0000001E+00 1.9352422E+00
 4.6672584E+00 1.0268327E+00 1.9390403E+00
 4.5874816E+00 1.0548043E+00 1.9421793E+00
 4.5085627E+00 1.0838852E+00 1.9441883E+00
 4.4310022E+00 1.1139952E+00 1.9445620E+00
 4.3552498E+00 1.1450161E+00 1.9428010E+00
 4.2816700E+00 1.1768217E+00 1.9384454E+00
 4.2104446E+00 1.2093118E+00 1.9310924E+00
 4.1412908E+00 1.2423574E+00 1.9203887E+00
 5.1373138E+00 9.2819676E-01 1.9220497E+00
 5.0611593E+00 9.5140987E-01 1.9239132E+00
 4.9841079E+00 9.7526402E-01 1.9261030E+00
 4.9060896E+00 1.0000001E+00 1.9285714E+00
 4.8272884E+00 1.0257107E+00 1.9311883E+00
 4.7480766E+00 1.0524484E+00 1.9337337E+00
 4.6689304E+00 1.0802366E+00 1.9358967E+00
 4.5903625E+00 1.1090602E+00 1.9372855E+00
 4.5128767E+00 1.1388604E+00 1.9374539E+00
 4.4369343E+00 1.1695445E+00 1.9359310E+00
 4.3629190E+00 1.2010142E+00 1.9322529E+00
 4.2910653E+00 1.2332050E+00 1.9259800E+00
 4.2212463E+00 1.2660594E+00 1.9167061E+00
 5.1370974E+00 9.7600277E-01 1.9245313E+00
 5.0609386E+00 1.0000001E+00 1.9251932E+00
 4.9841079E+00 1.0247361E+00 1.9261031E+00
 4.9065463E+00 1.0503516E+00 1.9271893E+00
 4.8284469E+00 1.0768998E+00 1.9283121E+00
 4.7501842E+00 1.1044071E+00 1.9292496E+00
 4.6722273E+00 1.1328709E+00 1.9296983E+00
 4.5950689E+00 1.1622527E+00 1.9292851E+00
 4.5191763E+00 1.1924850E+00 1.9275914E+00
 4.4449525E+00 1.2234982E+00 1.9241752E+00
 4.3726879E+00 1.2552628E+00 1.9185871E+00
 4.3024239E+00 1.2877872E+00 1.9103822E+00
 5.1370974E+00 1.0239974E+00 1.9245314E+00
 5.0611593E+00 1.0485903E+00 1.9239134E+00
 4.9847791E+00 1.0740011E+00 1.9234567E+00
 4.9079047E+00 1.1002676E+00 1.9230784E+00
 4.8307327E+00 1.1274031E+00 1.9226361E+00
 4.7536324E+00 1.1554104E+00 1.9219120E+00
 4.6770545E+00 1.1842692E+00 1.9206156E+00
 4.6014582E+00 1.2139357E+00 1.9183946E+00
 4.5272602E+00 1.2443692E+00 1.9148513E+00
 4.4548078E+00 1.2755742E+00 1.9095499E+00
 4.3843162E+00 1.3076197E+00 1.9020242E+00
 5.1373138E+00 1.0718034E+00 1.9220499E+00
 5.0618161E+00 1.0967893E+00 1.9201044E+00
 4.9861042E+00 1.1226535E+00 1.9182294E+00
 4.9101295E+00 1.1493310E+00 1.9163432E+00
 4.8340856E+00 1.1767980E+00 1.9143074E+00
 4.7583260E+00 1.2050414E+00 1.9119128E+00
 4.6832721E+00 1.2340384E+00 1.9088829E+00
 4.6093403E+00 1.2637760E+00 1.9048781E+00
 4.5369291E+00 1.2942919E+00 1.8994961E+00
 4.4664283E+00 1.3257105E+00 1.8922659E+00
 5.1377410E+00 1.1190508E+00 1.9171446E+00
 5.0628925E+00 1.1442209E+00 1.9138564E+00
 4.9880496E+00 1.1703123E+00 1.9105474E+00
 4.9131630E+00 1.1971612E+00 1.9071493E+00
 4.8384148E+00 1.2247142E+00 1.9035323E+00
 4.7641341E+00 1.2529560E+00 1.8994963E+00
 4.6907080E+00 1.2818979E+00 1.8947689E+00
 4.6185717E+00 1.3116092E+00 1.8889947E+00
 4.5482815E+00 1.3422649E+00 1.8817140E+00
 5.1383688E+00 1.1653903E+00 1.9099269E+00
 5.0643617E+00 1.1905388E+00 1.9053132E+00
 4.9905670E+00 1.2166363E+00 1.9005899E+00
 4.9169263E+00 1.2434314E+00 1.8957116E+00
 4.8436055E+00 1.2708539E+00 1.8905587E+00
 4.7709086E+00 1.2989233E+00 1.8849286E+00
 4.6992777E+00 1.3277357E+00 1.8785223E+00
 4.6294177E+00 1.3575134E+00 1.8709032E+00
 5.1391816E+00 1.2105061E+00 1.9005555E+00
 5.0661879E+00 1.2354374E+00 1.8946634E+00
 4.9935907E+00 1.2613385E+00 1.8885760E+00
 4.9213225E+00 1.2878844E+00 1.8822774E+00
 4.8495345E+00 1.3150288E+00 1.8756459E+00
 4.7786239E+00 1.3428757E+00 1.8684439E+00
 4.7094076E+00 1.3716883E+00 1.8602689E+00
 5.1401609E+00 1.2541248E+00 1.8892271E+00
 5.0683246E+00 1.2786656E+00 1.8821280E+00
 4.9970471E+00 1.3041981E+00 1.8747495E+00
 4.9262587E+00 1.3303723E+00 1.8670953E+00
 4.8562376E+00 1.3572132E+00 1.8590102E+00
 4.7878581E+00 1.3850037E+00 1.8501349E+00
 5.1412789E+00 1.2960245E+00 1.8761649E+00
 5.0707180E+00 1.3200327E+00 1.8679466E+00
 5.0008647E+00 1.3450959E+00 1.8593500E+00
 4.9318145E+00 1.3708982E+00 1.8503673E+00
 4.8644286E+00 1.3976419E+00 1.8407157E+00
 5.1425102E+00 1.3360351E+00 1.8616074E+00
 5.0733192E+00 1.3594454E+00 1.8523498E+00
 5.0051837E+00 1.3840737E+00 1.8425587E+00
 4.9388402E+00 1.4097510E+00 1.8321247E+00
 5.1438207E+00 1.3740672E+00 1.8457852E+00
 5.0762386E+00 1.3969287E+00 1.8355259E+00
 5.0108796E+00 1.4214344E+00 1.8244000E+00
 5.1452909E+00 1.4101418E+00 1.8288941E+00
 5.0804848E+00 1.4328730E+00 1.8174539E+00
 5.1473095E+00 1.4443686E+00 1.8110830E+00
 5.2126898E+00 1.4579388E+00 1.8040147E+00
 5.2127355E+00 1.4252398E+00 1.8217860E+00
 5.2127533E+00 1.3905676E+00 1.8388360E+00
 5.2127670E+00 1.3537368E+00 1.8550283E+00
 5.2127794E+00 1.3148465E+00 1.8701081E+00
 5.2127915E+00 1.2740176E+00 1.8838238E+00
 5.2128023E+00 1.2314027E+00 1.8959329E+00
 5.2128118E+00 1.1871942E+00 1.9062080E+00
 5.2128195E+00 1.1416406E+00 1.9144409E+00
 5.2128252E+00 1.0950332E+00 1.9204565E+00
 5.2128287E+00 1.0477012E+00 1.9241215E+00
 5.2128299E+00 1.0000001E+00 1.9253525E+00
 5.2128287E+00 9.5229892E-01 1.9241213E+00
 5.2128253E+00 9.0496700E-01 1.9204562E+00
 5.2128196E+00 8.5835960E-01 1.9144404E+00
 5.2128119E+00 8.1280605E-01 1.9062074E+00
 5.2128024E+00 7.6859762E-01 1.8959322E+00
 5.2127915E+00 7.2598277E-01 1.8838230E+00
 5.2127795E+00 6.8515392E-01 1.8701073E+00
 5.2127671E+00 6.4626364E-01 1.8550274E+00
 5.2127534E+00 6.0943289E-01 1.8388351E+00
 5.2127355E+00 5.7476070E-01 1.8217851E+00
 5.2126898E+00 5.4206180E-01 1.8040138E+00
 5.2714601E+00 5.2167199E-01 1.7932271E+00
 5.3363412E+00 5.3074818E-01 1.8004591E+00
 5.4043343E+00 5.4016335E-01 1.8083742E+00
 5.4751083E+00 5.5000429E-01 1.8169585E+00
 5.5484086E+00 5.6034818E-01 1.8261156E+00
 5.6239788E+00 5.7133211E-01 1.8357209E+00
 5.7015893E+00 5.8311886E-01 1.8455989E+00
 5.7809455E+00 5.9588700E-01 1.8555158E+00
 5.8617034E+00 6.0982553E-01 1.8651833E+00
 5.9434633E+00 6.2512293E-01 1.8742620E+00
 6.0257778E+00 6.4195740E-01 1.8823715E+00
 6.1081538E+00 6.6048479E-01 1.8891017E+00
 6.1900629E+00 6.8082589E-01 1.8940303E+00
 6.2709533E+00 7.0305406E-01 1.8967432E+00
 6.3502673E+00 7.2718338E-01 1.8968618E+00
 6.4274580E+00 7.5316089E-01 1.8940696E+00
 6.5020050E+00 7.8086356E-01 1.8881392E+00
 6.5734290E+00 8.1010303E-01 1.8789480E+00
 6.6413082E+00 8.4063667E-01 1.8664869E+00
 6.7052878E+00 8.7218344E-01 1.8508550E+00
 6.7650510E+00 9.0442311E-01 1.8322653E+00
 6.8202953E+00 9.3699656E-01 1.8110382E+00
 6.8706657E+00 9.6944077E-01 1.7876421E+00
 5.2780773E+00 1.4451419E+00 1.8124549E+00
 5.3448437E+00 1.4343397E+00 1.8201749E+00
 5.4143348E+00 1.4234862E+00 1.8283760E+00
 5.4862037E+00 1.4122304E+00 1.8371411E+00
 5.5604005E+00 1.4003510E+00 1.8464401E+00
 5.6367336E+00 1.3877126E+00 1.8561242E+00
 5.7149494E+00 1.3741560E+00 1.8659915E+00
 5.7947334E+00 1.3595126E+00 1.8757803E+00
 5.8757107E+00 1.3436101E+00 1.8851756E+00
 5.9574568E+00 1.3262830E+00 1.8938154E+00
 6.0395010E+00 1.3073851E+00 1.9013020E+00
 6.1213341E+00 1.2868008E+00 1.9072162E+00
 6.2024185E+00 1.2644573E+00 1.9111367E+00
 6.2822030E+00 1.2403347E+00 1.9126624E+00
 6.3601409E+00 1.2144745E+00 1.9114403E+00
 6.4357064E+00 1.1869824E+00 1.9071919E+00
 6.5084092E+00 1.1580255E+00 1.8997354E+00
 6.5778111E+00 1.1278193E+00 1.8889988E+00
 6.6435390E+00 1.0966099E+00 1.8750212E+00
 6.7053148E+00 1.0646563E+00 1.8579347E+00
 6.7630632E+00 1.0322626E+00 1.8378953E+00
 6.8172336E+00 1.0000000E+00 1.8148911E+00
 5.2801623E+00 1.4108931E+00 1.8303355E+00
 5.3491411E+00 1.3983347E+00 1.8383855E+00
 5.4200635E+00 1.3860074E+00 1.8467107E+00
 5.4932426E+00 1.3731975E+00 1.8555716E+00
 5.5685863E+00 1.3596816E+00 1.8649034E+00
 5.6459467E+00 1.3452952E+00 1.8745499E+00
 5.7250476E+00 1.3298869E+00 1.8842797E+00
 5.8055438E+00 1.3132967E+00 1.8938031E+00
 5.8870299E+00 1.2953700E+00 1.9027774E+00
 5.9690507E+00 1.2759673E+00 1.9108163E+00
 6.0511093E+00 1.2549766E+00 1.9175045E+00
 6.1326761E+00 1.2323251E+00 1.9224138E+00
 6.2132010E+00 1.2079892E+00 1.9251255E+00
 6.2921307E+00 1.1820025E+00 1.9252545E+00
 6.3689271E+00 1.1544596E+00 1.9224772E+00
 6.4430847E+00 1.1255136E+00 1.9165564E+00
 6.5141472E+00 1.0953641E+00 1.9073597E+00
 6.5817301E+00 1.0642359E+00 1.8948629E+00
 6.6455745E+00 1.0323569E+00 1.8791291E+00
 6.7057108E+00 1.0000000E+00 1.8602226E+00
 6.7630632E+00 9.6773746E-01 1.8378953E+00
 5.2816675E+00 1.3747702E+00 1.8472907E+00
 5.3520871E+00 1.3607492E+00 1.8553280E+00
 5.4243972E+00 1.3468673E+00 1.8636586E+00
 5.4987997E+00 1.3324485E+00 1.8724685E+00
 5.5752771E+00 1.3172206E+00 1.8816907E+00
 5.6536384E+00 1.3010287E+00 1.8911375E+00
 5.7335869E+00 1.2837233E+00 1.9005528E+00
 5.8147434E+00 1.2651604E+00 1.9096182E+00
 5.8966700E+00 1.2452069E+00 1.9179654E+00
 5.9788824E+00 1.2237542E+00 1.9251876E+00
 6.0608592E+00 1.2007294E+00 1.9308570E+00
 6.1420534E+00 1.1761052E+00 1.9345435E+00
 6.2219072E+00 1.1499085E+00 1.9358389E+00
 6.2998705E+00 1.1222246E+00 1.9343826E+00
 6.3754209E+00 1.0931950E+00 1.9298885E+00
 6.4480834E+00 1.0630069E+00 1.9221657E+00
 6.5174561E+00 1.0318714E+00 1.9111287E+00
 6.5832662E+00 1.0000000E+00 1.8967811E+00
 6.6455745E+00 9.6764316E-01 1.8791291E+00
 6.7053148E+00 9.3534381E-01 1.8579348E+00
 5.2830028E+00 1.3366795E+00 1.8631735E+00
 5.3547069E+00 1.3212142E+00 1.8710363E+00
 5.4282235E+00 1.3057819E+00 1.8792027E+00
 5.5037332E+00 1.2897111E+00 1.8878041E+00
 5.5811922E+00 1.2727457E+00 1.8967375E+00
 5.6603900E+00 1.2547313E+00 1.9057914E+00
 5.7409952E+00 1.2355334E+00 1.9146819E+00
 5.8225975E+00 1.2150265E+00 1.9230662E+00
 5.9047292E+00 1.1931062E+00 1.9305550E+00
 5.9868807E+00 1.1696997E+00 1.9367278E+00
 6.0685123E+00 1.1447769E+00 1.9411531E+00
 6.1490670E+00 1.1183584E+00 1.9434086E+00
 6.2279884E+00 1.0905205E+00 1.9431078E+00
 6.3047398E+00 1.0613940E+00 1.9399238E+00
 6.3788284E+00 1.0311542E+00 1.9336144E+00
 6.4498311E+00 1.0000000E+00 1.9240347E+00
 6.5174561E+00 9.6812865E-01 1.9111287E+00
 6.5817301E+00 9.3576418E-01 1.8948629E+00
 6.6435390E+00 9.0339020E-01 1.8750212E+00
 5.2842564E+00 1.2966020E+00 1.8777887E+00
 5.3571162E+00 1.2797101E+00 1.8853215E+00
 5.4316868E+00 1.2627154E+00 1.8931609E+00
 5.5081259E+00 1.2449882E+00 1.9013744E+00
 5.5863697E+00 1.2262880E+00 1.9098258E+00
 5.6661776E+00 1.2064752E+00 1.9182770E+00
 5.7471888E+00 1.1854321E+00 1.9264209E+00
 5.8289635E+00 1.1630597E+00 1.9338941E+00
 5.9110091E+00 1.1392864E+00 1.9402937E+00
 5.9927976E+00 1.1140800E+00 1.9451943E+00
 6.0737788E+00 1.0874551E+00 1.9481706E+00
 6.1533958E+00 1.0594796E+00 1.9488195E+00
 6.2311043E+00 1.0302734E+00 1.9467855E+00
 6.3063958E+00 1.0000000E+00 1.9417832E+00
 6.3788284E+00 9.6884586E-01 1.9336144E+00
 6.4480834E+00 9.3699314E-01 1.9221657E+00
 6.5141472E+00 9.0463592E-01 1.9073597E+00
 6.5778111E+00 8.7218072E-01 1.8889988E+00
 5.2853956E+00 1.2546287E+00 1.8909038E+00
 5.3592680E+00 1.2363320E+00 1.8979502E+00
 5.4347172E+00 1.2177897E+00 1.9052902E+00
 5.5118865E+00 1.1984306E+00 1.9129279E+00
 5.5906877E+00 1.1780391E+00 1.9206945E+00
 5.6708543E+00 1.1564939E+00 1.9283289E+00
 5.7519971E+00 1.1337013E+00 1.9355044E+00
 5.8336525E+00 1.1095924E+00 1.9418443E+00
 5.9153094E+00 1.0841334E+00 1.9469400E+00
 5.9964290E+00 1.0573337E+00 1.9503712E+00
 6.0764604E+00 1.0292529E+00 1.9517291E+00
 6.1548581E+00 1.0000000E+00 1.9506396E+00
 6.2311043E+00 9.6972671E-01 1.9467856E+00
 6.3047398E+00 9.3860610E-01 1.9399238E+00
 6.3754209E+00 9.0680504E-01 1.9298885E+00
 6.4430847E+00 8.7448645E-01 1.9165565E+00
 6.5084092E+00 8.4197455E-01 1.8997354E+00
 5.2863937E+00 1.2109294E+00 1.9022789E+00
 5.3611073E+00 1.1912712E+00 1.9086803E+00
 5.4372401E+00 1.1712270E+00 1.9153441E+00
 5.5149176E+00 1.1502977E+00 1.9222147E+00
 5.5940317E+00 1.1282989E+00 1.9290946E+00
 5.6742898E+00 1.1051333E+00 1.9357033E+00
 5.7552809E+00 1.0807348E+00 1.9417014E+00
 5.8365226E+00 1.0550686E+00 1.9467058E+00
 5.9174933E+00 1.0281400E+00 1.9503118E+00
 5.9976528E+00 1.0000000E+00 1.9521138E+00
 6.0764604E+00 9.7074718E-01 1.9517291E+00
 6.1533958E+00 9.4052046E-01 1.9488195E+00
 6.2279884E+00 9.0947953E-01 1.9431078E+00
 6.2998705E+00 8.7777544E-01 1.9343827E+00
 6.3689271E+00 8.4554043E-01 1.9224772E+00
 6.4357064E+00 8.1301762E-01 1.9071919E+00
 5.2872225E+00 1.1657268E+00 1.9116895E+00
 5.3625872E+00 1.1447804E+00 1.9172886E+00
 5.4391897E+00 1.1233166E+00 1.9231009E+00
 5.5171405E+00 1.1009192E+00 1.9290180E+00
 5.5963112E+00 1.0774412E+00 1.9348187E+00
 5.6763894E+00 1.0528127E+00 1.9402093E+00
 5.7569462E+00 1.0269987E+00 1.9448438E+00
 5.8374888E+00 1.0000000E+00 1.9483420E+00
 5.9174933E+00 9.7186010E-01 1.9503118E+00
 5.9964290E+00 9.4266634E-01 1.9503712E+00
 6.0737788E+00 9.1254493E-01 1.9481706E+00
 6.1490670E+00 8.8164166E-01 1.9434086E+00
 6.2219072E+00 8.5009152E-01 1.9358389E+00
 6.2921307E+00 8.1799756E-01 1.9252545E+00
 6.3601409E+00 7.8552556E-01 1.9114403E+00
 5.2878628E+00 1.1192951E+00 1.9189378E+00
 5.3636714E+00 1.0971673E+00 1.9235847E+00
 5.4405176E+00 1.0744030E+00 1.9283793E+00
 5.5184977E+00 1.0506796E+00 1.9331704E+00
 5.5974665E+00 1.0258918E+00 1.9377192E+00
 5.6770956E+00 1.0000000E+00 1.9417251E+00
 5.7569462E+00 9.7300140E-01 1.9448438E+00
 5.8365226E+00 9.4493143E-01 1.9467058E+00
 5.9153094E+00 9.1586667E-01 1.9469400E+00
 5.9927977E+00 8.8592011E-01 1.9451943E+00
 6.0685123E+00 8.5522319E-01 1.9411531E+00
 6.1420534E+00 8.2389491E-01 1.9345435E+00
 6.2132010E+00 7.9201082E-01 1.9251256E+00
 6.2822030E+00 7.5966532E-01 1.9126624E+00
 5.2882985E+00 1.0719517E+00 1.9238641E+00
 5.3643330E+00 1.0487809E+00 1.9274231E+00
 5.4411902E+00 1.0248708E+00 1.9310516E+00
 5.5189540E+00 1.0000000E+00 1.9345665E+00
 5.5974665E+00 9.7410829E-01 1.9377191E+00
 5.6763895E+00 9.4718739E-01 1.9402092E+00
 5.7552809E+00 9.1926533E-01 1.9417013E+00
 5.8336526E+00 8.9040763E-01 1.9418443E+00
 5.9110091E+00 8.6071364E-01 1.9402936E+00
 5.9868807E+00 8.3030041E-01 1.9367278E+00
 6.0608592E+00 7.9927072E-01 1.9308570E+00
 6.1326761E+00 7.6767493E-01 1.9224138E+00
 6.2024185E+00 7.3554274E-01 1.9111367E+00
 5.2885191E+00 1.0240471E+00 1.9263562E+00
 5.3645554E+00 1.0000001E+00 1.9287129E+00
 5.4411902E+00 9.7512933E-01 1.9310516E+00
 5.5184977E+00 9.4932046E-01 1.9331703E+00
 5.5963113E+00 9.2255892E-01 1.9348186E+00
 5.6742899E+00 8.9486674E-01 1.9357032E+00
 5.7519971E+00 8.6629874E-01 1.9355043E+00
 5.8289635E+00 8.3694041E-01 1.9338940E+00
 5.9047292E+00 8.0689392E-01 1.9305550E+00
 5.9788824E+00 7.7624586E-01 1.9251876E+00
 6.0511093E+00 7.4502343E-01 1.9175044E+00
 6.1213341E+00 7.1319923E-01 1.9072162E+00
 5.2885191E+00 9.7595306E-01 1.9263561E+00
 5.3643330E+00 9.5121925E-01 1.9274230E+00
 5.4405176E+00 9.2559706E-01 1.9283792E+00
 5.5171406E+00 8.9908093E-01 1.9290178E+00
 5.5940317E+00 8.7170116E-01 1.9290944E+00
 5.6708543E+00 8.4350619E-01 1.9283287E+00
 5.7471888E+00 8.1456799E-01 1.9264207E+00
 5.8225975E+00 7.8497364E-01 1.9230661E+00
 5.8966700E+00 7.5479323E-01 1.9179653E+00
 5.9690507E+00 7.2403281E-01 1.9108162E+00
 6.0395010E+00 6.9261500E-01 1.9013019E+00
 5.2882985E+00 9.2804846E-01 1.9238639E+00
 5.3636715E+00 9.0283280E-01 1.9235844E+00
 5.4391897E+00 8.7668352E-01 1.9231006E+00
 5.5149177E+00 8.4970246E-01 1.9222145E+00
 5.5906877E+00 8.2196104E-01 1.9206942E+00
 5.6661776E+00 7.9352489E-01 1.9182768E+00
 5.7409952E+00 7.6446673E-01 1.9146818E+00
 5.8147434E+00 7.3483975E-01 1.9096180E+00
 5.8870299E+00 7.0463007E-01 1.9027773E+00
 5.9574568E+00 6.7371711E-01 1.8938153E+00
 5.2878628E+00 8.8070505E-01 1.9189374E+00
 5.3625872E+00 8.5521975E-01 1.9172883E+00
 5.4372401E+00 8.2877316E-01 1.9153438E+00
 5.5118865E+00 8.0156959E-01 1.9129276E+00
 5.5863697E+00 7.7371211E-01 1.9098255E+00
 5.6603901E+00 7.4526880E-01 1.9057912E+00
 5.7335869E+00 7.1627683E-01 1.9005526E+00
 5.8055439E+00 6.8670340E-01 1.8938029E+00
 5.8757107E+00 6.5639003E-01 1.8851755E+00
 5.2872226E+00 8.3427341E-01 1.9116890E+00
 5.3611074E+00 8.0872897E-01 1.9086798E+00
 5.4347172E+00 7.8221047E-01 1.9052898E+00
 5.5081260E+00 7.5501198E-01 1.9013740E+00
 5.5811923E+00 7.2725444E-01 1.8967371E+00
 5.6536385E+00 6.9897151E-01 1.8911372E+00
 5.7250476E+00 6.7011330E-01 1.8842794E+00
 5.7947334E+00 6.4048751E-01 1.8757801E+00
 5.2863938E+00 7.8907087E-01 1.9022783E+00
 5.3592681E+00 7.6366823E-01 1.8979496E+00
 5.4316869E+00 7.3728480E-01 1.8931604E+00
 5.5037333E+00 7.1028907E-01 1.8878037E+00
 5.5752772E+00 6.8277964E-01 1.8816903E+00
 5.6459468E+00 6.5470502E-01 1.8745496E+00
 5.7149494E+00 6.2584422E-01 1.8659912E+00
 5.2853956E+00 7.4537158E-01 1.8909031E+00
 5.3571163E+00 7.2029021E-01 1.8853209E+00
 5.4282236E+00 6.9421838E-01 1.8792021E+00
 5.4987998E+00 6.6755175E-01 1.8724680E+00
 5.5685864E+00 6.4031864E-01 1.8649030E+00
 5.6367337E+00 6.1228761E-01 1.8561238E+00
 5.2842564E+00 7.0339829E-01 1.8777880E+00
 5.3547070E+00 6.7878608E-01 1.8710357E+00
 5.4243973E+00 6.5313301E-01 1.8636580E+00
 5.4932427E+00 6.2680279E-01 1.8555711E+00
 5.5604006E+00 5.9964932E-01 1.8464397E+00
 5.2830028E+00 6.6332087E-01 1.8631727E+00
 5.3520872E+00 6.3925120E-01 1.8553273E+00
 5.4200636E+00 6.1399294E-01 1.8467100E+00
 5.4862037E+00 5.8776994E-01 1.8371406E+00
 5.2816676E+00 6.2523023E-01 1.8472899E+00
 5.3491412E+00 6.0166570E-01 1.8383848E+00
 5.4143349E+00 5.7651422E-01 1.8283753E+00
 5.2801624E+00 5.8910741E-01 1.8303347E+00
 5.3448438E+00 5.6566075E-01 1.8201741E+00
 5.2780774E+00 5.5485862E-01 1.8124540E+00
 5.1763660E+00 1.5089224E+00 1.7723702E+00
 5.1360598E+00 1.5335461E+00 1.7553890E+00
 5.0940807E+00 1.5589246E+00 1.7369395E+00
 5.0505208E+00 1.5849415E+00 1.7169596E+00
 5.0055520E+00 1.6114773E+00 1.6953940E+00
 4.9594078E+00 1.6384120E+00 1.6721663E+00
 4.9123307E+00 1.6656216E+00 1.6471823E+00
 4.8645971E+00 1.6929431E+00 1.6203584E+00
 4.8165251E+00 1.7201786E+00 1.5916238E+00
 4.7684621E+00 1.7470934E+00 1.5609308E+00
 4.7207749E+00 1.7734218E+00 1.5282624E+00
 4.6738361E+00 1.7988743E+00 1.4936419E+00
 4.6280105E+00 1.8231498E+00 1.4571410E+00
 4.5836427E+00 1.8459490E+00 1.4188853E+00
 4.5410444E+00 1.8669911E+00 1.3790564E+00
 4.5004847E+00 1.8860289E+00 1.3378887E+00
 4.4621827E+00 1.9028632E+00 1.2956612E+00
 4.4263028E+00 1.9173523E+00 1.2526847E+00
 4.3929532E+00 1.9294181E+00 1.2092864E+00
 4.3621967E+00 1.9390445E+00 1.1657943E+00
 4.3340820E+00 1.9462691E+00 1.1225535E+00
 4.3086582E+00 1.9511758E+00 1.0799120E+00
 4.2860551E+00 1.9538948E+00 1.0383700E+00
 3.5410612E+00 1.0892248E+00 1.7836960E+00
 3.5315630E+00 1.1473990E+00 1.7692703E+00
 3.5253149E+00 1.2071700E+00 1.7515711E+00
 3.5232971E+00 1.2684786E+00 1.7306982E+00
 3.5260422E+00 1.3308635E+00 1.7065701E+00
 3.5339575E+00 1.3936796E+00 1.6791454E+00
 3.5473640E+00 1.4561697E+00 1.6484767E+00
 3.5664720E+00 1.5175032E+00 1.6147275E+00
 3.5913487E+00 1.5768159E+00 1.5781735E+00
 3.6218980E+00 1.6332576E+00 1.5391972E+00
 3.6578535E+00 1.6860414E+00 1.4982739E+00
 3.6987855E+00 1.7344918E+00 1.4559511E+00
 3.7441220E+00 1.7780843E+00 1.4128199E+00
 3.7931811E+00 1.8164754E+00 1.3694841E+00
 3.8452116E+00 1.8495147E+00 1.3265263E+00
 3.8994380E+00 1.8772436E+00 1.2844786E+00
 3.9551035E+00 1.8998762E+00 1.2437985E+00
 4.0115124E+00 1.9177706E+00 1.2048525E+00
 4.0680562E+00 1.9313886E+00 1.1679104E+00
 4.1242433E+00 1.9412562E+00 1.1331381E+00
 4.1796637E+00 1.9479259E+00 1.1005366E+00
 4.2338480E+00 1.9519555E+00 1.0697216E+00
 3.5941330E+00 1.1241511E+00 1.8081753E+00
 3.5877008E+00 1.1838962E+00 1.7934110E+00
 3.5844407E+00 1.2444321E+00 1.7752043E+00
 3.5854955E+00 1.3060137E+00 1.7536919E+00
 3.5913903E+00 1.3682407E+00 1.7288007E+00
 3.6024731E+00 1.4304565E+00 1.7005008E+00
 3.6189887E+00 1.4918786E+00 1.6688718E+00
 3.6410612E+00 1.5516596E+00 1.6341149E+00
 3.6686660E+00 1.6089422E+00 1.5965507E+00
 3.7016158E+00 1.6629108E+00 1.5566077E+00
 3.7395611E+00 1.7128426E+00 1.5148055E+00
 3.7820051E+00 1.7581513E+00 1.4717280E+00
 3.8283307E+00 1.7984230E+00 1.4279927E+00
 3.8778384E+00 1.8334342E+00 1.3842156E+00
 3.9297881E+00 1.8631569E+00 1.3409786E+00
 3.9834440E+00 1.8877444E+00 1.2987998E+00
 4.0381173E+00 1.9075066E+00 1.2581116E+00
 4.0932046E+00 1.9228716E+00 1.2192454E+00
 4.1482261E+00 1.9343491E+00 1.1824035E+00
 4.2027932E+00 1.9424935E+00 1.1475758E+00
 4.2565268E+00 1.9479000E+00 1.1140964E+00
 3.6520460E+00 1.1579328E+00 1.8300902E+00
 3.6485259E+00 1.2183578E+00 1.8147506E+00
 3.6482506E+00 1.2792417E+00 1.7958829E+00
 3.6523560E+00 1.3407722E+00 1.7735795E+00
 3.6613322E+00 1.4025349E+00 1.7477737E+00
 3.6754615E+00 1.4638434E+00 1.7184611E+00
 3.6949108E+00 1.5238932E+00 1.6857588E+00
 3.7197178E+00 1.5818351E+00 1.6499143E+00
 3.7497697E+00 1.6368358E+00 1.6112983E+00
 3.7847960E+00 1.6881327E+00 1.5703893E+00
 3.8243765E+00 1.7350831E+00 1.5277506E+00
 3.8679631E+00 1.7772042E+00 1.4840003E+00
 3.9149128E+00 1.8141989E+00 1.4397759E+00
 3.9645279E+00 1.8459664E+00 1.3956985E+00
 4.0160986E+00 1.8725945E+00 1.3523395E+00
 4.0689487E+00 1.8943381E+00 1.3101926E+00
 4.1224764E+00 1.9115847E+00 1.2696504E+00
 4.1761954E+00 1.9248176E+00 1.2309748E+00
 4.2297234E+00 1.9345870E+00 1.1941769E+00
 4.2826385E+00 1.9415117E+00 1.1586575E+00
 3.7145383E+00 1.1908681E+00 1.8488990E+00
 3.7139126E+00 1.2514779E+00 1.8327784E+00
 3.7166399E+00 1.3122686E+00 1.8130772E+00
 3.7237911E+00 1.3733341E+00 1.7898373E+00
 3.7357833E+00 1.4342089E+00 1.7630018E+00
 3.7528241E+00 1.4941837E+00 1.7326007E+00
 3.7749978E+00 1.5524484E+00 1.6987975E+00
 3.8022572E+00 1.6081732E+00 1.6618912E+00
 3.8344076E+00 1.6605720E+00 1.6223047E+00
 3.8711078E+00 1.7089571E+00 1.5805639E+00
 3.9118844E+00 1.7527845E+00 1.5372703E+00
 3.9561602E+00 1.7916862E+00 1.4930658E+00
 4.0032896E+00 1.8254870E+00 1.4485963E+00
 4.0526005E+00 1.8542030E+00 1.4044741E+00
 4.1034380E+00 1.8780260E+00 1.3612454E+00
 4.1552079E+00 1.8972918E+00 1.3193626E+00
 4.2074242E+00 1.9124468E+00 1.2791437E+00
 4.2596975E+00 1.9240207E+00 1.2406703E+00
 4.3115905E+00 1.9326438E+00 1.2034343E+00
 3.7813690E+00 1.2227266E+00 1.8642345E+00
 3.7836373E+00 1.2830983E+00 1.8471582E+00
 3.7893685E+00 1.3433681E+00 1.8264782E+00