# TIME = 4.000000
VARIABLES = X, Y, Z, FX, FY, FZ
ZONE N=29232 E=58212 F=FEPOINT ET=TRIANGLE
  0.000E+00  9.502E-01  1.243E-03 3.2208546E+00 -1.2474803E-01 -2.5090400E+00
  0.000E+00  1.000E+00  0.000E+00 3.2194084E+00 5.0378176E-07 -2.5122404E+00
  4.318E-02  9.751E-01  3.108E-04 3.2192649E+00 -6.3316778E-02 -2.5496265E+00
  0.000E+00  1.050E+00  1.243E-03 3.2208546E+00 1.2474904E-01 -2.5090400E+00
  4.318E-02  1.025E+00  3.108E-04 3.2192649E+00 6.3317778E-02 -2.5496265E+00
  0.000E+00  1.100E+00  4.969E-03 3.2263887E+00 2.4961335E-01 -2.4996937E+00
  4.318E-02  1.075E+00  2.796E-03 3.2227234E+00 1.9000668E-01 -2.5432098E+00
  0.000E+00  1.149E+00  1.117E-02 3.2382741E+00 3.7461219E-01 -2.4846182E+00
  4.318E-02  1.124E+00  7.761E-03 3.2315954E+00 3.1686474E-01 -2.5307779E+00
  0.000E+00  1.198E+00  1.983E-02 3.2559208E+00 4.9893326E-01 -2.4635379E+00
  4.318E-02  1.174E+00  1.519E-02 3.2470462E+00 4.4359650E-01 -2.5125164E+00
  0.000E+00  1.247E+00  3.092E-02 3.2724816E+00 6.2093689E-01 -2.4354954E+00
  4.318E-02  1.223E+00  2.507E-02 3.2652184E+00 5.6884280E-01 -2.4877144E+00
  0.000E+00  1.295E+00  4.443E-02 3.2800037E+00 7.4022597E-01 -2.4005672E+00
  4.318E-02  1.271E+00  3.738E-02 3.2773080E+00 6.9118791E-01 -2.4555792E+00
  0.000E+00  1.342E+00  6.031E-02 3.2915460E+00 8.5852868E-01 -2.3604665E+00
  4.318E-02  1.318E+00  5.207E-02 3.2811693E+00 8.1155049E-01 -2.4172785E+00
  0.000E+00  1.388E+00  7.852E-02 3.3251047E+00 9.7603371E-01 -2.3154649E+00
  4.318E-02  1.365E+00  6.913E-02 3.3097874E+00 9.3149378E-01 -2.3742690E+00
  0.000E+00  1.434E+00  9.903E-02 3.3337077E+00 1.0903525E+00 -2.2638947E+00
  4.318E-02  1.411E+00  8.849E-02 3.3355440E+00 1.0493814E+00 -2.3253513E+00
  0.000E+00  1.478E+00  1.218E-01 3.3516260E+00 1.2015252E+00 -2.2064746E+00
  4.318E-02  1.456E+00  1.101E-01 3.3337389E+00 1.1636827E+00 -2.2698186E+00
  0.000E+00  1.521E+00  1.467E-01 3.3772473E+00 1.3101305E+00 -2.1439682E+00
  4.318E-02  1.500E+00  1.340E-01 3.3676203E+00 1.2752988E+00 -2.2089799E+00
  0.000E+00  1.563E+00  1.738E-01 3.3745378E+00 1.4153787E+00 -2.0759802E+00
  4.318E-02  1.543E+00  1.600E-01 3.3674527E+00 1.3839389E+00 -2.1427555E+00
  0.000E+00  1.604E+00  2.029E-01 3.3954508E+00 1.5170760E+00 -2.0028254E+00
  4.318E-02  1.584E+00  1.881E-01 3.3984546E+00 1.4889764E+00 -2.0710486E+00
  0.000E+00  1.643E+00  2.340E-01 3.4030978E+00 1.6150413E+00 -1.9247340E+00
  4.318E-02  1.623E+00  2.182E-01 3.3895656E+00 1.5903759E+00 -1.9942707E+00
  0.000E+00  1.680E+00  2.669E-01 3.4045726E+00 1.7089673E+00 -1.8418321E+00
  4.318E-02  1.662E+00  2.502E-01 3.4059314E+00 1.6878046E+00 -1.9125194E+00
  0.000E+00  1.716E+00  3.018E-01 3.4058826E+00 1.7986535E+00 -1.7543553E+00
  4.318E-02  1.698E+00  2.841E-01 3.4059141E+00 1.7810373E+00 -1.8260081E+00
  0.000E+00  1.750E+00  3.383E-01 3.4059001E+00 1.8838688E+00 -1.6625192E+00
  4.318E-02  1.733E+00  3.198E-01 3.4046043E+00 1.8698444E+00 -1.7349580E+00
  0.000E+00  1.782E+00  3.765E-01 3.3895343E+00 1.9643953E+00 -1.5665500E+00
  4.318E-02  1.766E+00  3.572E-01 3.4031294E+00 1.9540071E+00 -1.6396035E+00
  0.000E+00  1.812E+00  4.163E-01 3.3984237E+00 2.0400235E+00 -1.4666697E+00
  4.318E-02  1.797E+00  3.962E-01 3.3954825E+00 2.0332862E+00 -1.5401485E+00
  0.000E+00  1.840E+00  4.575E-01 3.3674218E+00 2.1106558E+00 -1.3632055E+00
  4.318E-02  1.826E+00  4.367E-01 3.3745696E+00 2.1075538E+00 -1.4369045E+00
  0.000E+00  1.866E+00  5.000E-01 3.3675898E+00 2.1758881E+00 -1.2561929E+00
  4.318E-02  1.853E+00  4.786E-01 3.3772790E+00 2.1765752E+00 -1.3300556E+00
  0.000E+00  1.890E+00  5.438E-01 3.3337086E+00 2.2358157E+00 -1.1462490E+00
  4.318E-02  1.878E+00  5.217E-01 3.3516577E+00 2.2400324E+00 -1.2197985E+00
  0.000E+00  1.912E+00  5.887E-01 3.3355141E+00 2.2905164E+00 -1.0336603E+00
  4.318E-02  1.901E+00  5.661E-01 3.3337396E+00 2.2983264E+00 -1.1069352E+00
  0.000E+00  1.931E+00  6.347E-01 3.3097578E+00 2.3387016E+00 -9.1753856E-01
  4.318E-02  1.921E+00  6.116E-01 3.3251362E+00 2.3506802E+00 -9.9087772E-01
  0.000E+00  1.948E+00  6.815E-01 3.2811397E+00 2.3810667E+00 -7.9939184E-01
  4.318E-02  1.940E+00  6.580E-01 3.2915775E+00 2.3963670E+00 -8.7158576E-01
  0.000E+00  1.963E+00  7.292E-01 3.2772788E+00 2.4187931E+00 -6.8083244E-01
  4.318E-02  1.956E+00  7.052E-01 3.2800350E+00 2.4370775E+00 -7.5148386E-01
  0.000E+00  1.975E+00  7.775E-01 3.2651896E+00 2.4504469E+00 -5.6032035E-01
  4.318E-02  1.969E+00  7.532E-01 3.2725127E+00 2.4725359E+00 -6.3038047E-01
  0.000E+00  1.985E+00  8.264E-01 3.2470176E+00 2.4748775E+00 -4.3695047E-01
  4.318E-02  1.980E+00  8.019E-01 3.2559519E+00 2.5010050E+00 -5.0652134E-01
  0.000E+00  1.992E+00  8.757E-01 3.2315668E+00 2.4928654E+00 -3.1211734E-01
  4.318E-02  1.989E+00  8.510E-01 3.2383054E+00 2.5224066E+00 -3.8030957E-01
  0.000E+00  1.997E+00  9.253E-01 3.2226947E+00 2.5051109E+00 -1.8715983E-01
  4.318E-02  1.995E+00  9.004E-01 3.2264203E+00 2.5377119E+00 -2.5340964E-01
  0.000E+00  2.000E+00  9.751E-01 3.2192363E+00 2.5114314E+00 -6.2368948E-02
  4.318E-02  1.999E+00  9.502E-01 3.2208865E+00 2.5472003E+00 -1.2664620E-01
  0.000E+00  2.000E+00  1.025E+00 3.2192364E+00 2.5114313E+00 6.2368407E-02
  4.318E-02  2.000E+00  1.000E+00 3.2194404E+00 2.5504494E+00 -2.6741762E-07
  0.000E+00  1.997E+00  1.075E+00 3.2226950E+00 2.5051107E+00 1.8715929E-01
  4.318E-02  1.999E+00  1.050E+00 3.2208867E+00 2.5472002E+00 1.2664567E-01
  0.000E+00  1.992E+00  1.124E+00 3.2315672E+00 2.4928651E+00 3.1211681E-01
  4.318E-02  1.995E+00  1.100E+00 3.2264207E+00 2.5377116E+00 2.5340910E-01
  0.000E+00  1.985E+00  1.174E+00 3.2470183E+00 2.4748774E+00 4.3694994E-01
  4.318E-02  1.989E+00  1.149E+00 3.2383060E+00 2.5224064E+00 3.8030903E-01
  0.000E+00  1.975E+00  1.223E+00 3.2651904E+00 2.4504473E+00 5.6031981E-01
  4.318E-02  1.980E+00  1.198E+00 3.2559527E+00 2.5010052E+00 5.0652079E-01
  0.000E+00  1.963E+00  1.271E+00 3.2772799E+00 2.4187931E+00 6.8083190E-01
  4.318E-02  1.969E+00  1.247E+00 3.2725136E+00 2.4725363E+00 6.3037993E-01
  0.000E+00  1.948E+00  1.318E+00 3.2811409E+00 2.3810658E+00 7.9939129E-01
  4.318E-02  1.956E+00  1.295E+00 3.2800361E+00 2.4370769E+00 7.5148331E-01
  0.000E+00  1.931E+00  1.365E+00 3.3097592E+00 2.3387018E+00 9.1753801E-01
  4.318E-02  1.940E+00  1.342E+00 3.2915788E+00 2.3963664E+00 8.7158521E-01
  0.000E+00  1.912E+00  1.411E+00 3.3355157E+00 2.2905169E+00 1.0336597E+00
  4.318E-02  1.921E+00  1.388E+00 3.3251377E+00 2.3506808E+00 9.9087717E-01
  0.000E+00  1.890E+00  1.456E+00 3.3337104E+00 2.2358149E+00 1.1462485E+00
  4.318E-02  1.901E+00  1.434E+00 3.3337412E+00 2.2983260E+00 1.1069346E+00
  0.000E+00  1.866E+00  1.500E+00 3.3675918E+00 2.1758884E+00 1.2561924E+00
  4.318E-02  1.878E+00  1.478E+00 3.3516595E+00 2.2400321E+00 1.2197980E+00
  0.000E+00  1.840E+00  1.543E+00 3.3674239E+00 2.1106557E+00 1.3632050E+00
  4.318E-02  1.853E+00  1.521E+00 3.3772809E+00 2.1765756E+00 1.3300550E+00
  0.000E+00  1.812E+00  1.584E+00 3.3984260E+00 2.0400235E+00 1.4666691E+00
  4.318E-02  1.826E+00  1.563E+00 3.3745716E+00 2.1075535E+00 1.4369039E+00
  0.000E+00  1.782E+00  1.623E+00 3.3895367E+00 1.9643954E+00 1.5665495E+00
  4.318E-02  1.797E+00  1.604E+00 3.3954847E+00 2.0332864E+00 1.5401479E+00
  0.000E+00  1.750E+00  1.662E+00 3.4059026E+00 1.8838688E+00 1.6625187E+00
  4.318E-02  1.766E+00  1.643E+00 3.4031318E+00 1.9540070E+00 1.6396029E+00
  0.000E+00  1.716E+00  1.698E+00 3.4058853E+00 1.7986535E+00 1.7543547E+00
  4.318E-02  1.733E+00  1.680E+00 3.4046067E+00 1.8698445E+00 1.7349575E+00
  0.000E+00  1.680E+00  1.733E+00 3.4045753E+00 1.7089673E+00 1.8418315E+00
  4.318E-02  1.698E+00  1.716E+00 3.4059167E+00 1.7810372E+00 1.8260076E+00
  0.000E+00  1.643E+00  1.766E+00 3.4031006E+00 1.6150413E+00 1.9247334E+00
  4.318E-02  1.662E+00  1.750E+00 3.4059341E+00 1.6878047E+00 1.9125188E+00
  0.000E+00  1.604E+00  1.797E+00 3.3954537E+00 1.5170760E+00 2.0028248E+00
  4.318E-02  1.623E+00  1.782E+00 3.3895684E+00 1.5903759E+00 1.9942702E+00
  0.000E+00  1.563E+00  1.826E+00 3.3745408E+00 1.4153787E+00 2.0759797E+00
  4.318E-02  1.584E+00  1.812E+00 3.3984575E+00 1.4889764E+00 2.0710481E+00
  0.000E+00  1.521E+00  1.853E+00 3.3772504E+00 1.3101306E+00 2.1439676E+00
  4.318E-02  1.543E+00  1.840E+00 3.3674557E+00 1.3839389E+00 2.1427550E+00
  0.000E+00  1.478E+00  1.878E+00 3.3516292E+00 1.2015253E+00 2.2064740E+00
  4.318E-02  1.500E+00  1.866E+00 3.3676234E+00 1.2752988E+00 2.2089794E+00
  0.000E+00  1.434E+00  1.901E+00 3.3337109E+00 1.0903524E+00 2.2638940E+00
  4.318E-02  1.456E+00  1.890E+00 3.3337422E+00 1.1636829E+00 2.2698181E+00
  0.000E+00  1.388E+00  1.921E+00 3.3251079E+00 9.7603366E-01 2.3154643E+00
  4.318E-02  1.411E+00  1.912E+00 3.3355473E+00 1.0493817E+00 2.3253508E+00
  0.000E+00  1.342E+00  1.940E+00 3.2915491E+00 8.5852887E-01 2.3604660E+00
  4.318E-02  1.365E+00  1.931E+00 3.3097908E+00 9.3149397E-01 2.3742685E+00
  0.000E+00  1.295E+00  1.956E+00 3.2800067E+00 7.4022648E-01 2.4005667E+00
  4.318E-02  1.318E+00  1.948E+00 3.2811728E+00 8.1155047E-01 2.4172780E+00
  0.000E+00  1.247E+00  1.969E+00 3.2724846E+00 6.2093753E-01 2.4354950E+00
  4.318E-02  1.271E+00  1.963E+00 3.2773117E+00 6.9118774E-01 2.4555786E+00
  0.000E+00  1.198E+00  1.980E+00 3.2559239E+00 4.9893378E-01 2.4635375E+00
  4.318E-02  1.223E+00  1.975E+00 3.2652221E+00 5.6884265E-01 2.4877138E+00
  0.000E+00  1.149E+00  1.989E+00 3.2382773E+00 3.7461251E-01 2.4846179E+00
  4.318E-02  1.174E+00  1.985E+00 3.2470499E+00 4.4359652E-01 2.5125158E+00
  0.000E+00  1.100E+00  1.995E+00 3.2263921E+00 2.4961354E-01 2.4996934E+00
  4.318E-02  1.124E+00  1.992E+00 3.2315990E+00 3.1686492E-01 2.5307774E+00
  0.000E+00  1.050E+00  1.999E+00 3.2208581E+00 1.2474925E-01 2.5090395E+00
  4.318E-02  1.075E+00  1.997E+00 3.2227269E+00 1.9000695E-01 2.5432093E+00
  0.000E+00  1.000E+00  2.000E+00 3.2194120E+00 7.7123818E-07 2.5122401E+00
  4.318E-02  1.025E+00  2.000E+00 3.2192684E+00 6.3318052E-02 2.5496260E+00
  0.000E+00  9.502E-01  1.999E+00 3.2208581E+00 -1.2474770E-01 2.5090395E+00
  4.318E-02  9.751E-01  2.000E+00 3.2192684E+00 -6.3316522E-02 2.5496260E+00
  0.000E+00  9.004E-01  1.995E+00 3.2263921E+00 -2.4961200E-01 2.4996934E+00
  4.318E-02  9.253E-01  1.997E+00 3.2227269E+00 -1.9000542E-01 2.5432094E+00
  0.000E+00  8.510E-01  1.989E+00 3.2382774E+00 -3.7461098E-01 2.4846180E+00
  4.318E-02  8.757E-01  1.992E+00 3.2315990E+00 -3.1686340E-01 2.5307775E+00
  0.000E+00  8.019E-01  1.980E+00 3.2559239E+00 -4.9893225E-01 2.4635376E+00
  4.318E-02  8.264E-01  1.985E+00 3.2470500E+00 -4.4359500E-01 2.5125160E+00
  0.000E+00  7.532E-01  1.969E+00 3.2724846E+00 -6.2093600E-01 2.4354951E+00
  4.318E-02  7.775E-01  1.975E+00 3.2652221E+00 -5.6884114E-01 2.4877140E+00
  0.000E+00  7.052E-01  1.956E+00 3.2800067E+00 -7.4022496E-01 2.4005669E+00
  4.318E-02  7.292E-01  1.963E+00 3.2773117E+00 -6.9118623E-01 2.4555788E+00
  0.000E+00  6.580E-01  1.940E+00 3.2915492E+00 -8.5852736E-01 2.3604661E+00
  4.318E-02  6.815E-01  1.948E+00 3.2811728E+00 -8.1154897E-01 2.4172782E+00
  0.000E+00  6.116E-01  1.921E+00 3.3251080E+00 -9.7603215E-01 2.3154646E+00
  4.318E-02  6.347E-01  1.931E+00 3.3097908E+00 -9.3149248E-01 2.3742687E+00
  0.000E+00  5.661E-01  1.901E+00 3.3337109E+00 -1.0903509E+00 2.2638943E+00
  4.318E-02  5.887E-01  1.912E+00 3.3355474E+00 -1.0493802E+00 2.3253510E+00
  0.000E+00  5.217E-01  1.878E+00 3.3516292E+00 -1.2015238E+00 2.2064743E+00
  4.318E-02  5.438E-01  1.890E+00 3.3337422E+00 -1.1636814E+00 2.2698184E+00
  0.000E+00  4.786E-01  1.853E+00 3.3772504E+00 -1.3101292E+00 2.1439679E+00
  4.318E-02  5.000E-01  1.866E+00 3.3676234E+00 -1.2752974E+00 2.2089797E+00
  0.000E+00  4.367E-01  1.826E+00 3.3745409E+00 -1.4153773E+00 2.0759800E+00
  4.318E-02  4.575E-01  1.840E+00 3.3674558E+00 -1.3839375E+00 2.1427553E+00
  0.000E+00  3.962E-01  1.797E+00 3.3954538E+00 -1.5170746E+00 2.0028251E+00
  4.318E-02  4.163E-01  1.812E+00 3.3984576E+00 -1.4889750E+00 2.0710484E+00
  0.000E+00  3.572E-01  1.766E+00 3.4031007E+00 -1.6150399E+00 1.9247337E+00
  4.318E-02  3.765E-01  1.782E+00 3.3895684E+00 -1.5903745E+00 1.9942705E+00
  0.000E+00  3.198E-01  1.733E+00 3.4045754E+00 -1.7089659E+00 1.8418319E+00
  4.318E-02  3.383E-01  1.750E+00 3.4059342E+00 -1.6878032E+00 1.9125192E+00
  0.000E+00  2.841E-01  1.698E+00 3.4058853E+00 -1.7986521E+00 1.7543551E+00
  4.318E-02  3.018E-01  1.716E+00 3.4059168E+00 -1.7810359E+00 1.8260079E+00
  0.000E+00  2.502E-01  1.662E+00 3.4059027E+00 -1.8838674E+00 1.6625190E+00
  4.318E-02  2.669E-01  1.680E+00 3.4046068E+00 -1.8698430E+00 1.7349578E+00
  0.000E+00  2.182E-01  1.623E+00 3.3895368E+00 -1.9643939E+00 1.5665498E+00
  4.318E-02  2.340E-01  1.643E+00 3.4031319E+00 -1.9540057E+00 1.6396033E+00
  0.000E+00  1.881E-01  1.584E+00 3.3984260E+00 -2.0400221E+00 1.4666695E+00
  4.318E-02  2.029E-01  1.604E+00 3.3954848E+00 -2.0332848E+00 1.5401483E+00
  0.000E+00  1.600E-01  1.543E+00 3.3674240E+00 -2.1106544E+00 1.3632053E+00
  4.318E-02  1.738E-01  1.563E+00 3.3745717E+00 -2.1075525E+00 1.4369043E+00
  0.000E+00  1.340E-01  1.500E+00 3.3675919E+00 -2.1758868E+00 1.2561927E+00
  4.318E-02  1.467E-01  1.521E+00 3.3772810E+00 -2.1765739E+00 1.3300554E+00
  0.000E+00  1.101E-01  1.456E+00 3.3337105E+00 -2.2358144E+00 1.1462488E+00
  4.318E-02  1.218E-01  1.478E+00 3.3516595E+00 -2.2400311E+00 1.2197984E+00
  0.000E+00  8.849E-02  1.411E+00 3.3355158E+00 -2.2905151E+00 1.0336601E+00
  4.318E-02  9.903E-02  1.434E+00 3.3337413E+00 -2.2983251E+00 1.1069350E+00
  0.000E+00  6.913E-02  1.365E+00 3.3097593E+00 -2.3387003E+00 9.1753836E-01
  4.318E-02  7.852E-02  1.388E+00 3.3251377E+00 -2.3506789E+00 9.9087752E-01
  0.000E+00  5.207E-02  1.318E+00 3.2811410E+00 -2.3810654E+00 7.9939164E-01
  4.318E-02  6.031E-02  1.342E+00 3.2915789E+00 -2.3963658E+00 8.7158556E-01
  0.000E+00  3.738E-02  1.271E+00 3.2772800E+00 -2.4187919E+00 6.8083224E-01
  4.318E-02  4.443E-02  1.295E+00 3.2800362E+00 -2.4370762E+00 7.5148365E-01
  0.000E+00  2.507E-02  1.223E+00 3.2651906E+00 -2.4504457E+00 5.6032013E-01
  4.318E-02  3.092E-02  1.247E+00 3.2725137E+00 -2.4725347E+00 6.3038025E-01
  0.000E+00  1.519E-02  1.174E+00 3.2470184E+00 -2.4748763E+00 4.3695025E-01
  4.318E-02  1.983E-02  1.198E+00 3.2559528E+00 -2.5010038E+00 5.0652111E-01
  0.000E+00  7.761E-03  1.124E+00 3.2315673E+00 -2.4928642E+00 3.1211711E-01
  4.318E-02  1.117E-02  1.149E+00 3.2383061E+00 -2.5224055E+00 3.8030933E-01
  0.000E+00  2.796E-03  1.075E+00 3.2226951E+00 -2.5051098E+00 1.8715958E-01
  4.318E-02  4.969E-03  1.100E+00 3.2264208E+00 -2.5377107E+00 2.5340939E-01
  0.000E+00  3.108E-04  1.025E+00 3.2192365E+00 -2.5114302E+00 6.2368679E-02
  4.318E-02  1.243E-03  1.050E+00 3.2208868E+00 -2.5471992E+00 1.2664594E-01
  0.000E+00  3.108E-04  9.751E-01 3.2192364E+00 -2.5114302E+00 -6.2368691E-02
  4.318E-02  0.000E+00  1.000E+00 3.2194405E+00 -2.5504483E+00 -5.9593885E-09
  0.000E+00  2.796E-03  9.253E-01 3.2226948E+00 -2.5051096E+00 -1.8715959E-01
  4.318E-02  1.243E-03  9.502E-01 3.2208866E+00 -2.5471991E+00 -1.2664596E-01
  0.000E+00  7.761E-03  8.757E-01 3.2315669E+00 -2.4928640E+00 -3.1211711E-01
  4.318E-02  4.969E-03  9.004E-01 3.2264204E+00 -2.5377105E+00 -2.5340941E-01
  0.000E+00  1.519E-02  8.264E-01 3.2470178E+00 -2.4748764E+00 -4.3695026E-01
  4.318E-02  1.117E-02  8.510E-01 3.2383055E+00 -2.5224054E+00 -3.8030936E-01
  0.000E+00  2.507E-02  7.775E-01 3.2651897E+00 -2.4504462E+00 -5.6032015E-01
  4.318E-02  1.983E-02  8.019E-01 3.2559520E+00 -2.5010042E+00 -5.0652114E-01
  0.000E+00  3.738E-02  7.292E-01 3.2772790E+00 -2.4187921E+00 -6.8083226E-01
  4.318E-02  3.092E-02  7.532E-01 3.2725128E+00 -2.4725353E+00 -6.3038029E-01
  0.000E+00  5.207E-02  6.815E-01 3.2811398E+00 -2.3810648E+00 -7.9939167E-01
  4.318E-02  4.443E-02  7.052E-01 3.2800351E+00 -2.4370760E+00 -7.5148369E-01
  0.000E+00  6.913E-02  6.347E-01 3.3097579E+00 -2.3387008E+00 -9.1753841E-01
  4.318E-02  6.031E-02  6.580E-01 3.2915776E+00 -2.3963654E+00 -8.7158561E-01
  0.000E+00  8.849E-02  5.887E-01 3.3355142E+00 -2.2905159E+00 -1.0336602E+00
  4.318E-02  7.852E-02  6.116E-01 3.3251363E+00 -2.3506799E+00 -9.9087758E-01
  0.000E+00  1.101E-01  5.438E-01 3.3337087E+00 -2.2358139E+00 -1.1462489E+00
  4.318E-02  9.903E-02  5.661E-01 3.3337397E+00 -2.2983250E+00 -1.1069350E+00
  0.000E+00  1.340E-01  5.000E-01 3.3675899E+00 -2.1758874E+00 -1.2561928E+00
  4.318E-02  1.218E-01  5.217E-01 3.3516578E+00 -2.2400311E+00 -1.2197984E+00
  0.000E+00  1.600E-01  4.575E-01 3.3674219E+00 -2.1106547E+00 -1.3632054E+00
  4.318E-02  1.467E-01  4.786E-01 3.3772791E+00 -2.1765746E+00 -1.3300555E+00
  0.000E+00  1.881E-01  4.163E-01 3.3984238E+00 -2.0400225E+00 -1.4666696E+00
  4.318E-02  1.738E-01  4.367E-01 3.3745697E+00 -2.1075525E+00 -1.4369044E+00
  0.000E+00  2.182E-01  3.765E-01 3.3895344E+00 -1.9643944E+00 -1.5665499E+00
  4.318E-02  2.029E-01  3.962E-01 3.3954826E+00 -2.0332854E+00 -1.5401484E+00
  0.000E+00  2.502E-01  3.383E-01 3.4059002E+00 -1.8838678E+00 -1.6625192E+00
  4.318E-02  2.340E-01  3.572E-01 3.4031295E+00 -1.9540060E+00 -1.6396034E+00
  0.000E+00  2.841E-01  3.018E-01 3.4058827E+00 -1.7986525E+00 -1.7543552E+00
  4.318E-02  2.669E-01  3.198E-01 3.4046043E+00 -1.8698435E+00 -1.7349580E+00
  0.000E+00  3.198E-01  2.669E-01 3.4045727E+00 -1.7089663E+00 -1.8418320E+00
  4.318E-02  3.018E-01  2.841E-01 3.4059142E+00 -1.7810362E+00 -1.8260081E+00
  0.000E+00  3.572E-01  2.340E-01 3.4030978E+00 -1.6150403E+00 -1.9247339E+00
  4.318E-02  3.383E-01  2.502E-01 3.4059315E+00 -1.6878037E+00 -1.9125194E+00
  0.000E+00  3.962E-01  2.029E-01 3.3954508E+00 -1.5170750E+00 -2.0028254E+00
  4.318E-02  3.765E-01  2.182E-01 3.3895656E+00 -1.5903749E+00 -1.9942707E+00
  0.000E+00  4.367E-01  1.738E-01 3.3745378E+00 -1.4153777E+00 -2.0759802E+00
  4.318E-02  4.163E-01  1.881E-01 3.3984547E+00 -1.4889754E+00 -2.0710486E+00
  0.000E+00  4.786E-01  1.467E-01 3.3772473E+00 -1.3101295E+00 -2.1439682E+00
  4.318E-02  4.575E-01  1.600E-01 3.3674528E+00 -1.3839379E+00 -2.1427555E+00
  0.000E+00  5.217E-01  1.218E-01 3.3516260E+00 -1.2015242E+00 -2.2064746E+00
  4.318E-02  5.000E-01  1.340E-01 3.3676203E+00 -1.2752978E+00 -2.2089799E+00
  0.000E+00  5.661E-01  9.903E-02 3.3337078E+00 -1.0903515E+00 -2.2638947E+00
  4.318E-02  5.438E-01  1.101E-01 3.3337390E+00 -1.1636817E+00 -2.2698186E+00
  0.000E+00  6.116E-01  7.852E-02 3.3251047E+00 -9.7603273E-01 -2.3154649E+00
  4.318E-02  5.887E-01  8.849E-02 3.3355441E+00 -1.0493805E+00 -2.3253513E+00
  0.000E+00  6.580E-01  6.031E-02 3.2915460E+00 -8.5852767E-01 -2.3604665E+00
  4.318E-02  6.347E-01  6.913E-02 3.3097875E+00 -9.3149279E-01 -2.3742690E+00
  0.000E+00  7.052E-01  4.443E-02 3.2800037E+00 -7.4022497E-01 -2.4005672E+00
  4.318E-02  6.815E-01  5.207E-02 3.2811693E+00 -8.1154950E-01 -2.4172785E+00
  0.000E+00  7.532E-01  3.092E-02 3.2724816E+00 -6.2093589E-01 -2.4354954E+00
  4.318E-02  7.292E-01  3.738E-02 3.2773080E+00 -6.9118692E-01 -2.4555792E+00
  0.000E+00  8.019E-01  1.983E-02 3.2559208E+00 -4.9893225E-01 -2.4635379E+00
  4.318E-02  7.775E-01  2.507E-02 3.2652184E+00 -5.6884180E-01 -2.4877144E+00
  0.000E+00  8.510E-01  1.117E-02 3.2382741E+00 -3.7461119E-01 -2.4846182E+00
  4.318E-02  8.264E-01  1.519E-02 3.2470462E+00 -4.4359551E-01 -2.5125164E+00
  0.000E+00  9.004E-01  4.969E-03 3.2263887E+00 -2.4961234E-01 -2.4996937E+00
  4.318E-02  8.757E-01  7.761E-03 3.2315954E+00 -3.1686374E-01 -2.5307779E+00
  4.318E-02  9.253E-01  2.796E-03 3.2227234E+00 -1.9000568E-01 -2.5432098E+00
  1.000E+01  1.050E+00  1.243E-03 3.2208546E+00 1.2474904E-01 -2.5090400E+00
  1.000E+01  1.000E+00  5.551E-16 3.2194084E+00 5.0378176E-07 -2.5122404E+00
  9.957E+00  1.025E+00  3.108E-04 3.2192550E+00 6.1428809E-02 -2.4735650E+00
  1.000E+01  9.502E-01  1.243E-03 3.2208546E+00 -1.2474803E-01 -2.5090400E+00
  9.957E+00  9.751E-01  3.108E-04 3.2192550E+00 -6.1427796E-02 -2.4735650E+00
  1.000E+01  9.004E-01  4.969E-03 3.2263887E+00 -2.4961234E-01 -2.4996937E+00
  9.957E+00  9.253E-01  2.796E-03 3.2227135E+00 -1.8433713E-01 -2.4673398E+00
  1.000E+01  8.510E-01  1.117E-02 3.2382741E+00 -3.7461119E-01 -2.4846182E+00
  9.957E+00  8.757E-01  7.761E-03 3.2315857E+00 -3.0741058E-01 -2.4552789E+00
  1.000E+01  8.019E-01  1.983E-02 3.2559208E+00 -4.9893225E-01 -2.4635379E+00
  9.957E+00  8.264E-01  1.519E-02 3.2470365E+00 -4.3036153E-01 -2.4375623E+00
  1.000E+01  7.532E-01  3.092E-02 3.2724816E+00 -6.2093589E-01 -2.4354954E+00
  9.957E+00  7.775E-01  2.507E-02 3.2652085E+00 -5.5187130E-01 -2.4135001E+00
  1.000E+01  7.052E-01  4.443E-02 3.2800037E+00 -7.4022497E-01 -2.4005672E+00
  9.957E+00  7.292E-01  3.738E-02 3.2772980E+00 -6.7056641E-01 -2.3823234E+00
  1.000E+01  6.580E-01  6.031E-02 3.2915460E+00 -8.5852767E-01 -2.3604665E+00
  9.957E+00  6.815E-01  5.207E-02 3.2811594E+00 -7.8733823E-01 -2.3451655E+00
  1.000E+01  6.116E-01  7.852E-02 3.3251047E+00 -9.7603273E-01 -2.3154649E+00
  9.957E+00  6.347E-01  6.913E-02 3.3097778E+00 -9.0370344E-01 -2.3034396E+00
  1.000E+01  5.661E-01  9.903E-02 3.3337078E+00 -1.0903515E+00 -2.2638947E+00
  9.957E+00  5.887E-01  8.849E-02 3.3355343E+00 -1.0180743E+00 -2.2559808E+00
  1.000E+01  5.217E-01  1.218E-01 3.3516260E+00 -1.2015242E+00 -2.2064746E+00
  9.957E+00  5.438E-01  1.101E-01 3.3337293E+00 -1.1289659E+00 -2.2021051E+00
  1.000E+01  4.786E-01  1.467E-01 3.3772473E+00 -1.3101295E+00 -2.1439682E+00
  9.957E+00  5.000E-01  1.340E-01 3.3676106E+00 -1.2372522E+00 -2.1430815E+00
  1.000E+01  4.367E-01  1.738E-01 3.3745378E+00 -1.4153777E+00 -2.0759802E+00
  9.957E+00  4.575E-01  1.600E-01 3.3674430E+00 -1.3426513E+00 -2.0788323E+00
  1.000E+01  3.962E-01  2.029E-01 3.3954508E+00 -1.5170750E+00 -2.0028254E+00
  9.957E+00  4.163E-01  1.881E-01 3.3984450E+00 -1.4445556E+00 -2.0092649E+00
  1.000E+01  3.572E-01  2.340E-01 3.4030978E+00 -1.6150403E+00 -1.9247339E+00
  9.957E+00  3.765E-01  2.182E-01 3.3895559E+00 -1.5429301E+00 -1.9347771E+00
  1.000E+01  3.198E-01  2.669E-01 3.4045727E+00 -1.7089663E+00 -1.8418320E+00
  9.957E+00  3.383E-01  2.502E-01 3.4059218E+00 -1.6374526E+00 -1.8554648E+00
  1.000E+01  2.841E-01  3.018E-01 3.4058827E+00 -1.7986525E+00 -1.7543552E+00
  9.957E+00  3.018E-01  2.841E-01 3.4059046E+00 -1.7279040E+00 -1.7715342E+00
  1.000E+01  2.502E-01  3.383E-01 3.4059002E+00 -1.8838678E+00 -1.6625192E+00
  9.957E+00  2.669E-01  3.198E-01 3.4045945E+00 -1.8140618E+00 -1.6832000E+00
  1.000E+01  2.182E-01  3.765E-01 3.3895344E+00 -1.9643944E+00 -1.5665499E+00
  9.957E+00  2.340E-01  3.572E-01 3.4031199E+00 -1.8957139E+00 -1.5906902E+00
  1.000E+01  1.881E-01  4.163E-01 3.3984238E+00 -2.0400225E+00 -1.4666696E+00
  9.957E+00  2.029E-01  3.962E-01 3.3954729E+00 -1.9726280E+00 -1.4942019E+00
  1.000E+01  1.600E-01  4.575E-01 3.3674219E+00 -2.1106547E+00 -1.3632054E+00
  9.957E+00  1.738E-01  4.367E-01 3.3745601E+00 -2.0446799E+00 -1.3940379E+00
  1.000E+01  1.340E-01  5.000E-01 3.3675899E+00 -2.1758874E+00 -1.2561928E+00
  9.957E+00  1.467E-01  4.786E-01 3.3772693E+00 -2.1116426E+00 -1.2903764E+00
  1.000E+01  1.101E-01  5.438E-01 3.3337087E+00 -2.2358139E+00 -1.1462489E+00
  9.957E+00  1.218E-01  5.217E-01 3.3516482E+00 -2.1732064E+00 -1.1834085E+00
  1.000E+01  8.849E-02  5.887E-01 3.3355142E+00 -2.2905159E+00 -1.0336602E+00
  9.957E+00  9.903E-02  5.661E-01 3.3337297E+00 -2.2297606E+00 -1.0739118E+00
  1.000E+01  6.913E-02  6.347E-01 3.3097579E+00 -2.3387008E+00 -9.1753841E-01
  9.957E+00  7.852E-02  6.116E-01 3.3251265E+00 -2.2805540E+00 -9.6131675E-01
  1.000E+01  5.207E-02  6.815E-01 3.2811398E+00 -2.3810648E+00 -7.9939167E-01
  9.957E+00  6.031E-02  6.580E-01 3.2915680E+00 -2.3248767E+00 -8.4558367E-01
  1.000E+01  3.738E-02  7.292E-01 3.2772790E+00 -2.4187921E+00 -6.8083226E-01
  9.957E+00  4.443E-02  7.052E-01 3.2800253E+00 -2.3643722E+00 -7.2906468E-01
  1.000E+01  2.507E-02  7.775E-01 3.2651897E+00 -2.4504462E+00 -5.6032015E-01
  9.957E+00  3.092E-02  7.532E-01 3.2725029E+00 -2.3987738E+00 -6.1157404E-01
  1.000E+01  1.519E-02  8.264E-01 3.2470178E+00 -2.4748764E+00 -4.3695026E-01
  9.957E+00  1.983E-02  8.019E-01 3.2559422E+00 -2.4263935E+00 -4.9140983E-01
  1.000E+01  7.761E-03  8.757E-01 3.2315669E+00 -2.4928640E+00 -3.1211711E-01
  9.957E+00  1.117E-02  8.510E-01 3.2382957E+00 -2.4471561E+00 -3.6896322E-01
  1.000E+01  2.796E-03  9.253E-01 3.2226948E+00 -2.5051096E+00 -1.8715959E-01
  9.957E+00  4.969E-03  9.004E-01 3.2264105E+00 -2.4620045E+00 -2.4584911E-01
  1.000E+01  3.108E-04  9.751E-01 3.2192364E+00 -2.5114302E+00 -6.2368691E-02
  9.957E+00  1.243E-03  9.502E-01 3.2208767E+00 -2.4712100E+00 -1.2286752E-01
  1.000E+01  3.108E-04  1.025E+00 3.2192365E+00 -2.5114302E+00 6.2368679E-02
  9.957E+00  0.000E+00  1.000E+00 3.2194306E+00 -2.4743623E+00 5.1534510E-09
  1.000E+01  2.796E-03  1.075E+00 3.2226951E+00 -2.5051098E+00 1.8715958E-01
  9.957E+00  1.243E-03  1.050E+00 3.2208769E+00 -2.4712101E+00 1.2286753E-01
  1.000E+01  7.761E-03  1.124E+00 3.2315673E+00 -2.4928642E+00 3.1211711E-01
  9.957E+00  4.969E-03  1.100E+00 3.2264109E+00 -2.4620047E+00 2.4584911E-01
  1.000E+01  1.519E-02  1.174E+00 3.2470184E+00 -2.4748763E+00 4.3695025E-01
  9.957E+00  1.117E-02  1.149E+00 3.2382963E+00 -2.4471562E+00 3.6896321E-01
  1.000E+01  2.507E-02  1.223E+00 3.2651906E+00 -2.4504457E+00 5.6032013E-01
  9.957E+00  1.983E-02  1.198E+00 3.2559429E+00 -2.4263931E+00 4.9140981E-01
  1.000E+01  3.738E-02  1.271E+00 3.2772800E+00 -2.4187919E+00 6.8083224E-01
  9.957E+00  3.092E-02  1.247E+00 3.2725038E+00 -2.3987732E+00 6.1157402E-01
  1.000E+01  5.207E-02  1.318E+00 3.2811410E+00 -2.3810654E+00 7.9939164E-01
  9.957E+00  4.443E-02  1.295E+00 3.2800264E+00 -2.3643725E+00 7.2906465E-01
  1.000E+01  6.913E-02  1.365E+00 3.3097593E+00 -2.3387003E+00 9.1753836E-01
  9.957E+00  6.031E-02  1.342E+00 3.2915693E+00 -2.3248771E+00 8.4558364E-01
  1.000E+01  8.849E-02  1.411E+00 3.3355158E+00 -2.2905151E+00 1.0336601E+00
  9.957E+00  7.852E-02  1.388E+00 3.3251280E+00 -2.2805530E+00 9.6131670E-01
  1.000E+01  1.101E-01  1.456E+00 3.3337105E+00 -2.2358144E+00 1.1462488E+00
  9.957E+00  9.903E-02  1.434E+00 3.3337312E+00 -2.2297606E+00 1.0739118E+00
  1.000E+01  1.340E-01  1.500E+00 3.3675919E+00 -2.1758868E+00 1.2561927E+00
  9.957E+00  1.218E-01  1.478E+00 3.3516499E+00 -2.1732064E+00 1.1834084E+00
  1.000E+01  1.600E-01  1.543E+00 3.3674240E+00 -2.1106544E+00 1.3632053E+00
  9.957E+00  1.467E-01  1.521E+00 3.3772712E+00 -2.1116418E+00 1.2903763E+00
  1.000E+01  1.881E-01  1.584E+00 3.3984260E+00 -2.0400221E+00 1.4666695E+00
  9.957E+00  1.738E-01  1.563E+00 3.3745621E+00 -2.0446799E+00 1.3940379E+00
  1.000E+01  2.182E-01  1.623E+00 3.3895368E+00 -1.9643939E+00 1.5665498E+00
  9.957E+00  2.029E-01  1.604E+00 3.3954750E+00 -1.9726274E+00 1.4942017E+00
  1.000E+01  2.502E-01  1.662E+00 3.4059027E+00 -1.8838674E+00 1.6625190E+00
  9.957E+00  2.340E-01  1.643E+00 3.4031222E+00 -1.8957136E+00 1.5906900E+00
  1.000E+01  2.841E-01  1.698E+00 3.4058853E+00 -1.7986521E+00 1.7543551E+00
  9.957E+00  2.669E-01  1.680E+00 3.4045970E+00 -1.8140613E+00 1.6831998E+00
  1.000E+01  3.198E-01  1.733E+00 3.4045754E+00 -1.7089659E+00 1.8418319E+00
  9.957E+00  3.018E-01  1.716E+00 3.4059071E+00 -1.7279036E+00 1.7715340E+00
  1.000E+01  3.572E-01  1.766E+00 3.4031007E+00 -1.6150399E+00 1.9247337E+00
  9.957E+00  3.383E-01  1.750E+00 3.4059245E+00 -1.6374521E+00 1.8554646E+00
  1.000E+01  3.962E-01  1.797E+00 3.3954538E+00 -1.5170746E+00 2.0028251E+00
  9.957E+00  3.765E-01  1.782E+00 3.3895587E+00 -1.5429298E+00 1.9347769E+00
  1.000E+01  4.367E-01  1.826E+00 3.3745409E+00 -1.4153773E+00 2.0759800E+00
  9.957E+00  4.163E-01  1.812E+00 3.3984479E+00 -1.4445551E+00 2.0092646E+00
  1.000E+01  4.786E-01  1.853E+00 3.3772504E+00 -1.3101292E+00 2.1439679E+00
  9.957E+00  4.575E-01  1.840E+00 3.3674459E+00 -1.3426509E+00 2.0788320E+00
  1.000E+01  5.217E-01  1.878E+00 3.3516292E+00 -1.2015238E+00 2.2064743E+00
  9.957E+00  5.000E-01  1.866E+00 3.3676137E+00 -1.2372517E+00 2.1430812E+00
  1.000E+01  5.661E-01  1.901E+00 3.3337109E+00 -1.0903509E+00 2.2638943E+00
  9.957E+00  5.438E-01  1.890E+00 3.3337325E+00 -1.1289656E+00 2.2021048E+00
  1.000E+01  6.116E-01  1.921E+00 3.3251080E+00 -9.7603215E-01 2.3154646E+00
  9.957E+00  5.887E-01  1.912E+00 3.3355375E+00 -1.0180741E+00 2.2559806E+00
  1.000E+01  6.580E-01  1.940E+00 3.2915492E+00 -8.5852736E-01 2.3604661E+00
  9.957E+00  6.347E-01  1.931E+00 3.3097812E+00 -9.0370309E-01 2.3034393E+00
  1.000E+01  7.052E-01  1.956E+00 3.2800067E+00 -7.4022496E-01 2.4005669E+00
  9.957E+00  6.815E-01  1.948E+00 3.2811629E+00 -7.8733767E-01 2.3451651E+00
  1.000E+01  7.532E-01  1.969E+00 3.2724846E+00 -6.2093600E-01 2.4354951E+00
  9.957E+00  7.292E-01  1.963E+00 3.2773017E+00 -6.7056570E-01 2.3823229E+00
  1.000E+01  8.019E-01  1.980E+00 3.2559239E+00 -4.9893225E-01 2.4635376E+00
  9.957E+00  7.775E-01  1.975E+00 3.2652122E+00 -5.5187063E-01 2.4134997E+00
  1.000E+01  8.510E-01  1.989E+00 3.2382774E+00 -3.7461098E-01 2.4846180E+00
  9.957E+00  8.264E-01  1.985E+00 3.2470402E+00 -4.3036104E-01 2.4375618E+00
  1.000E+01  9.004E-01  1.995E+00 3.2263921E+00 -2.4961200E-01 2.4996934E+00
  9.957E+00  8.757E-01  1.992E+00 3.2315892E+00 -3.0741025E-01 2.4552785E+00
  1.000E+01  9.502E-01  1.999E+00 3.2208581E+00 -1.2474770E-01 2.5090395E+00
  9.957E+00  9.253E-01  1.997E+00 3.2227170E+00 -1.8433688E-01 2.4673393E+00
  1.000E+01  1.000E+00  2.000E+00 3.2194120E+00 7.7123818E-07 2.5122401E+00
  9.957E+00  9.751E-01  2.000E+00 3.2192585E+00 -6.1427539E-02 2.4735645E+00
  1.000E+01  1.050E+00  1.999E+00 3.2208581E+00 1.2474925E-01 2.5090395E+00
  9.957E+00  1.025E+00  2.000E+00 3.2192585E+00 6.1429094E-02 2.4735645E+00
  1.000E+01  1.100E+00  1.995E+00 3.2263921E+00 2.4961354E-01 2.4996934E+00
  9.957E+00  1.075E+00  1.997E+00 3.2227170E+00 1.8433843E-01 2.4673393E+00
  1.000E+01  1.149E+00  1.989E+00 3.2382773E+00 3.7461251E-01 2.4846179E+00
  9.957E+00  1.124E+00  1.992E+00 3.2315892E+00 3.0741181E-01 2.4552784E+00