# TIME = 0.700000
variables = x, y, z
zone N=5762 E=11520 F=FEPOINT ET=TRIANGLE
 5.4230798E+00 1.4696858E+00 1.7599181E+00
 5.4230798E+00 1.4696858E+00 2.4008186E-01
 5.4230798E+00 5.3031410E-01 1.7599181E+00
 5.4230798E+00 5.3031412E-01 2.4008191E-01
 4.2956965E+00 9.9999996E-01 1.5691028E+00
 6.5635979E+00 9.9999996E-01 1.5803151E+00
 4.2956964E+00 9.9999996E-01 4.3089703E-01
 6.5635979E+00 9.9999996E-01 4.1968478E-01
 4.7607605E+00 1.8664027E+00 9.9999997E-01
 4.7607605E+00 1.3359696E-01 9.9999998E-01
 6.0707712E+00 1.8076902E+00 9.9999997E-01
 6.0707711E+00 1.9230984E-01 9.9999997E-01
 5.3816466E+00 1.4625594E+00 1.7676559E+00
 5.3365683E+00 1.4544307E+00 1.7757289E+00
 5.2894035E+00 1.4455497E+00 1.7837898E+00
 5.2403191E+00 1.4358545E+00 1.7916873E+00
 5.1893528E+00 1.4252116E+00 1.7992725E+00
 5.1366222E+00 1.4134911E+00 1.8063207E+00
 5.0822756E+00 1.4005398E+00 1.8125503E+00
 5.0265191E+00 1.3861998E+00 1.8176121E+00
 4.9696230E+00 1.3703165E+00 1.8211006E+00
 4.9119357E+00 1.3527576E+00 1.8225740E+00
 4.8538939E+00 1.3334349E+00 1.8215897E+00
 4.7960239E+00 1.3123261E+00 1.8177503E+00
 4.7389254E+00 1.2894931E+00 1.8107538E+00
 4.6832378E+00 1.2650878E+00 1.8004343E+00
 4.6295931E+00 1.2393460E+00 1.7867868E+00
 4.5785649E+00 1.2125693E+00 1.7699658E+00
 4.5306256E+00 1.1850975E+00 1.7502649E+00
 4.4861193E+00 1.1572813E+00 1.7280797E+00
 4.4452518E+00 1.1294552E+00 1.7038657E+00
 4.4080979E+00 1.1019206E+00 1.6780968E+00
 4.3746160E+00 1.0749272E+00 1.6512312E+00
 4.3446870E+00 1.0486912E+00 1.6236981E+00
 4.3181379E+00 1.0233715E+00 1.5958758E+00
 5.3785060E+00 5.6878245E-01 1.7859179E+00
 5.3323450E+00 5.7831026E-01 1.7942742E+00
 5.2842719E+00 5.8853367E-01 1.8024844E+00
 5.2342862E+00 5.9965878E-01 1.8104771E+00
 5.1824647E+00 6.1180068E-01 1.8180680E+00
 5.1289251E+00 6.2509143E-01 1.8250144E+00
 5.0738471E+00 6.3966951E-01 1.8310042E+00
 5.0174643E+00 6.5567521E-01 1.8356612E+00
 4.9600789E+00 6.7323419E-01 1.8385554E+00
 4.9020728E+00 6.9243936E-01 1.8392303E+00
 4.8439153E+00 7.1332976E-01 1.8372429E+00
 4.7861593E+00 7.3587160E-01 1.8322140E+00
 4.7294204E+00 7.5994705E-01 1.8238785E+00
 4.6743379E+00 7.8535418E-01 1.8121225E+00
 4.6215260E+00 8.1181985E-01 1.7970001E+00
 4.5715244E+00 8.3902234E-01 1.7787253E+00
 4.5247604E+00 8.6661862E-01 1.7576429E+00
 4.4815269E+00 8.9427228E-01 1.7341878E+00
 4.4419799E+00 9.2167423E-01 1.7088408E+00
 4.4061458E+00 9.4856540E-01 1.6820858E+00
 4.3739380E+00 9.7473659E-01 1.6543731E+00
 4.3450752E+00 9.9999996E-01 1.6259819E+00
 5.3774138E+00 6.0152575E-01 1.8031034E+00
 5.3301992E+00 6.1246172E-01 1.8116350E+00
 5.2811380E+00 6.2412176E-01 1.8199365E+00
 5.2301798E+00 6.3675231E-01 1.8279443E+00
 5.1774068E+00 6.5047134E-01 1.8354561E+00
 5.1229676E+00 6.6539984E-01 1.8422012E+00
 5.0670663E+00 6.8166305E-01 1.8478403E+00
 5.0099688E+00 6.9937749E-01 1.8519686E+00
 4.9520109E+00 7.1863571E-01 1.8541337E+00
 4.8936096E+00 7.3948703E-01 1.8538664E+00
 4.8352681E+00 7.6191842E-01 1.8507284E+00
 4.7775664E+00 7.8583997E-01 1.8443643E+00
 4.7211349E+00 8.1107967E-01 1.8345523E+00
 4.6666113E+00 8.3739022E-01 1.8212356E+00
 4.6145898E+00 8.6446736E-01 1.8045321E+00
 4.5655747E+00 8.9197571E-01 1.7847168E+00
 4.5199462E+00 9.1957682E-01 1.7621866E+00
 4.4779460E+00 9.4695299E-01 1.7374143E+00
 4.4396757E+00 9.7383351E-01 1.7109006E+00
 4.4051025E+00 9.9999997E-01 1.6831261E+00
 4.3739380E+00 1.0252633E+00 1.6543731E+00
 5.3764449E+00 6.3625390E-01 1.8195018E+00
 5.3282984E+00 6.4860865E-01 1.8280573E+00
 5.2783044E+00 6.6177498E-01 1.8363327E+00
 5.2264414E+00 6.7597603E-01 1.8442248E+00
 5.1728068E+00 6.9132455E-01 1.8515118E+00
 5.1175745E+00 7.0792844E-01 1.8578976E+00
 5.0609783E+00 7.2589173E-01 1.8630169E+00
 5.0033148E+00 7.4530118E-01 1.8664414E+00
 4.9449528E+00 7.6620963E-01 1.8677030E+00
 4.8863417E+00 7.8861792E-01 1.8663304E+00
 4.8280124E+00 8.1245879E-01 1.8619006E+00
 4.7705640E+00 8.3758757E-01 1.8540936E+00
 4.7146318E+00 8.6378343E-01 1.8427391E+00
 4.6608411E+00 8.9076267E-01 1.8278422E+00
 4.6097568E+00 9.1820116E-01 1.8095843E+00
 4.5618402E+00 9.4576229E-01 1.7882969E+00
 4.5174218E+00 9.7312230E-01 1.7644211E+00
 4.4766871E+00 9.9999997E-01 1.7384548E+00
 4.4396757E+00 1.0261664E+00 1.7109006E+00
 4.4061458E+00 1.0514345E+00 1.6820858E+00
 5.3755506E+00 6.7304220E-01 1.8349376E+00
 5.3265266E+00 6.8688102E-01 1.8433959E+00
 5.2756899E+00 7.0159687E-01 1.8514992E+00
 5.2230238E+00 7.1740531E-01 1.8591203E+00
 5.1686520E+00 7.3440379E-01 1.8660139E+00
 5.1127742E+00 7.5268242E-01 1.8718619E+00
 5.0556535E+00 7.7231848E-01 1.8762774E+00
 4.9976167E+00 7.9336286E-01 1.8788158E+00
 4.9390622E+00 8.1582352E-01 1.8790030E+00
 4.8804662E+00 8.3964958E-01 1.8763767E+00
 4.8223794E+00 8.6471938E-01 1.8705418E+00
 4.7654093E+00 8.9083741E-01 1.8612229E+00
 4.7101839E+00 9.1774204E-01 1.8483079E+00
 4.6573050E+00 9.4512394E-01 1.8318648E+00
 4.6072992E+00 9.7265208E-01 1.8121339E+00
 4.5605800E+00 9.9999996E-01 1.7894957E+00
 4.5174218E+00 1.0268776E+00 1.7644211E+00
 4.4779460E+00 1.0530469E+00 1.7374143E+00
 4.4419799E+00 1.0783257E+00 1.7088408E+00
 5.3747172E+00 7.1183295E-01 1.8491762E+00
 5.3249045E+00 7.2718470E-01 1.8573907E+00
 5.2733278E+00 7.4347768E-01 1.8651662E+00
 5.2199851E+00 7.6090259E-01 1.8723470E+00
 5.1650238E+00 7.7954085E-01 1.8786687E+00
 5.1086709E+00 7.9945827E-01 1.8837945E+00
 5.0512177E+00 8.2070014E-01 1.8873221E+00
 4.9930186E+00 8.4327642E-01 1.8887997E+00
 4.9344968E+00 8.6714690E-01 1.8877578E+00
 4.8761479E+00 8.9220828E-01 1.8837556E+00
 4.8185329E+00 9.1828769E-01 1.8764363E+00
 4.7622561E+00 9.4514584E-01 1.8655776E+00
 4.7079272E+00 9.7249059E-01 1.8511280E+00
 4.6561143E+00 9.9999996E-01 1.8332160E+00
 4.6072992E+00 1.0273478E+00 1.8121340E+00
 4.5618402E+00 1.0542376E+00 1.7882969E+00
 4.5199462E+00 1.0804231E+00 1.7621866E+00
 4.4815269E+00 1.1057276E+00 1.7341878E+00
 5.3739690E+00 7.5251525E-01 1.8619735E+00
 5.3234674E+00 7.6938791E-01 1.8697876E+00
 5.2712717E+00 7.8725044E-01 1.8770661E+00
 5.2173944E+00 8.0626556E-01 1.8836286E+00
 5.1620080E+00 8.2649258E-01 1.8891945E+00
 5.1053657E+00 8.4796908E-01 1.8934139E+00
 5.0477846E+00 8.7070368E-01 1.8958772E+00
 4.9896425E+00 8.9466249E-01 1.8961350E+00
 4.9313814E+00 9.1975613E-01 1.8937347E+00
 4.8735078E+00 9.4583146E-01 1.8882680E+00
 4.8165823E+00 9.7267058E-01 1.8794255E+00
 4.7611952E+00 9.9999996E-01 1.8670426E+00
 4.7079272E+00 1.0275093E+00 1.8511280E+00
 4.6573050E+00 1.0548760E+00 1.8318648E+00
 4.6097568E+00 1.0817988E+00 1.8095843E+00
 4.5655747E+00 1.1080242E+00 1.7847169E+00
 4.5247603E+00 1.1333813E+00 1.7576429E+00
 5.3733177E+00 7.9491834E-01 1.8730872E+00
 5.3222435E+00 8.1328701E-01 1.8803358E+00
 5.2695647E+00 8.3267683E-01 1.8869432E+00
 5.2153099E+00 8.5321642E-01 1.8927075E+00
 5.1596760E+00 8.7493929E-01 1.8973371E+00
 5.1029405E+00 8.9785083E-01 1.9004759E+00
 5.0454429E+00 9.2192050E-01 1.9017159E+00
 4.9875788E+00 9.4706965E-01 1.9006211E+00
 4.9298016E+00 9.7316201E-01 1.8967667E+00
 4.8726193E+00 9.9999996E-01 1.8897867E+00
 4.8165823E+00 1.0273293E+00 1.8794255E+00
 4.7622560E+00 1.0548541E+00 1.8655776E+00
 4.7101838E+00 1.0822579E+00 1.8483080E+00
 4.6608411E+00 1.1092373E+00 1.8278423E+00
 4.6145898E+00 1.1355326E+00 1.8045321E+00
 4.5715244E+00 1.1609776E+00 1.7787253E+00
 5.3727782E+00 8.3882146E-01 1.8822915E+00
 5.3212602E+00 8.5862644E-01 1.8888078E+00
 5.2682464E+00 8.7946249E-01 1.8945710E+00
 5.2137820E+00 9.0141971E-01 1.8993637E+00
 5.1580866E+00 9.2450268E-01 1.9028891E+00
 5.1014589E+00 9.4868242E-01 1.9047924E+00
 5.0442557E+00 9.7388868E-01 1.9046771E+00
 4.9868844E+00 9.9999996E-01 1.9021310E+00
 4.9298016E+00 1.0268379E+00 1.8967667E+00
 4.8735078E+00 1.0541685E+00 1.8882680E+00
 4.8185329E+00 1.0817122E+00 1.8764363E+00
 4.7654093E+00 1.1091625E+00 1.8612230E+00
 4.7146318E+00 1.1362165E+00 1.8427391E+00
 4.6666113E+00 1.1626097E+00 1.8212357E+00
 4.6215259E+00 1.1881801E+00 1.7970002E+00
 5.3723619E+00 8.8395271E-01 1.8893871E+00
 5.3205402E+00 9.0509761E-01 1.8950094E+00
 5.2673487E+00 9.2726034E-01 1.8997656E+00
 5.2128492E+00 9.5048862E-01 1.9034286E+00
 5.1572812E+00 9.7475632E-01 1.9057033E+00
 5.1009605E+00 9.9999997E-01 1.9062448E+00
 5.0442557E+00 1.0261113E+00 1.9046771E+00
 4.9875788E+00 1.0529303E+00 1.9006211E+00
 4.9313814E+00 1.0802438E+00 1.8937348E+00
 4.8761479E+00 1.1077917E+00 1.8837557E+00
 4.8223794E+00 1.1352805E+00 1.8705418E+00
 4.7705640E+00 1.1624124E+00 1.8540937E+00
 4.7211349E+00 1.1889203E+00 1.8345524E+00
 4.6743379E+00 1.2146458E+00 1.8121226E+00
 5.3720786E+00 9.2999636E-01 1.8942128E+00
 5.3201008E+00 9.5234954E-01 1.8987926E+00
 5.2668940E+00 9.7568300E-01 1.9023965E+00
 5.2125355E+00 9.9999996E-01 1.9047956E+00
 5.1572812E+00 1.0252436E+00 1.9057033E+00
 5.1014589E+00 1.0513175E+00 1.9047924E+00
 5.0454429E+00 1.0780794E+00 1.9017159E+00
 4.9896425E+00 1.1053374E+00 1.8961350E+00
 4.9344968E+00 1.1328530E+00 1.8877578E+00
 4.8804662E+00 1.1603504E+00 1.8763768E+00
 4.8280123E+00 1.1875411E+00 1.8619007E+00
 4.7775664E+00 1.2141600E+00 1.8443644E+00
 4.7294203E+00 1.2400529E+00 1.8238786E+00
 5.3719352E+00 9.7660213E-01 1.8966550E+00
 5.3199531E+00 9.9999996E-01 1.9000643E+00
 5.2668940E+00 1.0243169E+00 1.9023965E+00
 5.2128492E+00 1.0495113E+00 1.9034286E+00
 5.1580866E+00 1.0754973E+00 1.9028891E+00
 5.1029405E+00 1.1021491E+00 1.9004759E+00
 5.0477846E+00 1.1292963E+00 1.8958772E+00
 4.9930186E+00 1.1567235E+00 1.8887997E+00
 4.9390622E+00 1.1841764E+00 1.8790030E+00
 4.8863417E+00 1.2113820E+00 1.8663305E+00
 4.8352681E+00 1.2380815E+00 1.8507285E+00
 4.7861593E+00 1.2641284E+00 1.8322141E+00
 5.3719352E+00 1.0233978E+00 1.8966550E+00
 5.3201008E+00 1.0476504E+00 1.8987926E+00
 5.2673487E+00 1.0727396E+00 1.8997656E+00
 5.2137820E+00 1.0985802E+00 1.8993637E+00
 5.1596760E+00 1.1250606E+00 1.8973371E+00
 5.1053657E+00 1.1520308E+00 1.8934139E+00
 5.0512177E+00 1.1792998E+00 1.8873222E+00
 4.9976167E+00 1.2066371E+00 1.8788159E+00
 4.9449528E+00 1.2337903E+00 1.8677031E+00
 4.8936096E+00 1.2605129E+00 1.8538664E+00
 4.8439153E+00 1.2866702E+00 1.8372430E+00
 5.3720786E+00 1.0700036E+00 1.8942128E+00
 5.3205402E+00 1.0949023E+00 1.8950094E+00
 5.2682464E+00 1.1205374E+00 1.8945710E+00
 5.2153099E+00 1.1467835E+00 1.8927075E+00
 5.1620080E+00 1.1735073E+00 1.8891945E+00
 5.1086709E+00 1.2005417E+00 1.8837945E+00
 5.0556535E+00 1.2276815E+00 1.8762774E+00
 5.0033148E+00 1.2546988E+00 1.8664415E+00
 4.9520108E+00 1.2813642E+00 1.8541337E+00
 4.9020728E+00 1.3075606E+00 1.8392304E+00
 5.3723619E+00 1.1160472E+00 1.8893871E+00
 5.3212602E+00 1.1413735E+00 1.8888078E+00
 5.2695647E+00 1.1673231E+00 1.8869432E+00
 5.2173944E+00 1.1937344E+00 1.8836286E+00
 5.1650238E+00 1.2204591E+00 1.8786687E+00
 5.1127742E+00 1.2473175E+00 1.8718620E+00
 5.0609783E+00 1.2741082E+00 1.8630169E+00
 5.0099688E+00 1.3006224E+00 1.8519687E+00
 4.9600789E+00 1.3267658E+00 1.8385555E+00
 5.3727782E+00 1.1611785E+00 1.8822915E+00
 5.3222435E+00 1.1867129E+00 1.8803358E+00
 5.2712718E+00 1.2127495E+00 1.8770661E+00
 5.2199851E+00 1.2390973E+00 1.8723470E+00
 5.1686520E+00 1.2655961E+00 1.8660139E+00
 5.1175745E+00 1.2920715E+00 1.8578976E+00
 5.0670663E+00 1.3183369E+00 1.8478403E+00
 5.0174643E+00 1.3443247E+00 1.8356612E+00
 5.3733177E+00 1.2050816E+00 1.8730872E+00
 5.3234674E+00 1.2306120E+00 1.8697876E+00
 5.2733278E+00 1.2565223E+00 1.8651662E+00
 5.2230238E+00 1.2825946E+00 1.8591203E+00
 5.1728068E+00 1.3086754E+00 1.8515118E+00
 5.1229676E+00 1.3346001E+00 1.8422012E+00
 5.0738471E+00 1.3603304E+00 1.8310042E+00
 5.3739690E+00 1.2474847E+00 1.8619735E+00
 5.3249045E+00 1.2728152E+00 1.8573907E+00
 5.2756899E+00 1.2984031E+00 1.8514992E+00
 5.2264414E+00 1.3240239E+00 1.8442248E+00
 5.1774068E+00 1.3495286E+00 1.8354561E+00
 5.1289252E+00 1.3749085E+00 1.8250144E+00
 5.3747172E+00 1.2881670E+00 1.8491762E+00
 5.3265266E+00 1.3131189E+00 1.8433959E+00
 5.2783044E+00 1.3382249E+00 1.8363327E+00
 5.2301798E+00 1.3632476E+00 1.8279443E+00
 5.1824647E+00 1.3881993E+00 1.8180680E+00
 5.3755507E+00 1.3269577E+00 1.8349376E+00
 5.3282984E+00 1.3513913E+00 1.8280573E+00
 5.2811380E+00 1.3758782E+00 1.8199365E+00
 5.2342862E+00 1.4003411E+00 1.8104771E+00
 5.3764449E+00 1.3637460E+00 1.8195018E+00
 5.3301992E+00 1.3875382E+00 1.8116350E+00
 5.2842719E+00 1.4114663E+00 1.8024844E+00
 5.3774138E+00 1.3984742E+00 1.8031034E+00
 5.3323450E+00 1.4216897E+00 1.7942742E+00
 5.3785060E+00 1.4312175E+00 1.7859179E+00
 5.4230690E+00 1.4415052E+00 1.7766712E+00
 5.4230632E+00 1.4100787E+00 1.7937425E+00
 5.4230614E+00 1.3766896E+00 1.8101371E+00
 5.4230593E+00 1.3412249E+00 1.8257162E+00
 5.4230576E+00 1.3037867E+00 1.8402253E+00
 5.4230560E+00 1.2644545E+00 1.8534346E+00
 5.4230546E+00 1.2233733E+00 1.8651072E+00
 5.4230533E+00 1.1807320E+00 1.8750194E+00
 5.4230524E+00 1.1367716E+00 1.8829667E+00
 5.4230517E+00 1.0917768E+00 1.8887766E+00
 5.4230512E+00 1.0460699E+00 1.8923176E+00
 5.4230511E+00 9.9999996E-01 1.8935073E+00
 5.4230512E+00 9.5393000E-01 1.8923176E+00
 5.4230516E+00 9.0822312E-01 1.8887766E+00
 5.4230524E+00 8.6322831E-01 1.8829667E+00
 5.4230533E+00 8.1926792E-01 1.8750194E+00
 5.4230545E+00 7.7662660E-01 1.8651072E+00
 5.4230560E+00 7.3554541E-01 1.8534346E+00
 5.4230576E+00 6.9621319E-01 1.8402253E+00
 5.4230593E+00 6.5877506E-01 1.8257162E+00
 5.4230614E+00 6.2331034E-01 1.8101371E+00
 5.4230632E+00 5.8992126E-01 1.7937426E+00
 5.4230690E+00 5.5849469E-01 1.7766713E+00
 5.4644617E+00 5.4047264E-01 1.7626286E+00
 5.5093690E+00 5.5173924E-01 1.7651948E+00
 5.5562284E+00 5.6370188E-01 1.7675069E+00
 5.6048423E+00 5.7635200E-01 1.7694996E+00
 5.6551414E+00 5.8975353E-01 1.7711192E+00
 5.7069716E+00 6.0395088E-01 1.7722778E+00
 5.7601498E+00 6.1900260E-01 1.7728701E+00
 5.8144430E+00 6.3496526E-01 1.7727658E+00
 5.8695765E+00 6.5189478E-01 1.7718142E+00
 5.9252355E+00 6.6983988E-01 1.7698478E+00
 5.9810715E+00 6.8883604E-01 1.7666894E+00
 6.0367096E+00 7.0889936E-01 1.7621621E+00
 6.0917594E+00 7.3002001E-01 1.7561012E+00
 6.1458255E+00 7.5215789E-01 1.7483662E+00
 6.1985201E+00 7.7523958E-01 1.7388528E+00
 6.2494758E+00 7.9915863E-01 1.7275017E+00
 6.2983576E+00 8.2377816E-01 1.7143052E+00
 6.3448733E+00 8.4893646E-01 1.6993083E+00
 6.3887831E+00 8.7445401E-01 1.6826066E+00
 6.4299046E+00 9.0014328E-01 1.6643400E+00
 6.4681186E+00 9.2581668E-01 1.6446827E+00
 6.5033531E+00 9.5129276E-01 1.6238398E+00
 6.5355638E+00 9.7638749E-01 1.6020424E+00
 5.4675730E+00 1.4281683E+00 1.7803880E+00
 5.5135505E+00 1.4156761E+00 1.7829771E+00
 5.5612949E+00 1.4025908E+00 1.7852017E+00
 5.6107792E+00 1.3887640E+00 1.7870639E+00
 5.6618939E+00 1.3741536E+00 1.7884892E+00
 5.7144859E+00 1.3587102E+00 1.7893835E+00
 5.7683419E+00 1.3423862E+00 1.7896282E+00
 5.8232053E+00 1.3251328E+00 1.7890826E+00
 5.8787759E+00 1.3069072E+00 1.7875859E+00
 5.9347155E+00 1.2876775E+00 1.7849626E+00
 5.9906550E+00 1.2674289E+00 1.7810319E+00
 6.0462042E+00 1.2461699E+00 1.7756184E+00
 6.1009625E+00 1.2239375E+00 1.7685651E+00
 6.1545317E+00 1.2008004E+00 1.7597459E+00
 6.2065289E+00 1.1768594E+00 1.7490768E+00
 6.2565989E+00 1.1522458E+00 1.7365241E+00
 6.3044263E+00 1.1271165E+00 1.7221084E+00
 6.3497446E+00 1.1016472E+00 1.7059041E+00
 6.3923450E+00 1.0760222E+00 1.6880344E+00
 6.4320798E+00 1.0504248E+00 1.6686635E+00
 6.4688805E+00 1.0250137E+00 1.6479739E+00
 6.5028563E+00 9.9999997E-01 1.6260795E+00
 5.4686519E+00 1.3955835E+00 1.7973168E+00
 5.5156737E+00 1.3818770E+00 1.7998252E+00
 5.5643893E+00 1.3675862E+00 1.8018963E+00
 5.6148216E+00 1.3525202E+00 1.8035412E+00
 5.6668549E+00 1.3366330E+00 1.8046784E+00
 5.7203052E+00 1.3198846E+00 1.8052017E+00
 5.7749356E+00 1.3022338E+00 1.8049825E+00
 5.8304610E+00 1.2836440E+00 1.8038687E+00
 5.8865537E+00 1.2640875E+00 1.8016900E+00
 5.9428502E+00 1.2435519E+00 1.7982645E+00
 5.9989597E+00 1.2220457E+00 1.7934097E+00
 6.0544754E+00 1.1996040E+00 1.7869544E+00
 6.1089872E+00 1.1762922E+00 1.7787529E+00
 6.1620947E+00 1.1522075E+00 1.7686973E+00
 6.2134214E+00 1.1274774E+00 1.7567281E+00
 6.2626264E+00 1.1022558E+00 1.7428407E+00
 6.3094159E+00 1.0767164E+00 1.7270872E+00
 6.3535524E+00 1.0510431E+00 1.7095730E+00
 6.3948613E+00 1.0254188E+00 1.6904495E+00
 6.4332553E+00 9.9999997E-01 1.6698894E+00
 6.4688805E+00 9.7498621E-01 1.6479739E+00
 5.4696139E+00 1.3610514E+00 1.8134712E+00
 5.5175592E+00 1.3461552E+00 1.8157646E+00
 5.5671930E+00 1.3306209E+00 1.8175756E+00
 5.6185079E+00 1.3142825E+00 1.8188875E+00
 5.6713731E+00 1.2970974E+00 1.8196111E+00
 5.7255790E+00 1.2790334E+00 1.8196305E+00
 5.7808607E+00 1.2600611E+00 1.8188068E+00
 5.8369057E+00 1.2401583E+00 1.8169793E+00
 5.8933603E+00 1.2193163E+00 1.8139711E+00
 5.9498381E+00 1.1975449E+00 1.8095980E+00
 6.0059305E+00 1.1748785E+00 1.8036805E+00
 6.0612192E+00 1.1513799E+00 1.7960576E+00
 6.1152904E+00 1.1271428E+00 1.7866005E+00
 6.1677483E+00 1.1022909E+00 1.7752249E+00
 6.2182291E+00 1.0769749E+00 1.7619001E+00
 6.2664128E+00 1.0513660E+00 1.7466532E+00
 6.3120332E+00 1.0256469E+00 1.7295683E+00
 6.3548877E+00 9.9999997E-01 1.7107796E+00
 6.3948612E+00 9.7458109E-01 1.6904495E+00
 6.4320798E+00 9.4957517E-01 1.6686635E+00
 5.4705015E+00 1.3244889E+00 1.8286753E+00
 5.5193161E+00 1.3083669E+00 1.8306446E+00
 5.5697784E+00 1.2915771E+00 1.8320688E+00
 5.6218758E+00 1.2739602E+00 1.8329157E+00
 5.6754510E+00 1.2554855E+00 1.8330858E+00
 5.7302693E+00 1.2361310E+00 1.8324551E+00
 5.7860386E+00 1.2158814E+00 1.8308772E+00
 5.8424203E+00 1.1947325E+00 1.8281853E+00
 5.8990377E+00 1.1726971E+00 1.8242004E+00
 5.9554855E+00 1.1498096E+00 1.8187409E+00
 6.0113429E+00 1.1261313E+00 1.8116368E+00
 6.0661868E+00 1.1017527E+00 1.8027427E+00
 6.1196067E+00 1.0767938E+00 1.7919529E+00
 6.1712187E+00 1.0514012E+00 1.7792108E+00
 6.2206787E+00 1.0257431E+00 1.7645174E+00
 6.2676940E+00 9.9999997E-01 1.7479320E+00
 6.3120332E+00 9.7435307E-01 1.7295683E+00
 6.3535524E+00 9.4895682E-01 1.7095730E+00
 6.3923450E+00 9.2397776E-01 1.6880344E+00
 5.4713290E+00 1.2859530E+00 1.8426950E+00
 5.5209248E+00 1.2686066E+00 1.8442128E+00
 5.5721142E+00 1.2505640E+00 1.8451184E+00
 5.6248700E+00 1.2316888E+00 1.8453604E+00
 5.6790113E+00 1.2119604E+00 1.8448323E+00
 5.7342774E+00 1.1913710E+00 1.8434038E+00
 5.7903505E+00 1.1699221E+00 1.8409236E+00
 5.8468688E+00 1.1476301E+00 1.8372234E+00
 5.9034367E+00 1.1245310E+00 1.8321268E+00
 5.9596357E+00 1.1006851E+00 1.8254610E+00
 6.0150392E+00 1.0761802E+00 1.8170708E+00
 6.0692265E+00 1.0511325E+00 1.8068329E+00
 6.1217976E+00 1.0256844E+00 1.7946684E+00
 6.1723875E+00 9.9999997E-01 1.7805522E+00
 6.2206787E+00 9.7425687E-01 1.7645174E+00
 6.2664127E+00 9.4863393E-01 1.7466532E+00
 6.3094159E+00 9.2328350E-01 1.7270872E+00
 6.3497446E+00 8.9835274E-01 1.7059041E+00
 5.4720717E+00 1.2455537E+00 1.8552925E+00
 5.5223497E+00 1.2270032E+00 1.8562261E+00
 5.5741467E+00 1.2077427E+00 1.8564735E+00
 5.6274217E+00 1.1876601E+00 1.8559671E+00
 5.6819694E+00 1.1667491E+00 1.8545952E+00
 5.7375045E+00 1.1450177E+00 1.8522241E+00
 5.7936863E+00 1.1224866E+00 1.8487018E+00
 5.8501339E+00 1.0991941E+00 1.8438629E+00
 5.9064377E+00 1.0752004E+00 1.8375394E+00
 5.9621728E+00 1.0505910E+00 1.8295727E+00
 6.0169138E+00 1.0254783E+00 1.8198286E+00
 6.0702494E+00 9.9999997E-01 1.8082099E+00
 6.1217976E+00 9.7431554E-01 1.7946684E+00
 6.1712187E+00 9.4859872E-01 1.7792107E+00
 6.2182291E+00 9.2302502E-01 1.7619001E+00
 6.2626264E+00 8.9774417E-01 1.7428406E+00
 6.3044263E+00 8.7288341E-01 1.7221084E+00
 5.4727182E+00 1.2034603E+00 1.8662300E+00
 5.5235630E+00 1.1837558E+00 1.8664436E+00
 5.5758341E+00 1.1633429E+00 1.8658930E+00
 5.6294746E+00 1.1421380E+00 1.8644974E+00
 5.6842563E+00 1.1201509E+00 1.8621429E+00
 5.7398718E+00 1.0974072E+00 1.8586961E+00
 5.7959612E+00 1.0739480E+00 1.8540084E+00
 5.8521294E+00 1.0498338E+00 1.8479229E+00
 5.9079594E+00 1.0251483E+00 1.8402854E+00
 5.9630266E+00 9.9999997E-01 1.8309569E+00
 6.0169138E+00 9.7452166E-01 1.8198286E+00
 6.0692265E+00 9.4886742E-01 1.8068329E+00
 6.1196067E+00 9.2320612E-01 1.7919529E+00
 6.1677483E+00 8.9770899E-01 1.7752249E+00
 6.2134214E+00 8.7252254E-01 1.7567281E+00
 6.2565989E+00 8.4775417E-01 1.7365241E+00
 5.4732537E+00 1.1598904E+00 1.8752866E+00
 5.5245377E+00 1.1391130E+00 1.8746470E+00
 5.5771368E+00 1.1176465E+00 1.8731642E+00
 5.6309789E+00 1.0954390E+00 1.8707485E+00
 5.6858146E+00 1.0725175E+00 1.8672869E+00
 5.7413178E+00 1.0489262E+00 1.8626506E+00
 5.7971143E+00 1.0247263E+00 1.8566993E+00
 5.8528007E+00 9.9999996E-01 1.8492893E+00
 5.9079594E+00 9.7485164E-01 1.8402854E+00
 5.9621728E+00 9.4940893E-01 1.8295727E+00
 6.0150392E+00 9.2381972E-01 1.8170708E+00
 6.0661868E+00 8.9824721E-01 1.8027427E+00
 6.1152904E+00 8.7285718E-01 1.7866005E+00
 6.1620947E+00 8.4779249E-01 1.7686972E+00
 6.2065288E+00 8.2314059E-01 1.7490768E+00
 5.4736669E+00 1.1151121E+00 1.8822672E+00
 5.5252515E+00 1.0933743E+00 1.8806505E+00
 5.5780239E+00 1.0709853E+00 1.8781142E+00
 5.6318973E+00 1.0479271E+00 1.8745646E+00
 5.6866042E+00 1.0242446E+00 1.8698936E+00
 5.7418042E+00 9.9999996E-01 1.8639809E+00
 5.7971143E+00 9.7527358E-01 1.8566993E+00
 5.8521294E+00 9.5016615E-01 1.8479229E+00
 5.9064377E+00 9.2479957E-01 1.8375394E+00
 5.9596357E+00 8.9931488E-01 1.8254610E+00
 6.0113429E+00 8.7386864E-01 1.8116368E+00
 6.0612192E+00 8.4862008E-01 1.7960576E+00
 6.1089872E+00 8.2370773E-01 1.7787529E+00
 6.1545317E+00 7.9919958E-01 1.7597459E+00
 5.4739480E+00 1.0694363E+00 1.8870141E+00
 5.5256869E+00 1.0468800E+00 1.8843121E+00
 5.5784732E+00 1.0237288E+00 1.8806208E+00
 5.6322062E+00 9.9999996E-01 1.8758478E+00
 5.6866042E+00 9.7575531E-01 1.8698936E+00
 5.7413178E+00 9.5107377E-01 1.8626506E+00
 5.7959612E+00 9.2605197E-01 1.8540084E+00
 5.8501339E+00 9.0080587E-01 1.8438629E+00
 5.9034367E+00 8.7546896E-01 1.8321268E+00
 5.9554855E+00 8.5019038E-01 1.8187409E+00
 6.0059305E+00 8.2512149E-01 1.8036805E+00
 6.0544754E+00 8.0039594E-01 1.7869544E+00
 6.1009625E+00 7.7606242E-01 1.7685651E+00
 5.4740904E+00 1.0232077E+00 1.8894162E+00
 5.5258333E+00 9.9999996E-01 1.8855428E+00
 5.5784732E+00 9.7627109E-01 1.8806208E+00
 5.6318973E+00 9.5207278E-01 1.8745646E+00
 5.6858146E+00 9.2748245E-01 1.8672870E+00
 5.7398718E+00 9.0259273E-01 1.8586961E+00
 5.7936863E+00 8.7751333E-01 1.8487018E+00
 5.8468688E+00 8.5236981E-01 1.8372234E+00
 5.8990376E+00 8.2730287E-01 1.8242004E+00
 5.9498381E+00 8.0245503E-01 1.8095979E+00
 5.9989597E+00 7.7795424E-01 1.7934097E+00
 6.0462041E+00 7.5383003E-01 1.7756184E+00
 5.4740904E+00 9.7679225E-01 1.8894162E+00
 5.5256869E+00 9.5311996E-01 1.8843121E+00
 5.5780239E+00 9.2901457E-01 1.8781142E+00
 5.6309789E+00 9.0456092E-01 1.8707485E+00
 5.6842563E+00 8.7984902E-01 1.8621429E+00
 5.7375045E+00 8.5498225E-01 1.8522241E+00
 5.7903505E+00 8.3007780E-01 1.8409236E+00
 5.8424203E+00 8.0526740E-01 1.8281853E+00
 5.8933603E+00 7.8068363E-01 1.8139711E+00
 5.9428502E+00 7.5644802E-01 1.7982645E+00
 5.9906550E+00 7.3257106E-01 1.7810319E+00
 5.4739480E+00 9.3056358E-01 1.8870141E+00
 5.5252515E+00 9.0662557E-01 1.8806505E+00
 5.5771368E+00 8.8235337E-01 1.8731642E+00
 5.6294746E+00 8.5786188E-01 1.8644974E+00
 5.6819694E+00 8.3325082E-01 1.8545952E+00
 5.7342773E+00 8.0862896E-01 1.8434038E+00
 5.7860385E+00 7.8411857E-01 1.8308772E+00
 5.8369056E+00 7.5984161E-01 1.8169793E+00
 5.8865537E+00 7.3591239E-01 1.8016900E+00
 5.9347154E+00 7.1232242E-01 1.7849625E+00
 5.4736669E+00 8.8488777E-01 1.8822672E+00
 5.5245377E+00 8.6088692E-01 1.8746471E+00
 5.5758340E+00 8.3665698E-01 1.8658930E+00
 5.6274217E+00 8.1233981E-01 1.8559671E+00
 5.6790113E+00 7.8803954E-01 1.8448323E+00
 5.7302693E+00 7.6386896E-01 1.8324551E+00
 5.7808607E+00 7.3993886E-01 1.8188069E+00
 5.8304609E+00 7.1635596E-01 1.8038687E+00
 5.8787759E+00 6.9309272E-01 1.7875858E+00
 5.4732537E+00 8.4010951E-01 1.8752866E+00
 5.5235630E+00 8.1624411E-01 1.8664436E+00
 5.5741467E+00 7.9225718E-01 1.8564736E+00
 5.6248700E+00 7.6831111E-01 1.8453604E+00
 5.6754509E+00 7.4451440E-01 1.8330858E+00
 5.7255790E+00 7.2096649E-01 1.8196305E+00
 5.7749356E+00 6.9776616E-01 1.8049825E+00
 5.8232053E+00 6.7486716E-01 1.7890826E+00
 5.4727182E+00 7.9653964E-01 1.8662300E+00
 5.5223496E+00 7.7299675E-01 1.8562262E+00
 5.5721141E+00 7.4943587E-01 1.8451184E+00
 5.6218758E+00 7.2603969E-01 1.8329157E+00
 5.6713731E+00 7.0290250E-01 1.8196111E+00
 5.7203052E+00 6.8011533E-01 1.8052018E+00
 5.7683419E+00 6.5761373E-01 1.7896282E+00
 5.4720717E+00 7.5444617E-01 1.8552925E+00
 5.5209247E+00 7.3139334E-01 1.8442128E+00
 5.5697784E+00 7.0842282E-01 1.8320689E+00
 5.6185079E+00 6.8571742E-01 1.8188875E+00
 5.6668549E+00 6.6336691E-01 1.8046784E+00
 5.7144859E+00 6.4128969E-01 1.7893835E+00
 5.4713290E+00 7.1404695E-01 1.8426950E+00
 5.5193161E+00 6.9163304E-01 1.8306446E+00
 5.5671929E+00 6.6937907E-01 1.8175756E+00
 5.6148216E+00 6.4747976E-01 1.8035413E+00
 5.6618939E+00 6.2584630E-01 1.7884892E+00
 5.4705015E+00 6.7551098E-01 1.8286753E+00
 5.5175592E+00 6.5384468E-01 1.8157646E+00
 5.5643893E+00 6.3241373E-01 1.8018963E+00
 5.6107792E+00 6.1123589E-01 1.7870639E+00
 5.4696139E+00 6.3894847E-01 1.8134712E+00
 5.5156737E+00 6.1812291E-01 1.7998252E+00
 5.5612949E+00 5.9740910E-01 1.7852017E+00
 5.4686519E+00 6.0441641E-01 1.7973168E+00
 5.5135505E+00 5.8432384E-01 1.7829771E+00
 5.4675730E+00 5.7183159E-01 1.7803881E+00
 5.3974288E+00 1.4929775E+00 1.7472110E+00
 5.3695579E+00 1.5179688E+00 1.7323713E+00
 5.3405743E+00 1.5435340E+00 1.7158448E+00
 5.3104655E+00 1.5695491E+00 1.6975236E+00
 5.2793740E+00 1.5958684E+00 1.6772811E+00
 5.2474111E+00 1.6223131E+00 1.6550070E+00
 5.2147369E+00 1.6486748E+00 1.6306062E+00
 5.1815365E+00 1.6747104E+00 1.6040132E+00
 5.1480247E+00 1.7001507E+00 1.5751978E+00
 5.1144394E+00 1.7247055E+00 1.5441744E+00
 5.0810361E+00 1.7480754E+00 1.5110106E+00
 5.0480804E+00 1.7699646E+00 1.4758317E+00
 5.0158385E+00 1.7900961E+00 1.4388236E+00
 4.9845676E+00 1.8082275E+00 1.4002293E+00
 4.9545060E+00 1.8241649E+00 1.3603427E+00
 4.9258640E+00 1.8377731E+00 1.3194953E+00
 4.8988159E+00 1.8489822E+00 1.2780423E+00
 4.8734951E+00 1.8577876E+00 1.2363448E+00
 4.8499913E+00 1.8642460E+00 1.1947542E+00
 4.8283500E+00 1.8684666E+00 1.1535964E+00
 4.8085767E+00 1.8706010E+00 1.1131603E+00
 4.7906423E+00 1.8708277E+00 1.0736938E+00
 4.7745338E+00 1.8693499E+00 1.0354475E+00
 4.3124199E+00 1.0657903E+00 1.5860852E+00
 4.3073224E+00 1.1084307E+00 1.5736122E+00
 4.3040558E+00 1.1525176E+00 1.5594741E+00
 4.3029579E+00 1.1979970E+00 1.5436821E+00
 4.3042763E+00 1.2446750E+00 1.5261621E+00
 4.3082558E+00 1.2922774E+00 1.5068763E+00
 4.3151206E+00 1.3404736E+00 1.4858159E+00
 4.3250614E+00 1.3888779E+00 1.4630078E+00
 4.3382223E+00 1.4370577E+00 1.4385178E+00
 4.3546864E+00 1.4845427E+00 1.4124543E+00
 4.3744652E+00 1.5308402E+00 1.3849710E+00
 4.3974873E+00 1.5754532E+00 1.3562661E+00
 4.4235945E+00 1.6179029E+00 1.3265787E+00
 4.4525411E+00 1.6577527E+00 1.2961829E+00
 4.4840012E+00 1.6946313E+00 1.2653769E+00
 4.5175813E+00 1.7282525E+00 1.2344707E+00
 4.5528403E+00 1.7584301E+00 1.2037719E+00
 4.5893122E+00 1.7850843E+00 1.1735712E+00
 4.6265308E+00 1.8082398E+00 1.1441296E+00
 4.6640579E+00 1.8280182E+00 1.1156679E+00
 4.7015118E+00 1.8446230E+00 1.0883483E+00
 4.7385570E+00 1.8583206E+00 1.0621569E+00
 4.3401438E+00 1.0926761E+00 1.6139022E+00
 4.3362907E+00 1.1367880E+00 1.6014203E+00
 4.3343951E+00 1.1822415E+00 1.5871499E+00
 4.3348149E+00 1.2290042E+00 1.5710891E+00
 4.3378000E+00 1.2768492E+00 1.5531569E+00
 4.3435898E+00 1.3254555E+00 1.5333128E+00
 4.3523943E+00 1.3744420E+00 1.5115523E+00
 4.3643807E+00 1.4233723E+00 1.4879127E+00
 4.3796575E+00 1.4717662E+00 1.4624773E+00
 4.3982622E+00 1.5191132E+00 1.4353787E+00
 4.4201491E+00 1.5648924E+00 1.4068006E+00
 4.4451831E+00 1.6085951E+00 1.3769752E+00
 4.4731380E+00 1.6497506E+00 1.3461782E+00
 4.5037023E+00 1.6879514E+00 1.3147187E+00
 4.5364912E+00 1.7228764E+00 1.2829260E+00
 4.5710659E+00 1.7543070E+00 1.2511346E+00
 4.6069578E+00 1.7821369E+00 1.2196678E+00
 4.6436932E+00 1.8063705E+00 1.1888226E+00
 4.6808247E+00 1.8271178E+00 1.1588553E+00
 4.7179621E+00 1.8445799E+00 1.1299605E+00
 4.7547788E+00 1.8590388E+00 1.1021037E+00
 4.3713637E+00 1.1202171E+00 1.6413177E+00
 4.3689116E+00 1.1656533E+00 1.6287224E+00
 4.3685586E+00 1.2123588E+00 1.6142190E+00
 4.3706630E+00 1.2602644E+00 1.5977774E+00
 4.3754692E+00 1.3090961E+00 1.5793120E+00
 4.3832031E+00 1.3584835E+00 1.5587832E+00
 4.3940515E+00 1.4079937E+00 1.5361955E+00
 4.4081471E+00 1.4571409E+00 1.5116022E+00
 4.4255529E+00 1.5054024E+00 1.4851101E+00
 4.4462500E+00 1.5522373E+00 1.4568827E+00
 4.4701286E+00 1.5971103E+00 1.4271395E+00
 4.4969853E+00 1.6395183E+00 1.3961521E+00
 4.5265270E+00 1.6790188E+00 1.3642351E+00
 4.5583823E+00 1.7152541E+00 1.3317329E+00
 4.5921201E+00 1.7479717E+00 1.2990037E+00
 4.6272738E+00 1.7770348E+00 1.2664015E+00
 4.6633664E+00 1.8024243E+00 1.2342584E+00
 4.6999452E+00 1.8242335E+00 1.2028681E+00
 4.7366108E+00 1.8426539E+00 1.1724617E+00
 4.7730365E+00 1.8579753E+00 1.1430454E+00
 4.4062769E+00 1.1483777E+00 1.6679357E+00
 4.4054101E+00 1.1950024E+00 1.6551202E+00
 4.4067816E+00 1.2427917E+00 1.6402700E+00
 4.4107360E+00 1.2916312E+00 1.6233265E+00
 4.4175037E+00 1.3411969E+00 1.6042027E+00
 4.4272867E+00 1.3910672E+00 1.5828651E+00
 4.4402375E+00 1.4407595E+00 1.5593329E+00
 4.4564435E+00 1.4897447E+00 1.5336817E+00
 4.4759116E+00 1.5374684E+00 1.5060493E+00
 4.4985591E+00 1.5833737E+00 1.4766362E+00
 4.5242083E+00 1.6269301E+00 1.4457034E+00
 4.5525891E+00 1.6676618E+00 1.4135645E+00
 4.5833493E+00 1.7051762E+00 1.3805735E+00
 4.6160719E+00 1.7391850E+00 1.3471071E+00
 4.6502988E+00 1.7695192E+00 1.3135466E+00
 4.6855567E+00 1.7961312E+00 1.2802574E+00
 4.7213922E+00 1.8190927E+00 1.2475697E+00
 4.7574020E+00 1.8385805E+00 1.2157528E+00
 4.7932652E+00 1.8548844E+00 1.1848606E+00
 4.4450151E+00 1.1769258E+00 1.6933308E+00
 4.4459050E+00 1.2245555E+00 1.6801659E+00
 4.4491583E+00 1.2732069E+00 1.6648343E+00