# TIME = 2.600000
variables = x, y, z
zone N=5762 E=11520 F=FEPOINT ET=TRIANGLE
 6.4420829E+00 1.4666426E+00 1.7549348E+00
 6.4420828E+00 1.4666425E+00 2.4506541E-01
 6.4420828E+00 5.3335739E-01 1.7549346E+00
 6.4420828E+00 5.3335747E-01 2.4506555E-01
 5.3253695E+00 9.9999991E-01 1.5633120E+00
 7.5852259E+00 9.9999992E-01 1.5810731E+00
 5.3253690E+00 9.9999991E-01 4.3668768E-01
 7.5852256E+00 9.9999992E-01 4.1892716E-01
 5.7749887E+00 1.8846315E+00 1.0000000E+00
 5.7749886E+00 1.1536784E-01 1.0000000E+00
 7.0906488E+00 1.8025651E+00 1.0000000E+00
 7.0906486E+00 1.9743520E-01 1.0000000E+00
 6.4011191E+00 1.4604922E+00 1.7638431E+00
 6.3559776E+00 1.4534220E+00 1.7735510E+00
 6.3084637E+00 1.4456832E+00 1.7835921E+00
 6.2588964E+00 1.4371803E+00 1.7937759E+00
 6.2074176E+00 1.4277683E+00 1.8038709E+00
 6.1541683E+00 1.4172582E+00 1.8135615E+00
 6.0992822E+00 1.4054248E+00 1.8224407E+00
 6.0429462E+00 1.3920290E+00 1.8299995E+00
 5.9854207E+00 1.3768374E+00 1.8356488E+00
 5.9270662E+00 1.3596532E+00 1.8387599E+00
 5.8683638E+00 1.3403517E+00 1.8387309E+00
 5.8099194E+00 1.3189125E+00 1.8350633E+00
 5.7524374E+00 1.2954403E+00 1.8274353E+00
 5.6966644E+00 1.2701641E+00 1.8157464E+00
 5.6433150E+00 1.2434165E+00 1.8001271E+00
 5.5930025E+00 1.2155968E+00 1.7809097E+00
 5.5461903E+00 1.1871302E+00 1.7585750E+00
 5.5031711E+00 1.1584295E+00 1.7336886E+00
 5.4640720E+00 1.1298670E+00 1.7068425E+00
 5.4288787E+00 1.1017594E+00 1.6786079E+00
 5.3974837E+00 1.0743785E+00 1.6495243E+00
 5.3697301E+00 1.0479715E+00 1.6200949E+00
 5.3454614E+00 1.0228092E+00 1.5908312E+00
 6.3965668E+00 5.7120029E-01 1.7826191E+00
 6.3499071E+00 5.8011474E-01 1.7929595E+00
 6.3013611E+00 5.8935934E-01 1.8032950E+00
 6.2509968E+00 5.9937535E-01 1.8136357E+00
 6.1988679E+00 6.1039851E-01 1.8237821E+00
 6.1450633E+00 6.2261870E-01 1.8333973E+00
 6.0897323E+00 6.3623828E-01 1.8420354E+00
 6.0330812E+00 6.5146351E-01 1.8491531E+00
 5.9753974E+00 6.6848022E-01 1.8541357E+00
 5.9170694E+00 6.8742399E-01 1.8563476E+00
 5.8586048E+00 7.0834860E-01 1.8552023E+00
 5.8006277E+00 7.3120104E-01 1.8502417E+00
 5.7438460E+00 7.5581136E-01 1.8412034E+00
 5.6889898E+00 7.8190209E-01 1.8280570E+00
 5.6367382E+00 8.0911541E-01 1.8110014E+00
 5.5876555E+00 8.3705105E-01 1.7904269E+00
 5.5421500E+00 8.6530536E-01 1.7668565E+00
 5.5004602E+00 8.9350647E-01 1.7408801E+00
 5.4626657E+00 9.2133682E-01 1.7130977E+00
 5.4287021E+00 9.4854310E-01 1.6840627E+00
 5.3983458E+00 9.7489051E-01 1.6541938E+00
 5.3711061E+00 9.9999991E-01 1.6235762E+00
 6.3949270E+00 6.0412092E-01 1.7999712E+00
 6.3468089E+00 6.1479274E-01 1.8107325E+00
 6.2972135E+00 6.2560006E-01 1.8212660E+00
 6.2459353E+00 6.3722623E-01 1.8317047E+00
 6.1929877E+00 6.4993698E-01 1.8418367E+00
 6.1384523E+00 6.6392415E-01 1.8512990E+00
 6.0824889E+00 6.7936946E-01 1.8596094E+00
 6.0253290E+00 6.9644422E-01 1.8661892E+00
 5.9672879E+00 7.1528539E-01 1.8703994E+00
 5.9087850E+00 7.3596713E-01 1.8715969E+00
 5.8503570E+00 7.5847400E-01 1.8692127E+00
 5.7926496E+00 7.8268428E-01 1.8628311E+00
 5.7363772E+00 8.0836880E-01 1.8522525E+00
 5.6822569E+00 8.3520863E-01 1.8375189E+00
 5.6309351E+00 8.6282728E-01 1.8189008E+00
 5.5829294E+00 8.9082983E-01 1.7968483E+00
 5.5385928E+00 9.1884180E-01 1.7719269E+00
 5.4981045E+00 9.4654038E-01 1.7447454E+00
 5.4614626E+00 9.7367143E-01 1.7158770E+00
 5.4284414E+00 9.9999991E-01 1.6857333E+00
 5.3983458E+00 1.0251093E+00 1.6541938E+00
 6.3938251E+00 6.3888379E-01 1.8163943E+00
 6.3446863E+00 6.5109760E-01 1.8272538E+00
 6.2941168E+00 6.6351489E-01 1.8378531E+00
 6.2419645E+00 6.7680657E-01 1.8482591E+00
 6.1882117E+00 6.9125888E-01 1.8582432E+00
 6.1329583E+00 7.0704697E-01 1.8674061E+00
 6.0763845E+00 7.2432704E-01 1.8752314E+00
 6.0187476E+00 7.4323010E-01 1.8811103E+00
 5.9603922E+00 7.6384012E-01 1.8843855E+00
 5.9017677E+00 7.8616788E-01 1.8844167E+00
 5.8434372E+00 8.1013053E-01 1.8806621E+00
 5.7860630E+00 8.3554260E-01 1.8727573E+00
 5.7303594E+00 8.6212427E-01 1.8605711E+00
 5.6770234E+00 8.8952606E-01 1.8442202E+00
 5.6266633E+00 9.1736513E-01 1.8240433E+00
 5.5797438E+00 9.4526637E-01 1.8005436E+00
 5.5365548E+00 9.7289894E-01 1.7743139E+00
 5.4971885E+00 9.9999992E-01 1.7459466E+00
 5.4614626E+00 1.0263284E+00 1.7158769E+00
 5.4287021E+00 1.0514567E+00 1.6840626E+00
 6.3928704E+00 6.7556788E-01 1.8317766E+00
 6.3428209E+00 6.8930572E-01 1.8425663E+00
 6.2913984E+00 7.0334249E-01 1.8530626E+00
 6.2384578E+00 7.1833685E-01 1.8632771E+00
 6.1840022E+00 7.3454987E-01 1.8729395E+00
 6.1281465E+00 7.5213720E-01 1.8816196E+00
 6.0710956E+00 7.7122014E-01 1.8887706E+00
 6.0131329E+00 7.9188396E-01 1.8937622E+00
 5.9546299E+00 8.1415517E-01 1.8959312E+00
 5.8960614E+00 8.3798032E-01 1.8946529E+00
 5.8380093E+00 8.6321172E-01 1.8894253E+00
 5.7811423E+00 8.8960764E-01 1.8799441E+00
 5.7261629E+00 9.1684882E-01 1.8661503E+00
 5.6737377E+00 9.4456978E-01 1.8482319E+00
 5.6244270E+00 9.7239904E-01 1.8265866E+00
 5.5786329E+00 9.9999992E-01 1.8017528E+00
 5.5365548E+00 1.0271009E+00 1.7743139E+00
 5.4981045E+00 1.0534594E+00 1.7447453E+00
 5.4626658E+00 1.0786630E+00 1.7130976E+00
 6.3919785E+00 7.1417641E-01 1.8459337E+00
 6.3411118E+00 7.2942908E-01 1.8564920E+00
 6.2889416E+00 7.4510367E-01 1.8667200E+00
 6.2353382E+00 7.6180636E-01 1.8765634E+00
 6.1803194E+00 7.7976999E-01 1.8857153E+00
 6.1240220E+00 7.9911807E-01 1.8937169E+00
 6.0666735E+00 8.1993250E-01 1.8999996E+00
 6.0085813E+00 8.4224710E-01 1.9039230E+00
 5.9501393E+00 8.6602876E-01 1.9048313E+00
 5.8918405E+00 8.9116052E-01 1.9021295E+00
 5.8342758E+00 9.1743569E-01 1.8953665E+00
 5.7781076E+00 9.4456649E-01 1.8843046E+00
 5.7240148E+00 9.7220884E-01 1.8689552E+00
 5.6726213E+00 9.9999992E-01 1.8495696E+00
 5.6244270E+00 1.0276008E+00 1.8265865E+00
 5.5797438E+00 1.0547335E+00 1.8005435E+00
 5.5385928E+00 1.0811580E+00 1.7719268E+00
 5.5004603E+00 1.1064933E+00 1.7408800E+00
 6.3911648E+00 7.5461370E-01 1.8586378E+00
 6.3395836E+00 7.7137172E-01 1.8688032E+00
 6.2867891E+00 7.8867565E-01 1.8785873E+00
 6.2326648E+00 8.0706371E-01 1.8878724E+00
 6.1772451E+00 8.2672964E-01 1.8963191E+00
 6.1206868E+00 8.4776059E-01 1.9034471E+00
 6.0632384E+00 8.7019308E-01 1.9086763E+00
 6.0052272E+00 8.9400705E-01 1.9113688E+00
 5.9470637E+00 9.1910939E-01 1.9108903E+00
 5.8892502E+00 9.4532410E-01 1.9066879E+00
 5.8323754E+00 9.7239425E-01 1.8983700E+00
 5.7770831E+00 9.9999992E-01 1.8857670E+00
 5.7240148E+00 1.0277910E+00 1.8689552E+00
 5.6737378E+00 1.0554300E+00 1.8482318E+00
 5.6266633E+00 1.0826347E+00 1.8240432E+00
 5.5829294E+00 1.1091700E+00 1.7968482E+00
 5.5421500E+00 1.1346945E+00 1.7668563E+00
 6.3904516E+00 7.9671804E-01 1.8696569E+00
 6.3382757E+00 8.1495090E-01 1.8792646E+00
 6.2849958E+00 8.3384487E-01 1.8884241E+00
 6.2305082E+00 8.5385806E-01 1.8969615E+00
 6.1748630E+00 8.7513864E-01 1.9045112E+00
 6.1182353E+00 8.9773224E-01 1.9105808E+00
 6.0608915E+00 9.2162767E-01 1.9145899E+00
 6.0031737E+00 9.4675014E-01 1.9159160E+00
 5.9455016E+00 9.7295005E-01 1.9139596E+00
 5.8883773E+00 9.9999992E-01 1.9082201E+00
 5.8323754E+00 1.0276056E+00 1.8983700E+00
 5.7781076E+00 1.0554333E+00 1.8843045E+00
 5.7261629E+00 1.0831510E+00 1.8661502E+00
 5.6770234E+00 1.1104738E+00 1.8442201E+00
 5.6309352E+00 1.1371725E+00 1.8189007E+00
 5.5876555E+00 1.1629488E+00 1.7904267E+00
 6.3898585E+00 8.4027559E-01 1.8787733E+00
 6.3372225E+00 8.5992106E-01 1.8876579E+00
 6.2836089E+00 8.8032954E-01 1.8960135E+00
 6.2289259E+00 9.0186812E-01 1.9036192E+00
 6.1732382E+00 9.2463405E-01 1.9100922E+00
 6.1167367E+00 9.4862899E-01 1.9149377E+00
 6.0597010E+00 9.7379315E-01 1.9175868E+00
 6.0024823E+00 9.9999992E-01 1.9174454E+00
 5.9455016E+00 1.0270498E+00 1.9139596E+00
 5.8892502E+00 1.0546757E+00 1.9066879E+00
 5.8342758E+00 1.0825641E+00 1.8953664E+00
 5.7811423E+00 1.1103922E+00 1.8799441E+00
 5.7303594E+00 1.1378755E+00 1.8605710E+00
 5.6822569E+00 1.1647912E+00 1.8375188E+00
 5.6367383E+00 1.1908844E+00 1.8110012E+00
 6.3894001E+00 8.8502210E-01 1.8857954E+00
 6.3364505E+00 9.0598388E-01 1.8937970E+00
 6.2826638E+00 9.2779412E-01 1.9011782E+00
 6.2279595E+00 9.5071911E-01 1.9076825E+00
 6.1724147E+00 9.7480209E-01 1.9129197E+00
 6.1162325E+00 9.9999992E-01 1.9164031E+00
 6.0597010E+00 1.0262067E+00 1.9175868E+00
 6.0031737E+00 1.0532497E+00 1.9159160E+00
 5.9470637E+00 1.0808904E+00 1.9108903E+00
 5.8918405E+00 1.1088393E+00 1.9021295E+00
 5.8380094E+00 1.1367881E+00 1.8894252E+00
 5.7860631E+00 1.1644572E+00 1.8727572E+00
 5.7363772E+00 1.1916310E+00 1.8522523E+00
 5.6889899E+00 1.2180977E+00 1.8280568E+00
 6.3890880E+00 9.3065074E-01 1.8905682E+00
 6.3359793E+00 9.5279984E-01 1.8975400E+00
 6.2821851E+00 9.7586319E-01 1.9037929E+00
 6.2276345E+00 9.9999992E-01 1.9090486E+00
 6.1724147E+00 1.0251978E+00 1.9129197E+00
 6.1167367E+00 1.0513709E+00 1.9149377E+00
 6.0608915E+00 1.0783722E+00 1.9145898E+00
 6.0052272E+00 1.1059928E+00 1.9113687E+00
 5.9501393E+00 1.1339711E+00 1.9048313E+00
 5.8960614E+00 1.1620195E+00 1.8946528E+00
 5.8434373E+00 1.1898693E+00 1.8806620E+00
 5.7926496E+00 1.2173155E+00 1.8628309E+00
 5.7438460E+00 1.2441884E+00 1.8412032E+00
 6.3889300E+00 9.7682242E-01 1.8929827E+00
 6.3358209E+00 9.9999992E-01 1.8987978E+00
 6.2821851E+00 1.0241367E+00 1.9037929E+00
 6.2279595E+00 1.0492807E+00 1.9076825E+00
 6.1732382E+00 1.0753658E+00 1.9100923E+00
 6.1182353E+00 1.1022676E+00 1.9105808E+00
 6.0632384E+00 1.1298068E+00 1.9086763E+00
 6.0085813E+00 1.1577527E+00 1.9039229E+00
 5.9546299E+00 1.1858447E+00 1.8959311E+00
 5.9017677E+00 1.2138319E+00 1.8844166E+00
 5.8503570E+00 1.2415258E+00 1.8692126E+00
 5.8006277E+00 1.2687987E+00 1.8502415E+00
 6.3889300E+00 1.0231774E+00 1.8929827E+00
 6.3359793E+00 1.0472000E+00 1.8975400E+00
 6.2826638E+00 1.0722057E+00 1.9011782E+00
 6.2289259E+00 1.0981317E+00 1.9036192E+00
 6.1748630E+00 1.1248612E+00 1.9045113E+00
 6.1206868E+00 1.1522393E+00 1.9034471E+00
 6.0666736E+00 1.1800673E+00 1.8999996E+00
 6.0131329E+00 1.2081159E+00 1.8937621E+00
 5.9603922E+00 1.2361597E+00 1.8843854E+00
 5.9087850E+00 1.2640327E+00 1.8715968E+00
 5.8586048E+00 1.2916512E+00 1.8552021E+00
 6.3890880E+00 1.0693491E+00 1.8905682E+00
 6.3364505E+00 1.0940160E+00 1.8937971E+00
 6.2836089E+00 1.1196703E+00 1.8960136E+00
 6.2305082E+00 1.1461418E+00 1.8969615E+00
 6.1772451E+00 1.1732702E+00 1.8963191E+00
 6.1240220E+00 1.2008818E+00 1.8937169E+00
 6.0710956E+00 1.2287797E+00 1.8887706E+00
 6.0187476E+00 1.2567697E+00 1.8811102E+00
 5.9672879E+00 1.2847144E+00 1.8703993E+00
 5.9170695E+00 1.3125758E+00 1.8563474E+00
 6.3894001E+00 1.1149777E+00 1.8857955E+00
 6.3372225E+00 1.1400788E+00 1.8876579E+00
 6.2849958E+00 1.1661550E+00 1.8884242E+00
 6.2326648E+00 1.1929361E+00 1.8878725E+00
 6.1803194E+00 1.2202299E+00 1.8857154E+00
 6.1281465E+00 1.2478626E+00 1.8816196E+00
 6.0763845E+00 1.2756728E+00 1.8752314E+00
 6.0253290E+00 1.3035556E+00 1.8661892E+00
 5.9753974E+00 1.3315196E+00 1.8541356E+00
 6.3898585E+00 1.1597243E+00 1.8787734E+00
 6.3382758E+00 1.1850490E+00 1.8792646E+00
 6.2867891E+00 1.2113242E+00 1.8785873E+00
 6.2353382E+00 1.2381935E+00 1.8765634E+00
 6.1840022E+00 1.2654500E+00 1.8729395E+00
 6.1329583E+00 1.2929529E+00 1.8674061E+00
 6.0824889E+00 1.3206304E+00 1.8596093E+00
 6.0330812E+00 1.3485363E+00 1.8491530E+00
 6.3904516E+00 1.2032818E+00 1.8696569E+00
 6.3395836E+00 1.2286281E+00 1.8688033E+00
 6.2889416E+00 1.2548962E+00 1.8667200E+00
 6.2384578E+00 1.2816630E+00 1.8632772E+00
 6.1882117E+00 1.3087410E+00 1.8582432E+00
 6.1384523E+00 1.3360757E+00 1.8512990E+00
 6.0897323E+00 1.3637616E+00 1.8420354E+00
 6.3911648E+00 1.2453862E+00 1.8586379E+00
 6.3411118E+00 1.2705708E+00 1.8564920E+00
 6.2913984E+00 1.2966574E+00 1.8530626E+00
 6.2419645E+00 1.3231933E+00 1.8482592E+00
 6.1929878E+00 1.3500629E+00 1.8418368E+00
 6.1450633E+00 1.3773812E+00 1.8333974E+00
 6.3919785E+00 1.2858235E+00 1.8459338E+00
 6.3428209E+00 1.3106942E+00 1.8425664E+00
 6.2941168E+00 1.3364850E+00 1.8378532E+00
 6.2459354E+00 1.3627736E+00 1.8317047E+00
 6.1988679E+00 1.3896014E+00 1.8237821E+00
 6.3928704E+00 1.3244320E+00 1.8317767E+00
 6.3446863E+00 1.3489023E+00 1.8272539E+00
 6.2972135E+00 1.3743998E+00 1.8212661E+00
 6.2509968E+00 1.4006245E+00 1.8136358E+00
 6.3938252E+00 1.3611161E+00 1.8163944E+00
 6.3468089E+00 1.3852072E+00 1.8107326E+00
 6.3013611E+00 1.4106406E+00 1.8032951E+00
 6.3949270E+00 1.3958790E+00 1.7999714E+00
 6.3499071E+00 1.4198852E+00 1.7929596E+00
 6.3965668E+00 1.4287996E+00 1.7826193E+00
 6.4419872E+00 1.4391303E+00 1.7713113E+00
 6.4418988E+00 1.4079417E+00 1.7882884E+00
 6.4418509E+00 1.3746729E+00 1.8046592E+00
 6.4418166E+00 1.3393269E+00 1.8202097E+00
 6.4417885E+00 1.3020098E+00 1.8346891E+00
 6.4417634E+00 1.2628407E+00 1.8478546E+00
 6.4417412E+00 1.2219597E+00 1.8594769E+00
 6.4417221E+00 1.1795530E+00 1.8693379E+00
 6.4417067E+00 1.1358576E+00 1.8772386E+00
 6.4416953E+00 1.0911525E+00 1.8830113E+00
 6.4416883E+00 1.0457531E+00 1.8865282E+00
 6.4416860E+00 9.9999992E-01 1.8877096E+00
 6.4416883E+00 9.5424675E-01 1.8865282E+00
 6.4416953E+00 9.0884737E-01 1.8830112E+00
 6.4417067E+00 8.6414230E-01 1.8772386E+00
 6.4417221E+00 8.2044686E-01 1.8693378E+00
 6.4417412E+00 7.7804018E-01 1.8594768E+00
 6.4417634E+00 7.3715923E-01 1.8478545E+00
 6.4417885E+00 6.9799008E-01 1.8346889E+00
 6.4418166E+00 6.6067303E-01 1.8202095E+00
 6.4418509E+00 6.2532698E-01 1.8046591E+00
 6.4418987E+00 5.9205819E-01 1.7882882E+00
 6.4419872E+00 5.6086968E-01 1.7713111E+00
 6.4829270E+00 5.4398884E-01 1.7564507E+00
 6.5278184E+00 5.5574949E-01 1.7579611E+00
 6.5749417E+00 5.6810072E-01 1.7594053E+00
 6.6239379E+00 5.8101145E-01 1.7607715E+00
 6.6746108E+00 5.9450319E-01 1.7620176E+00
 6.7267616E+00 6.0862568E-01 1.7630673E+00
 6.7801984E+00 6.2345454E-01 1.7638094E+00
 6.8346891E+00 6.3907226E-01 1.7640936E+00
 6.8899642E+00 6.5556520E-01 1.7637361E+00
 6.9457189E+00 6.7301465E-01 1.7625263E+00
 7.0016189E+00 6.9148882E-01 1.7602386E+00
 7.0573063E+00 7.1103389E-01 1.7566457E+00
 7.1124074E+00 7.3166596E-01 1.7515351E+00
 7.1665409E+00 7.5336537E-01 1.7447236E+00
 7.2193296E+00 7.7607325E-01 1.7360714E+00
 7.2704114E+00 7.9969212E-01 1.7254921E+00
 7.3194530E+00 8.2408937E-01 1.7129590E+00
 7.3661614E+00 8.4910451E-01 1.6985052E+00
 7.4102946E+00 8.7455810E-01 1.6822200E+00
 7.4516639E+00 9.0026156E-01 1.6642423E+00
 7.4901110E+00 9.2600928E-01 1.6447667E+00
 7.5254911E+00 9.5157741E-01 1.6240432E+00
 7.5576187E+00 9.7666856E-01 1.6024224E+00
 6.4872834E+00 1.4241221E+00 1.7742508E+00
 6.5337009E+00 1.4107416E+00 1.7759236E+00
 6.5818394E+00 1.3972293E+00 1.7772857E+00
 6.6316010E+00 1.3832287E+00 1.7784989E+00
 6.6828825E+00 1.3686114E+00 1.7795529E+00
 6.7355399E+00 1.3533146E+00 1.7803581E+00
 6.7893684E+00 1.3372732E+00 1.7807851E+00
 6.8441214E+00 1.3204156E+00 1.7806679E+00
 6.8995111E+00 1.3026713E+00 1.7798092E+00
 6.9552171E+00 1.2839788E+00 1.7779892E+00
 7.0108927E+00 1.2642943E+00 1.7749786E+00
 7.0661721E+00 1.2436001E+00 1.7705528E+00
 7.1206786E+00 1.2219106E+00 1.7645093E+00
 7.1740346E+00 1.1992767E+00 1.7566815E+00
 7.2258729E+00 1.1757860E+00 1.7469523E+00
 7.2758483E+00 1.1515600E+00 1.7352624E+00
 7.3236509E+00 1.1267475E+00 1.7216137E+00
 7.3690171E+00 1.1015134E+00 1.7060674E+00
 7.4117389E+00 1.0760257E+00 1.6887376E+00
 7.4516781E+00 1.0504489E+00 1.6697726E+00
 7.4888336E+00 1.0249743E+00 1.6492950E+00
 7.5235370E+00 9.9999992E-01 1.6272413E+00
 6.4887702E+00 1.3913809E+00 1.7911319E+00
 6.5366448E+00 1.3765011E+00 1.7927654E+00
 6.5858201E+00 1.3617818E+00 1.7939506E+00
 6.6364709E+00 1.3465916E+00 1.7949345E+00
 6.6885376E+00 1.3307632E+00 1.7957024E+00
 6.7418853E+00 1.3142209E+00 1.7961559E+00
 6.7963002E+00 1.2969049E+00 1.7961504E+00
 6.8515146E+00 1.2787550E+00 1.7955052E+00
 6.9072205E+00 1.2597167E+00 1.7940105E+00
 6.9630787E+00 1.2397493E+00 1.7914375E+00
 7.0187269E+00 1.2188346E+00 1.7875538E+00
 7.0737883E+00 1.1969837E+00 1.7821390E+00
 7.1278811E+00 1.1742417E+00 1.7750020E+00
 7.1806293E+00 1.1506895E+00 1.7659954E+00
 7.2316745E+00 1.1264414E+00 1.7550272E+00
 7.2806890E+00 1.1016387E+00 1.7420671E+00
 7.3273882E+00 1.0764387E+00 1.7271469E+00
 7.3715479E+00 1.0509974E+00 1.7103518E+00
 7.4130368E+00 1.0254600E+00 1.6917942E+00
 7.4519202E+00 9.9999992E-01 1.6715324E+00
 7.4888336E+00 9.7502559E-01 1.6492950E+00
 6.4897768E+00 1.3569093E+00 1.8071668E+00
 6.5386647E+00 1.3408288E+00 1.8085228E+00
 6.5887988E+00 1.3248962E+00 1.8094197E+00
 6.6402996E+00 1.3084937E+00 1.8100612E+00
 6.6931400E+00 1.2914239E+00 1.8104255E+00
 6.7471670E+00 1.2736174E+00 1.8103994E+00
 6.8021484E+00 1.2550212E+00 1.8098252E+00
 6.8577950E+00 1.2355891E+00 1.8085091E+00
 6.9137776E+00 1.2152847E+00 1.8062311E+00
 6.9697386E+00 1.1940908E+00 1.8027571E+00
 7.0253018E+00 1.1720159E+00 1.7978556E+00
 7.0800817E+00 1.1491006E+00 1.7913147E+00
 7.1336942E+00 1.1254196E+00 1.7829600E+00
 7.1857687E+00 1.1010811E+00 1.7726672E+00
 7.2359611E+00 1.0762204E+00 1.7603726E+00
 7.2839672E+00 1.0509888E+00 1.7460757E+00
 7.3295424E+00 1.0255365E+00 1.7298324E+00
 7.3725387E+00 9.9999992E-01 1.7117293E+00
 7.4130368E+00 9.7453981E-01 1.6917942E+00
 7.4516781E+00 9.4955098E-01 1.6697726E+00
 6.4906636E+00 1.3205747E+00 1.8221877E+00
 6.5404527E+00 1.3033647E+00 1.8231252E+00
 6.5914241E+00 1.2862571E+00 1.8236000E+00
 6.6436904E+00 1.2686444E+00 1.8237731E+00
 6.6972041E+00 1.2503476E+00 1.8235991E+00
 6.7517984E+00 1.2313022E+00 1.8229524E+00
 6.8072185E+00 1.2114686E+00 1.8216631E+00
 6.8631541E+00 1.1908167E+00 1.8195276E+00
 6.9192572E+00 1.1693314E+00 1.8163196E+00
 6.9751552E+00 1.1470205E+00 1.8118047E+00
 7.0304621E+00 1.1239206E+00 1.8057581E+00
 7.0847887E+00 1.1001011E+00 1.7979827E+00
 7.1377551E+00 1.0756635E+00 1.7883254E+00
 7.1890030E+00 1.0507369E+00 1.7766893E+00
 7.2382112E+00 1.0254675E+00 1.7630399E+00
 7.2851140E+00 9.9999992E-01 1.7474012E+00
 7.3295424E+00 9.7446334E-01 1.7298324E+00
 7.3715479E+00 9.4900242E-01 1.7103518E+00
 7.4117388E+00 9.2397415E-01 1.6887376E+00
 6.4914982E+00 1.2823631E+00 1.8360012E+00
 6.5420964E+00 1.2640793E+00 1.8363887E+00
 6.5938011E+00 1.2458216E+00 1.8363133E+00
 6.6467100E+00 1.2270319E+00 1.8358829E+00
 6.7007617E+00 1.2075494E+00 1.8350310E+00
 6.7557691E+00 1.1873245E+00 1.8336194E+00
 6.8114576E+00 1.1663321E+00 1.8314693E+00
 6.8674981E+00 1.1445615E+00 1.8283712E+00
 6.9235273E+00 1.1220209E+00 1.8240976E+00
 6.9791625E+00 1.0987443E+00 1.8184198E+00
 7.0340134E+00 1.0747960E+00 1.8111258E+00
 7.0876941E+00 1.0502712E+00 1.8020386E+00
 7.1398361E+00 1.0252925E+00 1.7910312E+00
 7.1901030E+00 9.9999992E-01 1.7780350E+00
 7.2382112E+00 9.7453234E-01 1.7630399E+00
 7.2839672E+00 9.4901103E-01 1.7460757E+00
 7.3273882E+00 9.2356118E-01 1.7271468E+00
 7.3690171E+00 8.9848641E-01 1.7060673E+00
 6.4922609E+00 1.2423668E+00 1.8483889E+00
 6.5435667E+00 1.2230614E+00 1.8481018E+00
 6.5958836E+00 1.2037009E+00 1.8473455E+00
 6.6492970E+00 1.1837904E+00 1.8461756E+00
 6.7037305E+00 1.1631953E+00 1.8445060E+00
 6.7589788E+00 1.1418823E+00 1.8421891E+00
 6.8147495E+00 1.1198443E+00 1.8390407E+00
 6.8706983E+00 1.0970915E+00 1.8348499E+00
 6.9264516E+00 1.0736564E+00 1.8293942E+00
 6.9816219E+00 1.0495989E+00 1.8224561E+00
 7.0358217E+00 1.0250082E+00 1.8138425E+00
 7.0886756E+00 9.9999992E-01 1.8034007E+00
 7.1398361E+00 9.7470730E-01 1.7910312E+00
 7.1890030E+00 9.4926292E-01 1.7766893E+00
 7.2359611E+00 9.2377948E-01 1.7603725E+00
 7.2806889E+00 8.9836116E-01 1.7420670E+00
 7.3236508E+00 8.7325236E-01 1.7216136E+00
 6.4929294E+00 1.2007454E+00 1.8591277E+00
 6.5448247E+00 1.1804870E+00 1.8580463E+00
 6.5976181E+00 1.1600960E+00 1.8564804E+00
 6.6513834E+00 1.1391504E+00 1.8544387E+00
 6.7060302E+00 1.1175465E+00 1.8518186E+00
 6.7613373E+00 1.0952698E+00 1.8484670E+00
 6.8169979E+00 1.0723323E+00 1.8441984E+00
 6.8726573E+00 1.0487661E+00 1.8388061E+00
 6.9279367E+00 1.0246276E+00 1.8320779E+00
 6.9824507E+00 9.9999992E-01 1.8238135E+00
 7.0358217E+00 9.7499167E-01 1.8138425E+00
 7.0876941E+00 9.4972864E-01 1.8020386E+00
 7.1377551E+00 9.2433639E-01 1.7883253E+00
 7.1857687E+00 8.9891871E-01 1.7726671E+00
 7.2316745E+00 8.7355849E-01 1.7550272E+00
 7.2758483E+00 8.4843987E-01 1.7352623E+00
 6.4934851E+00 1.1577083E+00 1.8680087E+00
 6.5458374E+00 1.1365911E+00 1.8660195E+00
 6.5989591E+00 1.1152701E+00 1.8635227E+00
 6.6529136E+00 1.0934057E+00 1.8604866E+00
 6.7075982E+00 1.0709282E+00 1.8567971E+00
 6.7627787E+00 1.0478433E+00 1.8522993E+00
 6.8181383E+00 1.0241828E+00 1.8468116E+00
 6.8733167E+00 9.9999992E-01 1.8401367E+00
 6.9279367E+00 9.7537228E-01 1.8320779E+00
 6.9816219E+00 9.5040098E-01 1.8224561E+00
 7.0340134E+00 9.2520386E-01 1.8111257E+00
 7.0847887E+00 8.9989878E-01 1.7979826E+00
 7.1336942E+00 8.7458021E-01 1.7829599E+00
 7.1806293E+00 8.4931042E-01 1.7659953E+00
 7.2258728E+00 8.2421390E-01 1.7469522E+00
 6.4939143E+00 1.1135138E+00 1.8748474E+00
 6.5465795E+00 1.0916583E+00 1.8718486E+00
 6.5998726E+00 1.0695358E+00 1.8683124E+00
 6.6538480E+00 1.0468977E+00 1.8641757E+00
 6.7083928E+00 1.0237103E+00 1.8593183E+00
 6.7632636E+00 9.9999992E-01 1.8535879E+00
 6.8181383E+00 9.7581704E-01 1.8468116E+00
 6.8726573E+00 9.5123373E-01 1.8388061E+00
 6.9264515E+00 9.2634349E-01 1.8293942E+00
 6.9791624E+00 9.0125554E-01 1.8184197E+00
 7.0304620E+00 8.7607922E-01 1.8057580E+00
 7.0800816E+00 8.5089930E-01 1.7913147E+00
 7.1278811E+00 8.2575818E-01 1.7750019E+00
 7.1740346E+00 8.0072317E-01 1.7566814E+00
 6.4942065E+00 1.0684608E+00 1.8794945E+00
 6.5470323E+00 1.0460111E+00 1.8754014E+00
 6.6003353E+00 1.0232416E+00 1.8707364E+00
 6.6541622E+00 9.9999992E-01 1.8654157E+00
 6.7083928E+00 9.7628954E-01 1.8593182E+00
 6.7627787E+00 9.5215650E-01 1.8522993E+00
 6.8169979E+00 9.2766754E-01 1.8441983E+00
 6.8706983E+00 9.0290838E-01 1.8348499E+00
 6.9235273E+00 8.7797900E-01 1.8240976E+00
 6.9751552E+00 8.5297941E-01 1.8118046E+00
 7.0253018E+00 8.2798401E-01 1.7978555E+00
 7.0737882E+00 8.0301620E-01 1.7821389E+00
 7.1206786E+00 7.7808924E-01 1.7645092E+00
 6.4943544E+00 1.0228797E+00 1.8818451E+00
 6.5471845E+00 9.9999992E-01 1.8765950E+00
 6.6003353E+00 9.7675821E-01 1.8707364E+00
 6.6538480E+00 9.5310211E-01 1.8641757E+00
 6.7075982E+00 9.2907166E-01 1.8567970E+00
 6.7613373E+00 9.0473002E-01 1.8484669E+00
 6.8147495E+00 8.8015552E-01 1.8390406E+00
 6.8674981E+00 8.5543838E-01 1.8283711E+00
 6.9192572E+00 8.3066850E-01 1.8163195E+00
 6.9697385E+00 8.0590912E-01 1.8027570E+00
 7.0187268E+00 7.8116525E-01 1.7875537E+00
 7.0661720E+00 7.5639977E-01 1.7705527E+00
 6.4943544E+00 9.7712017E-01 1.8818451E+00
 6.5470323E+00 9.5398870E-01 1.8754013E+00
 6.5998726E+00 9.3046400E-01 1.8683123E+00
 6.6529136E+00 9.0659416E-01 1.8604865E+00
 6.7060302E+00 8.8245336E-01 1.8518186E+00
 6.7589788E+00 8.5811752E-01 1.8421890E+00
 6.8114576E+00 8.3366776E-01 1.8314692E+00
 6.8631541E+00 8.0918322E-01 1.8195275E+00
 6.9137775E+00 7.8471514E-01 1.8062310E+00
 6.9630786E+00 7.6025055E-01 1.7914373E+00
 7.0108927E+00 7.3570555E-01 1.7749784E+00
 6.4942065E+00 9.3153901E-01 1.8794945E+00
 6.5465794E+00 9.0834159E-01 1.8718486E+00
 6.5989591E+00 8.8472977E-01 1.8635226E+00
 6.6513834E+00 8.6084945E-01 1.8544386E+00
 6.7037305E+00 8.3680458E-01 1.8445059E+00
 6.7557690E+00 8.1267538E-01 1.8336193E+00
 6.8072185E+00 7.8853126E-01 1.8216630E+00
 6.8577950E+00 7.6441079E-01 1.8085090E+00
 6.9072205E+00 7.4028316E-01 1.7940103E+00
 6.9552170E+00 7.1602110E-01 1.7779891E+00
 6.4939143E+00 8.8648605E-01 1.8748474E+00
 6.5458374E+00 8.6340875E-01 1.8660195E+00
 6.5976181E+00 8.3990387E-01 1.8564803E+00
 6.6492970E+00 8.1620950E-01 1.8461755E+00
 6.7007617E+00 7.9245048E-01 1.8350308E+00
 6.7517984E+00 7.6869772E-01 1.8229523E+00
 6.8021484E+00 7.4497865E-01 1.8098250E+00
 6.8515146E+00 7.2124485E-01 1.7955051E+00
 6.8995110E+00 6.9732862E-01 1.7798090E+00
 6.4934850E+00 8.4229154E-01 1.8680087E+00
 6.5448247E+00 8.1951287E-01 1.8580462E+00
 6.5958836E+00 7.9629897E-01 1.8473454E+00
 6.6467100E+00 7.7296795E-01 1.8358828E+00
 6.6972041E+00 7.4965231E-01 1.8235990E+00
 6.7471669E+00 7.2638254E-01 1.8103992E+00
 6.7963002E+00 7.0309501E-01 1.7961503E+00
 6.8441213E+00 6.7958436E-01 1.7806677E+00
 6.4929294E+00 7.9925445E-01 1.8591276E+00
 6.5435666E+00 7.7693851E-01 1.8481017E+00
 6.5938011E+00 7.5417827E-01 1.8363132E+00
 6.6436904E+00 7.3135546E-01 1.8237730E+00
 6.6931400E+00 7.0857599E-01 1.8104254E+00
 6.7418853E+00 6.8577903E-01 1.7961558E+00
 6.7893683E+00 6.6272675E-01 1.7807850E+00
 6.4922608E+00 7.5763313E-01 1.8483887E+00
 6.5420964E+00 7.3592060E-01 1.8363886E+00
 6.5914241E+00 7.1374282E-01 1.8235999E+00
 6.6402996E+00 6.9150621E-01 1.8100610E+00
 6.6885376E+00 6.6923672E-01 1.7957022E+00
 6.7355399E+00 6.4668531E-01 1.7803580E+00
 6.4914982E+00 7.1763677E-01 1.8360011E+00
 6.5404527E+00 6.9663518E-01 1.8231250E+00
 6.5887988E+00 6.7510374E-01 1.8094195E+00
 6.6364709E+00 6.5340828E-01 1.7949343E+00
 6.6828825E+00 6.3138853E-01 1.7795527E+00
 6.4906635E+00 6.7942516E-01 1.8221875E+00
 6.5386646E+00 6.5917108E-01 1.8085227E+00
 6.5858201E+00 6.3821816E-01 1.7939504E+00
 6.6316010E+00 6.1677129E-01 1.7784988E+00
 6.4897768E+00 6.4309058E-01 1.8071667E+00
 6.5366448E+00 6.2349879E-01 1.7927652E+00
 6.5818393E+00 6.0277062E-01 1.7772855E+00
 6.4887702E+00 6.0861908E-01 1.7911317E+00
 6.5337008E+00 5.8925835E-01 1.7759234E+00
 6.4872833E+00 5.7587784E-01 1.7742506E+00
 6.4167017E+00 1.4898723E+00 1.7433457E+00
 6.3887001E+00 1.5153201E+00 1.7295770E+00
 6.3594393E+00 1.5416218E+00 1.7141246E+00
 6.3290313E+00 1.5685785E+00 1.6968964E+00
 6.2976216E+00 1.5960026E+00 1.6777780E+00
 6.2653587E+00 1.6236967E+00 1.6566419E+00
 6.2324018E+00 1.6514450E+00 1.6333585E+00
 6.1989359E+00 1.6789888E+00 1.6078221E+00
 6.1651745E+00 1.7060312E+00 1.5799611E+00
 6.1313525E+00 1.7322451E+00 1.5497510E+00
 6.0977208E+00 1.7572868E+00 1.5172245E+00
 6.0645383E+00 1.7808123E+00 1.4824805E+00
 6.0320651E+00 1.8024972E+00 1.4456878E+00
 6.0005532E+00 1.8220551E+00 1.4070846E+00
 5.9702383E+00 1.8392562E+00 1.3669707E+00
 5.9413309E+00 1.8539393E+00 1.3256944E+00
 5.9140080E+00 1.8660201E+00 1.2836344E+00
 5.8884074E+00 1.8754910E+00 1.2411791E+00
 5.8646240E+00 1.8824155E+00 1.1987064E+00
 5.8427119E+00 1.8869168E+00 1.1565688E+00
 5.8227058E+00 1.8891652E+00 1.1151087E+00
 5.8046285E+00 1.8893642E+00 1.0746584E+00
 5.7885661E+00 1.8877632E+00 1.0357337E+00
 5.3408991E+00 1.0660802E+00 1.5815544E+00
 5.3365917E+00 1.1089188E+00 1.5691967E+00
 5.3337507E+00 1.1528236E+00 1.5550203E+00
 5.3328515E+00 1.1979702E+00 1.5392968E+00
 5.3341589E+00 1.2442664E+00 1.5220256E+00
 5.3378868E+00 1.2915054E+00 1.5031637E+00
 5.3442339E+00 1.3394150E+00 1.4826842E+00
 5.3533797E+00 1.3876674E+00 1.4605929E+00
 5.3654728E+00 1.4358851E+00 1.4369298E+00
 5.3806187E+00 1.4836483E+00 1.4117717E+00
 5.3988683E+00 1.5305062E+00 1.3852330E+00
 5.4202079E+00 1.5759899E+00 1.3574672E+00
 5.4445518E+00 1.6196299E+00 1.3286655E+00
 5.4717382E+00 1.6609749E+00 1.2990538E+00
 5.5015288E+00 1.6996126E+00 1.2688869E+00
 5.5336148E+00 1.7351911E+00 1.2384398E+00
 5.5676293E+00 1.7674375E+00 1.2079975E+00
 5.6031660E+00 1.7961738E+00 1.1778428E+00
 5.6398036E+00 1.8213249E+00 1.1482433E+00
 5.6771253E+00 1.8429168E+00 1.1194329E+00
 5.7147289E+00 1.8610689E+00 1.0915241E+00
 5.7521165E+00 1.8759537E+00 1.0642718E+00
 5.3664760E+00 1.0936256E+00 1.6109372E+00
 5.3634846E+00 1.1385100E+00 1.5986515E+00
 5.3619684E+00 1.1839953E+00 1.5843629E+00
 5.3625182E+00 1.2305212E+00 1.5684094E+00
 5.3654224E+00 1.2780494E+00 1.5507891E+00
 5.3708935E+00 1.3263607E+00 1.5314471E+00
 5.3791188E+00 1.3751450E+00 1.5103532E+00
 5.3902598E+00 1.4240267E+00 1.4875173E+00
 5.4044378E+00 1.4725802E+00 1.4629909E+00
 5.4217210E+00 1.5203414E+00 1.4368679E+00
 5.4421128E+00 1.5668230E+00 1.4092864E+00
 5.4655436E+00 1.6115318E+00 1.3804275E+00
 5.4918651E+00 1.6539900E+00 1.3505143E+00
 5.5208496E+00 1.6937565E+00 1.3198055E+00
 5.5521957E+00 1.7304509E+00 1.2885878E+00
 5.5855406E+00 1.7637739E+00 1.2571648E+00
 5.6204801E+00 1.7935259E+00 1.2258430E+00
 5.6565987E+00 1.8196180E+00 1.1949148E+00
 5.6934990E+00 1.8420769E+00 1.1646195E+00
 5.7308054E+00 1.8610361E+00 1.1350302E+00
 5.7680753E+00 1.8767158E+00 1.1056402E+00
 5.3955254E+00 1.1215800E+00 1.6402384E+00
 5.3938845E+00 1.1680137E+00 1.6278350E+00
 5.3938189E+00 1.2149349E+00 1.6133330E+00
 5.3959548E+00 1.2627527E+00 1.5970351E+00
 5.4005910E+00 1.3114192E+00 1.5789266E+00
 5.4079317E+00 1.3606773E+00 1.5589466E+00
 5.4181479E+00 1.4101696E+00 1.5370671E+00
 5.4313749E+00 1.4594701E+00 1.5133082E+00
 5.4476978E+00 1.5081052E+00 1.4877384E+00
 5.4671377E+00 1.5555702E+00 1.4604761E+00
 5.4896420E+00 1.6013491E+00 1.4316894E+00
 5.5150770E+00 1.6449362E+00 1.4015951E+00
 5.5432271E+00 1.6858609E+00 1.3704533E+00
 5.5737993E+00 1.7237120E+00 1.3385608E+00
 5.6064354E+00 1.7581619E+00 1.3062383E+00
 5.6407333E+00 1.7889855E+00 1.2738164E+00
 5.6762791E+00 1.8160765E+00 1.2416135E+00
 5.7126782E+00 1.8394515E+00 1.2098972E+00
 5.7495640E+00 1.8592504E+00 1.1787468E+00
 5.7864818E+00 1.8757189E+00 1.1476846E+00
 5.4282540E+00 1.1502125E+00 1.6689727E+00
 5.4280775E+00 1.1979700E+00 1.6562951E+00
 5.4296150E+00 1.2461389E+00 1.6414472E+00
 5.4334978E+00 1.2950664E+00 1.6246713E+00
 5.4400126E+00 1.3446535E+00 1.6059301E+00
 5.4493461E+00 1.3945964E+00 1.5851602E+00
 5.4616427E+00 1.4444867E+00 1.5623415E+00
 5.4770011E+00 1.4938499E+00 1.5375104E+00
 5.4954591E+00 1.5421701E+00 1.5107600E+00
 5.5169816E+00 1.5889123E+00 1.4822402E+00
 5.5414513E+00 1.6335469E+00 1.4521566E+00
 5.5686673E+00 1.6755750E+00 1.4207669E+00
 5.5983481E+00 1.7145561E+00 1.3883732E+00
 5.6301444E+00 1.7501329E+00 1.3553106E+00
 5.6636598E+00 1.7820546E+00 1.3219310E+00
 5.6984841E+00 1.8101924E+00 1.2885806E+00
 5.7342280E+00 1.8345493E+00 1.2555569E+00
 5.7705307E+00 1.8552614E+00 1.2229831E+00
 5.8069396E+00 1.8725956E+00 1.1904595E+00
 5.4648692E+00 1.1793893E+00 1.6966814E+00
 5.4662944E+00 1.2282686E+00 1.6835754E+00
 5.4695936E+00 1.2774691E+00 1.6682372E+00