# TIME = 1.100000
variables = x, y, z
zone N=5762 E=11520 F=FEPOINT ET=TRIANGLE
 5.6445849E+00 1.4682245E+00 1.7575335E+00
 5.6445849E+00 1.4682246E+00 2.4246643E-01
 5.6445849E+00 5.3177536E-01 1.7575335E+00
 5.6445850E+00 5.3177528E-01 2.4246641E-01
 4.5226590E+00 9.9999992E-01 1.5653774E+00
 6.7856728E+00 9.9999992E-01 1.5804030E+00
 4.5226590E+00 9.9999992E-01 4.3462259E-01
 6.7856728E+00 9.9999992E-01 4.1959697E-01
 4.9799232E+00 1.8756607E+00 9.9999999E-01
 4.9799232E+00 1.2433897E-01 1.0000000E+00
 6.2924771E+00 1.8064518E+00 1.0000000E+00
 6.2924771E+00 1.9354814E-01 9.9999999E-01
 5.6035280E+00 1.4615814E+00 1.7658194E+00
 5.5585269E+00 1.4539666E+00 1.7746901E+00
 5.5113259E+00 1.4456452E+00 1.7837282E+00
 5.4621656E+00 1.4365510E+00 1.7927587E+00
 5.4110956E+00 1.4265352E+00 1.8016013E+00
 5.3582198E+00 1.4154364E+00 1.8099874E+00
 5.3036644E+00 1.4030622E+00 1.8175722E+00
 5.2476174E+00 1.3892116E+00 1.8239222E+00
 5.1903400E+00 1.3736867E+00 1.8285337E+00
 5.1321902E+00 1.3563188E+00 1.8308620E+00
 5.0736390E+00 1.3369977E+00 1.8303739E+00
 5.0152723E+00 1.3157002E+00 1.8266109E+00
 4.9577658E+00 1.2925105E+00 1.8192538E+00
 4.9018361E+00 1.2676229E+00 1.8081681E+00
 4.8481762E+00 1.2413279E+00 1.7934213E+00
 4.7973927E+00 1.2139831E+00 1.7752672E+00
 4.7499591E+00 1.1859784E+00 1.7541062E+00
 4.7061936E+00 1.1577014E+00 1.7304332E+00
 4.6662568E+00 1.1295091E+00 1.7047843E+00
 4.6301689E+00 1.1017114E+00 1.6776908E+00
 4.5978359E+00 1.0745586E+00 1.6496486E+00
 4.5691040E+00 1.0482714E+00 1.6211170E+00
 4.5437962E+00 1.0230434E+00 1.5925243E+00
 5.5998111E+00 5.6987420E-01 1.7842737E+00
 5.5536016E+00 5.7901369E-01 1.7935374E+00
 5.5054861E+00 5.8872065E-01 1.8027758E+00
 5.4554757E+00 5.9928150E-01 1.8119399E+00
 5.4036213E+00 6.1084755E-01 1.8208245E+00
 5.3500143E+00 6.2358071E-01 1.8291379E+00
 5.2948120E+00 6.3765568E-01 1.8364979E+00
 5.2382290E+00 6.5325145E-01 1.8424389E+00
 5.1805596E+00 6.7052954E-01 1.8464295E+00
 5.1221964E+00 6.8960949E-01 1.8479113E+00
 5.0636446E+00 7.1054125E-01 1.8463567E+00
 5.0055162E+00 7.3328194E-01 1.8413362E+00
 4.9484992E+00 7.5768463E-01 1.8325801E+00
 4.8933029E+00 7.8350332E-01 1.8200178E+00
 4.8405926E+00 8.1041427E-01 1.8037840E+00
 4.7909316E+00 8.3804763E-01 1.7841945E+00
 4.7447412E+00 8.6602162E-01 1.7616987E+00
 4.7022844E+00 8.9397443E-01 1.7368244E+00
 4.6636716E+00 9.2158572E-01 1.7101254E+00
 4.6288761E+00 9.4860021E-01 1.6821338E+00
 4.5977476E+00 9.7481704E-01 1.6533114E+00
 4.5699129E+00 9.9999992E-01 1.6238805E+00
 5.5985977E+00 6.0262093E-01 1.8014840E+00
 5.5512460E+00 6.1325978E-01 1.8109993E+00
 5.5021466E+00 6.2443979E-01 1.8203742E+00
 5.4511824E+00 6.3654997E-01 1.8296017E+00
 5.3984026E+00 6.4974612E-01 1.8384540E+00
 5.3439249E+00 6.6418091E-01 1.8466068E+00
 5.2879290E+00 6.8001388E-01 1.8536443E+00
 5.2306617E+00 6.9739595E-01 1.8590661E+00
 5.1724517E+00 7.1644882E-01 1.8623139E+00
 5.1137295E+00 7.3723974E-01 1.8628167E+00
 5.0550364E+00 7.5975707E-01 1.8600562E+00
 4.9970129E+00 7.8389352E-01 1.8536358E+00
 4.9403602E+00 8.0944294E-01 1.8433411E+00
 4.8857810E+00 8.3611352E-01 1.8291695E+00
 4.8339137E+00 8.6355463E-01 1.8113273E+00
 4.7852788E+00 8.9139037E-01 1.7901941E+00
 4.7402448E+00 9.1925345E-01 1.7662695E+00
 4.6990202E+00 9.4681159E-01 1.7401144E+00
 4.6616559E+00 9.7379645E-01 1.7122915E+00
 4.6280489E+00 9.9999992E-01 1.6833021E+00
 4.5977476E+00 1.0251828E+00 1.6533114E+00
 5.5976077E+00 6.3730483E-01 1.8178715E+00
 5.5493159E+00 6.4939069E-01 1.8274416E+00
 5.4992793E+00 6.6211787E-01 1.8368373E+00
 5.4474175E+00 6.7584544E-01 1.8459973E+00
 5.3937831E+00 6.9072941E-01 1.8546721E+00
 5.3385188E+00 7.0690770E-01 1.8625060E+00
 5.2818328E+00 7.2451628E-01 1.8690502E+00
 5.2240029E+00 7.4367157E-01 1.8737755E+00
 5.1653924E+00 7.6444873E-01 1.8761045E+00
 5.1064667E+00 7.8685809E-01 1.8754650E+00
 5.0477977E+00 8.1082539E-01 1.8713596E+00
 4.9900464E+00 8.3618191E-01 1.8634366E+00
 4.9339170E+00 8.6266968E-01 1.8515442E+00
 4.8800955E+00 8.8996179E-01 1.8357513E+00
 4.8291849E+00 9.1769293E-01 1.8163332E+00
 4.7816568E+00 9.4549444E-01 1.7937272E+00
 4.7378251E+00 9.7302412E-01 1.7684738E+00
 4.6978358E+00 9.9999992E-01 1.7411503E+00
 4.6616559E+00 1.0262034E+00 1.7122915E+00
 4.6288762E+00 1.0513996E+00 1.6821338E+00
 5.5966987E+00 6.7401283E-01 1.8332801E+00
 5.5475223E+00 6.8760500E-01 1.8427793E+00
 5.4966431E+00 7.0191941E-01 1.8520438E+00
 5.4439811E+00 7.1730572E-01 1.8609778E+00
 5.3896133E+00 7.3390148E-01 1.8693015E+00
 5.3337061E+00 7.5182604E-01 1.8766315E+00
 5.2764966E+00 7.7118493E-01 1.8824918E+00
 5.2182931E+00 7.9205322E-01 1.8863322E+00
 5.1594901E+00 8.1445371E-01 1.8875679E+00
 5.1005820E+00 8.3833678E-01 1.8856383E+00
 5.0421628E+00 8.6356618E-01 1.8800805E+00
 4.9849016E+00 8.8991738E-01 1.8705973E+00
 4.9294933E+00 9.1709047E-01 1.8571050E+00
 4.8765956E+00 9.4473597E-01 1.8397424E+00
 4.8267674E+00 9.7248865E-01 1.8188472E+00
 4.7804271E+00 9.9999992E-01 1.7949035E+00
 4.7378251E+00 1.0269757E+00 1.7684738E+00
 4.6990202E+00 1.0531883E+00 1.7401144E+00
 4.6636717E+00 1.0784141E+00 1.7101254E+00
 5.5958488E+00 7.1270777E-01 1.8474888E+00
 5.5458775E+00 7.2783248E-01 1.8567672E+00
 5.4942578E+00 7.4376610E-01 1.8657415E+00
 5.4409221E+00 7.6082396E-01 1.8742747E+00
 5.3859680E+00 7.7912587E-01 1.8820623E+00
 5.3295881E+00 7.9876415E-01 1.8886965E+00
 5.2720469E+00 8.1980824E-01 1.8936813E+00
 5.2136808E+00 8.4228594E-01 1.8964563E+00
 5.1549108E+00 8.6616423E-01 1.8964419E+00
 5.0962525E+00 8.9133315E-01 1.8931029E+00
 5.0383109E+00 9.1759882E-01 1.8860223E+00
 4.9817510E+00 9.4468956E-01 1.8749653E+00
 4.9272463E+00 9.7227563E-01 1.8599169E+00
 4.8754156E+00 9.9999992E-01 1.8410811E+00
 4.8267675E+00 1.0275112E+00 1.8188471E+00
 4.7816568E+00 1.0545054E+00 1.7937271E+00
 4.7402449E+00 1.0807464E+00 1.7662695E+00
 4.7022844E+00 1.1060254E+00 1.7368244E+00
 5.5950846E+00 7.5328164E-01 1.8602559E+00
 5.5444185E+00 7.6994770E-01 1.8691545E+00
 5.4921800E+00 7.8749677E-01 1.8776653E+00
 5.4383126E+00 8.0620476E-01 1.8856139E+00
 5.3829366E+00 8.2616609E-01 1.8926740E+00
 5.3262696E+00 8.4744187E-01 1.8984204E+00
 5.2686016E+00 8.7005980E-01 1.9023461E+00
 5.2102931E+00 8.9399714E-01 1.9038920E+00
 5.1517849E+00 9.1916403E-01 1.9024974E+00
 5.0936046E+00 9.4539344E-01 1.8976651E+00
 5.0363569E+00 9.7244128E-01 1.8890337E+00
 4.9806907E+00 9.9999992E-01 1.8764339E+00
 4.9272463E+00 1.0277242E+00 1.8599168E+00
 4.8765957E+00 1.0552639E+00 1.8397423E+00
 4.8291849E+00 1.0823069E+00 1.8163331E+00
 4.7852788E+00 1.1086095E+00 1.7901940E+00
 4.7447413E+00 1.1339782E+00 1.7616986E+00
 5.5944188E+00 7.9556461E-01 1.8713409E+00
 5.5431756E+00 8.1374890E-01 1.8796924E+00
 5.4904544E+00 8.3287537E-01 1.8875604E+00
 5.4362127E+00 8.5317216E-01 1.8947377E+00
 5.3805924E+00 8.7470402E-01 1.9008820E+00
 5.3238345E+00 8.9749603E-01 1.9055581E+00
 5.2662515E+00 9.2153130E-01 1.9082586E+00
 5.2082221E+00 9.4673537E-01 1.9084386E+00
 5.1501996E+00 9.7296417E-01 1.9055685E+00
 5.0927135E+00 9.9999992E-01 1.8992002E+00
 5.0363569E+00 1.0275586E+00 1.8890336E+00
 4.9817510E+00 1.0553103E+00 1.8749652E+00
 4.9294934E+00 1.0829094E+00 1.8571048E+00
 4.8800956E+00 1.1100380E+00 1.8357512E+00
 4.8339137E+00 1.1364452E+00 1.8113271E+00
 4.7909317E+00 1.1619522E+00 1.7841944E+00
 5.5938671E+00 8.3933700E-01 1.8805196E+00
 5.5421768E+00 8.5898168E-01 1.8881545E+00
 5.4891218E+00 8.7960832E-01 1.8952012E+00
 5.4346736E+00 9.0139096E-01 1.9014263E+00
 5.3789947E+00 9.2436068E-01 1.9064781E+00
 5.3223469E+00 9.4850400E-01 1.9099204E+00
 5.2650601E+00 9.7375843E-01 1.9112569E+00
 5.2075254E+00 9.9999992E-01 1.9099686E+00
 5.1501996E+00 1.0270357E+00 1.9055685E+00
 5.0936046E+00 1.0546064E+00 1.8976650E+00
 5.0383109E+00 1.0824010E+00 1.8860221E+00
 4.9849016E+00 1.1100824E+00 1.8705971E+00
 4.9339171E+00 1.1373301E+00 1.8515440E+00
 4.8857811E+00 1.1638863E+00 1.8291693E+00
 4.8405927E+00 1.1895855E+00 1.8037838E+00
 5.5934413E+00 8.8432826E-01 1.8875943E+00
 5.5414454E+00 9.0533885E-01 1.8943481E+00
 5.4882143E+00 9.2734954E-01 1.9004039E+00
 5.4337339E+00 9.5047447E-01 1.9055105E+00
 5.3781851E+00 9.7470884E-01 1.9093145E+00
 5.3218465E+00 9.9999992E-01 1.9113882E+00
 5.2650601E+00 1.0262414E+00 1.9112569E+00
 5.2082221E+00 1.0532645E+00 1.9084385E+00
 5.1517849E+00 1.0808358E+00 1.9024973E+00
 5.0962525E+00 1.1086667E+00 1.8931027E+00
 5.0421628E+00 1.1364336E+00 1.8800803E+00
 4.9900464E+00 1.1638179E+00 1.8634364E+00
 4.9403603E+00 1.1905568E+00 1.8433408E+00
 4.8933030E+00 1.2164965E+00 1.8200175E+00
 5.5931516E+00 9.3022473E-01 1.8924052E+00
 5.5409990E+00 9.5247153E-01 1.8981260E+00
 5.4877547E+00 9.7571300E-01 1.9030389E+00
 5.4334179E+00 9.9999992E-01 1.9068840E+00
 5.3781851E+00 1.0252910E+00 1.9093144E+00
 5.3223469E+00 1.0514958E+00 1.9099204E+00
 5.2662515E+00 1.0784685E+00 1.9082585E+00
 5.2102931E+00 1.1060027E+00 1.9038919E+00
 5.1549108E+00 1.1338356E+00 1.8964417E+00
 5.1005820E+00 1.1616630E+00 1.8856381E+00
 5.0477978E+00 1.1891744E+00 1.8713593E+00
 4.9970130E+00 1.2161062E+00 1.8536355E+00
 4.9484993E+00 1.2423151E+00 1.8325798E+00
 5.5930049E+00 9.7667875E-01 1.8948397E+00
 5.5408490E+00 9.9999992E-01 1.8993958E+00
 5.4877547E+00 1.0242868E+00 1.9030389E+00
 5.4337339E+00 1.0495254E+00 1.9055105E+00
 5.3789947E+00 1.0756392E+00 1.9064781E+00
 5.3238345E+00 1.1025038E+00 1.9055580E+00
 5.2686016E+00 1.1299400E+00 1.9023459E+00
 5.2136809E+00 1.1577139E+00 1.8964562E+00
 5.1594901E+00 1.1855461E+00 1.8875677E+00
 5.1064667E+00 1.2131417E+00 1.8754648E+00
 5.0550365E+00 1.2402427E+00 1.8600558E+00
 5.0055163E+00 1.2667178E+00 1.8413359E+00
 5.5930049E+00 1.0233211E+00 1.8948397E+00
 5.5409990E+00 1.0475283E+00 1.8981260E+00
 5.4882143E+00 1.0726503E+00 1.9004039E+00
 5.4346736E+00 1.0986089E+00 1.9014262E+00
 5.3805924E+00 1.1252958E+00 1.9008820E+00
 5.3262696E+00 1.1525580E+00 1.8984203E+00
 5.2720469E+00 1.1801916E+00 1.8936812E+00
 5.2182931E+00 1.2079466E+00 1.8863320E+00
 5.1653925E+00 1.2355510E+00 1.8761043E+00
 5.1137296E+00 1.2627600E+00 1.8628164E+00
 5.0636446E+00 1.2894585E+00 1.8463564E+00
 5.5931516E+00 1.0697751E+00 1.8924052E+00
 5.5414454E+00 1.0946610E+00 1.8943481E+00
 5.4891218E+00 1.1203915E+00 1.8952012E+00
 5.4362127E+00 1.1468277E+00 1.8947377E+00
 5.3829366E+00 1.1738337E+00 1.8926740E+00
 5.3295881E+00 1.2012357E+00 1.8886964E+00
 5.2764966E+00 1.2288149E+00 1.8824916E+00
 5.2240029E+00 1.2563282E+00 1.8737753E+00
 5.1724518E+00 1.2835509E+00 1.8623136E+00
 5.1221964E+00 1.3103902E+00 1.8479110E+00
 5.5934413E+00 1.1156716E+00 1.8875943E+00
 5.5421768E+00 1.1410182E+00 1.8881545E+00
 5.4904544E+00 1.1671245E+00 1.8875604E+00
 5.4383126E+00 1.1937951E+00 1.8856139E+00
 5.3859680E+00 1.2208740E+00 1.8820623E+00
 5.3337061E+00 1.2481738E+00 1.8766314E+00
 5.2818328E+00 1.2754835E+00 1.8690500E+00
 5.2306617E+00 1.3026038E+00 1.8590659E+00
 5.1805596E+00 1.3294702E+00 1.8464292E+00
 5.5938672E+00 1.1606628E+00 1.8805196E+00
 5.5431756E+00 1.1862510E+00 1.8796924E+00
 5.4921800E+00 1.2125031E+00 1.8776653E+00
 5.4409221E+00 1.2391759E+00 1.8742747E+00
 5.3896133E+00 1.2660984E+00 1.8693014E+00
 5.3385188E+00 1.2930921E+00 1.8625059E+00
 5.2879290E+00 1.3199859E+00 1.8536442E+00
 5.2382290E+00 1.3467483E+00 1.8424387E+00
 5.5944188E+00 1.2044352E+00 1.8713409E+00
 5.5444185E+00 1.2300522E+00 1.8691545E+00
 5.4942578E+00 1.2562338E+00 1.8657416E+00
 5.4439811E+00 1.2826941E+00 1.8609778E+00
 5.3937831E+00 1.3092704E+00 1.8546721E+00
 5.3439249E+00 1.3358189E+00 1.8466067E+00
 5.2948120E+00 1.3623441E+00 1.8364977E+00
 5.5950846E+00 1.2467182E+00 1.8602559E+00
 5.5458775E+00 1.2721674E+00 1.8567672E+00
 5.4966431E+00 1.2980804E+00 1.8520438E+00
 5.4474175E+00 1.3241544E+00 1.8459973E+00
 5.3984026E+00 1.3502537E+00 1.8384539E+00
 5.3500143E+00 1.3764191E+00 1.8291378E+00
 5.5958488E+00 1.2872921E+00 1.8474889E+00
 5.5475223E+00 1.3123949E+00 1.8427794E+00
 5.4992793E+00 1.3378820E+00 1.8368374E+00
 5.4511824E+00 1.3634499E+00 1.8296017E+00
 5.4036213E+00 1.3891523E+00 1.8208245E+00
 5.5966987E+00 1.3259870E+00 1.8332802E+00
 5.5493159E+00 1.3506092E+00 1.8274417E+00
 5.5021466E+00 1.3755601E+00 1.8203743E+00
 5.4554757E+00 1.4007184E+00 1.8119399E+00
 5.5976077E+00 1.3626950E+00 1.8178716E+00
 5.5512460E+00 1.3867401E+00 1.8109994E+00
 5.5054861E+00 1.4112792E+00 1.8027759E+00
 5.5985977E+00 1.3973790E+00 1.8014841E+00
 5.5536016E+00 1.4209862E+00 1.7935375E+00
 5.5998111E+00 1.4301257E+00 1.7842738E+00
 5.6445537E+00 1.4403960E+00 1.7740842E+00
 5.6445343E+00 1.4090848E+00 1.7911084E+00
 5.6445277E+00 1.3757796E+00 1.8074786E+00
 5.6445212E+00 1.3403924E+00 1.8230370E+00
 5.6445156E+00 1.3030345E+00 1.8375268E+00
 5.6445102E+00 1.2637909E+00 1.8507162E+00
 5.6445056E+00 1.2228061E+00 1.8623696E+00
 5.6445015E+00 1.1802679E+00 1.8722642E+00
 5.6444983E+00 1.1364171E+00 1.8801966E+00
 5.6444959E+00 1.0915372E+00 1.8859951E+00
 5.6444945E+00 1.0459491E+00 1.8895289E+00
 5.6444940E+00 9.9999992E-01 1.8907161E+00
 5.6444945E+00 9.5405073E-01 1.8895289E+00
 5.6444959E+00 9.0846261E-01 1.8859951E+00
 5.6444983E+00 8.6358270E-01 1.8801966E+00
 5.6445015E+00 8.1973195E-01 1.8722642E+00
 5.6445056E+00 7.7719379E-01 1.8623695E+00
 5.6445102E+00 7.3620899E-01 1.8507161E+00
 5.6445155E+00 6.9696542E-01 1.8375267E+00
 5.6445211E+00 6.5960750E-01 1.8230369E+00
 5.6445277E+00 6.2422025E-01 1.8074785E+00
 5.6445343E+00 5.9091512E-01 1.7911083E+00
 5.6445536E+00 5.5960390E-01 1.7740842E+00
 5.6855796E+00 5.4212983E-01 1.7596742E+00
 5.7304038E+00 5.5360865E-01 1.7617660E+00
 5.7772979E+00 5.6572627E-01 1.7637214E+00
 5.8259791E+00 5.7845067E-01 1.7654939E+00
 5.8763510E+00 5.9183797E-01 1.7670366E+00
 5.9282553E+00 6.0593908E-01 1.7682640E+00
 5.9815099E+00 6.2082529E-01 1.7690638E+00
 6.0358825E+00 6.3656910E-01 1.7692894E+00
 6.0910996E+00 6.5324551E-01 1.7687658E+00
 6.1468484E+00 6.7092320E-01 1.7672947E+00
 6.2027825E+00 6.8965700E-01 1.7646658E+00
 6.2585286E+00 7.0947973E-01 1.7606684E+00
 6.3136961E+00 7.3039445E-01 1.7551069E+00
 6.3678872E+00 7.5236928E-01 1.7478152E+00
 6.4207093E+00 7.7533420E-01 1.7386702E+00
 6.4717884E+00 7.9918181E-01 1.7276013E+00
 6.5207820E+00 8.2377069E-01 1.7145967E+00
 6.5673908E+00 8.4893223E-01 1.6997041E+00
 6.6113690E+00 8.7447898E-01 1.6830266E+00
 6.6525319E+00 9.0021633E-01 1.6647145E+00
 6.6907554E+00 9.2594864E-01 1.6449567E+00
 6.7259483E+00 9.5147603E-01 1.6239822E+00
 6.7580109E+00 9.7657015E-01 1.6020772E+00
 5.6892298E+00 1.4263362E+00 1.7774285E+00
 5.7352550E+00 1.4135384E+00 1.7795738E+00
 5.7830396E+00 1.4003128E+00 1.7814385E+00
 5.8325377E+00 1.3864461E+00 1.7830796E+00
 5.8836503E+00 1.3718794E+00 1.7844381E+00
 5.9362323E+00 1.3565560E+00 1.7854185E+00
 5.9900718E+00 1.3404157E+00 1.7858927E+00
 6.0449148E+00 1.3233935E+00 1.7857008E+00
 6.1004639E+00 1.3054282E+00 1.7846555E+00
 6.1563850E+00 1.2864691E+00 1.7825493E+00
 6.2123137E+00 1.2664842E+00 1.7791672E+00
 6.2678631E+00 1.2454678E+00 1.7743002E+00
 6.3226348E+00 1.2234466E+00 1.7677617E+00
 6.3762301E+00 1.2004835E+00 1.7594016E+00
 6.4282632E+00 1.1766776E+00 1.7491192E+00
 6.4783745E+00 1.1521621E+00 1.7368712E+00
 6.5262427E+00 1.1270984E+00 1.7226758E+00
 6.5715960E+00 1.1016674E+00 1.7066106E+00
 6.6142217E+00 1.0760576E+00 1.6888065E+00
 6.6539720E+00 1.0504514E+00 1.6694360E+00
 6.6907947E+00 1.0250088E+00 1.6486800E+00
 6.7248720E+00 9.9999992E-01 1.6266071E+00
 5.6904085E+00 1.3937726E+00 1.7943056E+00
 5.7375663E+00 1.3797090E+00 1.7963731E+00
 5.7863170E+00 1.3652979E+00 1.7980749E+00
 5.8367421E+00 1.3502138E+00 1.7995001E+00
 5.8887437E+00 1.3343908E+00 1.8005801E+00
 5.9421495E+00 1.3177778E+00 1.8012071E+00
 5.9967262E+00 1.3003200E+00 1.8012399E+00
 6.0521918E+00 1.2819639E+00 1.8005048E+00
 6.1082229E+00 1.2626637E+00 1.7988022E+00
 6.1644612E+00 1.2423890E+00 1.7959158E+00
 6.2205214E+00 1.2211330E+00 1.7916273E+00
 6.2760013E+00 1.1989187E+00 1.7857317E+00
 6.3304931E+00 1.1758034E+00 1.7780539E+00
 6.3835968E+00 1.1518806E+00 1.7684631E+00
 6.4349334E+00 1.1272779E+00 1.7568848E+00
 6.4841578E+00 1.1021518E+00 1.7433064E+00
 6.5309714E+00 1.0766800E+00 1.7277790E+00
 6.5751330E+00 1.0510491E+00 1.7104119E+00
 6.6164708E+00 1.0254382E+00 1.6913605E+00
 6.6549232E+00 9.9999992E-01 1.6707892E+00
 6.6907947E+00 9.7499100E-01 1.6486800E+00
 5.6913811E+00 1.3593324E+00 1.8103872E+00
 5.7394708E+00 1.3441053E+00 1.8122133E+00
 5.7891434E+00 1.3284718E+00 1.8136486E+00
 5.8404420E+00 1.3121381E+00 1.8147437E+00
 5.8932650E+00 1.2950345E+00 1.8154225E+00
 5.9474141E+00 1.2771171E+00 1.8155647E+00
 6.0026291E+00 1.2583417E+00 1.8150164E+00
 6.0586015E+00 1.2386689E+00 1.8135922E+00
 6.1149826E+00 1.2180721E+00 1.8110830E+00
 6.1713919E+00 1.1965445E+00 1.8072680E+00
 6.2274268E+00 1.1741066E+00 1.8019308E+00
 6.2826736E+00 1.1508114E+00 1.7948759E+00
 6.3367210E+00 1.1267465E+00 1.7859459E+00
 6.3891730E+00 1.1020339E+00 1.7750347E+00
 6.4396637E+00 1.0768253E+00 1.7620978E+00
 6.4878688E+00 1.0512950E+00 1.7471562E+00
 6.5335193E+00 1.0256272E+00 1.7302934E+00
 6.5764144E+00 9.9999993E-01 1.7116452E+00
 6.6164708E+00 9.7456166E-01 1.6913605E+00
 6.6539720E+00 9.4954845E-01 1.6694360E+00
 5.6922749E+00 1.3229054E+00 1.8255061E+00
 5.7412406E+00 1.3064919E+00 1.8269802E+00
 5.7917410E+00 1.2896341E+00 1.8280216E+00
 5.8438176E+00 1.2720460E+00 1.8286565E+00
 5.8973435E+00 1.2536713E+00 1.8287947E+00
 5.9520972E+00 1.2344743E+00 1.8283060E+00
 6.0077919E+00 1.2144243E+00 1.8270259E+00
 6.0640936E+00 1.1934996E+00 1.8247600E+00
 6.1206313E+00 1.1716958E+00 1.8212945E+00
 6.1770063E+00 1.1490322E+00 1.8164095E+00
 6.2328039E+00 1.1255582E+00 1.8098968E+00
 6.2876057E+00 1.1013563E+00 1.8015767E+00
 6.3410034E+00 1.0765426E+00 1.7913154E+00
 6.3926128E+00 1.0512635E+00 1.7790361E+00
 6.4420877E+00 1.0256888E+00 1.7647274E+00
 6.4891327E+00 9.9999993E-01 1.7484429E+00
 6.5335193E+00 9.7437262E-01 1.7302934E+00
 6.5751330E+00 9.4895078E-01 1.7104119E+00
 6.6142217E+00 9.2394226E-01 1.6888065E+00
 5.6931111E+00 1.2845281E+00 1.8394403E+00
 5.7428641E+00 1.2669393E+00 1.8404365E+00
 5.7940915E+00 1.2488618E+00 1.8409545E+00
 5.8468220E+00 1.2300413E+00 1.8409906E+00
 5.9009082E+00 1.2104312E+00 1.8404445E+00
 5.9561030E+00 1.1900093E+00 1.8391768E+00
 6.0120951E+00 1.1687607E+00 1.8370154E+00
 6.0685280E+00 1.1466847E+00 1.8337617E+00
 6.1250123E+00 1.1238011E+00 1.8292021E+00
 6.1811366E+00 1.1001568E+00 1.8231238E+00
 6.2364805E+00 1.0758297E+00 1.8153332E+00
 6.2906276E+00 1.0509303E+00 1.8056729E+00
 6.3431803E+00 1.0255988E+00 1.7940370E+00
 6.3937730E+00 9.9999993E-01 1.7803814E+00
 6.4420877E+00 9.7431104E-01 1.7647274E+00
 6.4878688E+00 9.4870485E-01 1.7471562E+00
 6.5309714E+00 9.2331981E-01 1.7277790E+00
 6.5715960E+00 8.9833248E-01 1.7066106E+00
 5.6938627E+00 1.2443071E+00 1.8519567E+00
 5.7443036E+00 1.2255688E+00 1.8523457E+00
 5.7961381E+00 1.2063086E+00 1.8522034E+00
 5.8493837E+00 1.1863066E+00 1.8514990E+00
 5.9038709E+00 1.1655314E+00 1.8501235E+00
 5.9593292E+00 1.1439753E+00 1.8479314E+00
 6.0154252E+00 1.1216424E+00 1.8447472E+00
 6.0717837E+00 1.0985545E+00 1.8403724E+00
 6.1280020E+00 1.0747571E+00 1.8346001E+00
 6.1836625E+00 1.0503242E+00 1.8272307E+00
 6.2383458E+00 1.0253605E+00 1.8180914E+00
 6.2916451E+00 9.9999993E-01 1.8070515E+00
 6.3431803E+00 9.7440101E-01 1.7940370E+00
 6.3926128E+00 9.4873635E-01 1.7790361E+00
 6.4396637E+00 9.2317454E-01 1.7620978E+00
 6.4841578E+00 8.9784810E-01 1.7433064E+00
 6.5262427E+00 8.7290147E-01 1.7226757E+00
 5.6945174E+00 1.2024104E+00 1.8628205E+00
 5.7455298E+00 1.1825771E+00 1.8624713E+00
 5.7978375E+00 1.1622003E+00 1.8615317E+00
 5.8514447E+00 1.1411014E+00 1.8599477E+00
 5.9061614E+00 1.1192654E+00 1.8576045E+00
 5.9616959E+00 1.0967019E+00 1.8543538E+00
 6.0176960E+00 1.0734355E+00 1.8500212E+00
 6.0737734E+00 1.0495112E+00 1.8444143E+00
 6.1295181E+00 1.0249997E+00 1.8373384E+00
 6.1845125E+00 9.9999993E-01 1.8286132E+00
 6.2383458E+00 9.7463933E-01 1.8180914E+00
 6.2906276E+00 9.4906954E-01 1.8056729E+00
 6.3410034E+00 9.2345724E-01 1.7913154E+00
 6.3891730E+00 8.9796596E-01 1.7750346E+00
 6.4349334E+00 8.7272195E-01 1.7568848E+00
 6.4783745E+00 8.4783773E-01 1.7368712E+00
 5.6950598E+00 1.1590539E+00 1.8718138E+00
 5.7465149E+00 1.1382096E+00 1.8705986E+00
 5.7991495E+00 1.1168151E+00 1.8687308E+00
 5.8529549E+00 1.0947371E+00 1.8661378E+00
 5.9077220E+00 1.0719797E+00 1.8627022E+00
 5.9631413E+00 1.0485703E+00 1.8582776E+00
 6.0188470E+00 1.0245545E+00 1.8526953E+00
 6.0744428E+00 9.9999992E-01 1.8457745E+00
 6.1295181E+00 9.7500020E-01 1.8373384E+00
 6.1836625E+00 9.4967561E-01 1.8272307E+00
 6.2364805E+00 9.2417012E-01 1.8153332E+00
 6.2876057E+00 8.9864358E-01 1.8015767E+00
 6.3367210E+00 8.7325339E-01 1.7859458E+00
 6.3835968E+00 8.4811925E-01 1.7684631E+00
 6.4282632E+00 8.2332229E-01 1.7491191E+00
 5.6954784E+00 1.1145034E+00 1.8787441E+00
 5.7472363E+00 1.0927625E+00 1.8765451E+00
 5.8000429E+00 1.0704801E+00 1.8736307E+00
 5.8538768E+00 1.0475729E+00 1.8699161E+00
 5.9085127E+00 1.0240642E+00 1.8652851E+00
 5.9636275E+00 9.9999992E-01 1.8595975E+00
 6.0188470E+00 9.7544535E-01 1.8526953E+00
 6.0737734E+00 9.5048865E-01 1.8444143E+00
 6.1280020E+00 9.2524274E-01 1.8346001E+00
 6.1811366E+00 8.9984310E-01 1.8231238E+00
 6.2328039E+00 8.7444168E-01 1.8098967E+00
 6.2826736E+00 8.4918851E-01 1.7948759E+00
 6.3304931E+00 8.2419645E-01 1.7780538E+00
 6.3762300E+00 7.9951640E-01 1.7594016E+00
 5.6957632E+00 1.0690664E+00 1.8834561E+00
 5.7476764E+00 1.0465710E+00 1.8801714E+00
 5.8004954E+00 1.0235593E+00 1.8761117E+00
 5.8541868E+00 9.9999992E-01 1.8711864E+00
 5.9085127E+00 9.7593564E-01 1.8652851E+00
 5.9631413E+00 9.5142951E-01 1.8582775E+00
 6.0176960E+00 9.2656434E-01 1.8500212E+00
 6.0717837E+00 9.0144536E-01 1.8403724E+00
 6.1250123E+00 8.7619880E-01 1.8292021E+00
 6.1770063E+00 8.5096766E-01 1.8164095E+00
 6.2274268E+00 8.2589325E-01 1.8019308E+00
 6.2760013E+00 8.0108120E-01 1.7857317E+00
 6.3226348E+00 7.7655323E-01 1.7677617E+00
 5.6959074E+00 1.0230835E+00 1.8858403E+00
 5.7478243E+00 9.9999992E-01 1.8813901E+00
 5.8004954E+00 9.7644052E-01 1.8761117E+00
 5.8538768E+00 9.5242696E-01 1.8699161E+00
 5.9077220E+00 9.2802018E-01 1.8627021E+00
 5.9616959E+00 9.0329791E-01 1.8543538E+00
 6.0154252E+00 8.7835746E-01 1.8447472E+00
 6.0685280E+00 8.5331517E-01 1.8337617E+00
 6.1206313E+00 8.2830406E-01 1.8212945E+00
 6.1713919E+00 8.0345538E-01 1.8072680E+00
 6.2205214E+00 7.7886684E-01 1.7916273E+00
 6.2678631E+00 7.5453206E-01 1.7743002E+00
 5.6959074E+00 9.7691629E-01 1.8858403E+00
 5.7476764E+00 9.5342880E-01 1.8801714E+00
 5.8000429E+00 9.2951972E-01 1.8736307E+00
 5.8529549E+00 9.0526271E-01 1.8661378E+00
 5.9061614E+00 8.8073443E-01 1.8576044E+00
 5.9593292E+00 8.5602459E-01 1.8479314E+00
 6.0120951E+00 8.3123913E-01 1.8370154E+00
 6.0640936E+00 8.0650023E-01 1.8247600E+00
 6.1149826E+00 7.8192779E-01 1.8110829E+00
 6.1644612E+00 7.5761084E-01 1.7959157E+00
 6.2123136E+00 7.3351567E-01 1.7791672E+00
 5.6957632E+00 9.3093340E-01 1.8834560E+00
 5.7472363E+00 9.0723735E-01 1.8765451E+00
 5.7991495E+00 8.8318476E-01 1.8687307E+00
 5.8514447E+00 8.5889849E-01 1.8599477E+00
 5.9038709E+00 8.3446843E-01 1.8501234E+00
 5.9561030E+00 8.0999056E-01 1.8391767E+00
 6.0077918E+00 7.8557560E-01 1.8270259E+00
 6.0586015E+00 7.6133096E-01 1.8135922E+00
 6.1082229E+00 7.3733620E-01 1.7988021E+00
 6.1563850E+00 7.1353075E-01 1.7825493E+00
 5.6954784E+00 8.8549641E-01 1.8787441E+00
 5.7465149E+00 8.6179024E-01 1.8705986E+00
 5.7978375E+00 8.3779954E-01 1.8615316E+00
 5.8493837E+00 8.1369321E-01 1.8514989E+00
 5.9009081E+00 7.8956863E-01 1.8404444E+00
 5.9520972E+00 7.6552556E-01 1.8283060E+00
 6.0026291E+00 7.4165821E-01 1.8150164E+00
 6.0521918E+00 7.1803599E-01 1.8005048E+00
 6.1004638E+00 6.9457166E-01 1.7846555E+00
 5.6950598E+00 8.4094594E-01 1.8718138E+00
 5.7455298E+00 8.1742280E-01 1.8624712E+00
 5.7961381E+00 7.9369129E-01 1.8522033E+00
 5.8468220E+00 7.6995859E-01 1.8409905E+00
 5.8973435E+00 7.4632858E-01 1.8287947E+00
 5.9474140E+00 7.2288275E-01 1.8155646E+00
 5.9967262E+00 6.9967991E-01 1.8012399E+00
 6.0449148E+00 6.7660640E-01 1.7857008E+00
 5.6945174E+00 7.9758950E-01 1.8628205E+00
 5.7443036E+00 7.7443108E-01 1.8523457E+00
 5.7940915E+00 7.5113806E-01 1.8409544E+00
 5.8438176E+00 7.2795392E-01 1.8286564E+00
 5.8932650E+00 7.0496541E-01 1.8154224E+00
 5.9421495E+00 6.8222205E-01 1.8012071E+00
 5.9900718E+00 6.5958420E-01 1.7858926E+00
 5.6938627E+00 7.5569281E-01 1.8519567E+00
 5.7428641E+00 7.3306060E-01 1.8404364E+00
 5.7917410E+00 7.1036579E-01 1.8280215E+00
 5.8404420E+00 6.8786177E-01 1.8147436E+00
 5.8887437E+00 6.6560904E-01 1.8005800E+00
 5.9362323E+00 6.4344391E-01 1.7854185E+00
 5.6931111E+00 7.1547176E-01 1.8394402E+00
 5.7412406E+00 6.9350794E-01 1.8269801E+00
 5.7891434E+00 6.7152812E-01 1.8136485E+00
 5.8367421E+00 6.4978612E-01 1.7995000E+00
 5.8836503E+00 6.2812044E-01 1.7844380E+00
 5.6922749E+00 6.7709446E-01 1.8255060E+00
 5.7394708E+00 6.5589454E-01 1.8122132E+00
 5.7863170E+00 6.3470197E-01 1.7980748E+00
 5.8325377E+00 6.1355377E-01 1.7830795E+00
 5.6913810E+00 6.4066748E-01 1.8103871E+00
 5.7375662E+00 6.2029092E-01 1.7963730E+00
 5.7830396E+00 5.9968711E-01 1.7814384E+00
 5.6904085E+00 6.0622727E-01 1.7943055E+00
 5.7352550E+00 5.8646150E-01 1.7795738E+00
 5.6892297E+00 5.7366372E-01 1.7774284E+00
 5.6191524E+00 1.4914571E+00 1.7453766E+00
 5.5913010E+00 1.5166747E+00 1.7310474E+00
 5.5622949E+00 1.5425904E+00 1.7150445E+00
 5.5321514E+00 1.5690509E+00 1.6972707E+00
 5.5010197E+00 1.5959001E+00 1.6775981E+00
 5.4690125E+00 1.6229583E+00 1.6559024E+00
 5.4362863E+00 1.6500147E+00 1.6320688E+00
 5.4030224E+00 1.6768173E+00 1.6060107E+00
 5.3694320E+00 1.7030818E+00 1.5776758E+00
 5.3357491E+00 1.7284979E+00 1.5470573E+00
 5.3022264E+00 1.7527415E+00 1.5142038E+00
 5.2691276E+00 1.7754892E+00 1.4792268E+00
 5.2367189E+00 1.7964369E+00 1.4423038E+00
 5.2052601E+00 1.8153164E+00 1.4036769E+00
 5.1749939E+00 1.8319130E+00 1.3636453E+00
 5.1461369E+00 1.8460768E+00 1.3225527E+00
 5.1188706E+00 1.8577298E+00 1.2807699E+00
 5.0933355E+00 1.8668666E+00 1.2386767E+00
 5.0696276E+00 1.8735492E+00 1.1966430E+00
 5.0477964E+00 1.8778962E+00 1.1550105E+00
 5.0278538E+00 1.8800721E+00 1.1140853E+00
 5.0097815E+00 1.8802683E+00 1.0741413E+00
 4.9936210E+00 1.8787106E+00 1.0355389E+00
 4.5386421E+00 1.0656822E+00 1.5829284E+00
 4.5338761E+00 1.1081919E+00 1.5704279E+00
 4.5307970E+00 1.1520398E+00 1.5562637E+00
 4.5297812E+00 1.1972439E+00 1.5405333E+00
 4.5310645E+00 1.2436500E+00 1.5231688E+00
 4.5348770E+00 1.2910136E+00 1.5041276E+00
 4.5414338E+00 1.3390338E+00 1.4833947E+00
 4.5509247E+00 1.3873547E+00 1.4609878E+00
 4.5635001E+00 1.4355728E+00 1.4369591E+00
 4.5792593E+00 1.4832443E+00 1.4113994E+00
 4.5982384E+00 1.5298969E+00 1.3844402E+00
 4.6204003E+00 1.5750451E+00 1.3562544E+00
 4.6456273E+00 1.6182100E+00 1.3270550E+00
 4.6737187E+00 1.6589403E+00 1.2970902E+00
 4.7043929E+00 1.6968355E+00 1.2666356E+00
 4.7372965E+00 1.7315670E+00 1.2359845E+00
 4.7720191E+00 1.7628957E+00 1.2054349E+00
 4.8081138E+00 1.7906842E+00 1.1752765E+00
 4.8451224E+00 1.8149014E+00 1.1457766E+00
 4.8826042E+00 1.8356205E+00 1.1171700E+00
 4.9201735E+00 1.8530110E+00 1.0896193E+00
 4.9574252E+00 1.8673021E+00 1.0630514E+00
 4.5651383E+00 1.0927158E+00 1.6115555E+00
 4.5615877E+00 1.1368581E+00 1.5990737E+00
 4.5598223E+00 1.1821465E+00 1.5847957E+00
 4.5602674E+00 1.2287025E+00 1.5688220E+00
 4.5631644E+00 1.2763524E+00 1.5510749E+00
 4.5687408E+00 1.3248100E+00 1.5315067E+00
 4.5772014E+00 1.3737250E+00 1.5101043E+00
 4.5887168E+00 1.4226901E+00 1.4868933E+00
 4.6034076E+00 1.4712519E+00 1.4619402E+00
 4.6213323E+00 1.5189215E+00 1.4353565E+00
 4.6424753E+00 1.5651911E+00 1.4073005E+00
 4.6667387E+00 1.6095541E+00 1.3779768E+00
 4.6939378E+00 1.6515278E+00 1.3476333E+00
 4.7238032E+00 1.6906781E+00 1.3165534E+00
 4.7559886E+00 1.7266436E+00 1.2850464E+00
 4.7900855E+00 1.7591546E+00 1.2534336E+00
 4.8256442E+00 1.7880485E+00 1.2220340E+00
 4.8622001E+00 1.8132751E+00 1.1911488E+00
 4.8993083E+00 1.8348982E+00 1.1610426E+00
 4.9365806E+00 1.8530884E+00 1.1319042E+00
 4.9736445E+00 1.8681069E+00 1.1035619E+00
 4.5951232E+00 1.1203864E+00 1.6399633E+00
 4.5929088E+00 1.1659351E+00 1.6273744E+00
 4.5926201E+00 1.2125666E+00 1.6128840E+00
 4.5946893E+00 1.2603619E+00 1.5965531E+00
 4.5993566E+00 1.3091083E+00 1.5782960E+00
 4.6068394E+00 1.3584708E+00 1.5580637E+00
 4.6173246E+00 1.4080463E+00 1.5358490E+00
 4.6309533E+00 1.4573754E+00 1.5116905E+00
 4.6478061E+00 1.5059570E+00 1.4856749E+00
 4.6678897E+00 1.5532638E+00 1.4579412E+00
 4.6911274E+00 1.5987636E+00 1.4286812E+00
 4.7173532E+00 1.6419434E+00 1.3981375E+00
 4.7463127E+00 1.6823360E+00 1.3665973E+00
 4.7776697E+00 1.7195458E+00 1.3343824E+00
 4.8110213E+00 1.7532712E+00 1.3018351E+00
 4.8459185E+00 1.7833214E+00 1.2693025E+00
 4.8818933E+00 1.8096244E+00 1.2371183E+00
 4.9184955E+00 1.8322291E+00 1.2055837E+00
 4.9553332E+00 1.8513009E+00 1.1749180E+00
 4.9920343E+00 1.8671166E+00 1.1449963E+00
 4.6288177E+00 1.1487603E+00 1.6677247E+00
 4.6281172E+00 1.1955822E+00 1.6549189E+00
 4.6294900E+00 1.2433979E+00 1.6401010E+00
 4.6333590E+00 1.2922400E+00 1.6232894E+00
 4.6399522E+00 1.3418451E+00 1.6043909E+00
 4.6494677E+00 1.3918266E+00 1.5833596E+00
 4.6620632E+00 1.4417285E+00 1.5601996E+00
 4.6778392E+00 1.4910428E+00 1.5349687E+00
 4.6968245E+00 1.5392286E+00 1.5077813E+00
 4.7189646E+00 1.5857326E+00 1.4788108E+00
 4.7441144E+00 1.6300158E+00 1.4482893E+00
 4.7720380E+00 1.6715799E+00 1.4165021E+00
 4.8024144E+00 1.7099968E+00 1.3837788E+00
 4.8348514E+00 1.7449323E+00 1.3504784E+00
 4.8689066E+00 1.7761661E+00 1.3169730E+00
 4.9041143E+00 1.8036005E+00 1.2836278E+00
 4.9400248E+00 1.8272662E+00 1.2507785E+00
 4.9762449E+00 1.8473170E+00 1.2186839E+00
 5.0124134E+00 1.8640384E+00 1.1872771E+00
 4.6664115E+00 1.1776303E+00 1.6944043E+00
 4.6674007E+00 1.2255493E+00 1.6812513E+00
 4.6706065E+00 1.2743387E+00 1.6659703E+00