# TIME = 6.200000
variables = x, y, z
zone N=5762 E=11520 F=FEPOINT ET=TRIANGLE
 8.3296677E+00 1.4652653E+00 1.7526784E+00
 8.3296677E+00 1.4652653E+00 2.4732178E-01
 8.3296677E+00 5.3473491E-01 1.7526783E+00
 8.3296678E+00 5.3473490E-01 2.4732183E-01
 7.2134511E+00 1.0000001E+00 1.5673757E+00
 9.4771151E+00 1.0000001E+00 1.5815494E+00
 7.2134510E+00 1.0000001E+00 4.3262438E-01
 9.4771150E+00 1.0000001E+00 4.1845087E-01
 7.6622028E+00 1.8850860E+00 1.0000001E+00
 7.6622027E+00 1.1491396E-01 1.0000001E+00
 8.9817061E+00 1.8002844E+00 1.0000001E+00
 8.9817060E+00 1.9971593E-01 1.0000001E+00
 8.2875146E+00 1.4591456E+00 1.7618561E+00
 8.2410842E+00 1.4521373E+00 1.7718583E+00
 8.1923804E+00 1.4445013E+00 1.7821723E+00
 8.1417689E+00 1.4361093E+00 1.7926057E+00
 8.0894465E+00 1.4268000E+00 1.8029135E+00
 8.0356440E+00 1.4163778E+00 1.8127603E+00
 7.9805732E+00 1.4046219E+00 1.8217288E+00
 7.9244639E+00 1.3913046E+00 1.8293219E+00
 7.8675767E+00 1.3762121E+00 1.8349876E+00
 7.8102258E+00 1.3591710E+00 1.8381563E+00
 7.7528014E+00 1.3400770E+00 1.8382927E+00
 7.6957827E+00 1.3189173E+00 1.8349529E+00
 7.6397301E+00 1.2957855E+00 1.8278386E+00
 7.5852525E+00 1.2708814E+00 1.8168326E+00
 7.5329552E+00 1.2444952E+00 1.8020114E+00
 7.4833843E+00 1.2169813E+00 1.7836291E+00
 7.4369807E+00 1.1887250E+00 1.7620816E+00
 7.3940553E+00 1.1601122E+00 1.7378585E+00
 7.3547836E+00 1.1315065E+00 1.7114968E+00
 7.3192173E+00 1.1032344E+00 1.6835385E+00
 7.2873153E+00 1.0755922E+00 1.6545151E+00
 7.2589633E+00 1.0488360E+00 1.6249201E+00
 7.2340753E+00 1.0232602E+00 1.5953104E+00
 8.2825169E+00 5.7297296E-01 1.7809284E+00
 8.2344203E+00 5.8204486E-01 1.7916890E+00
 8.1846151E+00 5.9133375E-01 1.8023659E+00
 8.1332175E+00 6.0128629E-01 1.8129549E+00
 8.0803394E+00 6.1221164E-01 1.8232766E+00
 8.0261485E+00 6.2433918E-01 1.8329982E+00
 7.9708461E+00 6.3787497E-01 1.8416781E+00
 7.9146571E+00 6.5300835E-01 1.8487950E+00
 7.8578471E+00 6.6990034E-01 1.8537809E+00
 7.8007406E+00 6.8866173E-01 1.8560657E+00
 7.7437389E+00 7.0933029E-01 1.8551320E+00
 7.6873290E+00 7.3185327E-01 1.8505720E+00
 7.6320701E+00 7.5608070E-01 1.8421373E+00
 7.5785565E+00 7.8177229E-01 1.8297685E+00
 7.5273651E+00 8.0861761E-01 1.8135991E+00
 7.4790032E+00 8.3626545E-01 1.7939336E+00
 7.4338674E+00 8.6435496E-01 1.7712059E+00
 7.3922211E+00 8.9254105E-01 1.7459269E+00
 7.3541860E+00 9.2050482E-01 1.7186287E+00
 7.3197309E+00 9.4794829E-01 1.6897949E+00
 7.2886487E+00 9.7457493E-01 1.6597701E+00
 7.2605251E+00 1.0000001E+00 1.6286490E+00
 8.2803691E+00 6.0631119E-01 1.7985148E+00
 8.2304955E+00 6.1737324E-01 1.8098201E+00
 8.1794821E+00 6.2835833E-01 1.8207463E+00
 8.1271627E+00 6.3996986E-01 1.8314256E+00
 8.0735942E+00 6.5259226E-01 1.8416896E+00
 8.0188928E+00 6.6648044E-01 1.8512001E+00
 7.9632344E+00 6.8182136E-01 1.8594935E+00
 7.9068401E+00 6.9876589E-01 1.8660271E+00
 7.8499802E+00 7.1742354E-01 1.8702213E+00
 7.7929893E+00 7.3784580E-01 1.8715092E+00
 7.7362802E+00 7.6000808E-01 1.8693948E+00
 7.6803478E+00 7.8379918E-01 1.8635089E+00
 7.6257496E+00 8.0902129E-01 1.8536553E+00
 7.5730657E+00 8.3540352E-01 1.8398328E+00
 7.5228446E+00 8.6262635E-01 1.8222314E+00
 7.4755521E+00 8.9035256E-01 1.8012009E+00
 7.4315313E+00 9.1825491E-01 1.7772008E+00
 7.3909695E+00 9.4603022E-01 1.7507294E+00
 7.3538590E+00 9.7338664E-01 1.7222287E+00
 7.3199499E+00 1.0000001E+00 1.6919566E+00
 7.2886488E+00 1.0254252E+00 1.6597701E+00
 8.2789281E+00 6.4137086E-01 1.8150457E+00
 8.2278698E+00 6.5412090E-01 1.8264933E+00
 8.1757958E+00 6.6679814E-01 1.8374978E+00
 8.1226253E+00 6.8010175E-01 1.8481279E+00
 8.0683690E+00 6.9446396E-01 1.8582091E+00
 8.0131353E+00 7.1013315E-01 1.8673770E+00
 7.9570921E+00 7.2727244E-01 1.8751457E+00
 7.9004627E+00 7.4599150E-01 1.8809543E+00
 7.8435257E+00 7.6634871E-01 1.8842171E+00
 7.7866269E+00 7.8833813E-01 1.8843770E+00
 7.7301899E+00 8.1187768E-01 1.8809652E+00
 7.6747146E+00 8.3680465E-01 1.8736566E+00
 7.6207535E+00 8.6288326E-01 1.8623095E+00
 7.5688675E+00 8.8982382E-01 1.8469809E+00
 7.5195700E+00 9.1731079E-01 1.8279111E+00
 7.4732730E+00 9.4503144E-01 1.8054815E+00
 7.4302362E+00 9.7269149E-01 1.7801431E+00
 7.3905100E+00 1.0000001E+00 1.7523140E+00
 7.3538590E+00 1.0266135E+00 1.7222287E+00
 7.3197309E+00 1.0520518E+00 1.6897949E+00
 8.2778131E+00 6.7819388E-01 1.8304170E+00
 8.2258024E+00 6.9251021E-01 1.8417747E+00
 8.1728556E+00 7.0682336E-01 1.8526569E+00
 8.1189323E+00 7.2182371E-01 1.8630748E+00
 8.0640655E+00 7.3792538E-01 1.8728099E+00
 8.0083629E+00 7.5535825E-01 1.8814699E+00
 7.9519988E+00 7.7425019E-01 1.8885465E+00
 7.8952032E+00 7.9466718E-01 1.8934672E+00
 7.8382645E+00 8.1661582E-01 1.8956482E+00
 7.7815384E+00 8.4003570E-01 1.8945508E+00
 7.7254552E+00 8.6479270E-01 1.8897419E+00
 7.6705140E+00 8.9068198E-01 1.8809452E+00
 7.6172540E+00 9.1744202E-01 1.8680749E+00
 7.5662067E+00 9.4477896E-01 1.8512403E+00
 7.5178353E+00 9.7239392E-01 1.8307181E+00
 7.4724707E+00 1.0000001E+00 1.8068901E+00
 7.4302362E+00 1.0273086E+00 1.7801431E+00
 7.3909695E+00 1.0539699E+00 1.7507294E+00
 7.3541860E+00 1.0794953E+00 1.7186286E+00
 8.2768487E+00 7.1679357E-01 1.8444837E+00
 8.2240181E+00 7.3258592E-01 1.8555600E+00
 8.1703291E+00 7.4849486E-01 1.8661392E+00
 8.1157791E+00 7.6516479E-01 1.8761652E+00
 8.0604200E+00 7.8297424E-01 1.8853743E+00
 8.0043712E+00 8.0211528E-01 1.8933448E+00
 7.9478146E+00 8.2267562E-01 1.8995523E+00
 7.8909892E+00 8.4467422E-01 1.9034213E+00
 7.8341909E+00 8.6806727E-01 1.9043796E+00
 7.7777811E+00 8.9274385E-01 1.9019172E+00
 7.7221904E+00 9.1852628E-01 1.8956434E+00
 7.6679075E+00 9.4517965E-01 1.8853339E+00
 7.6154467E+00 9.7243209E-01 1.8709546E+00
 7.5652938E+00 1.0000001E+00 1.8526542E+00
 7.5178353E+00 1.0276062E+00 1.8307180E+00
 7.4732730E+00 1.0549687E+00 1.8054814E+00
 7.4315314E+00 1.0817452E+00 1.7772008E+00
 7.3922211E+00 1.1074591E+00 1.7459268E+00
 8.2759799E+00 7.5708679E-01 1.8570528E+00
 8.2224379E+00 7.7428867E-01 1.8676789E+00
 8.1681347E+00 7.9174577E-01 1.8777792E+00
 8.1130970E+00 8.1003740E-01 1.8872314E+00
 8.0573932E+00 8.2948957E-01 1.8957296E+00
 8.0011538E+00 8.5024861E-01 1.9028289E+00
 7.9445684E+00 8.7235683E-01 1.9079969E+00
 7.8878821E+00 8.9578637E-01 1.9106652E+00
 7.8313948E+00 9.2044572E-01 1.9102843E+00
 7.7754673E+00 9.4618097E-01 1.9063804E+00
 7.7205212E+00 9.7278225E-01 1.8986104E+00
 7.6670233E+00 1.0000001E+00 1.8867995E+00
 7.6154467E+00 1.0275681E+00 1.8709546E+00
 7.5662067E+00 1.0552212E+00 1.8512403E+00
 7.5195700E+00 1.0826894E+00 1.8279111E+00
 7.4755521E+00 1.1096476E+00 1.8012008E+00
 7.4338674E+00 1.1356452E+00 1.7712058E+00
 8.2752108E+00 7.9892413E-01 1.8679179E+00
 8.2210731E+00 8.1747206E-01 1.8779362E+00
 8.1662948E+00 8.3641347E-01 1.8873855E+00
 8.1109225E+00 8.5625191E-01 1.8960846E+00
 8.0550381E+00 8.7725011E-01 1.9036924E+00
 7.9987796E+00 8.9950296E-01 1.9097494E+00
 7.9423422E+00 9.2300646E-01 1.9137256E+00
 7.8859729E+00 9.4768781E-01 1.9150697E+00
 7.8299699E+00 9.7341445E-01 1.9132635E+00
 7.7746854E+00 1.0000001E+00 1.9078758E+00
 7.7205212E+00 1.0272179E+00 1.8986104E+00
 7.6679075E+00 1.0548205E+00 1.8853339E+00
 7.6172540E+00 1.0825581E+00 1.8680749E+00
 7.5688675E+00 1.1101763E+00 1.8469809E+00
 7.5228446E+00 1.1373738E+00 1.8222314E+00
 7.4790032E+00 1.1637347E+00 1.7939335E+00
 8.2745623E+00 8.4210795E-01 1.8768830E+00
 8.2199618E+00 8.6192166E-01 1.8861422E+00
 8.1648597E+00 8.8226016E-01 1.8947748E+00
 8.1093167E+00 9.0354071E-01 1.9025498E+00
 8.0534233E+00 9.2595605E-01 1.9091009E+00
 7.9973221E+00 9.4954750E-01 1.9139639E+00
 7.9412091E+00 9.7426610E-01 1.9166213E+00
 7.8853285E+00 1.0000001E+00 1.9165480E+00
 7.8299699E+00 1.0265857E+00 1.9132635E+00
 7.7754673E+00 1.0538192E+00 1.9063804E+00
 7.7221904E+00 1.0814739E+00 1.8956434E+00
 7.6705140E+00 1.1093182E+00 1.8809452E+00
 7.6207535E+00 1.1371169E+00 1.8623095E+00
 7.5730657E+00 1.1645966E+00 1.8398328E+00
 7.5273652E+00 1.1913825E+00 1.8135990E+00
 8.2740559E+00 8.8639452E-01 1.8837747E+00
 8.2191406E+00 9.0737019E-01 1.8921322E+00
 8.1638759E+00 9.2899073E-01 1.8997934E+00
 8.1083315E+00 9.5157827E-01 1.9064883E+00
 8.0526021E+00 9.7525194E-01 1.9118363E+00
 7.9968306E+00 1.0000001E+00 1.9153795E+00
 7.9412091E+00 1.0257341E+00 1.9166213E+00
 7.8859729E+00 1.0523123E+00 1.9150697E+00
 7.8313948E+00 1.0795544E+00 1.9102843E+00
 7.7777811E+00 1.1072563E+00 1.9019172E+00
 7.7254552E+00 1.1352075E+00 1.8897419E+00
 7.6747146E+00 1.1631955E+00 1.8736565E+00
 7.6257497E+00 1.1909788E+00 1.8536553E+00
 7.5785565E+00 1.2182278E+00 1.8297684E+00
 8.2737088E+00 9.3150000E-01 1.8884522E+00
 8.2186369E+00 9.5350888E-01 1.8957796E+00
 8.1633758E+00 9.7626852E-01 1.9023313E+00
 8.1079994E+00 1.0000001E+00 1.9078112E+00
 8.0526021E+00 1.0247482E+00 1.9118363E+00
 7.9973221E+00 1.0504527E+00 1.9139639E+00
 7.9423422E+00 1.0769937E+00 1.9137256E+00
 7.8878821E+00 1.1042138E+00 1.9106652E+00
 7.8341909E+00 1.1319329E+00 1.9043796E+00
 7.7815384E+00 1.1599645E+00 1.8945508E+00
 7.7301899E+00 1.1881225E+00 1.8809652E+00
 7.6803478E+00 1.2162010E+00 1.8635089E+00
 7.6320702E+00 1.2439194E+00 1.8421372E+00
 8.2735324E+00 9.7710994E-01 1.8908165E+00
 8.2184672E+00 1.0000001E+00 1.8970045E+00
 8.1633758E+00 1.0237316E+00 1.9023313E+00
 8.1083315E+00 1.0484219E+00 1.9064883E+00
 8.0534234E+00 1.0740441E+00 1.9091009E+00
 7.9987796E+00 1.1004972E+00 1.9097494E+00
 7.9445684E+00 1.1276433E+00 1.9079969E+00
 7.8909892E+00 1.1553259E+00 1.9034213E+00
 7.8382645E+00 1.1833843E+00 1.8956482E+00
 7.7866269E+00 1.2116620E+00 1.8843770E+00
 7.7362803E+00 1.2399921E+00 1.8693948E+00
 7.6873290E+00 1.2681469E+00 1.8505720E+00
 8.2735324E+00 1.0228902E+00 1.8908165E+00
 8.2186369E+00 1.0464913E+00 1.8957796E+00
 8.1638759E+00 1.0710094E+00 1.8997934E+00
 8.1093168E+00 1.0964595E+00 1.9025498E+00
 8.0550381E+00 1.1227501E+00 1.9036924E+00
 8.0011538E+00 1.1497516E+00 1.9028289E+00
 7.9478147E+00 1.1773245E+00 1.8995524E+00
 7.8952032E+00 1.2053330E+00 1.8934672E+00
 7.8435257E+00 1.2336514E+00 1.8842171E+00
 7.7929893E+00 1.2621544E+00 1.8715092E+00
 7.7437389E+00 1.2906699E+00 1.8551320E+00
 8.2737088E+00 1.0685002E+00 1.8884522E+00
 8.2191406E+00 1.0926300E+00 1.8921323E+00
 8.1648597E+00 1.1177400E+00 1.8947748E+00
 8.1109225E+00 1.1437483E+00 1.8960846E+00
 8.0573933E+00 1.1705106E+00 1.8957297E+00
 8.0043712E+00 1.1978849E+00 1.8933449E+00
 7.9519988E+00 1.2257500E+00 1.8885465E+00
 7.9004627E+00 1.2540087E+00 1.8809543E+00
 7.8499802E+00 1.2825766E+00 1.8702213E+00
 7.8007406E+00 1.3113384E+00 1.8560657E+00
 8.2740559E+00 1.1136057E+00 1.8837747E+00
 8.2199618E+00 1.1380785E+00 1.8861422E+00
 8.1662948E+00 1.1635867E+00 1.8873855E+00
 8.1130970E+00 1.1899628E+00 1.8872314E+00
 8.0604200E+00 1.2170259E+00 1.8853744E+00
 8.0083630E+00 1.2446419E+00 1.8814699E+00
 7.9570921E+00 1.2727277E+00 1.8751457E+00
 7.9068401E+00 1.3012343E+00 1.8660271E+00
 7.8578472E+00 1.3300998E+00 1.8537809E+00
 8.2745623E+00 1.1578922E+00 1.8768830E+00
 8.2210731E+00 1.1825281E+00 1.8779362E+00
 8.1681348E+00 1.2082544E+00 1.8777792E+00
 8.1157792E+00 1.2348354E+00 1.8761652E+00
 8.0640655E+00 1.2620748E+00 1.8728099E+00
 8.0131354E+00 1.2898670E+00 1.8673770E+00
 7.9632344E+00 1.3181788E+00 1.8594935E+00
 7.9146571E+00 1.3469918E+00 1.8487950E+00
 8.2752108E+00 1.2010761E+00 1.8679179E+00
 8.2224379E+00 1.2257115E+00 1.8676789E+00
 8.1703292E+00 1.2515053E+00 1.8661393E+00
 8.1189323E+00 1.2781765E+00 1.8630748E+00
 8.0683690E+00 1.3055362E+00 1.8582092E+00
 8.0188928E+00 1.3335197E+00 1.8512001E+00
 7.9708462E+00 1.3621252E+00 1.8416781E+00
 8.2759799E+00 1.2429134E+00 1.8570529E+00
 8.2240181E+00 1.2674143E+00 1.8555601E+00
 8.1728556E+00 1.2931768E+00 1.8526570E+00
 8.1226253E+00 1.3198984E+00 1.8481279E+00
 8.0735943E+00 1.3474079E+00 1.8416897E+00
 8.0261485E+00 1.3756610E+00 1.8329982E+00
 8.2768487E+00 1.2832066E+00 1.8444838E+00
 8.2258024E+00 1.3074900E+00 1.8417748E+00
 8.1757958E+00 1.3332021E+00 1.8374979E+00
 8.1271628E+00 1.3600303E+00 1.8314256E+00
 8.0803395E+00 1.3877886E+00 1.8232767E+00
 8.2778131E+00 1.3218063E+00 1.8304171E+00
 8.2278698E+00 1.3458793E+00 1.8264934E+00
 8.1794821E+00 1.3716419E+00 1.8207464E+00
 8.1332175E+00 1.3987139E+00 1.8129550E+00
 8.2789281E+00 1.3586293E+00 1.8150458E+00
 8.2304956E+00 1.3826270E+00 1.8098202E+00
 8.1846151E+00 1.4086665E+00 1.8023659E+00
 8.2803691E+00 1.3936890E+00 1.7985149E+00
 8.2344203E+00 1.4179554E+00 1.7916890E+00
 8.2825169E+00 1.4270273E+00 1.7809284E+00
 8.3294913E+00 1.4374717E+00 1.7692230E+00
 8.3292621E+00 1.4060000E+00 1.7863422E+00
 8.3290793E+00 1.3725114E+00 1.8027900E+00
 8.3289362E+00 1.3370516E+00 1.8183413E+00
 8.3288232E+00 1.2997118E+00 1.8327685E+00
 8.3287304E+00 1.2606212E+00 1.8458404E+00
 8.3286522E+00 1.2199206E+00 1.8573437E+00
 8.3285869E+00 1.1777918E+00 1.8670769E+00
 8.3285346E+00 1.1344585E+00 1.8748582E+00
 8.3284963E+00 1.0901819E+00 1.8805344E+00
 8.3284728E+00 1.0452563E+00 1.8839888E+00
 8.3284649E+00 1.0000001E+00 1.8851486E+00
 8.3284728E+00 9.5474384E-01 1.8839888E+00
 8.3284963E+00 9.0981831E-01 1.8805344E+00
 8.3285346E+00 8.6554169E-01 1.8748582E+00
 8.3285869E+00 8.2220835E-01 1.8670769E+00
 8.3286522E+00 7.8007963E-01 1.8573436E+00
 8.3287304E+00 7.3937895E-01 1.8458403E+00
 8.3288232E+00 7.0028841E-01 1.8327685E+00
 8.3289362E+00 6.6294863E-01 1.8183412E+00
 8.3290793E+00 6.2748881E-01 1.8027899E+00
 8.3292621E+00 5.9400024E-01 1.7863421E+00
 8.3294913E+00 5.6252853E-01 1.7692230E+00
 8.3716038E+00 5.4558665E-01 1.7540781E+00
 8.4176066E+00 5.5755564E-01 1.7554781E+00
 8.4656976E+00 5.7003646E-01 1.7568085E+00
 8.5155190E+00 5.8301426E-01 1.7580712E+00
 8.5668727E+00 5.9652265E-01 1.7592335E+00
 8.6195287E+00 6.1061580E-01 1.7602257E+00
 8.6732729E+00 6.2536792E-01 1.7609388E+00
 8.7278733E+00 6.4086294E-01 1.7612250E+00
 8.7830777E+00 6.5718925E-01 1.7609037E+00
 8.8386095E+00 6.7443093E-01 1.7597685E+00
 8.8941683E+00 6.9265918E-01 1.7575993E+00
 8.9494334E+00 7.1192448E-01 1.7541741E+00
 9.0040706E+00 7.3224947E-01 1.7492841E+00
 9.0577393E+00 7.5362426E-01 1.7427470E+00
 9.1101026E+00 7.7600393E-01 1.7344191E+00
 9.1608366E+00 7.9930925E-01 1.7242037E+00
 9.2096415E+00 8.2343007E-01 1.7120572E+00
 9.2562477E+00 8.4823038E-01 1.6979902E+00
 9.3004193E+00 8.7355388E-01 1.6820677E+00
 9.3419557E+00 8.9923187E-01 1.6644062E+00
 9.3806768E+00 9.2507524E-01 1.6451803E+00
 9.4164378E+00 9.5088084E-01 1.6246031E+00
 9.4490258E+00 9.7631406E-01 1.6030041E+00
 8.3762000E+00 1.4220330E+00 1.7720975E+00
 8.4238767E+00 1.4082242E+00 1.7737423E+00
 8.4730677E+00 1.3944643E+00 1.7750268E+00
 8.5236691E+00 1.3803955E+00 1.7761214E+00
 8.5755735E+00 1.3658104E+00 1.7770618E+00
 8.6286161E+00 1.3506008E+00 1.7777849E+00
 8.6825941E+00 1.3346866E+00 1.7781692E+00
 8.7372807E+00 1.3179956E+00 1.7780500E+00
 8.7924191E+00 1.3004587E+00 1.7772323E+00
 8.8477257E+00 1.2820151E+00 1.7755003E+00
 8.9028941E+00 1.2626195E+00 1.7726303E+00
 8.9576007E+00 1.2422495E+00 1.7684039E+00
 9.0115127E+00 1.2209109E+00 1.7626220E+00
 9.0642961E+00 1.1986408E+00 1.7551183E+00
 9.1156258E+00 1.1755065E+00 1.7457702E+00
 9.1651951E+00 1.1516021E+00 1.7345057E+00
 9.2127254E+00 1.1270427E+00 1.7213068E+00
 9.2579762E+00 1.1019593E+00 1.7062065E+00
 9.3007576E+00 1.0765002E+00 1.6892790E+00
 9.3409669E+00 1.0508425E+00 1.6706107E+00
 9.3786560E+00 1.0252109E+00 1.6502412E+00
 9.4141420E+00 1.0000001E+00 1.6280613E+00
 8.3779164E+00 1.3888435E+00 1.7891263E+00
 8.4273910E+00 1.3732938E+00 1.7907739E+00
 8.4778099E+00 1.3582145E+00 1.7918855E+00
 8.5293440E+00 1.3429488E+00 1.7927316E+00
 8.5819462E+00 1.3271947E+00 1.7933641E+00
 8.6355072E+00 1.3107958E+00 1.7937198E+00
 8.6898506E+00 1.2936679E+00 1.7936634E+00
 8.7447535E+00 1.2757487E+00 1.7930160E+00
 8.7999550E+00 1.2569865E+00 1.7915712E+00
 8.8551641E+00 1.2373421E+00 1.7891063E+00
 8.9100681E+00 1.2167953E+00 1.7853967E+00
 8.9643402E+00 1.1953500E+00 1.7802292E+00
 9.0176491E+00 1.1730381E+00 1.7734168E+00
 9.0696682E+00 1.1499190E+00 1.7648108E+00
 9.1200868E+00 1.1260753E+00 1.7543100E+00
 9.1686208E+00 1.1016064E+00 1.7418648E+00
 9.2150290E+00 1.0766218E+00 1.7274736E+00
 9.2591416E+00 1.0512428E+00 1.7111643E+00
 9.3009195E+00 1.0256238E+00 1.6929523E+00
 9.3405537E+00 1.0000001E+00 1.6727581E+00
 9.3786560E+00 9.7478925E-01 1.6502412E+00
 8.3790085E+00 1.3540757E+00 1.8052085E+00
 8.4296794E+00 1.3371897E+00 1.8065719E+00
 8.4811688E+00 1.3208381E+00 1.8073774E+00
 8.5335609E+00 1.3043678E+00 1.8078622E+00
 8.5868575E+00 1.2874117E+00 1.8080777E+00
 8.6409580E+00 1.2698018E+00 1.8079466E+00
 8.6956949E+00 1.2514536E+00 1.8073210E+00
 8.7508421E+00 1.2323168E+00 1.8060102E+00
 8.8061316E+00 1.2123574E+00 1.8037990E+00
 8.8612644E+00 1.1915577E+00 1.8004613E+00
 8.9159220E+00 1.1699215E+00 1.7957746E+00
 8.9697761E+00 1.1474772E+00 1.7895344E+00
 9.0224996E+00 1.1242783E+00 1.7815682E+00
 9.0737778E+00 1.1003995E+00 1.7717463E+00
 9.1233219E+00 1.0759299E+00 1.7599872E+00
 9.1708872E+00 1.0509647E+00 1.7462549E+00
 9.2163089E+00 1.0256083E+00 1.7305404E+00
 9.2595701E+00 1.0000001E+00 1.7128166E+00
 9.3009195E+00 9.7437636E-01 1.6929523E+00
 9.3409669E+00 9.4915765E-01 1.6706107E+00
 8.3798561E+00 1.3176264E+00 1.8201855E+00
 8.4314831E+00 1.2995948E+00 1.8210839E+00
 8.4838473E+00 1.2820796E+00 1.8214323E+00
 8.5369943E+00 1.2644332E+00 1.8214300E+00
 8.5909044E+00 1.2462958E+00 1.8211007E+00
 8.6454787E+00 1.2274994E+00 1.8203508E+00
 8.7005428E+00 1.2079707E+00 1.8190190E+00
 8.7558638E+00 1.1876735E+00 1.8169054E+00
 8.8111652E+00 1.1665927E+00 1.8137899E+00
 8.8661416E+00 1.1447323E+00 1.8094468E+00
 8.9204716E+00 1.1221185E+00 1.8036599E+00
 8.9738297E+00 1.0988001E+00 1.7962369E+00
 9.0258990E+00 1.0748456E+00 1.7870223E+00
 9.0763855E+00 1.0503359E+00 1.7759042E+00
 9.1250385E+00 1.0253567E+00 1.7628141E+00
 9.1716865E+00 1.0000001E+00 1.7477108E+00
 9.2163089E+00 9.7439191E-01 1.7305404E+00
 9.2591415E+00 9.4875737E-01 1.7111643E+00
 9.3007576E+00 9.2350000E-01 1.6892790E+00
 8.3806079E+00 1.2794587E+00 1.8338891E+00
 8.4330568E+00 1.2604262E+00 1.8341700E+00
 8.4861627E+00 1.2418327E+00 1.8339248E+00
 8.5399366E+00 1.2230711E+00 1.8333028E+00
 8.5943411E+00 1.2038054E+00 1.8322962E+00
 8.6492660E+00 1.1838864E+00 1.8307919E+00
 8.7045291E+00 1.1632563E+00 1.8286175E+00
 8.7598890E+00 1.1418967E+00 1.8255673E+00
 8.8150630E+00 1.1198117E+00 1.8214206E+00
 8.8697426E+00 1.0970258E+00 1.8159563E+00
 8.9236088E+00 1.0735842E+00 1.8089689E+00
 8.9763456E+00 1.0495495E+00 1.8002813E+00
 9.0276557E+00 1.0249957E+00 1.7897544E+00
 9.0772809E+00 1.0000001E+00 1.7772889E+00
 9.1250385E+00 9.7464343E-01 1.7628141E+00
 9.1708872E+00 9.4903544E-01 1.7462549E+00
 9.2150290E+00 9.2337833E-01 1.7274736E+00
 9.2579762E+00 8.9804086E-01 1.7062065E+00
 8.3813010E+00 1.2396463E+00 1.8461240E+00
 8.4344637E+00 1.2197256E+00 1.8456585E+00
 8.4881843E+00 1.2001399E+00 1.8446923E+00
 8.5424473E+00 1.1803397E+00 1.8433220E+00
 8.5972003E+00 1.1600277E+00 1.8415075E+00
 8.6523227E+00 1.1390810E+00 1.8391183E+00
 8.7076243E+00 1.1174618E+00 1.8359738E+00
 8.7628580E+00 1.0951703E+00 1.8318667E+00
 8.8177387E+00 1.0722294E+00 1.8265800E+00
 8.8719602E+00 1.0486807E+00 1.8199018E+00
 8.9252129E+00 1.0245818E+00 1.8116402E+00
 8.9771993E+00 1.0000001E+00 1.8016333E+00
 9.0276557E+00 9.7500450E-01 1.7897544E+00
 9.0763855E+00 9.4966426E-01 1.7759042E+00
 9.1233219E+00 9.2407030E-01 1.7599871E+00
 9.1686208E+00 8.9839377E-01 1.7418648E+00
 9.2127254E+00 8.7295749E-01 1.7213068E+00
 8.3819228E+00 1.1983341E+00 1.8566909E+00
 8.4356854E+00 1.1776277E+00 1.8553685E+00
 8.4898842E+00 1.1571453E+00 1.8535637E+00
 8.5444864E+00 1.1364027E+00 1.8513240E+00
 8.5994276E+00 1.1151513E+00 1.8485795E+00
 8.6545798E+00 1.0932992E+00 1.8451863E+00
 8.7097478E+00 1.0708302E+00 1.8409598E+00
 8.7646829E+00 1.0477628E+00 1.8356950E+00
 8.8191024E+00 1.0241351E+00 1.8291829E+00
 8.8727097E+00 1.0000001E+00 1.8212240E+00
 8.9252129E+00 9.7541835E-01 1.8116402E+00
 8.9763456E+00 9.5045070E-01 1.8002812E+00
 9.0258990E+00 9.2515454E-01 1.7870223E+00
 9.0737778E+00 8.9960063E-01 1.7717462E+00
 9.1200867E+00 8.7392488E-01 1.7543100E+00
 9.1651950E+00 8.4839812E-01 1.7345056E+00
 8.3824507E+00 1.1557145E+00 1.8654037E+00
 8.4366827E+00 1.1343353E+00 1.8631276E+00
 8.4912119E+00 1.1130667E+00 1.8603786E+00
 8.5459935E+00 1.0914994E+00 1.8571600E+00
 8.6009555E+00 1.0694392E+00 1.8533776E+00
 8.6559660E+00 1.0468278E+00 1.8488786E+00
 8.7108289E+00 1.0236703E+00 1.8434787E+00
 8.7652988E+00 1.0000001E+00 1.8369796E+00
 8.8191024E+00 9.7586503E-01 1.8291829E+00
 8.8719602E+00 9.5131950E-01 1.8199018E+00
 8.9236088E+00 9.2641600E-01 1.8089689E+00
 8.9738297E+00 9.0120003E-01 1.7962369E+00
 9.0224996E+00 8.7572192E-01 1.7815682E+00
 9.0696682E+00 8.5008123E-01 1.7648107E+00
 9.1156258E+00 8.2449373E-01 1.7457701E+00
 8.3828640E+00 1.1120251E+00 1.8720978E+00
 8.4374204E+00 1.0901010E+00 1.8687867E+00
 8.4921226E+00 1.0681757E+00 1.8650028E+00
 8.5469184E+00 1.0459225E+00 1.8607121E+00
 8.6017327E+00 1.0232055E+00 1.8558028E+00
 8.6564335E+00 1.0000001E+00 1.8501182E+00
 8.7108289E+00 9.7632987E-01 1.8434787E+00
 8.7646829E+00 9.5223741E-01 1.8356950E+00
 8.8177387E+00 9.2777082E-01 1.8265799E+00
 8.8697426E+00 9.0297433E-01 1.8159562E+00
 8.9204716E+00 8.7788163E-01 1.8036599E+00
 8.9697761E+00 8.5252298E-01 1.7895344E+00
 9.0176491E+00 8.2696204E-01 1.7734168E+00
 9.0642961E+00 8.0135943E-01 1.7551182E+00
 8.3831476E+00 1.0675415E+00 1.8766395E+00
 8.4378730E+00 1.0452165E+00 1.8722307E+00
 8.4925856E+00 1.0227820E+00 1.8673401E+00
 8.5472302E+00 1.0000001E+00 1.8619048E+00
 8.6017327E+00 9.7679463E-01 1.8558028E+00
 8.6559660E+00 9.5317239E-01 1.8488786E+00
 8.7097478E+00 9.2916997E-01 1.8409598E+00
 8.7628580E+00 9.0482989E-01 1.8318667E+00
 8.8150630E+00 8.8018851E-01 1.8214205E+00
 8.8661416E+00 8.5526784E-01 1.8094468E+00
 8.9159220E+00 8.3007868E-01 1.7957746E+00
 8.9643402E+00 8.0465017E-01 1.7802291E+00
 9.0115127E+00 7.7908928E-01 1.7626219E+00
 8.3832917E+00 1.0225689E+00 1.8789348E+00
 8.4380255E+00 1.0000001E+00 1.8733870E+00
 8.4925856E+00 9.7721816E-01 1.8673401E+00
 8.5469184E+00 9.5407764E-01 1.8607121E+00
 8.6009555E+00 9.3056095E-01 1.8533776E+00
 8.6545798E+00 9.0670101E-01 1.8451863E+00
 8.7076242E+00 8.8253839E-01 1.8359738E+00
 8.7598890E+00 8.5810348E-01 1.8255673E+00
 8.8111652E+00 8.3340747E-01 1.8137899E+00
 8.8612644E+00 8.0844248E-01 1.8004613E+00
 8.9100681E+00 7.8320489E-01 1.7853967E+00
 8.9576007E+00 7.5775072E-01 1.7684038E+00
 8.3832917E+00 9.7743124E-01 1.8789347E+00
 8.4378730E+00 9.5478363E-01 1.8722307E+00
 8.4921226E+00 9.3182448E-01 1.8650028E+00
 8.5459935E+00 9.0850076E-01 1.8571600E+00
 8.5994276E+00 8.8484888E-01 1.8485795E+00
 8.6523227E+00 8.6091919E-01 1.8391182E+00
 8.7045291E+00 8.3674386E-01 1.8286175E+00
 8.7558638E+00 8.1232667E-01 1.8169053E+00
 8.8061316E+00 7.8764282E-01 1.8037990E+00
 8.8551641E+00 7.6265807E-01 1.7891063E+00
 8.9028940E+00 7.3738069E-01 1.7726303E+00
 8.3831476E+00 9.3245866E-01 1.8766395E+00
 8.4374203E+00 9.0989914E-01 1.8687867E+00
 8.4912119E+00 8.8693350E-01 1.8603786E+00
 8.5444864E+00 8.6359743E-01 1.8513239E+00
 8.5972003E+00 8.3997248E-01 1.8415074E+00
 8.6492660E+00 8.1611373E-01 1.8307918E+00
 8.7005427E+00 7.9202950E-01 1.8190189E+00
 8.7508421E+00 7.6768334E-01 1.8060101E+00
 8.7999549E+00 7.4301373E-01 1.7915711E+00
 8.8477257E+00 7.1798506E-01 1.7755002E+00
 8.3828640E+00 8.8797506E-01 1.8720978E+00
 8.4366826E+00 8.6566490E-01 1.8631276E+00
 8.4898842E+00 8.4285486E-01 1.8535636E+00
 8.5424473E+00 8.1966046E-01 1.8433220E+00
 8.5943411E+00 7.9619482E-01 1.8322961E+00
 8.6454787E+00 7.7250076E-01 1.8203508E+00
 8.6956948E+00 7.4854660E-01 1.8073209E+00
 8.7447534E+00 7.2425154E-01 1.7930160E+00
 8.7924190E+00 6.9954147E-01 1.7772322E+00
 8.3824507E+00 8.4428563E-01 1.8654037E+00
 8.4356853E+00 8.2237246E-01 1.8553684E+00
 8.4881842E+00 7.9986029E-01 1.8446922E+00
 8.5399366E+00 7.7692905E-01 1.8333028E+00
 8.5909044E+00 7.5370438E-01 1.8211007E+00
 8.6409580E+00 7.3019842E-01 1.8079465E+00
 8.6898506E+00 7.0633231E-01 1.7936633E+00
 8.7372807E+00 6.8200464E-01 1.7780500E+00
 8.3819228E+00 8.0166611E-01 1.8566908E+00
 8.4344637E+00 7.8027463E-01 1.8456585E+00
 8.4861627E+00 7.5816750E-01 1.8339247E+00
 8.5369943E+00 7.3556697E-01 1.8214300E+00
 8.5868575E+00 7.1258854E-01 1.8080776E+00
 8.6355072E+00 6.8920443E-01 1.7937197E+00
 8.6825941E+00 6.6531363E-01 1.7781691E+00
 8.3813010E+00 7.6035390E-01 1.8461239E+00
 8.4330568E+00 7.3957399E-01 1.8341699E+00
 8.4838473E+00 7.1792058E-01 1.8214323E+00
 8.5335609E+00 6.9563237E-01 1.8078622E+00
 8.5819462E+00 6.7280554E-01 1.7933640E+00
 8.6286161E+00 6.4939945E-01 1.7777848E+00
 8.3806079E+00 7.2054154E-01 1.8338891E+00
 8.4314831E+00 7.0040537E-01 1.8210838E+00
 8.4811688E+00 6.7916207E-01 1.8073773E+00
 8.5293440E+00 6.5705142E-01 1.7927315E+00
 8.5755734E+00 6.3418979E-01 1.7770617E+00
 8.3798561E+00 6.8237384E-01 1.8201854E+00
 8.4296794E+00 6.6281050E-01 1.8065718E+00
 8.4778099E+00 6.4178569E-01 1.7918854E+00
 8.5236691E+00 6.1960471E-01 1.7761213E+00
 8.3790085E+00 6.4592447E-01 1.8052084E+00
 8.4273910E+00 6.2670639E-01 1.7907738E+00
 8.4730677E+00 6.0553587E-01 1.7750267E+00
 8.3779164E+00 6.1115676E-01 1.7891262E+00
 8.4238767E+00 5.9177600E-01 1.7737422E+00
 8.3762000E+00 5.7796724E-01 1.7720974E+00
 8.3035407E+00 1.4887887E+00 1.7410747E+00
 8.2746726E+00 1.5145218E+00 1.7273089E+00
 8.2445496E+00 1.5410446E+00 1.7118968E+00
 8.2133539E+00 1.5681571E+00 1.6947424E+00
 8.1812330E+00 1.5956906E+00 1.6757207E+00
 8.1483700E+00 1.6234426E+00 1.6547071E+00
 8.1149482E+00 1.6511915E+00 1.6315798E+00
 8.0811719E+00 1.6786801E+00 1.6062376E+00
 8.0472637E+00 1.7056196E+00 1.5786115E+00
 8.0134593E+00 1.7316962E+00 1.5486774E+00
 7.9800011E+00 1.7565831E+00 1.5164672E+00
 7.9471311E+00 1.7799560E+00 1.4820761E+00
 7.9150833E+00 1.8015115E+00 1.4456648E+00
 7.8840773E+00 1.8209836E+00 1.4074570E+00
 7.8543121E+00 1.8381583E+00 1.3677314E+00
 7.8259608E+00 1.8528844E+00 1.3268083E+00
 7.7991672E+00 1.8650788E+00 1.2850337E+00
 7.7740444E+00 1.8747260E+00 1.2427636E+00
 7.7506771E+00 1.8818730E+00 1.2003515E+00
 7.7291266E+00 1.8866222E+00 1.1581396E+00
 7.7094391E+00 1.8891215E+00 1.1164696E+00
 7.6916254E+00 1.8895501E+00 1.0756569E+00
 7.6757313E+00 1.8881241E+00 1.0362484E+00
 7.2295705E+00 1.0676585E+00 1.5860514E+00
 7.2254769E+00 1.1116269E+00 1.5737816E+00
 7.2228487E+00 1.1564114E+00 1.5595909E+00
 7.2221249E+00 1.2021903E+00 1.5437334E+00
 7.2236038E+00 1.2489255E+00 1.5262795E+00
 7.2275183E+00 1.2964430E+00 1.5072386E+00
 7.2340572E+00 1.3444821E+00 1.4866016E+00
 7.2433779E+00 1.3927244E+00 1.4643727E+00
 7.2556054E+00 1.4408025E+00 1.4405863E+00
 7.2708236E+00 1.4883089E+00 1.4153149E+00
 7.2890653E+00 1.5348074E+00 1.3886713E+00
 7.3103034E+00 1.5798482E+00 1.3608084E+00
 7.3344451E+00 1.6229857E+00 1.3319163E+00
 7.3613299E+00 1.6637974E+00 1.3022183E+00
 7.3907325E+00 1.7019040E+00 1.2719637E+00
 7.4223705E+00 1.7369870E+00 1.2414198E+00
 7.4559166E+00 1.7688039E+00 1.2108618E+00
 7.4910122E+00 1.7971969E+00 1.1805602E+00
 7.5272769E+00 1.8220955E+00 1.1507630E+00
 7.5643177E+00 1.8435156E+00 1.1216549E+00
 7.6017479E+00 1.8615582E+00 1.0932775E+00
 7.6391204E+00 1.8763778E+00 1.0653797E+00
 7.2558631E+00 1.0959669E+00 1.6157519E+00
 7.2532779E+00 1.1423378E+00 1.6035726E+00
 7.2521062E+00 1.1888725E+00 1.5892295E+00
 7.2528999E+00 1.2360170E+00 1.5730778E+00
 7.2560136E+00 1.2838485E+00 1.5552332E+00
 7.2616880E+00 1.3322297E+00 1.5357053E+00
 7.2700968E+00 1.3808950E+00 1.5144773E+00
 7.2813718E+00 1.4294972E+00 1.4915509E+00
 7.2956045E+00 1.4776338E+00 1.4669672E+00
 7.3128385E+00 1.5248645E+00 1.4408131E+00
 7.3330596E+00 1.5707286E+00 1.4132222E+00
 7.3561889E+00 1.6147640E+00 1.3843723E+00
 7.3820796E+00 1.6565288E+00 1.3544815E+00
 7.4105197E+00 1.6956220E+00 1.3238010E+00
 7.4412403E+00 1.7317044E+00 1.2926068E+00
 7.4739297E+00 1.7645151E+00 1.2611869E+00
 7.5082499E+00 1.7938842E+00 1.2298246E+00
 7.5438517E+00 1.8197375E+00 1.1987659E+00
 7.5803810E+00 1.8420960E+00 1.1681536E+00
 7.6174763E+00 1.8610682E+00 1.1379123E+00
 7.6547506E+00 1.8768307E+00 1.1075195E+00
 7.2855684E+00 1.1244327E+00 1.6451422E+00
 7.2844793E+00 1.1725092E+00 1.6328127E+00
 7.2848526E+00 1.2205293E+00 1.6181998E+00
 7.2872750E+00 1.2689052E+00 1.6016510E+00
 7.2921308E+00 1.3177323E+00 1.5832897E+00
 7.2996573E+00 1.3668657E+00 1.5631224E+00
 7.3100085E+00 1.4160151E+00 1.5411305E+00
 7.3232853E+00 1.4648001E+00 1.5173226E+00
 7.3395404E+00 1.5127846E+00 1.4917543E+00
 7.3587713E+00 1.5595006E+00 1.4645347E+00
 7.3809123E+00 1.6044716E+00 1.4358249E+00
 7.4058302E+00 1.6472353E+00 1.4058340E+00
 7.4333259E+00 1.6873679E+00 1.3748124E+00
 7.4631428E+00 1.7245063E+00 1.3430421E+00
 7.4949816E+00 1.7583683E+00 1.3108230E+00
 7.5285189E+00 1.7887663E+00 1.2784525E+00
 7.5634236E+00 1.8156160E+00 1.2461864E+00
 7.5993587E+00 1.8389349E+00 1.2141666E+00
 7.6359671E+00 1.8588362E+00 1.1822883E+00
 7.6728408E+00 1.8755031E+00 1.1500490E+00
 7.3188417E+00 1.1533136E+00 1.6737449E+00
 7.3192835E+00 1.2026837E+00 1.6610612E+00
 7.3212839E+00 1.2518897E+00 1.6460217E+00
 7.3254407E+00 1.3012707E+00 1.6289372E+00
 7.3321361E+00 1.3508744E+00 1.6099133E+00
 7.3415898E+00 1.4005209E+00 1.5889502E+00
 7.3539255E+00 1.4498838E+00 1.5660339E+00
 7.3692061E+00 1.4985484E+00 1.5411869E+00
 7.3874386E+00 1.5460505E+00 1.5144878E+00
 7.4085696E+00 1.5919049E+00 1.4860745E+00
 7.4324795E+00 1.6356334E+00 1.4561419E+00
 7.4589834E+00 1.6767905E+00 1.4249345E+00
 7.4878380E+00 1.7149898E+00 1.3927368E+00
 7.5187570E+00 1.7499251E+00 1.3598580E+00
 7.5514300E+00 1.7813878E+00 1.3266102E+00
 7.5855394E+00 1.8092767E+00 1.2932686E+00
 7.6207597E+00 1.8336001E+00 1.2599965E+00
 7.6567324E+00 1.8544689E+00 1.2267243E+00
 7.6930274E+00 1.8720735E+00 1.1930270E+00
 7.3558188E+00 1.1825378E+00 1.7010902E+00
 7.3578375E+00 1.2328969E+00 1.6878538E+00
 7.3615456E+00 1.2830042E+00 1.6722198E+00