# TIME = 2.000000
VARIABLES = X, Y, Z, FX, FY, FZ
ZONE N=29232 E=58212 F=FEPOINT ET=TRIANGLE
  0.000E+00  9.502E-01  1.243E-03 6.4026164E+00 2.0445370E-01 4.1254042E+00
  0.000E+00  1.000E+00  0.000E+00 6.3918358E+00 6.3387695E-07 4.1307355E+00
  4.318E-02  9.751E-01  3.108E-04 6.3930333E+00 1.0039543E-01 4.0563357E+00
  0.000E+00  1.050E+00  1.243E-03 6.4026162E+00 -2.0445300E-01 4.1254043E+00
  4.318E-02  1.025E+00  3.108E-04 6.3930332E+00 -1.0039478E-01 4.0563357E+00
  0.000E+00  1.100E+00  4.969E-03 6.4387201E+00 -4.0942179E-01 4.1099484E+00
  4.318E-02  1.075E+00  2.796E-03 6.4177005E+00 -3.0140949E-01 4.0460268E+00
  0.000E+00  1.149E+00  1.117E-02 6.5072137E+00 -6.1549195E-01 4.0853342E+00
  4.318E-02  1.124E+00  7.761E-03 6.4703783E+00 -5.0323773E-01 4.0262187E+00
  0.000E+00  1.198E+00  1.983E-02 6.6062339E+00 -8.2150276E-01 4.0514969E+00
  4.318E-02  1.174E+00  1.519E-02 6.5535106E+00 -7.0600131E-01 3.9976581E+00
  0.000E+00  1.247E+00  3.092E-02 6.7146333E+00 -1.0233546E+00 4.0063073E+00
  4.318E-02  1.223E+00  2.507E-02 6.6601502E+00 -9.0692329E-01 3.9592232E+00
  0.000E+00  1.295E+00  4.443E-02 6.8039228E+00 -1.2178989E+00 3.9478138E+00
  4.318E-02  1.271E+00  3.738E-02 6.7635362E+00 -1.1016023E+00 3.9082254E+00
  0.000E+00  1.342E+00  6.031E-02 6.8807146E+00 -1.4098402E+00 3.8800875E+00
  4.318E-02  1.318E+00  5.207E-02 6.8410626E+00 -1.2904372E+00 3.8454399E+00
  0.000E+00  1.388E+00  7.852E-02 7.0392868E+00 -1.6039226E+00 3.8068985E+00
  4.318E-02  1.365E+00  6.913E-02 6.9475299E+00 -1.4801241E+00 3.7762929E+00
  0.000E+00  1.434E+00  9.903E-02 7.1721758E+00 -1.7940180E+00 3.7236820E+00
  4.318E-02  1.411E+00  8.849E-02 7.1197918E+00 -1.6699374E+00 3.7002816E+00
  0.000E+00  1.478E+00  1.218E-01 7.2270186E+00 -1.9758319E+00 3.6282087E+00
  4.318E-02  1.456E+00  1.101E-01 7.2097322E+00 -1.8523753E+00 3.6121531E+00
  0.000E+00  1.521E+00  1.467E-01 7.3867364E+00 -2.1539378E+00 3.5251528E+00
  4.318E-02  1.500E+00  1.340E-01 7.2876861E+00 -2.0286159E+00 3.5141729E+00
  0.000E+00  1.563E+00  1.738E-01 7.4324230E+00 -2.3276569E+00 3.4139423E+00
  4.318E-02  1.543E+00  1.600E-01 7.4337767E+00 -2.2019646E+00 3.4093723E+00
  0.000E+00  1.604E+00  2.029E-01 7.5208218E+00 -2.4946174E+00 3.2933668E+00
  4.318E-02  1.584E+00  1.881E-01 7.4577427E+00 -2.3692529E+00 3.2953590E+00
  0.000E+00  1.643E+00  2.340E-01 7.5751910E+00 -2.6557317E+00 3.1649921E+00
  4.318E-02  1.623E+00  2.182E-01 7.5519697E+00 -2.5303493E+00 3.1729963E+00
  0.000E+00  1.680E+00  2.669E-01 7.5776018E+00 -2.8102059E+00 3.0286730E+00
  4.318E-02  1.662E+00  2.502E-01 7.5645810E+00 -2.6854981E+00 3.0430307E+00
  0.000E+00  1.716E+00  3.018E-01 7.6109604E+00 -2.9576301E+00 2.8847947E+00
  4.318E-02  1.698E+00  2.841E-01 7.6109837E+00 -2.8337619E+00 2.9053095E+00
  0.000E+00  1.750E+00  3.383E-01 7.5645546E+00 -3.0978305E+00 2.7338586E+00
  4.318E-02  1.733E+00  3.198E-01 7.5776223E+00 -2.9750976E+00 2.7604940E+00
  0.000E+00  1.782E+00  3.765E-01 7.5519402E+00 -3.2301351E+00 2.5759167E+00
  4.318E-02  1.766E+00  3.572E-01 7.5752084E+00 -3.1090005E+00 2.6087512E+00
  0.000E+00  1.812E+00  4.163E-01 7.4577103E+00 -3.3547067E+00 2.4119198E+00
  4.318E-02  1.797E+00  3.962E-01 7.5208363E+00 -3.2351091E+00 2.4504885E+00
  0.000E+00  1.840E+00  4.575E-01 7.4337410E+00 -3.4707643E+00 2.2416197E+00
  4.318E-02  1.826E+00  4.367E-01 7.4324340E+00 -3.3535484E+00 2.2864817E+00
  0.000E+00  1.866E+00  5.000E-01 7.2876469E+00 -3.5774625E+00 2.0651485E+00
  4.318E-02  1.853E+00  4.786E-01 7.3867426E+00 -3.4627889E+00 2.1158351E+00
  0.000E+00  1.890E+00  5.438E-01 7.2096911E+00 -3.6772065E+00 1.8857344E+00
  4.318E-02  1.878E+00  5.217E-01 7.2270207E+00 -3.5640334E+00 1.9408796E+00
  0.000E+00  1.912E+00  5.887E-01 7.1197480E+00 -3.7669117E+00 1.7000108E+00
  4.318E-02  1.901E+00  5.661E-01 7.1721750E+00 -3.6578051E+00 1.7622832E+00
  0.000E+00  1.931E+00  6.347E-01 6.9474820E+00 -3.8443031E+00 1.5067787E+00
  4.318E-02  1.921E+00  6.116E-01 7.0392836E+00 -3.7395513E+00 1.5755506E+00
  0.000E+00  1.948E+00  6.815E-01 6.8410116E+00 -3.9146963E+00 1.3136755E+00
  4.318E-02  1.940E+00  6.580E-01 6.8807093E+00 -3.8114561E+00 1.3849006E+00
  0.000E+00  1.963E+00  7.292E-01 6.7634850E+00 -3.9786059E+00 1.1214408E+00
  4.318E-02  1.956E+00  7.052E-01 6.8039153E+00 -3.8779762E+00 1.1963530E+00
  0.000E+00  1.975E+00  7.775E-01 6.6600988E+00 -4.0305234E+00 9.2325652E-01
  4.318E-02  1.969E+00  7.532E-01 6.7146238E+00 -3.9354311E+00 1.0052510E+00
  0.000E+00  1.985E+00  8.264E-01 6.5534572E+00 -4.0696527E+00 7.1871559E-01
  4.318E-02  1.980E+00  8.019E-01 6.6062210E+00 -3.9798246E+00 8.0697176E-01
  0.000E+00  1.992E+00  8.757E-01 6.4703223E+00 -4.0987262E+00 5.1229940E-01
  4.318E-02  1.989E+00  8.510E-01 6.5071972E+00 -4.0130645E+00 6.0460591E-01
  0.000E+00  1.997E+00  9.253E-01 6.4176439E+00 -4.1188915E+00 3.0683557E-01
  4.318E-02  1.995E+00  9.004E-01 6.4387020E+00 -4.0372433E+00 4.0218041E-01
  0.000E+00  2.000E+00  9.751E-01 6.3929769E+00 -4.1293877E+00 1.0220215E-01
  4.318E-02  1.999E+00  9.502E-01 6.4025991E+00 -4.0524278E+00 2.0083647E-01
  0.000E+00  2.000E+00  1.025E+00 6.3929764E+00 -4.1293865E+00 -1.0220247E-01
  4.318E-02  2.000E+00  1.000E+00 6.3918185E+00 -4.0576650E+00 -5.3817428E-08
  0.000E+00  1.997E+00  1.075E+00 6.4176426E+00 -4.1188875E+00 -3.0683588E-01
  4.318E-02  1.999E+00  1.050E+00 6.4025982E+00 -4.0524253E+00 -2.0083657E-01
  0.000E+00  1.992E+00  1.124E+00 6.4703201E+00 -4.0987200E+00 -5.1229970E-01
  4.318E-02  1.995E+00  1.100E+00 6.4387002E+00 -4.0372378E+00 -4.0218051E-01
  0.000E+00  1.985E+00  1.174E+00 6.5534542E+00 -4.0696498E+00 -7.1871588E-01
  4.318E-02  1.989E+00  1.149E+00 6.5071945E+00 -4.0130591E+00 -6.0460601E-01
  0.000E+00  1.975E+00  1.223E+00 6.6600949E+00 -4.0305304E+00 -9.2325682E-01
  4.318E-02  1.980E+00  1.198E+00 6.6062175E+00 -3.9798263E+00 -8.0697186E-01
  0.000E+00  1.963E+00  1.271E+00 6.7634803E+00 -3.9786129E+00 -1.1214411E+00
  4.318E-02  1.969E+00  1.247E+00 6.7146194E+00 -3.9354405E+00 -1.0052510E+00
  0.000E+00  1.948E+00  1.318E+00 6.8410061E+00 -3.9146830E+00 -1.3136757E+00
  4.318E-02  1.956E+00  1.295E+00 6.8039101E+00 -3.8779743E+00 -1.1963530E+00
  0.000E+00  1.931E+00  1.365E+00 6.9474758E+00 -3.8442923E+00 -1.5067788E+00
  4.318E-02  1.940E+00  1.342E+00 6.8807034E+00 -3.8114379E+00 -1.3849005E+00
  0.000E+00  1.912E+00  1.411E+00 7.1197404E+00 -3.7669270E+00 -1.7000109E+00
  4.318E-02  1.921E+00  1.388E+00 7.0392773E+00 -3.7395570E+00 -1.5755508E+00
  0.000E+00  1.890E+00  1.456E+00 7.2096835E+00 -3.6772006E+00 -1.8857346E+00
  4.318E-02  1.901E+00  1.434E+00 7.1721678E+00 -3.6578154E+00 -1.7622833E+00
  0.000E+00  1.866E+00  1.500E+00 7.2876388E+00 -3.5774517E+00 -2.0651485E+00
  4.318E-02  1.878E+00  1.478E+00 7.2270128E+00 -3.5640165E+00 -1.9408794E+00
  0.000E+00  1.840E+00  1.543E+00 7.4337323E+00 -3.4707756E+00 -2.2416200E+00
  4.318E-02  1.853E+00  1.521E+00 7.3867342E+00 -3.4627944E+00 -2.1158353E+00
  0.000E+00  1.812E+00  1.584E+00 7.4577012E+00 -3.3546999E+00 -2.4119196E+00
  4.318E-02  1.826E+00  1.563E+00 7.4324250E+00 -3.3535507E+00 -2.2864815E+00
  0.000E+00  1.782E+00  1.623E+00 7.5519307E+00 -3.2301383E+00 -2.5759169E+00
  4.318E-02  1.797E+00  1.604E+00 7.5208268E+00 -3.2351049E+00 -2.4504884E+00
  0.000E+00  1.750E+00  1.662E+00 7.5645447E+00 -3.0978309E+00 -2.7338586E+00
  4.318E-02  1.766E+00  1.643E+00 7.5751986E+00 -3.1090058E+00 -2.6087513E+00
  0.000E+00  1.716E+00  1.698E+00 7.6109500E+00 -2.9576299E+00 -2.8847947E+00
  4.318E-02  1.733E+00  1.680E+00 7.5776121E+00 -2.9750947E+00 -2.7604937E+00
  0.000E+00  1.680E+00  1.733E+00 7.5775911E+00 -2.8102072E+00 -3.0286730E+00
  4.318E-02  1.698E+00  1.716E+00 7.6109733E+00 -2.8337649E+00 -2.9053095E+00
  0.000E+00  1.643E+00  1.766E+00 7.5751804E+00 -2.6557312E+00 -3.1649922E+00
  4.318E-02  1.662E+00  1.750E+00 7.5645703E+00 -2.6854971E+00 -3.0430305E+00
  0.000E+00  1.604E+00  1.797E+00 7.5208112E+00 -2.4946181E+00 -3.2933669E+00
  4.318E-02  1.623E+00  1.782E+00 7.5519585E+00 -2.5303498E+00 -3.1729961E+00
  0.000E+00  1.563E+00  1.826E+00 7.4324121E+00 -2.3276560E+00 -3.4139422E+00
  4.318E-02  1.584E+00  1.812E+00 7.4577312E+00 -2.3692522E+00 -3.2953589E+00
  0.000E+00  1.521E+00  1.853E+00 7.3867246E+00 -2.1539369E+00 -3.5251525E+00
  4.318E-02  1.543E+00  1.840E+00 7.4337653E+00 -2.2019651E+00 -3.4093724E+00
  0.000E+00  1.478E+00  1.878E+00 7.2270058E+00 -1.9758305E+00 -3.6282083E+00
  4.318E-02  1.500E+00  1.866E+00 7.2876754E+00 -2.0286160E+00 -3.5141731E+00
  0.000E+00  1.434E+00  1.901E+00 7.1721630E+00 -1.7940194E+00 -3.7236820E+00
  4.318E-02  1.456E+00  1.890E+00 7.2097219E+00 -1.8523758E+00 -3.6121531E+00
  0.000E+00  1.388E+00  1.921E+00 7.0392756E+00 -1.6039234E+00 -3.8068989E+00
  4.318E-02  1.411E+00  1.912E+00 7.1197808E+00 -1.6699368E+00 -3.7002813E+00
  0.000E+00  1.342E+00  1.940E+00 6.8807058E+00 -1.4098404E+00 -3.8800877E+00
  4.318E-02  1.365E+00  1.931E+00 6.9475170E+00 -1.4801233E+00 -3.7762925E+00
  0.000E+00  1.295E+00  1.956E+00 6.8039147E+00 -1.2178971E+00 -3.9478134E+00
  4.318E-02  1.318E+00  1.948E+00 6.8410485E+00 -1.2904380E+00 -3.8454398E+00
  0.000E+00  1.247E+00  1.969E+00 6.7146236E+00 -1.0233532E+00 -4.0063065E+00
  4.318E-02  1.271E+00  1.963E+00 6.7635227E+00 -1.1016033E+00 -3.9082258E+00
  0.000E+00  1.198E+00  1.980E+00 6.6062220E+00 -8.2150312E-01 -4.0514964E+00
  4.318E-02  1.223E+00  1.975E+00 6.6601385E+00 -9.0692345E-01 -3.9592236E+00
  0.000E+00  1.149E+00  1.989E+00 6.5072004E+00 -6.1549436E-01 -4.0853342E+00
  4.318E-02  1.174E+00  1.985E+00 6.5535001E+00 -7.0599990E-01 -3.9976582E+00
  0.000E+00  1.100E+00  1.995E+00 6.4387069E+00 -4.0942452E-01 -4.1099490E+00
  4.318E-02  1.124E+00  1.992E+00 6.4703680E+00 -5.0323628E-01 -4.0262184E+00
  0.000E+00  1.050E+00  1.999E+00 6.4026037E+00 -2.0445437E-01 -4.1254052E+00
  4.318E-02  1.075E+00  1.997E+00 6.4176896E+00 -3.0140789E-01 -4.0460262E+00
  0.000E+00  1.000E+00  2.000E+00 6.3918236E+00 2.7480779E-07 -4.1307365E+00
  4.318E-02  1.025E+00  2.000E+00 6.3930218E+00 -1.0039440E-01 -4.0563350E+00
  0.000E+00  9.502E-01  1.999E+00 6.4026039E+00 2.0445548E-01 -4.1254052E+00
  4.318E-02  9.751E-01  2.000E+00 6.3930219E+00 1.0039479E-01 -4.0563350E+00
  0.000E+00  9.004E-01  1.995E+00 6.4387074E+00 4.0942529E-01 -4.1099489E+00
  4.318E-02  9.253E-01  1.997E+00 6.4176899E+00 3.0140861E-01 -4.0460262E+00
  0.000E+00  8.510E-01  1.989E+00 6.5072011E+00 6.1549513E-01 -4.0853342E+00
  4.318E-02  8.757E-01  1.992E+00 6.4703686E+00 5.0323646E-01 -4.0262183E+00
  0.000E+00  8.019E-01  1.980E+00 6.6062228E+00 8.2150414E-01 -4.0514963E+00
  4.318E-02  8.264E-01  1.985E+00 6.5535009E+00 7.0600057E-01 -3.9976582E+00
  0.000E+00  7.532E-01  1.969E+00 6.7146247E+00 1.0233539E+00 -4.0063064E+00
  4.318E-02  7.775E-01  1.975E+00 6.6601394E+00 9.0692383E-01 -3.9592235E+00
  0.000E+00  7.052E-01  1.956E+00 6.8039159E+00 1.2178980E+00 -3.9478133E+00
  4.318E-02  7.292E-01  1.963E+00 6.7635238E+00 1.1016038E+00 -3.9082257E+00
  0.000E+00  6.580E-01  1.940E+00 6.8807072E+00 1.4098410E+00 -3.8800875E+00
  4.318E-02  6.815E-01  1.948E+00 6.8410498E+00 1.2904383E+00 -3.8454397E+00
  0.000E+00  6.116E-01  1.921E+00 7.0392773E+00 1.6039248E+00 -3.8068988E+00
  4.318E-02  6.347E-01  1.931E+00 6.9475185E+00 1.4801240E+00 -3.7762924E+00
  0.000E+00  5.661E-01  1.901E+00 7.1721648E+00 1.7940193E+00 -3.7236818E+00
  4.318E-02  5.887E-01  1.912E+00 7.1197822E+00 1.6699370E+00 -3.7002810E+00
  0.000E+00  5.217E-01  1.878E+00 7.2270077E+00 1.9758317E+00 -3.6282081E+00
  4.318E-02  5.438E-01  1.890E+00 7.2097238E+00 1.8523757E+00 -3.6121530E+00
  0.000E+00  4.786E-01  1.853E+00 7.3867266E+00 2.1539373E+00 -3.5251523E+00
  4.318E-02  5.000E-01  1.866E+00 7.2876774E+00 2.0286168E+00 -3.5141730E+00
  0.000E+00  4.367E-01  1.826E+00 7.4324143E+00 2.3276573E+00 -3.4139420E+00
  4.318E-02  4.575E-01  1.840E+00 7.4337674E+00 2.2019652E+00 -3.4093722E+00
  0.000E+00  3.962E-01  1.797E+00 7.5208135E+00 2.4946182E+00 -3.2933667E+00
  4.318E-02  4.163E-01  1.812E+00 7.4577334E+00 2.3692530E+00 -3.2953588E+00
  0.000E+00  3.572E-01  1.766E+00 7.5751828E+00 2.6557324E+00 -3.1649920E+00
  4.318E-02  3.765E-01  1.782E+00 7.5519608E+00 2.5303493E+00 -3.1729960E+00
  0.000E+00  3.198E-01  1.733E+00 7.5775936E+00 2.8102063E+00 -3.0286728E+00
  4.318E-02  3.383E-01  1.750E+00 7.5645727E+00 2.6854983E+00 -3.0430304E+00
  0.000E+00  2.841E-01  1.698E+00 7.6109525E+00 2.9576304E+00 -2.8847945E+00
  4.318E-02  3.018E-01  1.716E+00 7.6109758E+00 2.8337622E+00 -2.9053093E+00
  0.000E+00  2.502E-01  1.662E+00 7.5645472E+00 3.0978308E+00 -2.7338584E+00
  4.318E-02  2.669E-01  1.680E+00 7.5776146E+00 2.9750978E+00 -2.7604938E+00
  0.000E+00  2.182E-01  1.623E+00 7.5519333E+00 3.2301355E+00 -2.5759166E+00
  4.318E-02  2.340E-01  1.643E+00 7.5752012E+00 3.1090007E+00 -2.6087510E+00
  0.000E+00  1.881E-01  1.584E+00 7.4577039E+00 3.3547071E+00 -2.4119197E+00
  4.318E-02  2.029E-01  1.604E+00 7.5208295E+00 3.2351093E+00 -2.4504883E+00
  0.000E+00  1.600E-01  1.543E+00 7.4337351E+00 3.4707647E+00 -2.2416196E+00
  4.318E-02  1.738E-01  1.563E+00 7.4324277E+00 3.3535486E+00 -2.2864815E+00
  0.000E+00  1.340E-01  1.500E+00 7.2876415E+00 3.5774629E+00 -2.0651484E+00
  4.318E-02  1.467E-01  1.521E+00 7.3867369E+00 3.4627891E+00 -2.1158349E+00
  0.000E+00  1.101E-01  1.456E+00 7.2096863E+00 3.6772069E+00 -1.8857344E+00
  4.318E-02  1.218E-01  1.478E+00 7.2270156E+00 3.5640337E+00 -1.9408795E+00
  0.000E+00  8.849E-02  1.411E+00 7.1197437E+00 3.7669118E+00 -1.7000107E+00
  4.318E-02  9.903E-02  1.434E+00 7.1721706E+00 3.6578053E+00 -1.7622831E+00
  0.000E+00  6.913E-02  1.365E+00 6.9474786E+00 3.8443035E+00 -1.5067787E+00
  4.318E-02  7.852E-02  1.388E+00 7.0392799E+00 3.7395516E+00 -1.5755506E+00
  0.000E+00  5.207E-02  1.318E+00 6.8410090E+00 3.9146968E+00 -1.3136756E+00
  4.318E-02  6.031E-02  1.342E+00 6.8807062E+00 3.8114563E+00 -1.3849005E+00
  0.000E+00  3.738E-02  1.271E+00 6.7634831E+00 3.9786064E+00 -1.1214409E+00
  4.318E-02  4.443E-02  1.295E+00 6.8039129E+00 3.8779764E+00 -1.1963529E+00
  0.000E+00  2.507E-02  1.223E+00 6.6600977E+00 4.0305239E+00 -9.2325663E-01
  4.318E-02  3.092E-02  1.247E+00 6.7146222E+00 3.9354313E+00 -1.0052509E+00
  0.000E+00  1.519E-02  1.174E+00 6.5534570E+00 4.0696532E+00 -7.1871573E-01
  4.318E-02  1.983E-02  1.198E+00 6.6062203E+00 3.9798248E+00 -8.0697172E-01
  0.000E+00  7.761E-03  1.124E+00 6.4703230E+00 4.0987267E+00 -5.1229957E-01
  4.318E-02  1.117E-02  1.149E+00 6.5071973E+00 4.0130648E+00 -6.0460590E-01
  0.000E+00  2.796E-03  1.075E+00 6.4176455E+00 4.1188920E+00 -3.0683578E-01
  4.318E-02  4.969E-03  1.100E+00 6.4387030E+00 4.0372435E+00 -4.0218042E-01
  0.000E+00  3.108E-04  1.025E+00 6.3929793E+00 4.1293882E+00 -1.0220239E-01
  4.318E-02  1.243E-03  1.050E+00 6.4026010E+00 4.0524281E+00 -2.0083649E-01
  0.000E+00  3.108E-04  9.751E-01 6.3929797E+00 4.1293870E+00 1.0220220E-01
  4.318E-02  0.000E+00  1.000E+00 6.3918214E+00 4.0576654E+00 1.5906963E-08
  0.000E+00  2.796E-03  9.253E-01 6.4176468E+00 4.1188881E+00 3.0683559E-01
  4.318E-02  1.243E-03  9.502E-01 6.4026019E+00 4.0524257E+00 2.0083652E-01
  0.000E+00  7.761E-03  8.757E-01 6.4703252E+00 4.0987207E+00 5.1229939E-01
  4.318E-02  4.969E-03  9.004E-01 6.4387048E+00 4.0372382E+00 4.0218044E-01
  0.000E+00  1.519E-02  8.264E-01 6.5534601E+00 4.0696504E+00 7.1871555E-01
  4.318E-02  1.117E-02  8.510E-01 6.5072000E+00 4.0130595E+00 6.0460592E-01
  0.000E+00  2.507E-02  7.775E-01 6.6601016E+00 4.0305310E+00 9.2325646E-01
  4.318E-02  1.983E-02  8.019E-01 6.6062239E+00 3.9798268E+00 8.0697176E-01
  0.000E+00  3.738E-02  7.292E-01 6.7634878E+00 3.9786136E+00 1.1214407E+00
  4.318E-02  3.092E-02  7.532E-01 6.7146266E+00 3.9354409E+00 1.0052509E+00
  0.000E+00  5.207E-02  6.815E-01 6.8410144E+00 3.9146837E+00 1.3136753E+00
  4.318E-02  4.443E-02  7.052E-01 6.8039181E+00 3.8779747E+00 1.1963529E+00
  0.000E+00  6.913E-02  6.347E-01 6.9474849E+00 3.8442930E+00 1.5067784E+00
  4.318E-02  6.031E-02  6.580E-01 6.8807121E+00 3.8114383E+00 1.3849004E+00
  0.000E+00  8.849E-02  5.887E-01 7.1197504E+00 3.7669281E+00 1.7000106E+00
  4.318E-02  7.852E-02  6.116E-01 7.0392866E+00 3.7395574E+00 1.5755507E+00
  0.000E+00  1.101E-01  5.438E-01 7.2096939E+00 3.6772015E+00 1.8857342E+00
  4.318E-02  9.903E-02  5.661E-01 7.1721779E+00 3.6578158E+00 1.7622831E+00
  0.000E+00  1.340E-01  5.000E-01 7.2876497E+00 3.5774526E+00 2.0651481E+00
  4.318E-02  1.218E-01  5.217E-01 7.2270235E+00 3.5640170E+00 1.9408792E+00
  0.000E+00  1.600E-01  4.575E-01 7.4337438E+00 3.4707765E+00 2.2416197E+00
  4.318E-02  1.467E-01  4.786E-01 7.3867454E+00 3.4627949E+00 2.1158351E+00
  0.000E+00  1.881E-01  4.163E-01 7.4577131E+00 3.3547009E+00 2.4119192E+00
  4.318E-02  1.738E-01  4.367E-01 7.4324367E+00 3.3535512E+00 2.2864814E+00
  0.000E+00  2.182E-01  3.765E-01 7.5519429E+00 3.2301392E+00 2.5759165E+00
  4.318E-02  2.029E-01  3.962E-01 7.5208390E+00 3.2351055E+00 2.4504882E+00
  0.000E+00  2.502E-01  3.383E-01 7.5645572E+00 3.0978319E+00 2.7338582E+00
  4.318E-02  2.340E-01  3.572E-01 7.5752111E+00 3.1090063E+00 2.6087511E+00
  0.000E+00  2.841E-01  3.018E-01 7.6109630E+00 2.9576310E+00 2.8847944E+00
  4.318E-02  2.669E-01  3.198E-01 7.5776249E+00 2.9750953E+00 2.7604936E+00
  0.000E+00  3.198E-01  2.669E-01 7.5776043E+00 2.8102082E+00 3.0286726E+00
  4.318E-02  3.018E-01  2.841E-01 7.6109863E+00 2.8337654E+00 2.9053094E+00
  0.000E+00  3.572E-01  2.340E-01 7.5751934E+00 2.6557320E+00 3.1649918E+00
  4.318E-02  3.383E-01  2.502E-01 7.5645834E+00 2.6854977E+00 3.0430304E+00
  0.000E+00  3.962E-01  2.029E-01 7.5208241E+00 2.4946188E+00 3.2933665E+00
  4.318E-02  3.765E-01  2.182E-01 7.5519721E+00 2.5303506E+00 3.1729961E+00
  0.000E+00  4.367E-01  1.738E-01 7.4324252E+00 2.3276572E+00 3.4139419E+00
  4.318E-02  4.163E-01  1.881E-01 7.4577450E+00 2.3692529E+00 3.2953588E+00
  0.000E+00  4.786E-01  1.467E-01 7.3867385E+00 2.1539390E+00 3.5251526E+00
  4.318E-02  4.575E-01  1.600E-01 7.4337788E+00 2.2019654E+00 3.4093721E+00
  0.000E+00  5.217E-01  1.218E-01 7.2270205E+00 1.9758323E+00 3.6282084E+00
  4.318E-02  5.000E-01  1.340E-01 7.2876881E+00 2.0286159E+00 3.5141727E+00
  0.000E+00  5.661E-01  9.903E-02 7.1721775E+00 1.7940197E+00 3.7236816E+00
  4.318E-02  5.438E-01  1.101E-01 7.2097341E+00 1.8523764E+00 3.6121529E+00
  0.000E+00  6.116E-01  7.852E-02 7.0392884E+00 1.6039230E+00 3.8068983E+00
  4.318E-02  5.887E-01  8.849E-02 7.1197933E+00 1.6699379E+00 3.7002813E+00
  0.000E+00  6.580E-01  6.031E-02 6.8807161E+00 1.4098413E+00 3.8800873E+00
  4.318E-02  6.347E-01  6.913E-02 6.9475314E+00 1.4801244E+00 3.7762928E+00
  0.000E+00  7.052E-01  4.443E-02 6.8039240E+00 1.2178997E+00 3.9478136E+00
  4.318E-02  6.815E-01  5.207E-02 6.8410639E+00 1.2904379E+00 3.8454398E+00
  0.000E+00  7.532E-01  3.092E-02 6.7146343E+00 1.0233557E+00 4.0063071E+00
  4.318E-02  7.292E-01  3.738E-02 6.7635373E+00 1.1016029E+00 3.9082253E+00
  0.000E+00  8.019E-01  1.983E-02 6.6062348E+00 8.2150352E-01 4.0514967E+00
  4.318E-02  7.775E-01  2.507E-02 6.6601512E+00 9.0692392E-01 3.9592231E+00
  0.000E+00  8.510E-01  1.117E-02 6.5072144E+00 6.1549298E-01 4.0853341E+00
  4.318E-02  8.264E-01  1.519E-02 6.5535113E+00 7.0600166E-01 3.9976581E+00
  0.000E+00  9.004E-01  4.969E-03 6.4387206E+00 4.0942283E-01 4.1099484E+00
  4.318E-02  8.757E-01  7.761E-03 6.4703789E+00 5.0323858E-01 4.0262186E+00
  4.318E-02  9.253E-01  2.796E-03 6.4177008E+00 3.0140980E-01 4.0460268E+00
  1.000E+01  1.050E+00  1.243E-03 6.4026162E+00 -2.0445300E-01 4.1254043E+00
  1.000E+01  1.000E+00  5.551E-16 6.3918358E+00 6.3387695E-07 4.1307355E+00
  9.957E+00  1.025E+00  3.108E-04 6.3930233E+00 -1.0401713E-01 4.2027523E+00
  1.000E+01  9.502E-01  1.243E-03 6.4026164E+00 2.0445370E-01 4.1254042E+00
  9.957E+00  9.751E-01  3.108E-04 6.3930235E+00 1.0401856E-01 4.2027523E+00
  1.000E+01  9.004E-01  4.969E-03 6.4387206E+00 4.0942283E-01 4.1099484E+00
  9.957E+00  9.253E-01  2.796E-03 6.4176911E+00 3.1228779E-01 4.1920712E+00
  1.000E+01  8.510E-01  1.117E-02 6.5072144E+00 6.1549298E-01 4.0853341E+00
  9.957E+00  8.757E-01  7.761E-03 6.4703692E+00 5.2140347E-01 4.1715477E+00
  1.000E+01  8.019E-01  1.983E-02 6.6062348E+00 8.2150352E-01 4.0514967E+00
  9.957E+00  8.264E-01  1.519E-02 6.5535020E+00 7.3148656E-01 4.1419562E+00
  1.000E+01  7.532E-01  3.092E-02 6.7146343E+00 1.0233557E+00 4.0063071E+00
  9.957E+00  7.775E-01  2.507E-02 6.6601417E+00 9.3965968E-01 4.1021338E+00
  1.000E+01  7.052E-01  4.443E-02 6.8039240E+00 1.2178997E+00 3.9478136E+00
  9.957E+00  7.292E-01  3.738E-02 6.7635273E+00 1.1413642E+00 4.0492950E+00
  1.000E+01  6.580E-01  6.031E-02 6.8807161E+00 1.4098413E+00 3.8800873E+00
  9.957E+00  6.815E-01  5.207E-02 6.8410537E+00 1.3370157E+00 3.9842428E+00
  1.000E+01  6.116E-01  7.852E-02 7.0392884E+00 1.6039230E+00 3.8068983E+00
  9.957E+00  6.347E-01  6.913E-02 6.9475214E+00 1.5335508E+00 3.9125995E+00
  1.000E+01  5.661E-01  9.903E-02 7.1721775E+00 1.7940197E+00 3.7236816E+00
  9.957E+00  5.887E-01  8.849E-02 7.1197832E+00 1.7302151E+00 3.8338440E+00
  1.000E+01  5.217E-01  1.218E-01 7.2270205E+00 1.9758323E+00 3.6282084E+00
  9.957E+00  5.438E-01  1.101E-01 7.2097244E+00 1.9192383E+00 3.7425347E+00
  1.000E+01  4.786E-01  1.467E-01 7.3867385E+00 2.1539390E+00 3.5251526E+00
  9.957E+00  5.000E-01  1.340E-01 7.2876784E+00 2.1018399E+00 3.6410170E+00
  1.000E+01  4.367E-01  1.738E-01 7.4324252E+00 2.3276572E+00 3.4139419E+00
  9.957E+00  4.575E-01  1.600E-01 7.4337689E+00 2.2814470E+00 3.5324334E+00
  1.000E+01  3.962E-01  2.029E-01 7.5208241E+00 2.4946188E+00 3.2933665E+00
  9.957E+00  4.163E-01  1.881E-01 7.4577352E+00 2.4547721E+00 3.4143049E+00
  1.000E+01  3.572E-01  2.340E-01 7.5751934E+00 2.6557320E+00 3.1649918E+00
  9.957E+00  3.765E-01  2.182E-01 7.5519621E+00 2.6216835E+00 3.2875259E+00
  1.000E+01  3.198E-01  2.669E-01 7.5776043E+00 2.8102082E+00 3.0286726E+00
  9.957E+00  3.383E-01  2.502E-01 7.5645737E+00 2.7824304E+00 3.1528696E+00
  1.000E+01  2.841E-01  3.018E-01 7.6109630E+00 2.9576310E+00 2.8847944E+00
  9.957E+00  3.018E-01  2.841E-01 7.6109764E+00 2.9360496E+00 3.0101776E+00
  1.000E+01  2.502E-01  3.383E-01 7.5645572E+00 3.0978319E+00 2.7338582E+00
  9.957E+00  2.669E-01  3.198E-01 7.5776150E+00 3.0824808E+00 2.8601344E+00
  1.000E+01  2.182E-01  3.765E-01 7.5519429E+00 3.2301392E+00 2.5759165E+00
  9.957E+00  2.340E-01  3.572E-01 7.5752013E+00 3.2212261E+00 2.7029146E+00
  1.000E+01  1.881E-01  4.163E-01 7.4577131E+00 3.3547009E+00 2.4119192E+00
  9.957E+00  2.029E-01  3.962E-01 7.5208292E+00 3.3518775E+00 2.5389383E+00
  1.000E+01  1.600E-01  4.575E-01 7.4337438E+00 3.4707765E+00 2.2416197E+00
  9.957E+00  1.738E-01  4.367E-01 7.4324268E+00 3.4745993E+00 2.3690105E+00
  1.000E+01  1.340E-01  5.000E-01 7.2876497E+00 3.5774526E+00 2.0651481E+00
  9.957E+00  1.467E-01  4.786E-01 7.3867354E+00 3.5877864E+00 2.1922046E+00
  1.000E+01  1.101E-01  5.438E-01 7.2096939E+00 3.6772015E+00 1.8857342E+00
  9.957E+00  1.218E-01  5.217E-01 7.2270138E+00 3.6926620E+00 2.0109345E+00
  1.000E+01  8.849E-02  5.887E-01 7.1197504E+00 3.7669281E+00 1.7000106E+00
  9.957E+00  9.903E-02  5.661E-01 7.1721681E+00 3.7898464E+00 1.8258926E+00
  1.000E+01  6.913E-02  6.347E-01 6.9474849E+00 3.8442930E+00 1.5067784E+00
  9.957E+00  7.852E-02  6.116E-01 7.0392766E+00 3.8745386E+00 1.6324187E+00
  1.000E+01  5.207E-02  6.815E-01 6.8410144E+00 3.9146837E+00 1.3136753E+00
  9.957E+00  6.031E-02  6.580E-01 6.8807024E+00 3.9490145E+00 1.4348881E+00
  1.000E+01  3.738E-02  7.292E-01 6.7634878E+00 3.9786136E+00 1.1214407E+00
  9.957E+00  4.443E-02  7.052E-01 6.8039086E+00 4.0179528E+00 1.2395363E+00
  1.000E+01  2.507E-02  7.775E-01 6.6601016E+00 4.0305310E+00 9.2325646E-01
  9.957E+00  3.092E-02  7.532E-01 6.7146169E+00 4.0774933E+00 1.0415360E+00
  1.000E+01  1.519E-02  8.264E-01 6.5534601E+00 4.0696504E+00 7.1871555E-01
  9.957E+00  1.983E-02  8.019E-01 6.6062139E+00 4.1234814E+00 8.3609768E-01
  1.000E+01  7.761E-03  8.757E-01 6.4703252E+00 4.0987207E+00 5.1229939E-01
  9.957E+00  1.117E-02  8.510E-01 6.5071901E+00 4.1579140E+00 6.2642780E-01
  1.000E+01  2.796E-03  9.253E-01 6.4176468E+00 4.1188881E+00 3.0683559E-01
  9.957E+00  4.969E-03  9.004E-01 6.4386952E+00 4.1829658E+00 4.1669767E-01
  1.000E+01  3.108E-04  9.751E-01 6.3929797E+00 4.1293870E+00 1.0220220E-01
  9.957E+00  1.243E-03  9.502E-01 6.4025912E+00 4.1987005E+00 2.0808740E-01
  1.000E+01  3.108E-04  1.025E+00 6.3929793E+00 4.1293882E+00 -1.0220239E-01
  9.957E+00  0.000E+00  1.000E+00 6.3918118E+00 4.2041305E+00 -1.9582967E-07
  1.000E+01  2.796E-03  1.075E+00 6.4176455E+00 4.1188920E+00 -3.0683578E-01
  9.957E+00  1.243E-03  1.050E+00 6.4025903E+00 4.1987030E+00 -2.0808779E-01
  1.000E+01  7.761E-03  1.124E+00 6.4703230E+00 4.0987267E+00 -5.1229957E-01
  9.957E+00  4.969E-03  1.100E+00 6.4386933E+00 4.1829713E+00 -4.1669807E-01
  1.000E+01  1.519E-02  1.174E+00 6.5534570E+00 4.0696532E+00 -7.1871573E-01
  9.957E+00  1.117E-02  1.149E+00 6.5071874E+00 4.1579194E+00 -6.2642820E-01
  1.000E+01  2.507E-02  1.223E+00 6.6600977E+00 4.0305239E+00 -9.2325663E-01
  9.957E+00  1.983E-02  1.198E+00 6.6062103E+00 4.1234793E+00 -8.3609805E-01
  1.000E+01  3.738E-02  1.271E+00 6.7634831E+00 3.9786064E+00 -1.1214409E+00
  9.957E+00  3.092E-02  1.247E+00 6.7146125E+00 4.0774833E+00 -1.0415364E+00
  1.000E+01  5.207E-02  1.318E+00 6.8410090E+00 3.9146968E+00 -1.3136756E+00
  9.957E+00  4.443E-02  1.295E+00 6.8039034E+00 4.0179544E+00 -1.2395367E+00
  1.000E+01  6.913E-02  1.365E+00 6.9474786E+00 3.8443035E+00 -1.5067787E+00
  9.957E+00  6.031E-02  1.342E+00 6.8806965E+00 3.9490330E+00 -1.4348886E+00
  1.000E+01  8.849E-02  1.411E+00 7.1197437E+00 3.7669118E+00 -1.7000107E+00
  9.957E+00  7.852E-02  1.388E+00 7.0392701E+00 3.8745326E+00 -1.6324193E+00
  1.000E+01  1.101E-01  1.456E+00 7.2096863E+00 3.6772069E+00 -1.8857344E+00
  9.957E+00  9.903E-02  1.434E+00 7.1721610E+00 3.7898356E+00 -1.8258928E+00
  1.000E+01  1.340E-01  1.500E+00 7.2876415E+00 3.5774629E+00 -2.0651484E+00
  9.957E+00  1.218E-01  1.478E+00 7.2270059E+00 3.6926793E+00 -2.0109352E+00
  1.000E+01  1.600E-01  1.543E+00 7.4337351E+00 3.4707647E+00 -2.2416196E+00
  9.957E+00  1.467E-01  1.521E+00 7.3867268E+00 3.5877802E+00 -2.1922048E+00
  1.000E+01  1.881E-01  1.584E+00 7.4577039E+00 3.3547071E+00 -2.4119197E+00
  9.957E+00  1.738E-01  1.563E+00 7.4324178E+00 3.4745965E+00 -2.3690110E+00
  1.000E+01  2.182E-01  1.623E+00 7.5519333E+00 3.2301355E+00 -2.5759166E+00
  9.957E+00  2.029E-01  1.604E+00 7.5208196E+00 3.3518813E+00 -2.5389387E+00
  1.000E+01  2.502E-01  1.662E+00 7.5645472E+00 3.0978308E+00 -2.7338584E+00
  9.957E+00  2.340E-01  1.643E+00 7.5751913E+00 3.2212201E+00 -2.7029148E+00
  1.000E+01  2.841E-01  1.698E+00 7.6109525E+00 2.9576304E+00 -2.8847945E+00
  9.957E+00  2.669E-01  1.680E+00 7.5776047E+00 3.0824834E+00 -2.8601349E+00
  1.000E+01  3.198E-01  1.733E+00 7.5775936E+00 2.8102063E+00 -3.0286728E+00
  9.957E+00  3.018E-01  1.716E+00 7.6109660E+00 2.9360462E+00 -3.0101778E+00
  1.000E+01  3.572E-01  1.766E+00 7.5751828E+00 2.6557324E+00 -3.1649920E+00
  9.957E+00  3.383E-01  1.750E+00 7.5645629E+00 2.7824309E+00 -3.1528700E+00
  1.000E+01  3.962E-01  1.797E+00 7.5208135E+00 2.4946182E+00 -3.2933667E+00
  9.957E+00  3.765E-01  1.782E+00 7.5519509E+00 2.6216820E+00 -3.2875261E+00
  1.000E+01  4.367E-01  1.826E+00 7.4324143E+00 2.3276573E+00 -3.4139420E+00
  9.957E+00  4.163E-01  1.812E+00 7.4577237E+00 2.4547722E+00 -3.4143051E+00
  1.000E+01  4.786E-01  1.853E+00 7.3867266E+00 2.1539373E+00 -3.5251523E+00
  9.957E+00  4.575E-01  1.840E+00 7.4337577E+00 2.2814468E+00 -3.5324337E+00
  1.000E+01  5.217E-01  1.878E+00 7.2270077E+00 1.9758317E+00 -3.6282081E+00
  9.957E+00  5.000E-01  1.866E+00 7.2876675E+00 2.1018409E+00 -3.6410175E+00
  1.000E+01  5.661E-01  1.901E+00 7.1721648E+00 1.7940193E+00 -3.7236818E+00
  9.957E+00  5.438E-01  1.890E+00 7.2097137E+00 1.9192375E+00 -3.7425351E+00
  1.000E+01  6.116E-01  1.921E+00 7.0392773E+00 1.6039248E+00 -3.8068988E+00
  9.957E+00  5.887E-01  1.912E+00 7.1197718E+00 1.7302136E+00 -3.8338439E+00
  1.000E+01  6.580E-01  1.940E+00 6.8807072E+00 1.4098410E+00 -3.8800875E+00
  9.957E+00  6.347E-01  1.931E+00 6.9475091E+00 1.5335499E+00 -3.9125996E+00
  1.000E+01  7.052E-01  1.956E+00 6.8039159E+00 1.2178980E+00 -3.9478133E+00
  9.957E+00  6.815E-01  1.948E+00 6.8410402E+00 1.3370158E+00 -3.9842431E+00
  1.000E+01  7.532E-01  1.969E+00 6.7146247E+00 1.0233539E+00 -4.0063064E+00
  9.957E+00  7.292E-01  1.963E+00 6.7635139E+00 1.1413653E+00 -4.0492955E+00
  1.000E+01  8.019E-01  1.980E+00 6.6062228E+00 8.2150414E-01 -4.0514963E+00
  9.957E+00  7.775E-01  1.975E+00 6.6601293E+00 9.3966003E-01 -4.1021343E+00
  1.000E+01  8.510E-01  1.989E+00 6.5072011E+00 6.1549513E-01 -4.0853342E+00
  9.957E+00  8.264E-01  1.985E+00 6.5534909E+00 7.3148573E-01 -4.1419565E+00
  1.000E+01  9.004E-01  1.995E+00 6.4387074E+00 4.0942529E-01 -4.1099489E+00
  9.957E+00  8.757E-01  1.992E+00 6.4703587E+00 5.2140131E-01 -4.1715477E+00
  1.000E+01  9.502E-01  1.999E+00 6.4026039E+00 2.0445548E-01 -4.1254052E+00
  9.957E+00  9.253E-01  1.997E+00 6.4176805E+00 3.1228644E-01 -4.1920709E+00
  1.000E+01  1.000E+00  2.000E+00 6.3918236E+00 2.7480779E-07 -4.1307365E+00
  9.957E+00  9.751E-01  2.000E+00 6.3930126E+00 1.0401783E-01 -4.2027518E+00
  1.000E+01  1.050E+00  1.999E+00 6.4026037E+00 -2.0445437E-01 -4.1254052E+00
  9.957E+00  1.025E+00  2.000E+00 6.3930125E+00 -1.0401668E-01 -4.2027519E+00
  1.000E+01  1.100E+00  1.995E+00 6.4387069E+00 -4.0942452E-01 -4.1099490E+00
  9.957E+00  1.075E+00  1.997E+00 6.4176802E+00 -3.1228495E-01 -4.1920709E+00
  1.000E+01  1.149E+00  1.989E+00 6.5072004E+00 -6.1549436E-01 -4.0853342E+00
  9.957E+00  1.124E+00  1.992E+00 6.4703582E+00 -5.2140037E-01 -4.1715478E+00
  1.000E+01  1.198E+00  1.980E+00 6.6062220E+00 -8.2150312E-01 -4.0514964E+00
  9.957E+00  1.174E+00  1.985E+00 6.5534902E+00 -7.3148430E-01 -4.1419566E+00