# TIME = 6.000000
VARIABLES = X, Y, Z, FX, FY, FZ
ZONE N=29232 E=58212 F=FEPOINT ET=TRIANGLE
  0.000E+00  9.502E-01  1.243E-03 6.7451103E+00 3.8316471E-01 7.7325680E+00
  0.000E+00  1.000E+00  0.000E+00 6.7344210E+00 1.7024009E-06 7.7425721E+00
  4.318E-02  9.751E-01  3.108E-04 6.6791672E+00 1.9065165E-01 7.7041557E+00
  0.000E+00  1.050E+00  1.243E-03 6.7451098E+00 -3.8316149E-01 7.7325683E+00
  4.318E-02  1.025E+00  3.108E-04 6.6791669E+00 -1.9064820E-01 7.7041559E+00
  0.000E+00  1.100E+00  4.969E-03 6.7811563E+00 -7.6727743E-01 7.7036303E+00
  4.318E-02  1.075E+00  2.796E-03 6.7038105E+00 -5.7237539E-01 7.6846133E+00
  0.000E+00  1.149E+00  1.117E-02 6.8500939E+00 -1.1534995E+00 7.6576223E+00
  4.318E-02  1.124E+00  7.761E-03 6.7566602E+00 -9.5565851E-01 7.6470618E+00
  0.000E+00  1.198E+00  1.983E-02 6.9501511E+00 -1.5397157E+00 7.5942879E+00
  4.318E-02  1.174E+00  1.519E-02 6.8403764E+00 -1.3407683E+00 7.5929072E+00
  0.000E+00  1.247E+00  3.092E-02 7.0592958E+00 -1.9182356E+00 7.5094297E+00
  4.318E-02  1.223E+00  2.507E-02 6.9478618E+00 -1.7224916E+00 7.5199219E+00
  0.000E+00  1.295E+00  4.443E-02 7.1476944E+00 -2.2830356E+00 7.3994661E+00
  4.318E-02  1.271E+00  3.738E-02 7.0513726E+00 -2.0924225E+00 7.4228397E+00
  0.000E+00  1.342E+00  6.031E-02 7.2223387E+00 -2.6428412E+00 7.2726084E+00
  4.318E-02  1.318E+00  5.207E-02 7.1274376E+00 -2.4511551E+00 7.3033351E+00
  0.000E+00  1.388E+00  7.852E-02 7.3829899E+00 -3.0065830E+00 7.1359351E+00
  4.318E-02  1.365E+00  6.913E-02 7.2333194E+00 -2.8113758E+00 7.1724100E+00
  0.000E+00  1.434E+00  9.903E-02 7.5170932E+00 -3.3628220E+00 6.9794186E+00
  4.318E-02  1.411E+00  8.849E-02 7.4080429E+00 -3.1719137E+00 7.0281956E+00
  0.000E+00  1.478E+00  1.218E-01 7.5690340E+00 -3.7037110E+00 6.8003431E+00
  4.318E-02  1.456E+00  1.101E-01 7.4972137E+00 -3.5184005E+00 6.8601952E+00
  0.000E+00  1.521E+00  1.467E-01 7.7316936E+00 -4.0376158E+00 6.6078446E+00
  4.318E-02  1.500E+00  1.340E-01 7.5738982E+00 -3.8531260E+00 6.6745115E+00
  0.000E+00  1.563E+00  1.738E-01 7.7758999E+00 -4.3629103E+00 6.3984995E+00
  4.318E-02  1.543E+00  1.600E-01 7.7223667E+00 -4.1824052E+00 6.4754661E+00
  0.000E+00  1.604E+00  2.029E-01 7.8648588E+00 -4.6762607E+00 6.1733436E+00
  4.318E-02  1.584E+00  1.881E-01 7.7441618E+00 -4.5000987E+00 6.2586614E+00
  0.000E+00  1.643E+00  2.340E-01 7.9199495E+00 -4.9778694E+00 5.9320797E+00
  4.318E-02  1.623E+00  2.182E-01 7.8399703E+00 -4.8059464E+00 6.0265209E+00
  0.000E+00  1.680E+00  2.669E-01 7.9208864E+00 -5.2675702E+00 5.6770479E+00
  4.318E-02  1.662E+00  2.502E-01 7.8514908E+00 -5.1008023E+00 5.7794923E+00
  0.000E+00  1.716E+00  3.018E-01 7.9558266E+00 -5.5438337E+00 5.4069914E+00
  4.318E-02  1.698E+00  2.841E-01 7.8992462E+00 -5.3821073E+00 5.5180340E+00
  0.000E+00  1.750E+00  3.383E-01 7.9078502E+00 -5.8064650E+00 5.1243958E+00
  4.318E-02  1.733E+00  3.198E-01 7.8645991E+00 -5.6508568E+00 5.2430312E+00
  0.000E+00  1.782E+00  3.765E-01 7.8965820E+00 -6.0546500E+00 4.8281328E+00
  4.318E-02  1.766E+00  3.572E-01 7.8634404E+00 -5.9047372E+00 4.9546727E+00
  0.000E+00  1.812E+00  4.163E-01 7.8005225E+00 -6.2878100E+00 4.5208688E+00
  4.318E-02  1.797E+00  3.962E-01 7.8085088E+00 -6.1447922E+00 4.6544061E+00
  0.000E+00  1.840E+00  4.575E-01 7.7791826E+00 -6.5056286E+00 4.2016999E+00
  4.318E-02  1.826E+00  4.367E-01 7.7196349E+00 -6.3689835E+00 4.3425524E+00
  0.000E+00  1.866E+00  5.000E-01 7.6303057E+00 -6.7055839E+00 3.8708793E+00
  4.318E-02  1.853E+00  4.786E-01 7.6752310E+00 -6.5772156E+00 4.0187154E+00
  0.000E+00  1.890E+00  5.438E-01 7.5539273E+00 -6.8920468E+00 3.5346015E+00
  4.318E-02  1.878E+00  5.217E-01 7.5130409E+00 -6.7689108E+00 3.6863717E+00
  0.000E+00  1.912E+00  5.887E-01 7.4649349E+00 -7.0608784E+00 3.1865129E+00
  4.318E-02  1.901E+00  5.661E-01 7.4606467E+00 -6.9470858E+00 3.3470737E+00
  0.000E+00  1.931E+00  6.347E-01 7.2897882E+00 -7.2057284E+00 2.8243047E+00
  4.318E-02  1.921E+00  6.116E-01 7.3267587E+00 -7.1027922E+00 2.9924812E+00
  0.000E+00  1.948E+00  6.815E-01 7.1840742E+00 -7.3371830E+00 2.4624314E+00
  4.318E-02  1.940E+00  6.580E-01 7.1664343E+00 -7.2388992E+00 2.6304299E+00
  0.000E+00  1.963E+00  7.292E-01 7.1083253E+00 -7.4572527E+00 2.1020370E+00
  4.318E-02  1.956E+00  7.052E-01 7.0914472E+00 -7.3651384E+00 2.2723037E+00
  0.000E+00  1.975E+00  7.775E-01 7.0048194E+00 -7.5548034E+00 1.7303825E+00
  4.318E-02  1.969E+00  7.532E-01 7.0029153E+00 -7.4745248E+00 1.9092276E+00
  0.000E+00  1.985E+00  8.264E-01 6.8971957E+00 -7.6281131E+00 1.3468923E+00
  4.318E-02  1.980E+00  8.019E-01 6.8938958E+00 -7.5589629E+00 1.5325022E+00
  0.000E+00  1.992E+00  8.757E-01 6.8133840E+00 -7.6824900E+00 9.6001620E-01
  4.318E-02  1.989E+00  8.510E-01 6.7940058E+00 -7.6220071E+00 1.1481045E+00
  0.000E+00  1.997E+00  9.253E-01 6.7605132E+00 -7.7201982E+00 5.7498325E-01
  4.318E-02  1.995E+00  9.004E-01 6.7251410E+00 -7.6678095E+00 7.6368962E-01
  0.000E+00  2.000E+00  9.751E-01 6.7358806E+00 -7.7398253E+00 1.9151670E-01
  4.318E-02  1.999E+00  9.502E-01 6.6890899E+00 -7.6966156E+00 3.8136790E-01
  0.000E+00  2.000E+00  1.025E+00 6.7358802E+00 -7.7398229E+00 -1.9152020E-01
  4.318E-02  2.000E+00  1.000E+00 6.6783880E+00 -7.7065703E+00 -1.7789693E-06
  0.000E+00  1.997E+00  1.075E+00 6.7605121E+00 -7.7201903E+00 -5.7498675E-01
  4.318E-02  1.999E+00  1.050E+00 6.6890893E+00 -7.6966109E+00 -3.8137145E-01
  0.000E+00  1.992E+00  1.124E+00 6.8133822E+00 -7.6824778E+00 -9.6001972E-01
  4.318E-02  1.995E+00  1.100E+00 6.7251397E+00 -7.6677988E+00 -7.6369317E-01
  0.000E+00  1.985E+00  1.174E+00 6.8971932E+00 -7.6281067E+00 -1.3468958E+00
  4.318E-02  1.989E+00  1.149E+00 6.7940039E+00 -7.6219962E+00 -1.1481081E+00
  0.000E+00  1.975E+00  1.223E+00 7.0048163E+00 -7.5548166E+00 -1.7303861E+00
  4.318E-02  1.980E+00  1.198E+00 6.8938933E+00 -7.5589660E+00 -1.5325058E+00
  0.000E+00  1.963E+00  1.271E+00 7.1083217E+00 -7.4572677E+00 -2.1020406E+00
  4.318E-02  1.969E+00  1.247E+00 7.0029122E+00 -7.4745435E+00 -1.9092312E+00
  0.000E+00  1.948E+00  1.318E+00 7.1840699E+00 -7.3371608E+00 -2.4624350E+00
  4.318E-02  1.956E+00  1.295E+00 7.0914434E+00 -7.3651371E+00 -2.2723073E+00
  0.000E+00  1.931E+00  1.365E+00 7.2897834E+00 -7.2057095E+00 -2.8243083E+00
  4.318E-02  1.940E+00  1.342E+00 7.1664299E+00 -7.2388665E+00 -2.6304334E+00
  0.000E+00  1.912E+00  1.411E+00 7.4649289E+00 -7.0609082E+00 -3.1865165E+00
  4.318E-02  1.921E+00  1.388E+00 7.3267540E+00 -7.1028036E+00 -2.9924852E+00
  0.000E+00  1.890E+00  1.456E+00 7.5539215E+00 -6.8920377E+00 -3.5346054E+00
  4.318E-02  1.901E+00  1.434E+00 7.4606414E+00 -6.9471065E+00 -3.3470776E+00
  0.000E+00  1.866E+00  1.500E+00 7.6302995E+00 -6.7055647E+00 -3.8708830E+00
  4.318E-02  1.878E+00  1.478E+00 7.5130350E+00 -6.7688798E+00 -3.6863751E+00
  0.000E+00  1.840E+00  1.543E+00 7.7791759E+00 -6.5056516E+00 -4.2017045E+00
  4.318E-02  1.853E+00  1.521E+00 7.6752247E+00 -6.5772270E+00 -4.0187198E+00
  0.000E+00  1.812E+00  1.584E+00 7.8005153E+00 -6.2878000E+00 -4.5208725E+00
  4.318E-02  1.826E+00  1.563E+00 7.7196281E+00 -6.3689899E+00 -4.3425563E+00
  0.000E+00  1.782E+00  1.623E+00 7.8965744E+00 -6.0546577E+00 -4.8281374E+00
  4.318E-02  1.797E+00  1.604E+00 7.8085017E+00 -6.1447863E+00 -4.6544103E+00
  0.000E+00  1.750E+00  1.662E+00 7.9078423E+00 -5.8064672E+00 -5.1244002E+00
  4.318E-02  1.766E+00  1.643E+00 7.8634329E+00 -5.9047484E+00 -4.9546772E+00
  0.000E+00  1.716E+00  1.698E+00 7.9558187E+00 -5.5438358E+00 -5.4069962E+00
  4.318E-02  1.733E+00  1.680E+00 7.8645912E+00 -5.6508526E+00 -5.2430352E+00
  0.000E+00  1.680E+00  1.733E+00 7.9208782E+00 -5.2675754E+00 -5.6770527E+00
  4.318E-02  1.698E+00  1.716E+00 7.8992379E+00 -5.3821148E+00 -5.5180388E+00
  0.000E+00  1.643E+00  1.766E+00 7.9199409E+00 -4.9778696E+00 -5.9320847E+00
  4.318E-02  1.662E+00  1.750E+00 7.8514822E+00 -5.1008021E+00 -5.7794968E+00
  0.000E+00  1.604E+00  1.797E+00 7.8648495E+00 -4.6762627E+00 -6.1733487E+00
  4.318E-02  1.623E+00  1.782E+00 7.8399617E+00 -4.8059489E+00 -6.0265259E+00
  0.000E+00  1.563E+00  1.826E+00 7.7758901E+00 -4.3629108E+00 -6.3985046E+00
  4.318E-02  1.584E+00  1.812E+00 7.7441534E+00 -4.5000997E+00 -6.2586665E+00
  0.000E+00  1.521E+00  1.853E+00 7.7316846E+00 -4.0376175E+00 -6.6078501E+00
  4.318E-02  1.543E+00  1.840E+00 7.7223579E+00 -4.1824075E+00 -6.4754712E+00
  0.000E+00  1.478E+00  1.878E+00 7.5690260E+00 -3.7037122E+00 -6.8003490E+00
  4.318E-02  1.500E+00  1.866E+00 7.5738886E+00 -3.8531257E+00 -6.6745165E+00
  0.000E+00  1.434E+00  1.901E+00 7.5170850E+00 -3.3628273E+00 -6.9794251E+00
  4.318E-02  1.456E+00  1.890E+00 7.4972035E+00 -3.5184019E+00 -6.8602003E+00
  0.000E+00  1.388E+00  1.921E+00 7.3829796E+00 -3.0065851E+00 -7.1359419E+00
  4.318E-02  1.411E+00  1.912E+00 7.4080332E+00 -3.1719134E+00 -7.0282006E+00
  0.000E+00  1.342E+00  1.940E+00 7.2223266E+00 -2.6428432E+00 -7.2726152E+00
  4.318E-02  1.365E+00  1.931E+00 7.2333108E+00 -2.8113745E+00 -7.1724150E+00
  0.000E+00  1.295E+00  1.956E+00 7.1476824E+00 -2.2830338E+00 -7.3994721E+00
  4.318E-02  1.318E+00  1.948E+00 7.1274292E+00 -2.4511574E+00 -7.3033405E+00
  0.000E+00  1.247E+00  1.969E+00 7.0592858E+00 -1.9182298E+00 -7.5094343E+00
  4.318E-02  1.271E+00  1.963E+00 7.0513633E+00 -2.0924263E+00 -7.4228459E+00
  0.000E+00  1.198E+00  1.980E+00 6.9501427E+00 -1.5397092E+00 -7.5942914E+00
  4.318E-02  1.223E+00  1.975E+00 6.9478515E+00 -1.7224971E+00 -7.5199292E+00
  0.000E+00  1.149E+00  1.989E+00 6.8500855E+00 -1.1534946E+00 -7.6576248E+00
  4.318E-02  1.174E+00  1.985E+00 6.8403660E+00 -1.3407731E+00 -7.5929154E+00
  0.000E+00  1.100E+00  1.995E+00 6.7811469E+00 -7.6727500E-01 -7.7036324E+00
  4.318E-02  1.124E+00  1.992E+00 6.7566503E+00 -9.5566162E-01 -7.6470705E+00
  0.000E+00  1.050E+00  1.999E+00 6.7450995E+00 -3.8316071E-01 -7.7325702E+00
  4.318E-02  1.075E+00  1.997E+00 6.7038011E+00 -5.7237663E-01 -7.6846223E+00
  0.000E+00  1.000E+00  2.000E+00 6.7344104E+00 1.4817567E-06 -7.7425740E+00
  4.318E-02  1.025E+00  2.000E+00 6.6791578E+00 -1.9064867E-01 -7.7041649E+00
  0.000E+00  9.502E-01  1.999E+00 6.7451001E+00 3.8316383E-01 -7.7325700E+00
  4.318E-02  9.751E-01  2.000E+00 6.6791581E+00 1.9065178E-01 -7.7041648E+00
  0.000E+00  9.004E-01  1.995E+00 6.7811480E+00 7.6727797E-01 -7.7036319E+00
  4.318E-02  9.253E-01  1.997E+00 6.7038019E+00 5.7237988E-01 -7.6846219E+00
  0.000E+00  8.510E-01  1.989E+00 6.8500872E+00 1.1534975E+00 -7.6576241E+00
  4.318E-02  8.757E-01  1.992E+00 6.7566516E+00 9.5566459E-01 -7.6470699E+00
  0.000E+00  8.019E-01  1.980E+00 6.9501448E+00 1.5397119E+00 -7.5942904E+00
  4.318E-02  8.264E-01  1.985E+00 6.8403678E+00 1.3407762E+00 -7.5929146E+00
  0.000E+00  7.532E-01  1.969E+00 7.0592885E+00 1.9182327E+00 -7.5094331E+00
  4.318E-02  7.775E-01  1.975E+00 6.9478538E+00 1.7224999E+00 -7.5199282E+00
  0.000E+00  7.052E-01  1.956E+00 7.1476857E+00 2.2830362E+00 -7.3994707E+00
  4.318E-02  7.292E-01  1.963E+00 7.0513662E+00 2.0924294E+00 -7.4228447E+00
  0.000E+00  6.580E-01  1.940E+00 7.2223302E+00 2.6428453E+00 -7.2726136E+00
  4.318E-02  6.815E-01  1.948E+00 7.1274326E+00 2.4511593E+00 -7.3033390E+00
  0.000E+00  6.116E-01  1.921E+00 7.3829839E+00 3.0065888E+00 -7.1359403E+00
  4.318E-02  6.347E-01  1.931E+00 7.2333146E+00 2.8113780E+00 -7.1724134E+00
  0.000E+00  5.661E-01  1.901E+00 7.5170896E+00 3.3628273E+00 -6.9794230E+00
  4.318E-02  5.887E-01  1.912E+00 7.4080372E+00 3.1719153E+00 -7.0281984E+00
  0.000E+00  5.217E-01  1.878E+00 7.5690310E+00 3.7037151E+00 -6.8003469E+00
  4.318E-02  5.438E-01  1.890E+00 7.4972081E+00 3.5184028E+00 -6.8601984E+00
  0.000E+00  4.786E-01  1.853E+00 7.7316899E+00 4.0376188E+00 -6.6078478E+00
  4.318E-02  5.000E-01  1.866E+00 7.5738936E+00 3.8531290E+00 -6.6745145E+00
  0.000E+00  4.367E-01  1.826E+00 7.7758958E+00 4.3629126E+00 -6.3985023E+00
  4.318E-02  4.575E-01  1.840E+00 7.7223633E+00 4.1824085E+00 -6.4754690E+00
  0.000E+00  3.962E-01  1.797E+00 7.8648555E+00 4.6762630E+00 -6.1733462E+00
  4.318E-02  4.163E-01  1.812E+00 7.7441591E+00 4.5001018E+00 -6.2586643E+00
  0.000E+00  3.572E-01  1.766E+00 7.9199472E+00 4.9778718E+00 -5.9320822E+00
  4.318E-02  3.765E-01  1.782E+00 7.8399677E+00 4.8059492E+00 -6.0265235E+00
  0.000E+00  3.198E-01  1.733E+00 7.9208848E+00 5.2675726E+00 -5.6770503E+00
  4.318E-02  3.383E-01  1.750E+00 7.8514884E+00 5.1008047E+00 -5.7794947E+00
  0.000E+00  2.841E-01  1.698E+00 7.9558254E+00 5.5438359E+00 -5.4069936E+00
  4.318E-02  3.018E-01  1.716E+00 7.8992444E+00 5.3821094E+00 -5.5180362E+00
  0.000E+00  2.502E-01  1.662E+00 7.9078493E+00 5.8064668E+00 -5.1243978E+00
  4.318E-02  2.669E-01  1.680E+00 7.8645979E+00 5.6508587E+00 -5.2430333E+00
  0.000E+00  2.182E-01  1.623E+00 7.8965816E+00 6.0546515E+00 -4.8281347E+00
  4.318E-02  2.340E-01  1.643E+00 7.8634398E+00 5.9047390E+00 -4.9546747E+00
  0.000E+00  1.881E-01  1.584E+00 7.8005227E+00 6.2878112E+00 -4.5208706E+00
  4.318E-02  2.029E-01  1.604E+00 7.8085088E+00 6.1447937E+00 -4.6544081E+00
  0.000E+00  1.600E-01  1.543E+00 7.7791834E+00 6.5056296E+00 -4.2017017E+00
  4.318E-02  1.738E-01  1.563E+00 7.7196353E+00 6.3689848E+00 -4.3425542E+00
  0.000E+00  1.340E-01  1.500E+00 7.6303071E+00 6.7055846E+00 -3.8708811E+00
  4.318E-02  1.467E-01  1.521E+00 7.6752320E+00 6.5772166E+00 -4.0187173E+00
  0.000E+00  1.101E-01  1.456E+00 7.5539292E+00 6.8920472E+00 -3.5346033E+00
  4.318E-02  1.218E-01  1.478E+00 7.5130424E+00 6.7689115E+00 -3.6863736E+00
  0.000E+00  8.849E-02  1.411E+00 7.4649372E+00 7.0608782E+00 -3.1865145E+00
  4.318E-02  9.903E-02  1.434E+00 7.4606489E+00 6.9470864E+00 -3.3470756E+00
  0.000E+00  6.913E-02  1.365E+00 7.2897913E+00 7.2057283E+00 -2.8243066E+00
  4.318E-02  7.852E-02  1.388E+00 7.3267614E+00 7.1027925E+00 -2.9924832E+00
  0.000E+00  5.207E-02  1.318E+00 7.1840779E+00 7.3371826E+00 -2.4624334E+00
  4.318E-02  6.031E-02  1.342E+00 7.1664376E+00 7.2388992E+00 -2.6304320E+00
  0.000E+00  3.738E-02  1.271E+00 7.1083297E+00 7.4572520E+00 -2.1020392E+00
  4.318E-02  4.443E-02  1.295E+00 7.0914511E+00 7.3651382E+00 -2.2723059E+00
  0.000E+00  2.507E-02  1.223E+00 7.0048243E+00 7.5548024E+00 -1.7303848E+00
  4.318E-02  3.092E-02  1.247E+00 7.0029199E+00 7.4745244E+00 -1.9092300E+00
  0.000E+00  1.519E-02  1.174E+00 6.8972013E+00 7.6281119E+00 -1.3468948E+00
  4.318E-02  1.983E-02  1.198E+00 6.8939011E+00 7.5589623E+00 -1.5325047E+00
  0.000E+00  7.761E-03  1.124E+00 6.8133903E+00 7.6824886E+00 -9.6001888E-01
  4.318E-02  1.117E-02  1.149E+00 6.7940118E+00 7.6220063E+00 -1.1481072E+00
  0.000E+00  2.796E-03  1.075E+00 6.7605202E+00 7.7201965E+00 -5.7498616E-01
  4.318E-02  4.969E-03  1.100E+00 6.7251476E+00 7.6678084E+00 -7.6369251E-01
  0.000E+00  3.108E-04  1.025E+00 6.7358883E+00 7.7398234E+00 -1.9151985E-01
  4.318E-02  1.243E-03  1.050E+00 6.6890972E+00 7.6966144E+00 -3.8137100E-01
  0.000E+00  3.108E-04  9.751E-01 6.7358887E+00 7.7398209E+00 1.9151680E-01
  4.318E-02  0.000E+00  1.000E+00 6.6783959E+00 7.7065689E+00 -1.5628170E-06
  0.000E+00  2.796E-03  9.253E-01 6.7605214E+00 7.7201881E+00 5.7498309E-01
  4.318E-02  1.243E-03  9.502E-01 6.6890978E+00 7.6966093E+00 3.8136787E-01
  0.000E+00  7.761E-03  8.757E-01 6.8133922E+00 7.6824756E+00 9.6001578E-01
  4.318E-02  4.969E-03  9.004E-01 6.7251489E+00 7.6677971E+00 7.6368934E-01
  0.000E+00  1.519E-02  8.264E-01 6.8972039E+00 7.6281044E+00 1.3468916E+00
  4.318E-02  1.117E-02  8.510E-01 6.7940137E+00 7.6219944E+00 1.1481040E+00
  0.000E+00  2.507E-02  7.775E-01 7.0048276E+00 7.5548142E+00 1.7303816E+00
  4.318E-02  1.983E-02  8.019E-01 6.8939038E+00 7.5589642E+00 1.5325015E+00
  0.000E+00  3.738E-02  7.292E-01 7.1083335E+00 7.4572652E+00 2.1020358E+00
  4.318E-02  3.092E-02  7.532E-01 7.0029232E+00 7.4745417E+00 1.9092266E+00
  0.000E+00  5.207E-02  6.815E-01 7.1840823E+00 7.3371583E+00 2.4624298E+00
  4.318E-02  4.443E-02  7.052E-01 7.0914551E+00 7.3651352E+00 2.2723024E+00
  0.000E+00  6.913E-02  6.347E-01 7.2897963E+00 7.2057070E+00 2.8243028E+00
  4.318E-02  6.031E-02  6.580E-01 7.1664421E+00 7.2388646E+00 2.6304283E+00
  0.000E+00  8.849E-02  5.887E-01 7.4649424E+00 7.0609062E+00 3.1865109E+00
  4.318E-02  7.852E-02  6.116E-01 7.3267666E+00 7.1028017E+00 2.9924797E+00
  0.000E+00  1.101E-01  5.438E-01 7.5539353E+00 6.8920353E+00 3.5345993E+00
  4.318E-02  9.903E-02  5.661E-01 7.4606546E+00 6.9471048E+00 3.3470719E+00
  0.000E+00  1.340E-01  5.000E-01 7.6303136E+00 6.7055626E+00 3.8708767E+00
  4.318E-02  1.218E-01  5.217E-01 7.5130485E+00 6.7688782E+00 3.6863692E+00
  0.000E+00  1.600E-01  4.575E-01 7.7791904E+00 6.5056496E+00 4.2016979E+00
  4.318E-02  1.467E-01  4.786E-01 7.6752386E+00 6.5772255E+00 4.0187136E+00
  0.000E+00  1.881E-01  4.163E-01 7.8005301E+00 6.2877982E+00 4.5208657E+00
  4.318E-02  1.738E-01  4.367E-01 7.7196423E+00 6.3689886E+00 4.3425499E+00
  0.000E+00  2.182E-01  3.765E-01 7.8965894E+00 6.0546561E+00 4.8281304E+00
  4.318E-02  2.029E-01  3.962E-01 7.8085161E+00 6.1447851E+00 4.6544037E+00
  0.000E+00  2.502E-01  3.383E-01 7.9078574E+00 5.8064658E+00 5.1243929E+00
  4.318E-02  2.340E-01  3.572E-01 7.8634475E+00 5.9047475E+00 4.9546704E+00
  0.000E+00  2.841E-01  3.018E-01 7.9558337E+00 5.5438345E+00 5.4069887E+00
  4.318E-02  2.669E-01  3.198E-01 7.8646060E+00 5.6508520E+00 5.2430283E+00
  0.000E+00  3.198E-01  2.669E-01 7.9208931E+00 5.2675744E+00 5.6770451E+00
  4.318E-02  3.018E-01  2.841E-01 7.8992529E+00 5.3821144E+00 5.5180317E+00
  0.000E+00  3.572E-01  2.340E-01 7.9199560E+00 4.9778691E+00 5.9320770E+00
  4.318E-02  3.383E-01  2.502E-01 7.8514972E+00 5.1008020E+00 5.7794896E+00
  0.000E+00  3.962E-01  2.029E-01 7.8648650E+00 4.6762629E+00 6.1733410E+00
  4.318E-02  3.765E-01  2.182E-01 7.8399764E+00 4.8059489E+00 6.0265185E+00
  0.000E+00  4.367E-01  1.738E-01 7.7759057E+00 4.3629113E+00 6.3984969E+00
  4.318E-02  4.163E-01  1.881E-01 7.7441677E+00 4.5000998E+00 6.2586589E+00
  0.000E+00  4.786E-01  1.467E-01 7.7316991E+00 4.0376179E+00 6.6078422E+00
  4.318E-02  4.575E-01  1.600E-01 7.7223722E+00 4.1824079E+00 6.4754638E+00
  0.000E+00  5.217E-01  1.218E-01 7.5690391E+00 3.7037120E+00 6.8003407E+00
  4.318E-02  5.000E-01  1.340E-01 7.5739034E+00 3.8531268E+00 6.6745092E+00
  0.000E+00  5.661E-01  9.903E-02 7.5170979E+00 3.3628263E+00 6.9794163E+00
  4.318E-02  5.438E-01  1.101E-01 7.4972185E+00 3.5184041E+00 6.8601932E+00
  0.000E+00  6.116E-01  7.852E-02 7.3829942E+00 3.0065841E+00 7.1359330E+00
  4.318E-02  5.887E-01  8.849E-02 7.4080470E+00 3.1719164E+00 7.0281933E+00
  0.000E+00  6.580E-01  6.031E-02 7.2223425E+00 2.6428442E+00 7.2726066E+00
  4.318E-02  6.347E-01  6.913E-02 7.2333233E+00 2.8113776E+00 7.1724083E+00
  0.000E+00  7.052E-01  4.443E-02 7.1476977E+00 2.2830386E+00 7.3994645E+00
  4.318E-02  6.815E-01  5.207E-02 7.1274410E+00 2.4511587E+00 7.3033335E+00
  0.000E+00  7.532E-01  3.092E-02 7.0592986E+00 1.9182383E+00 7.5094283E+00
  4.318E-02  7.292E-01  3.738E-02 7.0513756E+00 2.0924252E+00 7.4228383E+00
  0.000E+00  8.019E-01  1.983E-02 6.9501533E+00 1.5397189E+00 7.5942868E+00
  4.318E-02  7.775E-01  2.507E-02 6.9478643E+00 1.7224948E+00 7.5199208E+00
  0.000E+00  8.510E-01  1.117E-02 6.8500956E+00 1.1535027E+00 7.6576214E+00
  4.318E-02  8.264E-01  1.519E-02 6.8403784E+00 1.3407715E+00 7.5929063E+00
  0.000E+00  9.004E-01  4.969E-03 6.7811574E+00 7.6728072E-01 7.7036297E+00
  4.318E-02  8.757E-01  7.761E-03 6.7566616E+00 9.5566196E-01 7.6470611E+00
  4.318E-02  9.253E-01  2.796E-03 6.7038113E+00 5.7237864E-01 7.6846129E+00
  1.000E+01  1.050E+00  1.243E-03 6.7451098E+00 -3.8316149E-01 7.7325683E+00
  1.000E+01  1.000E+00  5.551E-16 6.7344210E+00 1.7024009E-06 7.7425721E+00
  9.957E+00  1.025E+00  3.108E-04 6.8006677E+00 -1.9215193E-01 7.7652480E+00
  1.000E+01  9.502E-01  1.243E-03 6.7451103E+00 3.8316471E-01 7.7325680E+00
  9.957E+00  9.751E-01  3.108E-04 6.8006680E+00 1.9215513E-01 7.7652479E+00
  1.000E+01  9.004E-01  4.969E-03 6.7811574E+00 7.6728072E-01 7.7036297E+00
  9.957E+00  9.253E-01  2.796E-03 6.8252994E+00 5.7689345E-01 7.7455605E+00
  1.000E+01  8.510E-01  1.117E-02 6.8500956E+00 1.1535027E+00 7.6576214E+00
  9.957E+00  8.757E-01  7.761E-03 6.8782130E+00 9.6320344E-01 7.7077322E+00
  1.000E+01  8.019E-01  1.983E-02 6.9501533E+00 1.5397189E+00 7.5942868E+00
  9.957E+00  8.264E-01  1.519E-02 6.9621554E+00 1.3513662E+00 7.6531784E+00
  1.000E+01  7.532E-01  3.092E-02 7.0592986E+00 1.9182383E+00 7.5094283E+00
  9.957E+00  7.775E-01  2.507E-02 7.0699660E+00 1.7361462E+00 7.5796219E+00
  1.000E+01  7.052E-01  4.443E-02 7.1476977E+00 2.2830386E+00 7.3994645E+00
  9.957E+00  7.292E-01  3.738E-02 7.1735070E+00 2.1090628E+00 7.4816992E+00
  1.000E+01  6.580E-01  6.031E-02 7.2223425E+00 2.6428442E+00 7.2726066E+00
  9.957E+00  6.815E-01  5.207E-02 7.2489458E+00 2.4706656E+00 7.3611525E+00
  1.000E+01  6.116E-01  7.852E-02 7.3829942E+00 3.0065841E+00 7.1359330E+00
  9.957E+00  6.347E-01  6.913E-02 7.3545190E+00 2.8337232E+00 7.2293037E+00
  1.000E+01  5.661E-01  9.903E-02 7.5170979E+00 3.3628263E+00 6.9794163E+00
  9.957E+00  5.887E-01  8.849E-02 7.5302053E+00 3.1971279E+00 7.0840054E+00
  1.000E+01  5.217E-01  1.218E-01 7.5690391E+00 3.7037120E+00 6.8003407E+00
  9.957E+00  5.438E-01  1.101E-01 7.6190636E+00 3.5463510E+00 6.9144701E+00
  1.000E+01  4.786E-01  1.467E-01 7.7316991E+00 4.0376179E+00 6.6078422E+00
  9.957E+00  5.000E-01  1.340E-01 7.6951595E+00 3.8837225E+00 6.7274257E+00
  1.000E+01  4.367E-01  1.738E-01 7.7759057E+00 4.3629113E+00 6.3984969E+00
  9.957E+00  4.575E-01  1.600E-01 7.8445717E+00 4.2156301E+00 6.5268152E+00
  1.000E+01  3.962E-01  2.029E-01 7.8648650E+00 4.6762629E+00 6.1733410E+00
  9.957E+00  4.163E-01  1.881E-01 7.8654664E+00 4.5358168E+00 6.3081893E+00
  1.000E+01  3.572E-01  2.340E-01 7.9199560E+00 4.9778691E+00 5.9320770E+00
  9.957E+00  3.765E-01  2.182E-01 7.9618916E+00 4.8440586E+00 6.0742984E+00
  1.000E+01  3.198E-01  2.669E-01 7.9208931E+00 5.2675744E+00 5.6770451E+00
  9.957E+00  3.383E-01  2.502E-01 7.9729501E+00 5.1412937E+00 5.8252420E+00
  1.000E+01  2.841E-01  3.018E-01 7.9558337E+00 5.5438345E+00 5.4069887E+00
  9.957E+00  3.018E-01  2.841E-01 8.0212634E+00 5.4247539E+00 5.5617511E+00
  1.000E+01  2.502E-01  3.383E-01 7.9078574E+00 5.8064658E+00 5.1243929E+00
  9.957E+00  2.669E-01  3.198E-01 7.9860647E+00 5.6957055E+00 5.2845718E+00
  1.000E+01  2.182E-01  3.765E-01 7.8965894E+00 6.0546561E+00 4.8281304E+00
  9.957E+00  2.340E-01  3.572E-01 7.9854668E+00 5.9514857E+00 4.9938842E+00
  1.000E+01  1.881E-01  4.163E-01 7.8005301E+00 6.2877982E+00 4.5208657E+00
  9.957E+00  2.029E-01  3.962E-01 7.9302672E+00 6.1935850E+00 4.6913312E+00
  1.000E+01  1.600E-01  4.575E-01 7.7791904E+00 6.5056496E+00 4.2016979E+00
  9.957E+00  1.738E-01  4.367E-01 7.8412919E+00 6.4193307E+00 4.3768920E+00
  1.000E+01  1.340E-01  5.000E-01 7.6303136E+00 6.7055626E+00 3.8708767E+00
  9.957E+00  1.467E-01  4.786E-01 7.7973811E+00 6.6294566E+00 4.0505800E+00
  1.000E+01  1.101E-01  5.438E-01 7.5539353E+00 6.8920353E+00 3.5345993E+00
  9.957E+00  1.218E-01  5.217E-01 7.6342534E+00 6.8224231E+00 3.7155747E+00
  1.000E+01  8.849E-02  5.887E-01 7.4649424E+00 7.0609062E+00 3.1865109E+00
  9.957E+00  9.903E-02  5.661E-01 7.5829035E+00 7.0021060E+00 3.3735714E+00
  1.000E+01  6.913E-02  6.347E-01 7.2897963E+00 7.2057070E+00 2.8243028E+00
  9.957E+00  7.852E-02  6.116E-01 7.4486059E+00 7.1591651E+00 3.0161909E+00
  1.000E+01  5.207E-02  6.815E-01 7.1840823E+00 7.3371583E+00 2.4624298E+00
  9.957E+00  6.031E-02  6.580E-01 7.2876304E+00 7.2961495E+00 2.6512856E+00
  1.000E+01  3.738E-02  7.292E-01 7.1083335E+00 7.4572652E+00 2.1020358E+00
  9.957E+00  4.443E-02  7.052E-01 7.2134342E+00 7.4234049E+00 2.2903206E+00
  1.000E+01  2.507E-02  7.775E-01 7.0048276E+00 7.5548142E+00 1.7303816E+00
  9.957E+00  3.092E-02  7.532E-01 7.1252363E+00 7.5337627E+00 1.9243312E+00
  1.000E+01  1.519E-02  8.264E-01 6.8972039E+00 7.6281044E+00 1.3468916E+00
  9.957E+00  1.983E-02  8.019E-01 7.0159815E+00 7.6188849E+00 1.5445807E+00
  1.000E+01  7.761E-03  8.757E-01 6.8133922E+00 7.6824756E+00 9.6001578E-01
  9.957E+00  1.117E-02  8.510E-01 6.9157544E+00 7.6823798E+00 1.1571292E+00
  1.000E+01  2.796E-03  9.253E-01 6.7605214E+00 7.7201881E+00 5.7498309E-01
  9.957E+00  4.969E-03  9.004E-01 6.8467496E+00 7.7285054E+00 7.6968974E-01
  1.000E+01  3.108E-04  9.751E-01 6.7358887E+00 7.7398209E+00 1.9151680E-01
  9.957E+00  1.243E-03  9.502E-01 6.8107210E+00 7.7575331E+00 3.8436848E-01
  1.000E+01  3.108E-04  1.025E+00 6.7358883E+00 7.7398234E+00 -1.9151985E-01
  9.957E+00  0.000E+00  1.000E+00 6.8000518E+00 7.7675763E+00 -1.4535581E-06
  1.000E+01  2.796E-03  1.075E+00 6.7605202E+00 7.7201965E+00 -5.7498616E-01
  9.957E+00  1.243E-03  1.050E+00 6.8107204E+00 7.7575384E+00 -3.8437142E-01
  1.000E+01  7.761E-03  1.124E+00 6.8133903E+00 7.6824886E+00 -9.6001888E-01
  9.957E+00  4.969E-03  1.100E+00 6.8467483E+00 7.7285172E+00 -7.6969273E-01
  1.000E+01  1.519E-02  1.174E+00 6.8972013E+00 7.6281119E+00 -1.3468948E+00
  9.957E+00  1.117E-02  1.149E+00 6.9157523E+00 7.6823924E+00 -1.1571323E+00
  1.000E+01  2.507E-02  1.223E+00 7.0048243E+00 7.5548024E+00 -1.7303848E+00
  9.957E+00  1.983E-02  1.198E+00 7.0159787E+00 7.6188836E+00 -1.5445838E+00
  1.000E+01  3.738E-02  1.271E+00 7.1083297E+00 7.4572520E+00 -2.1020392E+00
  9.957E+00  3.092E-02  1.247E+00 7.1252328E+00 7.5337456E+00 -1.9243345E+00
  1.000E+01  5.207E-02  1.318E+00 7.1840779E+00 7.3371826E+00 -2.4624334E+00
  9.957E+00  4.443E-02  1.295E+00 7.2134301E+00 7.4234080E+00 -2.2903241E+00
  1.000E+01  6.913E-02  1.365E+00 7.2897913E+00 7.2057283E+00 -2.8243066E+00
  9.957E+00  6.031E-02  1.342E+00 7.2876256E+00 7.2961844E+00 -2.6512894E+00
  1.000E+01  8.849E-02  1.411E+00 7.4649372E+00 7.0608782E+00 -3.1865145E+00
  9.957E+00  7.852E-02  1.388E+00 7.4486008E+00 7.1591568E+00 -3.0161947E+00
  1.000E+01  1.101E-01  1.456E+00 7.5539292E+00 6.8920472E+00 -3.5346033E+00
  9.957E+00  9.903E-02  1.434E+00 7.5828977E+00 7.0020882E+00 -3.3735751E+00
  1.000E+01  1.340E-01  1.500E+00 7.6303071E+00 6.7055846E+00 -3.8708811E+00
  9.957E+00  1.218E-01  1.478E+00 7.6342471E+00 6.8224574E+00 -3.7155793E+00
  1.000E+01  1.600E-01  1.543E+00 7.7791834E+00 6.5056296E+00 -4.2017017E+00
  9.957E+00  1.467E-01  1.521E+00 7.7973742E+00 6.6294484E+00 -4.0505839E+00
  1.000E+01  1.881E-01  1.584E+00 7.8005227E+00 6.2878112E+00 -4.5208706E+00
  9.957E+00  1.738E-01  1.563E+00 7.8412846E+00 6.4193274E+00 -4.3768966E+00
  1.000E+01  2.182E-01  1.623E+00 7.8965816E+00 6.0546515E+00 -4.8281347E+00
  9.957E+00  2.029E-01  1.604E+00 7.9302596E+00 6.1935942E+00 -4.6913359E+00
  1.000E+01  2.502E-01  1.662E+00 7.9078493E+00 5.8064668E+00 -5.1243978E+00
  9.957E+00  2.340E-01  1.643E+00 7.9854588E+00 5.9514780E+00 -4.9938889E+00
  1.000E+01  2.841E-01  1.698E+00 7.9558254E+00 5.5438359E+00 -5.4069936E+00
  9.957E+00  2.669E-01  1.680E+00 7.9860563E+00 5.6957130E+00 -5.2845772E+00
  1.000E+01  3.198E-01  1.733E+00 7.9208848E+00 5.2675726E+00 -5.6770503E+00
  9.957E+00  3.018E-01  1.716E+00 8.0212545E+00 5.4247493E+00 -5.5617562E+00
  1.000E+01  3.572E-01  1.766E+00 7.9199472E+00 4.9778718E+00 -5.9320822E+00
  9.957E+00  3.383E-01  1.750E+00 7.9729410E+00 5.1412970E+00 -5.8252477E+00
  1.000E+01  3.962E-01  1.797E+00 7.8648555E+00 4.6762630E+00 -6.1733462E+00
  9.957E+00  3.765E-01  1.782E+00 7.9618825E+00 4.8440597E+00 -6.0743041E+00
  1.000E+01  4.367E-01  1.826E+00 7.7758958E+00 4.3629126E+00 -6.3985023E+00
  9.957E+00  4.163E-01  1.812E+00 7.8654575E+00 4.5358194E+00 -6.3081954E+00
  1.000E+01  4.786E-01  1.853E+00 7.7316899E+00 4.0376188E+00 -6.6078478E+00
  9.957E+00  4.575E-01  1.840E+00 7.8445622E+00 4.2156309E+00 -6.5268214E+00
  1.000E+01  5.217E-01  1.878E+00 7.5690310E+00 3.7037151E+00 -6.8003469E+00
  9.957E+00  5.000E-01  1.866E+00 7.6951491E+00 3.8837252E+00 -6.7274320E+00
  1.000E+01  5.661E-01  1.901E+00 7.5170896E+00 3.3628273E+00 -6.9794230E+00
  9.957E+00  5.438E-01  1.890E+00 7.6190526E+00 3.5463502E+00 -6.9144762E+00
  1.000E+01  6.116E-01  1.921E+00 7.3829839E+00 3.0065888E+00 -7.1359403E+00
  9.957E+00  5.887E-01  1.912E+00 7.5301949E+00 3.1971274E+00 -7.0840109E+00
  1.000E+01  6.580E-01  1.940E+00 7.2223302E+00 2.6428453E+00 -7.2726136E+00
  9.957E+00  6.347E-01  1.931E+00 7.3545104E+00 2.8337245E+00 -7.2293098E+00
  1.000E+01  7.052E-01  1.956E+00 7.1476857E+00 2.2830362E+00 -7.3994707E+00
  9.957E+00  6.815E-01  1.948E+00 7.2489380E+00 2.4706663E+00 -7.3611591E+00
  1.000E+01  7.532E-01  1.969E+00 7.0592885E+00 1.9182327E+00 -7.5094331E+00
  9.957E+00  7.292E-01  1.963E+00 7.1734982E+00 2.1090669E+00 -7.4817067E+00
  1.000E+01  8.019E-01  1.980E+00 6.9501448E+00 1.5397119E+00 -7.5942904E+00
  9.957E+00  7.775E-01  1.975E+00 7.0699555E+00 1.7361512E+00 -7.5796304E+00
  1.000E+01  8.510E-01  1.989E+00 6.8500872E+00 1.1534975E+00 -7.6576241E+00
  9.957E+00  8.264E-01  1.985E+00 6.9621439E+00 1.3513708E+00 -7.6531877E+00
  1.000E+01  9.004E-01  1.995E+00 6.7811480E+00 7.6727797E-01 -7.7036319E+00
  9.957E+00  8.757E-01  1.992E+00 6.8782017E+00 9.6320654E-01 -7.7077420E+00
  1.000E+01  9.502E-01  1.999E+00 6.7451001E+00 3.8316383E-01 -7.7325700E+00
  9.957E+00  9.253E-01  1.997E+00 6.8252888E+00 5.7689484E-01 -7.7455705E+00
  1.000E+01  1.000E+00  2.000E+00 6.7344104E+00 1.4817567E-06 -7.7425740E+00
  9.957E+00  9.751E-01  2.000E+00 6.8006580E+00 1.9215540E-01 -7.7652580E+00
  1.000E+01  1.050E+00  1.999E+00 6.7450995E+00 -3.8316071E-01 -7.7325702E+00
  9.957E+00  1.025E+00  2.000E+00 6.8006577E+00 -1.9215247E-01 -7.7652582E+00
  1.000E+01  1.100E+00  1.995E+00 6.7811469E+00 -7.6727500E-01 -7.7036324E+00
  9.957E+00  1.075E+00  1.997E+00 6.8252879E+00 -5.7689194E-01 -7.7455709E+00
  1.000E+01  1.149E+00  1.989E+00 6.8500855E+00 -1.1534946E+00 -7.6576248E+00
  9.957E+00  1.124E+00  1.992E+00 6.8782003E+00 -9.6320367E-01 -7.7077427E+00
  1.000E+01  1.198E+00  1.980E+00 6.9501427E+00 -1.5397092E+00 -7.5942914E+00
  9.957E+00  1.174E+00  1.985E+00 6.9621419E+00 -1.3513681E+00 -7.6531886E+00