# TIME = 7.000000
VARIABLES = X, Y, Z, FX, FY, FZ
ZONE N=29232 E=58212 F=FEPOINT ET=TRIANGLE
  0.000E+00  9.502E-01  1.243E-03 8.2930272E+00 3.0975483E-01 6.2516587E+00
  0.000E+00  1.000E+00  0.000E+00 8.2826686E+00 1.9773769E-06 6.2597944E+00
  4.318E-02  9.751E-01  3.108E-04 8.0972160E+00 1.6363958E-01 6.6134740E+00
  0.000E+00  1.050E+00  1.243E-03 8.2930261E+00 -3.0975301E-01 6.2516595E+00
  4.318E-02  1.025E+00  3.108E-04 8.0972152E+00 -1.6363708E-01 6.6134743E+00
  0.000E+00  1.100E+00  4.969E-03 8.3288865E+00 -6.2021093E-01 6.2282750E+00
  4.318E-02  1.075E+00  2.796E-03 8.1217369E+00 -4.9126424E-01 6.5967435E+00
  0.000E+00  1.149E+00  1.117E-02 8.3996123E+00 -9.3240217E-01 6.1913191E+00
  4.318E-02  1.124E+00  7.761E-03 8.1753500E+00 -8.2020640E-01 6.5646423E+00
  0.000E+00  1.198E+00  1.983E-02 8.5038804E+00 -1.2447826E+00 6.1403301E+00
  4.318E-02  1.174E+00  1.519E-02 8.2616475E+00 -1.1507832E+00 6.5183762E+00
  0.000E+00  1.247E+00  3.092E-02 8.6160658E+00 -1.5511728E+00 6.0713705E+00
  4.318E-02  1.223E+00  2.507E-02 8.3728219E+00 -1.4787056E+00 6.4557679E+00
  0.000E+00  1.295E+00  4.443E-02 8.7004986E+00 -1.8464316E+00 5.9815001E+00
  4.318E-02  1.271E+00  3.738E-02 8.4767431E+00 -1.7966910E+00 6.3717897E+00
  0.000E+00  1.342E+00  6.031E-02 8.7652112E+00 -2.1372823E+00 5.8785951E+00
  4.318E-02  1.318E+00  5.207E-02 8.5457477E+00 -2.1047940E+00 6.2682242E+00
  0.000E+00  1.388E+00  7.852E-02 8.9335384E+00 -2.4312898E+00 5.7693425E+00
  4.318E-02  1.365E+00  6.913E-02 8.6477025E+00 -2.4138113E+00 6.1565546E+00
  0.000E+00  1.434E+00  9.903E-02 9.0732434E+00 -2.7190656E+00 5.6416591E+00
  4.318E-02  1.411E+00  8.849E-02 8.8331841E+00 -2.7233609E+00 6.0333294E+00
  0.000E+00  1.478E+00  1.218E-01 9.1122680E+00 -2.9945190E+00 5.4959794E+00
  4.318E-02  1.456E+00  1.101E-01 8.9191765E+00 -3.0205689E+00 5.8873306E+00
  0.000E+00  1.521E+00  1.467E-01 9.2859984E+00 -3.2647672E+00 5.3420363E+00
  4.318E-02  1.500E+00  1.340E-01 8.9887580E+00 -3.3077586E+00 5.7286209E+00
  0.000E+00  1.563E+00  1.738E-01 9.3250569E+00 -3.5267523E+00 5.1705799E+00
  4.318E-02  1.543E+00  1.600E-01 9.1478563E+00 -3.5905111E+00 5.5579634E+00
  0.000E+00  1.604E+00  2.029E-01 9.4143728E+00 -3.7808152E+00 4.9902424E+00
  4.318E-02  1.584E+00  1.881E-01 9.1595608E+00 -3.8628061E+00 5.3707901E+00
  0.000E+00  1.643E+00  2.340E-01 9.4736315E+00 -4.0237364E+00 4.7938610E+00
  4.318E-02  1.623E+00  2.182E-01 9.2622125E+00 -4.1251251E+00 5.1722999E+00
  0.000E+00  1.680E+00  2.669E-01 9.4672378E+00 -4.2580000E+00 4.5884514E+00
  4.318E-02  1.662E+00  2.502E-01 9.2684294E+00 -4.3783263E+00 4.9595845E+00
  0.000E+00  1.716E+00  3.018E-01 9.5094691E+00 -4.4811673E+00 4.3695142E+00
  4.318E-02  1.698E+00  2.841E-01 9.3226040E+00 -4.6191720E+00 4.7355108E+00
  0.000E+00  1.750E+00  3.383E-01 9.4545971E+00 -4.6928550E+00 4.1414847E+00
  4.318E-02  1.733E+00  3.198E-01 9.2814052E+00 -4.8502812E+00 4.4994211E+00
  0.000E+00  1.782E+00  3.765E-01 9.4492174E+00 -4.8939413E+00 3.9017477E+00
  4.318E-02  1.766E+00  3.572E-01 9.2870188E+00 -5.0672110E+00 4.2516318E+00
  0.000E+00  1.812E+00  4.163E-01 9.3458297E+00 -5.0813289E+00 3.6534276E+00
  4.318E-02  1.797E+00  3.962E-01 9.2284493E+00 -5.2743319E+00 3.9946201E+00
  0.000E+00  1.840E+00  4.575E-01 9.3355530E+00 -5.2582754E+00 3.3957588E+00
  4.318E-02  1.826E+00  4.367E-01 9.1392193E+00 -5.4648533E+00 3.7260800E+00
  0.000E+00  1.866E+00  5.000E-01 9.1751971E+00 -5.4193806E+00 3.1281566E+00
  4.318E-02  1.853E+00  4.786E-01 9.0997402E+00 -5.6454582E+00 3.4489547E+00
  0.000E+00  1.890E+00  5.438E-01 9.1066971E+00 -5.5691554E+00 2.8564305E+00
  4.318E-02  1.878E+00  5.217E-01 8.9273866E+00 -5.8081139E+00 3.1633664E+00
  0.000E+00  1.912E+00  5.887E-01 9.0211627E+00 -5.7072167E+00 2.5752865E+00
  4.318E-02  1.901E+00  5.661E-01 8.8869150E+00 -5.9615990E+00 2.8721882E+00
  0.000E+00  1.931E+00  6.347E-01 8.8343722E+00 -5.8234243E+00 2.2824639E+00
  4.318E-02  1.921E+00  6.116E-01 8.7480021E+00 -6.0961094E+00 2.5680594E+00
  0.000E+00  1.948E+00  6.815E-01 8.7330413E+00 -5.9287289E+00 1.9902141E+00
  4.318E-02  1.940E+00  6.580E-01 8.5806264E+00 -6.2114945E+00 2.2574141E+00
  0.000E+00  1.963E+00  7.292E-01 8.6650052E+00 -6.0266038E+00 1.6988080E+00
  4.318E-02  1.956E+00  7.052E-01 8.5147759E+00 -6.3199004E+00 1.9501093E+00
  0.000E+00  1.975E+00  7.775E-01 8.5610660E+00 -6.1059175E+00 1.3980543E+00
  4.318E-02  1.969E+00  7.532E-01 8.4299317E+00 -6.4145014E+00 1.6382435E+00
  0.000E+00  1.985E+00  8.264E-01 8.4494435E+00 -6.1649530E+00 1.0879576E+00
  4.318E-02  1.980E+00  8.019E-01 8.3181546E+00 -6.4871426E+00 1.3146541E+00
  0.000E+00  1.992E+00  8.757E-01 8.3628295E+00 -6.2085432E+00 7.7540426E-01
  4.318E-02  1.989E+00  8.510E-01 8.2144182E+00 -6.5408974E+00 9.8472763E-01
  0.000E+00  1.997E+00  9.253E-01 8.3091298E+00 -6.2387988E+00 4.6442478E-01
  4.318E-02  1.995E+00  9.004E-01 8.1439315E+00 -6.5798562E+00 6.5499736E-01
  0.000E+00  2.000E+00  9.751E-01 8.2846330E+00 -6.2545784E+00 1.5469784E-01
  4.318E-02  1.999E+00  9.502E-01 8.1080747E+00 -6.6044902E+00 3.2711552E-01
  0.000E+00  2.000E+00  1.025E+00 8.2846327E+00 -6.2545799E+00 -1.5469718E-01
  4.318E-02  2.000E+00  1.000E+00 8.0976879E+00 -6.6130528E+00 5.5267503E-07
  0.000E+00  1.997E+00  1.075E+00 8.3091290E+00 -6.2388022E+00 -4.6442441E-01
  4.318E-02  1.999E+00  1.050E+00 8.1080741E+00 -6.6044864E+00 -3.2711441E-01
  0.000E+00  1.992E+00  1.124E+00 8.3628281E+00 -6.2085470E+00 -7.7540431E-01
  4.318E-02  1.995E+00  1.100E+00 8.1439302E+00 -6.5798472E+00 -6.5499626E-01
  0.000E+00  1.985E+00  1.174E+00 8.4494415E+00 -6.1649596E+00 -1.0879577E+00
  4.318E-02  1.989E+00  1.149E+00 8.2144160E+00 -6.5408872E+00 -9.8472649E-01
  0.000E+00  1.975E+00  1.223E+00 8.5610632E+00 -6.1059333E+00 -1.3980538E+00
  4.318E-02  1.980E+00  1.198E+00 8.3181514E+00 -6.4871441E+00 -1.3146529E+00
  0.000E+00  1.963E+00  1.271E+00 8.6650014E+00 -6.0266159E+00 -1.6988066E+00
  4.318E-02  1.969E+00  1.247E+00 8.4299276E+00 -6.4145191E+00 -1.6382423E+00
  0.000E+00  1.948E+00  1.318E+00 8.7330366E+00 -5.9287101E+00 -1.9902124E+00
  4.318E-02  1.956E+00  1.295E+00 8.5147711E+00 -6.3199057E+00 -1.9501085E+00
  0.000E+00  1.931E+00  1.365E+00 8.8343666E+00 -5.8234081E+00 -2.2824626E+00
  4.318E-02  1.940E+00  1.342E+00 8.5806209E+00 -6.2114734E+00 -2.2574135E+00
  0.000E+00  1.912E+00  1.411E+00 9.0211553E+00 -5.7072429E+00 -2.5752859E+00
  4.318E-02  1.921E+00  1.388E+00 8.7479961E+00 -6.0961222E+00 -2.5680593E+00
  0.000E+00  1.890E+00  1.456E+00 9.1066897E+00 -5.5691557E+00 -2.8564311E+00
  4.318E-02  1.901E+00  1.434E+00 8.8869082E+00 -5.9616204E+00 -2.8721881E+00
  0.000E+00  1.866E+00  1.500E+00 9.1751883E+00 -5.4193727E+00 -3.1281577E+00
  4.318E-02  1.878E+00  1.478E+00 8.9273784E+00 -5.8080914E+00 -3.1633663E+00
  0.000E+00  1.840E+00  1.543E+00 9.3355433E+00 -5.2582981E+00 -3.3957606E+00
  4.318E-02  1.853E+00  1.521E+00 9.0997305E+00 -5.6454715E+00 -3.4489561E+00
  0.000E+00  1.812E+00  1.584E+00 9.3458196E+00 -5.0813243E+00 -3.6534291E+00
  4.318E-02  1.826E+00  1.563E+00 9.1392092E+00 -5.4648653E+00 -3.7260818E+00
  0.000E+00  1.782E+00  1.623E+00 9.4492068E+00 -4.8939531E+00 -3.9017509E+00
  4.318E-02  1.797E+00  1.604E+00 9.2284389E+00 -5.2743335E+00 -3.9946226E+00
  0.000E+00  1.750E+00  1.662E+00 9.4545857E+00 -4.6928643E+00 -4.1414888E+00
  4.318E-02  1.766E+00  1.643E+00 9.2870078E+00 -5.0672248E+00 -4.2516351E+00
  0.000E+00  1.716E+00  1.698E+00 9.5094568E+00 -4.4811742E+00 -4.3695188E+00
  4.318E-02  1.733E+00  1.680E+00 9.2813932E+00 -4.8502822E+00 -4.4994246E+00
  0.000E+00  1.680E+00  1.733E+00 9.4672255E+00 -4.2580084E+00 -4.5884565E+00
  4.318E-02  1.698E+00  1.716E+00 9.3225917E+00 -4.6191855E+00 -4.7355157E+00
  0.000E+00  1.643E+00  1.766E+00 9.4736190E+00 -4.0237433E+00 -4.7938673E+00
  4.318E-02  1.662E+00  1.750E+00 9.2684174E+00 -4.3783320E+00 -4.9595896E+00
  0.000E+00  1.604E+00  1.797E+00 9.4143601E+00 -3.7808236E+00 -4.9902494E+00
  4.318E-02  1.623E+00  1.782E+00 9.2621994E+00 -4.1251307E+00 -5.1723057E+00
  0.000E+00  1.563E+00  1.826E+00 9.3250441E+00 -3.5267570E+00 -5.1705870E+00
  4.318E-02  1.584E+00  1.812E+00 9.1595469E+00 -3.8628124E+00 -5.3707965E+00
  0.000E+00  1.521E+00  1.853E+00 9.2859845E+00 -3.2647734E+00 -5.3420441E+00
  4.318E-02  1.543E+00  1.840E+00 9.1478431E+00 -3.5905186E+00 -5.5579707E+00
  0.000E+00  1.478E+00  1.878E+00 9.1122526E+00 -2.9945235E+00 -5.4959876E+00
  4.318E-02  1.500E+00  1.866E+00 8.9887452E+00 -3.3077622E+00 -5.7286286E+00
  0.000E+00  1.434E+00  1.901E+00 9.0732284E+00 -2.7190707E+00 -5.6416676E+00
  4.318E-02  1.456E+00  1.890E+00 8.9191636E+00 -3.0205765E+00 -5.8873390E+00
  0.000E+00  1.388E+00  1.921E+00 8.9335257E+00 -2.4312940E+00 -5.7693516E+00
  4.318E-02  1.411E+00  1.912E+00 8.8331709E+00 -2.7233667E+00 -6.0333382E+00
  0.000E+00  1.342E+00  1.940E+00 8.7652003E+00 -2.1372863E+00 -5.8786046E+00
  4.318E-02  1.365E+00  1.931E+00 8.6476870E+00 -2.4138143E+00 -6.1565637E+00
  0.000E+00  1.295E+00  1.956E+00 8.7004880E+00 -1.8464355E+00 -5.9815101E+00
  4.318E-02  1.318E+00  1.948E+00 8.5457315E+00 -2.1047996E+00 -6.2682338E+00
  0.000E+00  1.247E+00  1.969E+00 8.6160526E+00 -1.5511800E+00 -6.0713817E+00
  4.318E-02  1.271E+00  1.963E+00 8.4767285E+00 -1.7966921E+00 -6.3717993E+00
  0.000E+00  1.198E+00  1.980E+00 8.5038650E+00 -1.2447892E+00 -6.1403424E+00
  4.318E-02  1.223E+00  1.975E+00 8.3728081E+00 -1.4787053E+00 -6.4557772E+00
  0.000E+00  1.149E+00  1.989E+00 8.3995967E+00 -9.3240929E-01 -6.1913325E+00
  4.318E-02  1.174E+00  1.985E+00 8.2616350E+00 -1.1507828E+00 -6.5183850E+00
  0.000E+00  1.100E+00  1.995E+00 8.3288714E+00 -6.2021588E-01 -6.2282892E+00
  4.318E-02  1.124E+00  1.992E+00 8.1753367E+00 -8.2020451E-01 -6.5646508E+00
  0.000E+00  1.050E+00  1.999E+00 8.2930124E+00 -3.0975433E-01 -6.2516741E+00
  4.318E-02  1.075E+00  1.997E+00 8.1217226E+00 -4.9126469E-01 -6.5967518E+00
  0.000E+00  1.000E+00  2.000E+00 8.2826552E+00 6.3997540E-07 -6.2598092E+00
  4.318E-02  1.025E+00  2.000E+00 8.0972009E+00 -1.6363686E-01 -6.6134827E+00
  0.000E+00  9.502E-01  1.999E+00 8.2930133E+00 3.0975765E-01 -6.2516734E+00
  4.318E-02  9.751E-01  2.000E+00 8.0972010E+00 1.6363956E-01 -6.6134823E+00
  0.000E+00  9.004E-01  1.995E+00 8.3288736E+00 6.2021783E-01 -6.2282877E+00
  4.318E-02  9.253E-01  1.997E+00 8.1217243E+00 4.9126625E-01 -6.5967508E+00
  0.000E+00  8.510E-01  1.989E+00 8.3995995E+00 9.3241100E-01 -6.1913303E+00
  4.318E-02  8.757E-01  1.992E+00 8.1753392E+00 8.2020768E-01 -6.5646491E+00
  0.000E+00  8.019E-01  1.980E+00 8.5038690E+00 1.2447919E+00 -6.1403395E+00
  4.318E-02  8.264E-01  1.985E+00 8.2616381E+00 1.1507840E+00 -6.5183827E+00
  0.000E+00  7.532E-01  1.969E+00 8.6160575E+00 1.5511806E+00 -6.0713781E+00
  4.318E-02  7.775E-01  1.975E+00 8.3728128E+00 1.4787072E+00 -6.4557742E+00
  0.000E+00  7.052E-01  1.956E+00 8.7004936E+00 1.8464371E+00 -5.9815061E+00
  4.318E-02  7.292E-01  1.963E+00 8.4767334E+00 1.7966942E+00 -6.3717958E+00
  0.000E+00  6.580E-01  1.940E+00 8.7652072E+00 2.1372867E+00 -5.8786000E+00
  4.318E-02  6.815E-01  1.948E+00 8.5457377E+00 2.1047987E+00 -6.2682297E+00
  0.000E+00  6.116E-01  1.921E+00 8.9335332E+00 2.4312943E+00 -5.7693466E+00
  4.318E-02  6.347E-01  1.931E+00 8.6476940E+00 2.4138166E+00 -6.1565593E+00
  0.000E+00  5.661E-01  1.901E+00 9.0732366E+00 2.7190698E+00 -5.6416622E+00
  4.318E-02  5.887E-01  1.912E+00 8.8331779E+00 2.7233660E+00 -6.0333329E+00
  0.000E+00  5.217E-01  1.878E+00 9.1122617E+00 2.9945226E+00 -5.4959818E+00
  4.318E-02  5.438E-01  1.890E+00 8.9191723E+00 3.0205741E+00 -5.8873337E+00
  0.000E+00  4.786E-01  1.853E+00 9.2859939E+00 3.2647708E+00 -5.3420380E+00
  4.318E-02  5.000E-01  1.866E+00 8.9887542E+00 3.3077635E+00 -5.7286232E+00
  0.000E+00  4.367E-01  1.826E+00 9.3250542E+00 3.5267564E+00 -5.1705810E+00
  4.318E-02  4.575E-01  1.840E+00 9.1478525E+00 3.5905155E+00 -5.5579648E+00
  0.000E+00  3.962E-01  1.797E+00 9.4143710E+00 3.7808192E+00 -4.9902430E+00
  4.318E-02  4.163E-01  1.812E+00 9.1595574E+00 3.8628098E+00 -5.3707906E+00
  0.000E+00  3.572E-01  1.766E+00 9.4736300E+00 4.0237399E+00 -4.7938608E+00
  4.318E-02  3.765E-01  1.782E+00 9.2622101E+00 4.1251285E+00 -5.1722997E+00
  0.000E+00  3.198E-01  1.733E+00 9.4672369E+00 4.2580028E+00 -4.5884505E+00
  4.318E-02  3.383E-01  1.750E+00 9.2684282E+00 4.3783293E+00 -4.9595837E+00
  0.000E+00  2.841E-01  1.698E+00 9.5094690E+00 4.4811694E+00 -4.3695126E+00
  4.318E-02  3.018E-01  1.716E+00 9.3226035E+00 4.6191746E+00 -4.7355094E+00
  0.000E+00  2.502E-01  1.662E+00 9.4545979E+00 4.6928566E+00 -4.1414826E+00
  4.318E-02  2.669E-01  1.680E+00 9.2814055E+00 4.8502832E+00 -4.4994191E+00
  0.000E+00  2.182E-01  1.623E+00 9.4492192E+00 4.8939422E+00 -3.9017450E+00
  4.318E-02  2.340E-01  1.643E+00 9.2870198E+00 5.0672125E+00 -4.2516292E+00
  0.000E+00  1.881E-01  1.584E+00 9.3458322E+00 5.0813291E+00 -3.6534245E+00
  4.318E-02  2.029E-01  1.604E+00 9.2284511E+00 5.2743326E+00 -3.9946171E+00
  0.000E+00  1.600E-01  1.543E+00 9.3355563E+00 5.2582749E+00 -3.3957552E+00
  4.318E-02  1.738E-01  1.563E+00 9.1392220E+00 5.4648533E+00 -3.7260766E+00
  0.000E+00  1.340E-01  1.500E+00 9.1752013E+00 5.4193792E+00 -3.1281527E+00
  4.318E-02  1.467E-01  1.521E+00 9.0997437E+00 5.6454575E+00 -3.4489510E+00
  0.000E+00  1.101E-01  1.456E+00 9.1067021E+00 5.5691532E+00 -2.8564265E+00
  4.318E-02  1.218E-01  1.478E+00 8.9273910E+00 5.8081124E+00 -3.1633624E+00
  0.000E+00  8.849E-02  1.411E+00 9.0211684E+00 5.7072134E+00 -2.5752821E+00
  4.318E-02  9.903E-02  1.434E+00 8.8869204E+00 5.9615967E+00 -2.8721839E+00
  0.000E+00  6.913E-02  1.365E+00 8.8343791E+00 5.8234203E+00 -2.2824595E+00
  4.318E-02  7.852E-02  1.388E+00 8.7480085E+00 6.0961062E+00 -2.5680551E+00
  0.000E+00  5.207E-02  1.318E+00 8.7330493E+00 5.9287240E+00 -1.9902096E+00
  4.318E-02  6.031E-02  1.342E+00 8.5806336E+00 6.2114904E+00 -2.2574097E+00
  0.000E+00  3.738E-02  1.271E+00 8.6650142E+00 6.0265979E+00 -1.6988036E+00
  4.318E-02  4.443E-02  1.295E+00 8.5147841E+00 6.3198953E+00 -1.9501049E+00
  0.000E+00  2.507E-02  1.223E+00 8.5610761E+00 6.1059107E+00 -1.3980501E+00
  4.318E-02  3.092E-02  1.247E+00 8.4299409E+00 6.4144954E+00 -1.6382391E+00
  0.000E+00  1.519E-02  1.174E+00 8.4494546E+00 6.1649452E+00 -1.0879536E+00
  4.318E-02  1.983E-02  1.198E+00 8.3181648E+00 6.4871357E+00 -1.3146499E+00
  0.000E+00  7.761E-03  1.124E+00 8.3628417E+00 6.2085345E+00 -7.7540064E-01
  4.318E-02  1.117E-02  1.149E+00 8.2144294E+00 6.5408896E+00 -9.8472379E-01
  0.000E+00  2.796E-03  1.075E+00 8.3091430E+00 6.2387891E+00 -4.6442160E-01
  4.318E-02  4.969E-03  1.100E+00 8.1439439E+00 6.5798475E+00 -6.5499391E-01
  0.000E+00  3.108E-04  1.025E+00 8.2846472E+00 6.2545678E+00 -1.5469519E-01
  4.318E-02  1.243E-03  1.050E+00 8.1080881E+00 6.6044806E+00 -3.2711253E-01
  0.000E+00  3.108E-04  9.751E-01 8.2846479E+00 6.2545685E+00 1.5469921E-01
  4.318E-02  0.000E+00  1.000E+00 8.0977024E+00 6.6130424E+00 1.8872361E-06
  0.000E+00  2.796E-03  9.253E-01 8.3091452E+00 6.2387899E+00 4.6442574E-01
  4.318E-02  1.243E-03  9.502E-01 8.1080897E+00 6.6044753E+00 3.2711621E-01
  0.000E+00  7.761E-03  8.757E-01 8.3628454E+00 6.2085340E+00 7.7540484E-01
  4.318E-02  4.969E-03  9.004E-01 8.1439469E+00 6.5798353E+00 6.5499734E-01
  0.000E+00  1.519E-02  8.264E-01 8.4494598E+00 6.1649460E+00 1.0879573E+00
  4.318E-02  1.117E-02  8.510E-01 8.2144337E+00 6.5408747E+00 9.8472678E-01
  0.000E+00  2.507E-02  7.775E-01 8.5610825E+00 6.1059191E+00 1.3980525E+00
  4.318E-02  1.983E-02  8.019E-01 8.3181701E+00 6.4871311E+00 1.3146524E+00
  0.000E+00  3.738E-02  7.292E-01 8.6650216E+00 6.0266013E+00 1.6988043E+00
  4.318E-02  3.092E-02  7.532E-01 8.4299473E+00 6.4145056E+00 1.6382408E+00
  0.000E+00  5.207E-02  6.815E-01 8.7330576E+00 5.9286952E+00 1.9902091E+00
  4.318E-02  4.443E-02  7.052E-01 8.5147916E+00 6.3198919E+00 1.9501060E+00
  0.000E+00  6.913E-02  6.347E-01 8.8343884E+00 5.8233929E+00 2.2824582E+00
  4.318E-02  6.031E-02  6.580E-01 8.5806421E+00 6.2114593E+00 2.2574100E+00
  0.000E+00  8.849E-02  5.887E-01 9.0211782E+00 5.7072279E+00 2.5752805E+00
  4.318E-02  7.852E-02  6.116E-01 8.7480180E+00 6.0961078E+00 2.5680548E+00
  0.000E+00  1.101E-01  5.438E-01 9.1067129E+00 5.5691405E+00 2.8564245E+00
  4.318E-02  9.903E-02  5.661E-01 8.8869308E+00 5.9616060E+00 2.8721826E+00
  0.000E+00  1.340E-01  5.000E-01 9.1752120E+00 5.4193577E+00 3.1281500E+00
  4.318E-02  1.218E-01  5.217E-01 8.9274015E+00 5.8080772E+00 3.1633597E+00
  0.000E+00  1.600E-01  4.575E-01 9.3355674E+00 5.2582834E+00 3.3957519E+00
  4.318E-02  1.467E-01  4.786E-01 9.0997542E+00 5.6454575E+00 3.4489485E+00
  0.000E+00  1.881E-01  4.163E-01 9.3458440E+00 5.0813099E+00 3.6534193E+00
  4.318E-02  1.738E-01  4.367E-01 9.1392333E+00 5.4648516E+00 3.7260732E+00
  0.000E+00  2.182E-01  3.765E-01 9.4492314E+00 4.8939392E+00 3.9017402E+00
  4.318E-02  2.029E-01  3.962E-01 9.2284633E+00 5.2743202E+00 3.9946131E+00
  0.000E+00  2.502E-01  3.383E-01 9.4546104E+00 4.6928511E+00 4.1414772E+00
  4.318E-02  2.340E-01  3.572E-01 9.2870324E+00 5.0672121E+00 4.2516247E+00
  0.000E+00  2.841E-01  3.018E-01 9.5094817E+00 4.4811618E+00 4.3695064E+00
  4.318E-02  2.669E-01  3.198E-01 9.2814178E+00 4.8502701E+00 4.4994134E+00
  0.000E+00  3.198E-01  2.669E-01 9.4672504E+00 4.2579968E+00 4.5884433E+00
  4.318E-02  3.018E-01  2.841E-01 9.3226162E+00 4.6191741E+00 4.7355037E+00
  0.000E+00  3.572E-01  2.340E-01 9.4736435E+00 4.0237322E+00 4.7938534E+00
  4.318E-02  3.383E-01  2.502E-01 9.2684417E+00 4.3783216E+00 4.9595771E+00
  0.000E+00  3.962E-01  2.029E-01 9.4143839E+00 3.7808134E+00 4.9902349E+00
  4.318E-02  3.765E-01  2.182E-01 9.2622238E+00 4.1251212E+00 5.1722926E+00
  0.000E+00  4.367E-01  1.738E-01 9.3250675E+00 3.5267482E+00 5.1705722E+00
  4.318E-02  4.163E-01  1.881E-01 9.1595712E+00 3.8628039E+00 5.3707830E+00
  0.000E+00  4.786E-01  1.467E-01 9.2860086E+00 3.2647664E+00 5.3420293E+00
  4.318E-02  4.575E-01  1.600E-01 9.1478667E+00 3.5905108E+00 5.5579566E+00
  0.000E+00  5.217E-01  1.218E-01 9.1122770E+00 2.9945177E+00 5.4959727E+00
  4.318E-02  5.000E-01  1.340E-01 8.9887674E+00 3.3077550E+00 5.7286142E+00
  0.000E+00  5.661E-01  9.903E-02 9.0732518E+00 2.7190657E+00 5.6416525E+00
  4.318E-02  5.438E-01  1.101E-01 8.9191848E+00 3.0205703E+00 5.8873246E+00
  0.000E+00  6.116E-01  7.852E-02 8.9335462E+00 2.4312900E+00 5.7693367E+00
  4.318E-02  5.887E-01  8.849E-02 8.8331922E+00 2.7233614E+00 6.0333235E+00
  0.000E+00  6.580E-01  6.031E-02 8.7652177E+00 2.1372833E+00 5.8785898E+00
  4.318E-02  6.347E-01  6.913E-02 8.6477094E+00 2.4138102E+00 6.1565494E+00
  0.000E+00  7.052E-01  4.443E-02 8.7005047E+00 1.8464324E+00 5.9814954E+00
  4.318E-02  6.815E-01  5.207E-02 8.5457538E+00 2.1047969E+00 6.2682196E+00
  0.000E+00  7.532E-01  3.092E-02 8.6160707E+00 1.5511756E+00 6.0713666E+00
  4.318E-02  7.292E-01  3.738E-02 8.4767488E+00 1.7966919E+00 6.3717857E+00
  0.000E+00  8.019E-01  1.983E-02 8.5038843E+00 1.2447839E+00 6.1403268E+00
  4.318E-02  7.775E-01  2.507E-02 8.3728259E+00 1.4787075E+00 6.4557645E+00
  0.000E+00  8.510E-01  1.117E-02 8.3996155E+00 9.3240497E-01 6.1913167E+00
  4.318E-02  8.264E-01  1.519E-02 8.2616512E+00 1.1507863E+00 6.5183736E+00
  0.000E+00  9.004E-01  4.969E-03 8.3288883E+00 6.2021388E-01 6.2282734E+00
  4.318E-02  8.757E-01  7.761E-03 8.1753524E+00 8.2020796E-01 6.5646404E+00
  4.318E-02  9.253E-01  2.796E-03 8.1217382E+00 4.9126771E-01 6.5967423E+00
  1.000E+01  1.050E+00  1.243E-03 8.2930261E+00 -3.0975301E-01 6.2516595E+00
  1.000E+01  1.000E+00  5.551E-16 8.2826686E+00 1.9773769E-06 6.2597944E+00
  9.957E+00  1.025E+00  3.108E-04 8.4761988E+00 -1.4447164E-01 5.8385820E+00
  1.000E+01  9.502E-01  1.243E-03 8.2930272E+00 3.0975483E-01 6.2516587E+00
  9.957E+00  9.751E-01  3.108E-04 8.4761985E+00 1.4447454E-01 5.8385815E+00
  1.000E+01  9.004E-01  4.969E-03 8.3288883E+00 6.2021388E-01 6.2282734E+00
  9.957E+00  9.253E-01  2.796E-03 8.5006890E+00 4.3371910E-01 5.8238049E+00
  1.000E+01  8.510E-01  1.117E-02 8.3996155E+00 9.3240497E-01 6.1913167E+00
  9.957E+00  8.757E-01  7.761E-03 8.5545046E+00 7.2411358E-01 5.7954810E+00
  1.000E+01  8.019E-01  1.983E-02 8.5038843E+00 1.2447839E+00 6.1403268E+00
  9.957E+00  8.264E-01  1.519E-02 8.6414887E+00 1.0159597E+00 5.7546799E+00
  1.000E+01  7.532E-01  3.092E-02 8.6160707E+00 1.5511756E+00 6.0713666E+00
  9.957E+00  7.775E-01  2.507E-02 8.7536366E+00 1.3055107E+00 5.6994073E+00
  1.000E+01  7.052E-01  4.443E-02 8.7005047E+00 1.8464324E+00 5.9814954E+00
  9.957E+00  7.292E-01  3.738E-02 8.8576779E+00 1.5863410E+00 5.6250750E+00
  1.000E+01  6.580E-01  6.031E-02 8.7652177E+00 2.1372833E+00 5.8785898E+00
  9.957E+00  6.815E-01  5.207E-02 8.9248302E+00 1.8583718E+00 5.5333176E+00
  1.000E+01  6.116E-01  7.852E-02 8.9335462E+00 2.4312900E+00 5.7693367E+00
  9.957E+00  6.347E-01  6.913E-02 9.0256240E+00 2.1311169E+00 5.4348598E+00
  1.000E+01  5.661E-01  9.903E-02 9.0732518E+00 2.7190657E+00 5.6416525E+00
  9.957E+00  5.887E-01  8.849E-02 9.2138960E+00 2.4044182E+00 5.3262538E+00
  1.000E+01  5.217E-01  1.218E-01 9.1122770E+00 2.9945177E+00 5.4959727E+00
  9.957E+00  5.438E-01  1.101E-01 9.2991643E+00 2.6666932E+00 5.1968369E+00
  1.000E+01  4.786E-01  1.467E-01 9.2860086E+00 3.2647664E+00 5.3420293E+00
  9.957E+00  5.000E-01  1.340E-01 9.3667604E+00 2.9201656E+00 5.0568377E+00
  1.000E+01  4.367E-01  1.738E-01 9.3250675E+00 3.5267482E+00 5.1705722E+00
  9.957E+00  4.575E-01  1.600E-01 9.5286404E+00 3.1698128E+00 4.9062604E+00
  1.000E+01  3.962E-01  2.029E-01 9.4143839E+00 3.7808134E+00 4.9902349E+00
  9.957E+00  4.163E-01  1.881E-01 9.5377141E+00 3.4099980E+00 4.7406533E+00
  1.000E+01  3.572E-01  2.340E-01 9.4736435E+00 4.0237322E+00 4.7938534E+00
  9.957E+00  3.765E-01  2.182E-01 9.6421368E+00 3.6415313E+00 4.5656541E+00
  1.000E+01  3.198E-01  2.669E-01 9.4672504E+00 4.2579968E+00 4.5884433E+00
  9.957E+00  3.383E-01  2.502E-01 9.6469333E+00 3.8649921E+00 4.3776511E+00
  1.000E+01  2.841E-01  3.018E-01 9.5094817E+00 4.4811618E+00 4.3695064E+00
  9.957E+00  3.018E-01  2.841E-01 9.7028262E+00 4.0774640E+00 4.1799483E+00
  1.000E+01  2.502E-01  3.383E-01 9.4546104E+00 4.6928511E+00 4.1414772E+00
  9.957E+00  2.669E-01  3.198E-01 9.6598101E+00 4.2814991E+00 3.9715061E+00
  1.000E+01  2.182E-01  3.765E-01 9.4492314E+00 4.8939392E+00 3.9017402E+00
  9.957E+00  2.340E-01  3.572E-01 9.6673148E+00 4.4727638E+00 3.7527109E+00
  1.000E+01  1.881E-01  4.163E-01 9.3458440E+00 5.0813099E+00 3.6534193E+00
  9.957E+00  2.029E-01  3.962E-01 9.6076103E+00 4.6558175E+00 3.5260104E+00
  1.000E+01  1.600E-01  4.575E-01 9.3355674E+00 5.2582834E+00 3.3957519E+00
  9.957E+00  1.738E-01  4.367E-01 9.5184955E+00 4.8234962E+00 3.2887353E+00
  1.000E+01  1.340E-01  5.000E-01 9.1752120E+00 5.4193577E+00 3.1281500E+00
  9.957E+00  1.467E-01  4.786E-01 9.4801067E+00 4.9834246E+00 3.0443663E+00
  1.000E+01  1.101E-01  5.438E-01 9.1067129E+00 5.5691405E+00 2.8564245E+00
  9.957E+00  1.218E-01  5.217E-01 9.3051827E+00 5.1264046E+00 2.7921256E+00
  1.000E+01  8.849E-02  5.887E-01 9.0211782E+00 5.7072279E+00 2.5752805E+00
  9.957E+00  9.903E-02  5.661E-01 9.2678665E+00 5.2621589E+00 2.5351750E+00
  1.000E+01  6.913E-02  6.347E-01 8.8343884E+00 5.8233929E+00 2.2824582E+00
  9.957E+00  7.852E-02  6.116E-01 9.1274946E+00 5.3810769E+00 2.2667794E+00
  1.000E+01  5.207E-02  6.815E-01 8.7330576E+00 5.9286952E+00 1.9902091E+00
  9.957E+00  6.031E-02  6.580E-01 8.9583258E+00 5.4824672E+00 1.9925716E+00
  1.000E+01  3.738E-02  7.292E-01 8.6650216E+00 6.0266013E+00 1.6988043E+00
  9.957E+00  4.443E-02  7.052E-01 8.8949285E+00 5.5782787E+00 1.7213503E+00
  1.000E+01  2.507E-02  7.775E-01 8.5610825E+00 6.1059191E+00 1.3980525E+00
  9.957E+00  3.092E-02  7.532E-01 8.8110102E+00 5.6620182E+00 1.4460068E+00
  1.000E+01  1.519E-02  8.264E-01 8.4494598E+00 6.1649460E+00 1.0879573E+00
  9.957E+00  1.983E-02  8.019E-01 8.6984559E+00 5.7261595E+00 1.1603059E+00
  1.000E+01  7.761E-03  8.757E-01 8.3628454E+00 6.2085340E+00 7.7540484E-01
  9.957E+00  1.117E-02  8.510E-01 8.5936830E+00 5.7734959E+00 8.6907577E-01
  1.000E+01  2.796E-03  9.253E-01 8.3091452E+00 6.2387899E+00 4.6442574E-01
  9.957E+00  4.969E-03  9.004E-01 8.5227571E+00 5.8077946E+00 5.7807799E-01
  1.000E+01  3.108E-04  9.751E-01 8.2846479E+00 6.2545685E+00 1.5469921E-01
  9.957E+00  1.243E-03  9.502E-01 8.4869272E+00 5.8295264E+00 2.8870970E-01
  1.000E+01  3.108E-04  1.025E+00 8.2846472E+00 6.2545678E+00 -1.5469519E-01
  9.957E+00  0.000E+00  1.000E+00 8.4766160E+00 5.8371035E+00 2.1372892E-06
  1.000E+01  2.796E-03  1.075E+00 8.3091430E+00 6.2387891E+00 -4.6442160E-01
  9.957E+00  1.243E-03  1.050E+00 8.4869256E+00 5.8295355E+00 -2.8870561E-01
  1.000E+01  7.761E-03  1.124E+00 8.3628417E+00 6.2085345E+00 -7.7540064E-01
  9.957E+00  4.969E-03  1.100E+00 8.5227541E+00 5.8078108E+00 -5.7807427E-01
  1.000E+01  1.519E-02  1.174E+00 8.4494546E+00 6.1649452E+00 -1.0879536E+00
  9.957E+00  1.117E-02  1.149E+00 8.5936782E+00 5.7735102E+00 -8.6907234E-01
  1.000E+01  2.507E-02  1.223E+00 8.5610761E+00 6.1059107E+00 -1.3980501E+00
  9.957E+00  1.983E-02  1.198E+00 8.6984491E+00 5.7261593E+00 -1.1603029E+00
  1.000E+01  3.738E-02  1.271E+00 8.6650142E+00 6.0265979E+00 -1.6988036E+00
  9.957E+00  3.092E-02  1.247E+00 8.8110016E+00 5.6620089E+00 -1.4460056E+00
  1.000E+01  5.207E-02  1.318E+00 8.7330493E+00 5.9287240E+00 -1.9902096E+00
  9.957E+00  4.443E-02  1.295E+00 8.8949194E+00 5.5782948E+00 -1.7213517E+00
  1.000E+01  6.913E-02  1.365E+00 8.8343791E+00 5.8234203E+00 -2.2824595E+00
  9.957E+00  6.031E-02  1.342E+00 8.9583169E+00 5.4825134E+00 -1.9925747E+00
  1.000E+01  8.849E-02  1.411E+00 9.0211684E+00 5.7072134E+00 -2.5752821E+00
  9.957E+00  7.852E-02  1.388E+00 9.1274858E+00 5.3810844E+00 -2.2667825E+00
  1.000E+01  1.101E-01  1.456E+00 9.1067021E+00 5.5691532E+00 -2.8564265E+00
  9.957E+00  9.903E-02  1.434E+00 9.2678568E+00 5.2621506E+00 -2.5351771E+00
  1.000E+01  1.340E-01  1.500E+00 9.1752013E+00 5.4193792E+00 -3.1281527E+00
  9.957E+00  1.218E-01  1.478E+00 9.3051720E+00 5.1264328E+00 -2.7921283E+00
  1.000E+01  1.600E-01  1.543E+00 9.3355563E+00 5.2582749E+00 -3.3957552E+00
  9.957E+00  1.467E-01  1.521E+00 9.4800948E+00 4.9834245E+00 -3.0443696E+00
  1.000E+01  1.881E-01  1.584E+00 9.3458322E+00 5.0813291E+00 -3.6534245E+00
  9.957E+00  1.738E-01  1.563E+00 9.5184832E+00 4.8235029E+00 -3.2887409E+00
  1.000E+01  2.182E-01  1.623E+00 9.4492192E+00 4.8939422E+00 -3.9017450E+00
  9.957E+00  2.029E-01  1.604E+00 9.6075992E+00 4.6558330E+00 -3.5260165E+00
  1.000E+01  2.502E-01  1.662E+00 9.4545979E+00 4.6928566E+00 -4.1414826E+00
  9.957E+00  2.340E-01  1.643E+00 9.6673033E+00 4.4727633E+00 -3.7527162E+00
  1.000E+01  2.841E-01  1.698E+00 9.5094690E+00 4.4811694E+00 -4.3695126E+00
  9.957E+00  2.669E-01  1.680E+00 9.6597968E+00 4.2815104E+00 -3.9715126E+00
  1.000E+01  3.198E-01  1.733E+00 9.4672369E+00 4.2580028E+00 -4.5884505E+00
  9.957E+00  3.018E-01  1.716E+00 9.7028130E+00 4.0774684E+00 -4.1799560E+00
  1.000E+01  3.572E-01  1.766E+00 9.4736300E+00 4.0237399E+00 -4.7938608E+00
  9.957E+00  3.383E-01  1.750E+00 9.6469212E+00 3.8650011E+00 -4.3776593E+00
  1.000E+01  3.962E-01  1.797E+00 9.4143710E+00 3.7808192E+00 -4.9902430E+00
  9.957E+00  3.765E-01  1.782E+00 9.6421230E+00 3.6415369E+00 -4.5656619E+00
  1.000E+01  4.367E-01  1.826E+00 9.3250542E+00 3.5267564E+00 -5.1705810E+00
  9.957E+00  4.163E-01  1.812E+00 9.5376996E+00 3.4100053E+00 -4.7406627E+00
  1.000E+01  4.786E-01  1.853E+00 9.2859939E+00 3.2647708E+00 -5.3420380E+00
  9.957E+00  4.575E-01  1.840E+00 9.5286279E+00 3.1698194E+00 -4.9062701E+00
  1.000E+01  5.217E-01  1.878E+00 9.1122617E+00 2.9945226E+00 -5.4959818E+00
  9.957E+00  5.000E-01  1.866E+00 9.3667477E+00 2.9201726E+00 -5.0568476E+00
  1.000E+01  5.661E-01  1.901E+00 9.0732366E+00 2.7190698E+00 -5.6416622E+00
  9.957E+00  5.438E-01  1.890E+00 9.2991509E+00 2.6666985E+00 -5.1968476E+00
  1.000E+01  6.116E-01  1.921E+00 8.9335332E+00 2.4312943E+00 -5.7693466E+00
  9.957E+00  5.887E-01  1.912E+00 9.2138831E+00 2.4044230E+00 -5.3262647E+00
  1.000E+01  6.580E-01  1.940E+00 8.7652072E+00 2.1372867E+00 -5.8786000E+00
  9.957E+00  6.347E-01  1.931E+00 9.0256084E+00 2.1311215E+00 -5.4348709E+00
  1.000E+01  7.052E-01  1.956E+00 8.7004936E+00 1.8464371E+00 -5.9815061E+00
  9.957E+00  6.815E-01  1.948E+00 8.9248138E+00 1.8583754E+00 -5.5333292E+00
  1.000E+01  7.532E-01  1.969E+00 8.6160575E+00 1.5511806E+00 -6.0713781E+00
  9.957E+00  7.292E-01  1.963E+00 8.8576634E+00 1.5863432E+00 -5.6250862E+00
  1.000E+01  8.019E-01  1.980E+00 8.5038690E+00 1.2447919E+00 -6.1403395E+00
  9.957E+00  7.775E-01  1.975E+00 8.7536220E+00 1.3055107E+00 -5.6994181E+00
  1.000E+01  8.510E-01  1.989E+00 8.3995995E+00 9.3241100E-01 -6.1913303E+00
  9.957E+00  8.264E-01  1.985E+00 8.6414769E+00 1.0159588E+00 -5.7546904E+00
  1.000E+01  9.004E-01  1.995E+00 8.3288736E+00 6.2021783E-01 -6.2282877E+00
  9.957E+00  8.757E-01  1.992E+00 8.5544922E+00 7.2411179E-01 -5.7954910E+00
  1.000E+01  9.502E-01  1.999E+00 8.2930133E+00 3.0975765E-01 -6.2516734E+00
  9.957E+00  9.253E-01  1.997E+00 8.5006755E+00 4.3371860E-01 -5.8238147E+00
  1.000E+01  1.000E+00  2.000E+00 8.2826552E+00 6.3997540E-07 -6.2598092E+00
  9.957E+00  9.751E-01  2.000E+00 8.4761859E+00 1.4447402E-01 -5.8385911E+00
  1.000E+01  1.050E+00  1.999E+00 8.2930124E+00 -3.0975433E-01 -6.2516741E+00
  9.957E+00  1.025E+00  2.000E+00 8.4761845E+00 -1.4447174E-01 -5.8385915E+00
  1.000E+01  1.100E+00  1.995E+00 8.3288714E+00 -6.2021588E-01 -6.2282892E+00
  9.957E+00  1.075E+00  1.997E+00 8.5006745E+00 -4.3371589E-01 -5.8238158E+00
  1.000E+01  1.149E+00  1.989E+00 8.3995967E+00 -9.3240929E-01 -6.1913325E+00
  9.957E+00  1.124E+00  1.992E+00 8.5544897E+00 -7.2411006E-01 -5.7954930E+00
  1.000E+01  1.198E+00  1.980E+00 8.5038650E+00 -1.2447892E+00 -6.1403424E+00
  9.957E+00  1.174E+00  1.985E+00 8.6414727E+00 -1.0159566E+00 -5.7546930E+00