# TIME = 5.000000
VARIABLES = X, Y, Z, FX, FY, FZ
ZONE N=29232 E=58212 F=FEPOINT ET=TRIANGLE
  0.000E+00  9.502E-01  1.243E-03 6.4257957E+00 3.4414975E-01 6.9442974E+00
  0.000E+00  1.000E+00  0.000E+00 6.4150127E+00 6.9829070E-07 6.9532728E+00
  4.318E-02  9.751E-01  3.108E-04 6.4101494E+00 1.7017502E-01 6.8758678E+00
  0.000E+00  1.050E+00  1.243E-03 6.4257952E+00 -3.4414921E-01 6.9442974E+00
  4.318E-02  1.025E+00  3.108E-04 6.4101492E+00 -1.7017404E-01 6.8758678E+00
  0.000E+00  1.100E+00  4.969E-03 6.4619241E+00 -6.8916479E-01 6.9182841E+00
  4.318E-02  1.075E+00  2.796E-03 6.4348359E+00 -5.1090518E-01 6.8583976E+00
  0.000E+00  1.149E+00  1.117E-02 6.5305027E+00 -1.0360402E+00 6.8768647E+00
  4.318E-02  1.124E+00  7.761E-03 6.4875666E+00 -8.5301970E-01 6.8248281E+00
  0.000E+00  1.198E+00  1.983E-02 6.6296718E+00 -1.3828290E+00 6.8199135E+00
  4.318E-02  1.174E+00  1.519E-02 6.5707992E+00 -1.1967285E+00 6.7764233E+00
  0.000E+00  1.247E+00  3.092E-02 6.7382109E+00 -1.7226290E+00 6.7438245E+00
  4.318E-02  1.223E+00  2.507E-02 6.6775745E+00 -1.5373278E+00 6.7112709E+00
  0.000E+00  1.295E+00  4.443E-02 6.8275289E+00 -2.0501258E+00 6.6453279E+00
  4.318E-02  1.271E+00  3.738E-02 6.7810589E+00 -1.8673478E+00 6.6247981E+00
  0.000E+00  1.342E+00  6.031E-02 6.9042760E+00 -2.3732317E+00 6.5313476E+00
  4.318E-02  1.318E+00  5.207E-02 6.8585888E+00 -2.1874475E+00 6.5183467E+00
  0.000E+00  1.388E+00  7.852E-02 7.0631326E+00 -2.6999290E+00 6.4082039E+00
  4.318E-02  1.365E+00  6.913E-02 6.9651442E+00 -2.5089792E+00 6.4011859E+00
  0.000E+00  1.434E+00  9.903E-02 7.1962007E+00 -3.0199101E+00 6.2680568E+00
  4.318E-02  1.411E+00  8.849E-02 7.1376886E+00 -2.8307345E+00 6.2723496E+00
  0.000E+00  1.478E+00  1.218E-01 7.2509314E+00 -3.3259752E+00 6.1073476E+00
  4.318E-02  1.456E+00  1.101E-01 7.2276651E+00 -3.1399868E+00 6.1228995E+00
  0.000E+00  1.521E+00  1.467E-01 7.4109923E+00 -3.6257815E+00 5.9339447E+00
  4.318E-02  1.500E+00  1.340E-01 7.3056506E+00 -3.4387328E+00 5.9568672E+00
  0.000E+00  1.563E+00  1.738E-01 7.4566110E+00 -3.9181711E+00 5.7466439E+00
  4.318E-02  1.543E+00  1.600E-01 7.4519924E+00 -3.7325776E+00 5.7792138E+00
  0.000E+00  1.604E+00  2.029E-01 7.5451616E+00 -4.1992648E+00 5.5437856E+00
  4.318E-02  1.584E+00  1.881E-01 7.4758767E+00 -4.0161478E+00 5.5859334E+00
  0.000E+00  1.643E+00  2.340E-01 7.5996012E+00 -4.4704209E+00 5.3276138E+00
  4.318E-02  1.623E+00  2.182E-01 7.5702746E+00 -4.2892016E+00 5.3785427E+00
  0.000E+00  1.680E+00  2.669E-01 7.6019505E+00 -4.7304704E+00 5.0982154E+00
  4.318E-02  1.662E+00  2.502E-01 7.5828503E+00 -4.5522191E+00 5.1582253E+00
  0.000E+00  1.716E+00  3.018E-01 7.6354219E+00 -4.9786170E+00 4.8559754E+00
  4.318E-02  1.698E+00  2.841E-01 7.6293591E+00 -4.8035009E+00 4.9247865E+00
  0.000E+00  1.750E+00  3.383E-01 7.5888891E+00 -5.2146017E+00 4.6019518E+00
  4.318E-02  1.733E+00  3.198E-01 7.5959193E+00 -5.0431184E+00 4.6793215E+00
  0.000E+00  1.782E+00  3.765E-01 7.5763423E+00 -5.4373278E+00 4.3360567E+00
  4.318E-02  1.766E+00  3.572E-01 7.5935487E+00 -5.2700404E+00 4.4220842E+00
  0.000E+00  1.812E+00  4.163E-01 7.4819146E+00 -5.6469867E+00 4.0600233E+00
  4.318E-02  1.797E+00  3.962E-01 7.5391226E+00 -5.4838701E+00 4.1538532E+00
  0.000E+00  1.840E+00  4.575E-01 7.4580836E+00 -5.8423686E+00 3.7733556E+00
  4.318E-02  1.826E+00  4.367E-01 7.4505894E+00 -5.6845487E+00 3.8758072E+00
  0.000E+00  1.866E+00  5.000E-01 7.3116941E+00 -6.0219802E+00 3.4762988E+00
  4.318E-02  1.853E+00  4.786E-01 7.4049407E+00 -5.8698022E+00 3.5865717E+00
  0.000E+00  1.890E+00  5.438E-01 7.2337408E+00 -6.1898138E+00 3.1742911E+00
  4.318E-02  1.878E+00  5.217E-01 7.2449372E+00 -6.0413633E+00 3.2900064E+00
  0.000E+00  1.912E+00  5.887E-01 7.1437888E+00 -6.3408937E+00 2.8616612E+00
  4.318E-02  1.901E+00  5.661E-01 7.1901551E+00 -6.2003120E+00 2.9872527E+00
  0.000E+00  1.931E+00  6.347E-01 6.9711940E+00 -6.4711528E+00 2.5363891E+00
  4.318E-02  1.921E+00  6.116E-01 7.0571085E+00 -6.3389347E+00 2.6707283E+00
  0.000E+00  1.948E+00  6.815E-01 6.8646541E+00 -6.5895833E+00 2.2113440E+00
  4.318E-02  1.940E+00  6.580E-01 6.8982925E+00 -6.4607753E+00 2.3475635E+00
  0.000E+00  1.963E+00  7.292E-01 6.7871626E+00 -6.6971906E+00 1.8877452E+00
  4.318E-02  1.956E+00  7.052E-01 6.8215071E+00 -6.5735139E+00 2.0279535E+00
  0.000E+00  1.975E+00  7.775E-01 6.6836802E+00 -6.7846145E+00 1.5541168E+00
  4.318E-02  1.969E+00  7.532E-01 6.7321730E+00 -6.6709343E+00 1.7040037E+00
  0.000E+00  1.985E+00  8.264E-01 6.5768883E+00 -6.8504820E+00 1.2097946E+00
  4.318E-02  1.980E+00  8.019E-01 6.6236465E+00 -6.7462032E+00 1.3678825E+00
  0.000E+00  1.992E+00  8.757E-01 6.4936436E+00 -6.8994109E+00 8.6233155E-01
  4.318E-02  1.989E+00  8.510E-01 6.5244949E+00 -6.8025423E+00 1.0248435E+00
  0.000E+00  1.997E+00  9.253E-01 6.4409115E+00 -6.9333462E+00 5.1648113E-01
  4.318E-02  1.995E+00  9.004E-01 6.4559238E+00 -6.8435162E+00 6.8171608E-01
  0.000E+00  2.000E+00  9.751E-01 6.4162273E+00 -6.9510090E+00 1.7203125E-01
  4.318E-02  1.999E+00  9.502E-01 6.4197949E+00 -6.8692524E+00 3.4042825E-01
  0.000E+00  2.000E+00  1.025E+00 6.4162270E+00 -6.9510069E+00 -1.7203248E-01
  4.318E-02  2.000E+00  1.000E+00 6.4090103E+00 -6.8781310E+00 -6.4703365E-07
  0.000E+00  1.997E+00  1.075E+00 6.4409106E+00 -6.9333394E+00 -5.1648233E-01
  4.318E-02  1.999E+00  1.050E+00 6.4197942E+00 -6.8692482E+00 -3.4042955E-01
  0.000E+00  1.992E+00  1.124E+00 6.4936420E+00 -6.8994007E+00 -8.6233275E-01
  4.318E-02  1.995E+00  1.100E+00 6.4559224E+00 -6.8435070E+00 -6.8171737E-01
  0.000E+00  1.985E+00  1.174E+00 6.5768860E+00 -6.8504771E+00 -1.2097958E+00
  4.318E-02  1.989E+00  1.149E+00 6.5244929E+00 -6.8025332E+00 -1.0248448E+00
  0.000E+00  1.975E+00  1.223E+00 6.6836772E+00 -6.7846266E+00 -1.5541181E+00
  4.318E-02  1.980E+00  1.198E+00 6.6236439E+00 -6.7462064E+00 -1.3678838E+00
  0.000E+00  1.963E+00  1.271E+00 6.7871590E+00 -6.6972028E+00 -1.8877464E+00
  4.318E-02  1.969E+00  1.247E+00 6.7321697E+00 -6.6709505E+00 -1.7040050E+00
  0.000E+00  1.948E+00  1.318E+00 6.8646499E+00 -6.5895615E+00 -2.2113451E+00
  4.318E-02  1.956E+00  1.295E+00 6.8215033E+00 -6.5735113E+00 -2.0279548E+00
  0.000E+00  1.931E+00  1.365E+00 6.9711892E+00 -6.4711352E+00 -2.5363901E+00
  4.318E-02  1.940E+00  1.342E+00 6.8982881E+00 -6.4607450E+00 -2.3475646E+00
  0.000E+00  1.912E+00  1.411E+00 7.1437828E+00 -6.3409201E+00 -2.8616622E+00
  4.318E-02  1.921E+00  1.388E+00 7.0571039E+00 -6.3389447E+00 -2.6707299E+00
  0.000E+00  1.890E+00  1.456E+00 7.2337350E+00 -6.1898047E+00 -3.1742923E+00
  4.318E-02  1.901E+00  1.434E+00 7.1901499E+00 -6.2003300E+00 -2.9872540E+00
  0.000E+00  1.866E+00  1.500E+00 7.3116879E+00 -6.0219627E+00 -3.4762997E+00
  4.318E-02  1.878E+00  1.478E+00 7.2449314E+00 -6.0413351E+00 -3.2900073E+00
  0.000E+00  1.840E+00  1.543E+00 7.4580770E+00 -5.8423885E+00 -3.7733572E+00
  4.318E-02  1.853E+00  1.521E+00 7.4049345E+00 -5.8698121E+00 -3.5865733E+00
  0.000E+00  1.812E+00  1.584E+00 7.4819076E+00 -5.6469762E+00 -4.0600241E+00
  4.318E-02  1.826E+00  1.563E+00 7.4505827E+00 -5.6845533E+00 -3.8758083E+00
  0.000E+00  1.782E+00  1.623E+00 7.5763352E+00 -5.4373340E+00 -4.3360581E+00
  4.318E-02  1.797E+00  1.604E+00 7.5391156E+00 -5.4838637E+00 -4.1538544E+00
  0.000E+00  1.750E+00  1.662E+00 7.5888815E+00 -5.2146033E+00 -4.6019529E+00
  4.318E-02  1.766E+00  1.643E+00 7.5935413E+00 -5.2700499E+00 -4.4220857E+00
  0.000E+00  1.716E+00  1.698E+00 7.6354139E+00 -4.9786176E+00 -4.8559767E+00
  4.318E-02  1.733E+00  1.680E+00 7.5959116E+00 -5.0431141E+00 -4.6793225E+00
  0.000E+00  1.680E+00  1.733E+00 7.6019422E+00 -4.7304734E+00 -5.0982166E+00
  4.318E-02  1.698E+00  1.716E+00 7.6293513E+00 -4.8035066E+00 -4.9247881E+00
  0.000E+00  1.643E+00  1.766E+00 7.5995926E+00 -4.4704203E+00 -5.3276151E+00
  4.318E-02  1.662E+00  1.750E+00 7.5828423E+00 -4.5522183E+00 -5.1582265E+00
  0.000E+00  1.604E+00  1.797E+00 7.5451534E+00 -4.1992666E+00 -5.5437870E+00
  4.318E-02  1.623E+00  1.782E+00 7.5702664E+00 -4.2892034E+00 -5.3785441E+00
  0.000E+00  1.563E+00  1.826E+00 7.4566031E+00 -3.9181715E+00 -5.7466455E+00
  4.318E-02  1.584E+00  1.812E+00 7.4758679E+00 -4.0161471E+00 -5.5859346E+00
  0.000E+00  1.521E+00  1.853E+00 7.4109837E+00 -3.6257833E+00 -5.9339464E+00
  4.318E-02  1.543E+00  1.840E+00 7.4519834E+00 -3.7325779E+00 -5.7792151E+00
  0.000E+00  1.478E+00  1.878E+00 7.2509218E+00 -3.3259743E+00 -6.1073488E+00
  4.318E-02  1.500E+00  1.866E+00 7.3056418E+00 -3.4387321E+00 -5.9568686E+00
  0.000E+00  1.434E+00  1.901E+00 7.1961906E+00 -3.0199090E+00 -6.2680573E+00
  4.318E-02  1.456E+00  1.890E+00 7.2276567E+00 -3.1399891E+00 -6.1229013E+00
  0.000E+00  1.388E+00  1.921E+00 7.0631235E+00 -2.6999247E+00 -6.4082039E+00
  4.318E-02  1.411E+00  1.912E+00 7.1376802E+00 -2.8307374E+00 -6.2723519E+00
  0.000E+00  1.342E+00  1.940E+00 6.9042679E+00 -2.3732314E+00 -6.5313480E+00
  4.318E-02  1.365E+00  1.931E+00 6.9651353E+00 -2.5089809E+00 -6.4011883E+00
  0.000E+00  1.295E+00  1.956E+00 6.8275203E+00 -2.0501302E+00 -6.6453297E+00
  4.318E-02  1.318E+00  1.948E+00 6.8585801E+00 -2.1874470E+00 -6.5183486E+00
  0.000E+00  1.247E+00  1.969E+00 6.7382012E+00 -1.7226374E+00 -6.7438281E+00
  4.318E-02  1.271E+00  1.963E+00 6.7810506E+00 -1.8673437E+00 -6.6247989E+00
  0.000E+00  1.198E+00  1.980E+00 6.6296616E+00 -1.3828368E+00 -6.8199185E+00
  4.318E-02  1.223E+00  1.975E+00 6.6775661E+00 -1.5373227E+00 -6.7112706E+00
  0.000E+00  1.149E+00  1.989E+00 6.5304931E+00 -1.0360453E+00 -6.8768705E+00
  4.318E-02  1.174E+00  1.985E+00 6.5707903E+00 -1.1967242E+00 -6.7764223E+00
  0.000E+00  1.100E+00  1.995E+00 6.4619152E+00 -6.8916693E-01 -6.9182902E+00
  4.318E-02  1.124E+00  1.992E+00 6.4875572E+00 -8.5301831E-01 -6.8248269E+00
  0.000E+00  1.050E+00  1.999E+00 6.4257868E+00 -3.4414924E-01 -6.9443036E+00
  4.318E-02  1.075E+00  1.997E+00 6.4348262E+00 -5.1090440E-01 -6.8583963E+00
  0.000E+00  1.000E+00  2.000E+00 6.4150044E+00 1.4996059E-07 -6.9532790E+00
  4.318E-02  1.025E+00  2.000E+00 6.4101396E+00 -1.7017424E-01 -6.8758665E+00
  0.000E+00  9.502E-01  1.999E+00 6.4257873E+00 3.4415039E-01 -6.9443036E+00
  4.318E-02  9.751E-01  2.000E+00 6.4101398E+00 1.7017479E-01 -6.8758665E+00
  0.000E+00  9.004E-01  1.995E+00 6.4619162E+00 6.8916757E-01 -6.9182902E+00
  4.318E-02  9.253E-01  1.997E+00 6.4348270E+00 5.1090548E-01 -6.8583963E+00
  0.000E+00  8.510E-01  1.989E+00 6.5304945E+00 1.0360460E+00 -6.8768704E+00
  4.318E-02  8.757E-01  1.992E+00 6.4875584E+00 8.5301855E-01 -6.8248268E+00
  0.000E+00  8.019E-01  1.980E+00 6.6296636E+00 1.3828378E+00 -6.8199184E+00
  4.318E-02  8.264E-01  1.985E+00 6.5707920E+00 1.1967252E+00 -6.7764223E+00
  0.000E+00  7.532E-01  1.969E+00 6.7382036E+00 1.7226379E+00 -6.7438280E+00
  4.318E-02  7.775E-01  1.975E+00 6.6775683E+00 1.5373233E+00 -6.7112705E+00
  0.000E+00  7.052E-01  1.956E+00 6.8275231E+00 2.0501310E+00 -6.6453296E+00
  4.318E-02  7.292E-01  1.963E+00 6.7810532E+00 1.8673444E+00 -6.6247989E+00
  0.000E+00  6.580E-01  1.940E+00 6.9042711E+00 2.3732319E+00 -6.5313479E+00
  4.318E-02  6.815E-01  1.948E+00 6.8585831E+00 2.1874474E+00 -6.5183485E+00
  0.000E+00  6.116E-01  1.921E+00 7.0631272E+00 2.6999264E+00 -6.4082039E+00
  4.318E-02  6.347E-01  1.931E+00 6.9651387E+00 2.5089821E+00 -6.4011883E+00
  0.000E+00  5.661E-01  1.901E+00 7.1961946E+00 3.0199083E+00 -6.2680571E+00
  4.318E-02  5.887E-01  1.912E+00 7.1376837E+00 2.8307377E+00 -6.2723514E+00
  0.000E+00  5.217E-01  1.878E+00 7.2509261E+00 3.3259757E+00 -6.1073487E+00
  4.318E-02  5.438E-01  1.890E+00 7.2276609E+00 3.1399889E+00 -6.1229013E+00
  0.000E+00  4.786E-01  1.853E+00 7.4109884E+00 3.6257835E+00 -5.9339462E+00
  4.318E-02  5.000E-01  1.866E+00 7.3056462E+00 3.4387335E+00 -5.9568685E+00
  0.000E+00  4.367E-01  1.826E+00 7.4566080E+00 3.9181730E+00 -5.7466453E+00
  4.318E-02  4.575E-01  1.840E+00 7.4519881E+00 3.7325779E+00 -5.7792150E+00
  0.000E+00  3.962E-01  1.797E+00 7.5451586E+00 4.1992662E+00 -5.5437869E+00
  4.318E-02  4.163E-01  1.812E+00 7.4758729E+00 4.0161485E+00 -5.5859346E+00
  0.000E+00  3.572E-01  1.766E+00 7.5995980E+00 4.4704218E+00 -5.3276149E+00
  4.318E-02  3.765E-01  1.782E+00 7.5702716E+00 4.2892026E+00 -5.3785439E+00
  0.000E+00  3.198E-01  1.733E+00 7.6019478E+00 4.7304714E+00 -5.0982165E+00
  4.318E-02  3.383E-01  1.750E+00 7.5828478E+00 4.5522203E+00 -5.1582266E+00
  0.000E+00  2.841E-01  1.698E+00 7.6354197E+00 4.9786180E+00 -4.8559764E+00
  4.318E-02  3.018E-01  1.716E+00 7.6293569E+00 4.8035020E+00 -4.9247877E+00
  0.000E+00  2.502E-01  1.662E+00 7.5888875E+00 5.2146028E+00 -4.6019529E+00
  4.318E-02  2.669E-01  1.680E+00 7.5959174E+00 5.0431194E+00 -4.6793227E+00
  0.000E+00  2.182E-01  1.623E+00 7.5763412E+00 5.4373289E+00 -4.3360577E+00
  4.318E-02  2.340E-01  1.643E+00 7.5935472E+00 5.2700414E+00 -4.4220854E+00
  0.000E+00  1.881E-01  1.584E+00 7.4819138E+00 5.6469877E+00 -4.0600244E+00
  4.318E-02  2.029E-01  1.604E+00 7.5391216E+00 5.4838710E+00 -4.1538543E+00
  0.000E+00  1.600E-01  1.543E+00 7.4580833E+00 5.8423697E+00 -3.7733566E+00
  4.318E-02  1.738E-01  1.563E+00 7.4505889E+00 5.6845497E+00 -3.8758083E+00
  0.000E+00  1.340E-01  1.500E+00 7.3116942E+00 6.0219812E+00 -3.4762998E+00
  4.318E-02  1.467E-01  1.521E+00 7.4049407E+00 5.8698032E+00 -3.5865728E+00
  0.000E+00  1.101E-01  1.456E+00 7.2337415E+00 6.1898148E+00 -3.1742921E+00
  4.318E-02  1.218E-01  1.478E+00 7.2449377E+00 6.0413643E+00 -3.2900075E+00
  0.000E+00  8.849E-02  1.411E+00 7.1437898E+00 6.3408942E+00 -2.8616620E+00
  4.318E-02  9.903E-02  1.434E+00 7.1901562E+00 6.2003130E+00 -2.9872538E+00
  0.000E+00  6.913E-02  1.365E+00 6.9711957E+00 6.4711537E+00 -2.5363900E+00
  4.318E-02  7.852E-02  1.388E+00 7.0571101E+00 6.3389356E+00 -2.6707295E+00
  0.000E+00  5.207E-02  1.318E+00 6.8646564E+00 6.5895841E+00 -2.2113450E+00
  4.318E-02  6.031E-02  1.342E+00 6.8982946E+00 6.4607762E+00 -2.3475646E+00
  0.000E+00  3.738E-02  1.271E+00 6.7871656E+00 6.6971914E+00 -1.8877462E+00
  4.318E-02  4.443E-02  1.295E+00 6.8215098E+00 6.5735147E+00 -2.0279546E+00
  0.000E+00  2.507E-02  1.223E+00 6.6836838E+00 6.7846153E+00 -1.5541178E+00
  4.318E-02  3.092E-02  1.247E+00 6.7321762E+00 6.6709350E+00 -1.7040048E+00
  0.000E+00  1.519E-02  1.174E+00 6.5768926E+00 6.8504826E+00 -1.2097956E+00
  4.318E-02  1.983E-02  1.198E+00 6.6236504E+00 6.7462039E+00 -1.3678836E+00
  0.000E+00  7.761E-03  1.124E+00 6.4936486E+00 6.8994116E+00 -8.6233256E-01
  4.318E-02  1.117E-02  1.149E+00 6.5244994E+00 6.8025430E+00 -1.0248447E+00
  0.000E+00  2.796E-03  1.075E+00 6.4409172E+00 6.9333468E+00 -5.1648217E-01
  4.318E-02  4.969E-03  1.100E+00 6.4559289E+00 6.8435168E+00 -6.8171722E-01
  0.000E+00  3.108E-04  1.025E+00 6.4162336E+00 6.9510096E+00 -1.7203232E-01
  4.318E-02  1.243E-03  1.050E+00 6.4198007E+00 6.8692530E+00 -3.4042940E-01
  0.000E+00  3.108E-04  9.751E-01 6.4162339E+00 6.9510075E+00 1.7203138E-01
  4.318E-02  0.000E+00  1.000E+00 6.4090168E+00 6.8781316E+00 -5.0928548E-07
  0.000E+00  2.796E-03  9.253E-01 6.4409182E+00 6.9333399E+00 5.1648122E-01
  4.318E-02  1.243E-03  9.502E-01 6.4198014E+00 6.8692487E+00 3.4042837E-01
  0.000E+00  7.761E-03  8.757E-01 6.4936503E+00 6.8994011E+00 8.6233162E-01
  4.318E-02  4.969E-03  9.004E-01 6.4559303E+00 6.8435075E+00 6.8171616E-01
  0.000E+00  1.519E-02  8.264E-01 6.5768949E+00 6.8504775E+00 1.2097946E+00
  4.318E-02  1.117E-02  8.510E-01 6.5245014E+00 6.8025337E+00 1.0248436E+00
  0.000E+00  2.507E-02  7.775E-01 6.6836868E+00 6.7846270E+00 1.5541169E+00
  4.318E-02  1.983E-02  8.019E-01 6.6236530E+00 6.7462068E+00 1.3678826E+00
  0.000E+00  3.738E-02  7.292E-01 6.7871692E+00 6.6972031E+00 1.8877452E+00
  4.318E-02  3.092E-02  7.532E-01 6.7321795E+00 6.6709509E+00 1.7040037E+00
  0.000E+00  5.207E-02  6.815E-01 6.8646606E+00 6.5895618E+00 2.2113438E+00
  4.318E-02  4.443E-02  7.052E-01 6.8215136E+00 6.5735116E+00 2.0279534E+00
  0.000E+00  6.913E-02  6.347E-01 6.9712006E+00 6.4711355E+00 2.5363888E+00
  4.318E-02  6.031E-02  6.580E-01 6.8982990E+00 6.4607453E+00 2.3475633E+00
  0.000E+00  8.849E-02  5.887E-01 7.1437948E+00 6.3409208E+00 2.8616611E+00
  4.318E-02  7.852E-02  6.116E-01 7.0571152E+00 6.3389449E+00 2.6707284E+00
  0.000E+00  1.101E-01  5.438E-01 7.2337473E+00 6.1898049E+00 3.1742909E+00
  4.318E-02  9.903E-02  5.661E-01 7.1901616E+00 6.2003302E+00 2.9872526E+00
  0.000E+00  1.340E-01  5.000E-01 7.3117005E+00 6.0219629E+00 3.4762983E+00
  4.318E-02  1.218E-01  5.217E-01 7.2449436E+00 6.0413354E+00 3.2900058E+00
  0.000E+00  1.600E-01  4.575E-01 7.4580900E+00 5.8423888E+00 3.7733558E+00
  4.318E-02  1.467E-01  4.786E-01 7.4049471E+00 5.8698124E+00 3.5865719E+00
  0.000E+00  1.881E-01  4.163E-01 7.4819208E+00 5.6469764E+00 4.0600226E+00
  4.318E-02  1.738E-01  4.367E-01 7.4505957E+00 5.6845536E+00 3.8758068E+00
  0.000E+00  2.182E-01  3.765E-01 7.5763485E+00 5.4373342E+00 4.3360566E+00
  4.318E-02  2.029E-01  3.962E-01 7.5391288E+00 5.4838640E+00 4.1538529E+00
  0.000E+00  2.502E-01  3.383E-01 7.5888951E+00 5.2146035E+00 4.6019514E+00
  4.318E-02  2.340E-01  3.572E-01 7.5935548E+00 5.2700503E+00 4.4220842E+00
  0.000E+00  2.841E-01  3.018E-01 7.6354277E+00 4.9786180E+00 4.8559752E+00
  4.318E-02  2.669E-01  3.198E-01 7.5959252E+00 5.0431144E+00 4.6793210E+00
  0.000E+00  3.198E-01  2.669E-01 7.6019562E+00 4.7304739E+00 5.0982151E+00
  4.318E-02  3.018E-01  2.841E-01 7.6293648E+00 4.8035068E+00 4.9247864E+00
  0.000E+00  3.572E-01  2.340E-01 7.5996066E+00 4.4704208E+00 5.3276135E+00
  4.318E-02  3.383E-01  2.502E-01 7.5828558E+00 4.5522185E+00 5.1582249E+00
  0.000E+00  3.962E-01  2.029E-01 7.5451669E+00 4.1992667E+00 5.5437853E+00
  4.318E-02  3.765E-01  2.182E-01 7.5702799E+00 4.2892037E+00 5.3785425E+00
  0.000E+00  4.367E-01  1.738E-01 7.4566160E+00 3.9181711E+00 5.7466435E+00
  4.318E-02  4.163E-01  1.881E-01 7.4758817E+00 4.0161478E+00 5.5859331E+00
  0.000E+00  4.786E-01  1.467E-01 7.4109969E+00 3.6257829E+00 5.9339444E+00
  4.318E-02  4.575E-01  1.600E-01 7.4519972E+00 3.7325789E+00 5.7792136E+00
  0.000E+00  5.217E-01  1.218E-01 7.2509357E+00 3.3259753E+00 6.1073473E+00
  4.318E-02  5.000E-01  1.340E-01 7.3056551E+00 3.4387328E+00 5.9568670E+00
  0.000E+00  5.661E-01  9.903E-02 7.1962046E+00 3.0199124E+00 6.2680564E+00
  4.318E-02  5.438E-01  1.101E-01 7.2276693E+00 3.1399885E+00 6.1228994E+00
  0.000E+00  6.116E-01  7.852E-02 7.0631362E+00 2.6999290E+00 6.4082037E+00
  4.318E-02  5.887E-01  8.849E-02 7.1376922E+00 2.8307353E+00 6.2723491E+00
  0.000E+00  6.580E-01  6.031E-02 6.9042792E+00 2.3732329E+00 6.5313474E+00
  4.318E-02  6.347E-01  6.913E-02 6.9651476E+00 2.5089796E+00 6.4011858E+00
  0.000E+00  7.052E-01  4.443E-02 6.8275317E+00 2.0501267E+00 6.6453277E+00
  4.318E-02  6.815E-01  5.207E-02 6.8585918E+00 2.1874486E+00 6.5183465E+00
  0.000E+00  7.532E-01  3.092E-02 6.7382133E+00 1.7226301E+00 6.7438244E+00
  4.318E-02  7.292E-01  3.738E-02 6.7810615E+00 1.8673485E+00 6.6247980E+00
  0.000E+00  8.019E-01  1.983E-02 6.6296738E+00 1.3828297E+00 6.8199134E+00
  4.318E-02  7.775E-01  2.507E-02 6.6775766E+00 1.5373288E+00 6.7112707E+00
  0.000E+00  8.510E-01  1.117E-02 6.5305042E+00 1.0360412E+00 6.8768646E+00
  4.318E-02  8.264E-01  1.519E-02 6.5708009E+00 1.1967290E+00 6.7764232E+00
  0.000E+00  9.004E-01  4.969E-03 6.4619251E+00 6.8916584E-01 6.9182840E+00
  4.318E-02  8.757E-01  7.761E-03 6.4875678E+00 8.5302100E-01 6.8248281E+00
  4.318E-02  9.253E-01  2.796E-03 6.4348366E+00 5.1090565E-01 6.8583976E+00
  1.000E+01  1.050E+00  1.243E-03 6.4257952E+00 -3.4414921E-01 6.9442974E+00
  1.000E+01  1.000E+00  5.551E-16 6.4150127E+00 6.9829070E-07 6.9532728E+00
  9.957E+00  1.025E+00  3.108E-04 6.4236798E+00 -1.7389633E-01 7.0263751E+00
  1.000E+01  9.502E-01  1.243E-03 6.4257957E+00 3.4414975E-01 6.9442974E+00
  9.957E+00  9.751E-01  3.108E-04 6.4236801E+00 1.7389747E-01 7.0263751E+00
  1.000E+01  9.004E-01  4.969E-03 6.4619251E+00 6.8916584E-01 6.9182840E+00
  9.957E+00  9.253E-01  2.796E-03 6.4483646E+00 5.2208266E-01 7.0085246E+00
  1.000E+01  8.510E-01  1.117E-02 6.5305042E+00 1.0360412E+00 6.8768646E+00
  9.957E+00  8.757E-01  7.761E-03 6.5011012E+00 8.7168626E-01 6.9742237E+00
  1.000E+01  8.019E-01  1.983E-02 6.6296738E+00 1.3828297E+00 6.8199134E+00
  9.957E+00  8.264E-01  1.519E-02 6.5843599E+00 1.2229199E+00 6.9247638E+00
  1.000E+01  7.532E-01  3.092E-02 6.7382133E+00 1.7226301E+00 6.7438244E+00
  9.957E+00  7.775E-01  2.507E-02 6.6911735E+00 1.5709803E+00 6.8581855E+00
  1.000E+01  7.052E-01  4.443E-02 6.8275317E+00 2.0501267E+00 6.6453277E+00
  9.957E+00  7.292E-01  3.738E-02 6.7946603E+00 1.9082324E+00 6.7698080E+00
  1.000E+01  6.580E-01  6.031E-02 6.9042792E+00 2.3732329E+00 6.5313474E+00
  9.957E+00  6.815E-01  5.207E-02 6.8721150E+00 2.2353442E+00 6.6610140E+00
  1.000E+01  6.116E-01  7.852E-02 7.0631362E+00 2.6999290E+00 6.4082037E+00
  9.957E+00  6.347E-01  6.913E-02 6.9786417E+00 2.5639126E+00 6.5413120E+00
  1.000E+01  5.661E-01  9.903E-02 7.1962046E+00 3.0199124E+00 6.2680564E+00
  9.957E+00  5.887E-01  8.849E-02 7.1513023E+00 2.8927124E+00 6.4096614E+00
  1.000E+01  5.217E-01  1.218E-01 7.2509357E+00 3.3259753E+00 6.1073473E+00
  9.957E+00  5.438E-01  1.101E-01 7.2412339E+00 3.2087343E+00 6.2569084E+00
  1.000E+01  4.786E-01  1.467E-01 7.4109969E+00 3.6257829E+00 5.9339444E+00
  9.957E+00  5.000E-01  1.340E-01 7.3191583E+00 3.5140184E+00 6.0872650E+00
  1.000E+01  4.367E-01  1.738E-01 7.4566160E+00 3.9181711E+00 5.7466435E+00
  9.957E+00  4.575E-01  1.600E-01 7.4656136E+00 3.8142990E+00 5.9057215E+00
  1.000E+01  3.962E-01  2.029E-01 7.5451669E+00 4.1992667E+00 5.5437853E+00
  9.957E+00  4.163E-01  1.881E-01 7.4893883E+00 4.1040736E+00 5.7081987E+00
  1.000E+01  3.572E-01  2.340E-01 7.5996066E+00 4.4704208E+00 5.3276135E+00
  9.957E+00  3.765E-01  2.182E-01 7.5838625E+00 4.3830977E+00 5.4962824E+00
  1.000E+01  3.198E-01  2.669E-01 7.6019562E+00 4.7304739E+00 5.0982151E+00
  9.957E+00  3.383E-01  2.502E-01 7.5963843E+00 4.6518805E+00 5.2711340E+00
  1.000E+01  2.841E-01  3.018E-01 7.6354277E+00 4.9786180E+00 4.8559752E+00
  9.957E+00  3.018E-01  2.841E-01 7.6429573E+00 4.9086522E+00 5.0325918E+00
  1.000E+01  2.502E-01  3.383E-01 7.5888951E+00 5.2146035E+00 4.6019514E+00
  9.957E+00  2.669E-01  3.198E-01 7.6094578E+00 5.1535229E+00 4.7817565E+00
  1.000E+01  2.182E-01  3.765E-01 7.5763485E+00 5.4373342E+00 4.3360566E+00
  9.957E+00  2.340E-01  3.572E-01 7.6071451E+00 5.3854016E+00 4.5188800E+00
  1.000E+01  1.881E-01  4.163E-01 7.4819208E+00 5.6469764E+00 4.0600226E+00
  9.957E+00  2.029E-01  3.962E-01 7.5526991E+00 5.6039265E+00 4.2447947E+00
  1.000E+01  1.600E-01  4.575E-01 7.4580900E+00 5.8423888E+00 3.7733558E+00
  9.957E+00  1.738E-01  4.367E-01 7.4641372E+00 5.8089679E+00 3.9606419E+00
  1.000E+01  1.340E-01  5.000E-01 7.3117005E+00 6.0219629E+00 3.4762983E+00
  9.957E+00  1.467E-01  4.786E-01 7.4185602E+00 5.9983224E+00 3.6650898E+00
  1.000E+01  1.101E-01  5.438E-01 7.2337473E+00 6.1898049E+00 3.1742909E+00
  9.957E+00  1.218E-01  5.217E-01 7.2584353E+00 6.1735692E+00 3.3620314E+00
  1.000E+01  8.849E-02  5.887E-01 7.1437948E+00 6.3409208E+00 2.8616611E+00
  9.957E+00  9.903E-02  5.661E-01 7.2037755E+00 6.3360456E+00 3.0526455E+00
  1.000E+01  6.913E-02  6.347E-01 6.9712006E+00 6.4711355E+00 2.5363888E+00
  9.957E+00  7.852E-02  6.116E-01 7.0706876E+00 6.4777199E+00 2.7291950E+00
  1.000E+01  5.207E-02  6.815E-01 6.8646606E+00 6.5895618E+00 2.2113438E+00
  9.957E+00  6.031E-02  6.580E-01 6.9117871E+00 6.6021631E+00 2.3989599E+00
  1.000E+01  3.738E-02  7.292E-01 6.7871692E+00 6.6972031E+00 1.8877452E+00
  9.957E+00  4.443E-02  7.052E-01 6.8350923E+00 6.7173903E+00 2.0723535E+00
  1.000E+01  2.507E-02  7.775E-01 6.6836868E+00 6.7846270E+00 1.5541169E+00
  9.957E+00  3.092E-02  7.532E-01 6.7457994E+00 6.8169760E+00 1.7413054E+00
  1.000E+01  1.519E-02  8.264E-01 6.5768949E+00 6.8504775E+00 1.2097946E+00
  9.957E+00  1.983E-02  8.019E-01 6.6372466E+00 6.8938865E+00 1.3978165E+00
  1.000E+01  7.761E-03  8.757E-01 6.4936503E+00 6.8994011E+00 8.6233162E-01
  9.957E+00  1.117E-02  8.510E-01 6.5380560E+00 6.9514425E+00 1.0472656E+00
  1.000E+01  2.796E-03  9.253E-01 6.4409182E+00 6.9333399E+00 5.1648122E-01
  9.957E+00  4.969E-03  9.004E-01 6.4694699E+00 6.9933074E+00 6.9663109E-01
  1.000E+01  3.108E-04  9.751E-01 6.4162339E+00 6.9510075E+00 1.7203138E-01
  9.957E+00  1.243E-03  9.502E-01 6.4333446E+00 7.0196085E+00 3.4787827E-01
  1.000E+01  3.108E-04  1.025E+00 6.4162336E+00 6.9510096E+00 -1.7203232E-01
  9.957E+00  0.000E+00  1.000E+00 6.4225659E+00 7.0286882E+00 -4.0627232E-07
  1.000E+01  2.796E-03  1.075E+00 6.4409172E+00 6.9333468E+00 -5.1648217E-01
  9.957E+00  1.243E-03  1.050E+00 6.4333439E+00 7.0196129E+00 -3.4787910E-01
  1.000E+01  7.761E-03  1.124E+00 6.4936486E+00 6.8994116E+00 -8.6233256E-01
  9.957E+00  4.969E-03  1.100E+00 6.4694685E+00 6.9933170E+00 -6.9663192E-01
  1.000E+01  1.519E-02  1.174E+00 6.5768926E+00 6.8504826E+00 -1.2097956E+00
  9.957E+00  1.117E-02  1.149E+00 6.5380540E+00 6.9514522E+00 -1.0472664E+00
  1.000E+01  2.507E-02  1.223E+00 6.6836838E+00 6.7846153E+00 -1.5541178E+00
  9.957E+00  1.983E-02  1.198E+00 6.6372439E+00 6.8938837E+00 -1.3978173E+00
  1.000E+01  3.738E-02  1.271E+00 6.7871656E+00 6.6971914E+00 -1.8877462E+00
  9.957E+00  3.092E-02  1.247E+00 6.7457961E+00 6.8169599E+00 -1.7413063E+00
  1.000E+01  5.207E-02  1.318E+00 6.8646564E+00 6.5895841E+00 -2.2113450E+00
  9.957E+00  4.443E-02  1.295E+00 6.8350884E+00 6.7173935E+00 -2.0723545E+00
  1.000E+01  6.913E-02  1.365E+00 6.9711957E+00 6.4711537E+00 -2.5363900E+00
  9.957E+00  6.031E-02  1.342E+00 6.9117826E+00 6.6021946E+00 -2.3989611E+00
  1.000E+01  8.849E-02  1.411E+00 7.1437898E+00 6.3408942E+00 -2.8616620E+00
  9.957E+00  7.852E-02  1.388E+00 7.0706827E+00 6.4777108E+00 -2.7291962E+00
  1.000E+01  1.101E-01  1.456E+00 7.2337415E+00 6.1898148E+00 -3.1742921E+00
  9.957E+00  9.903E-02  1.434E+00 7.2037701E+00 6.3360283E+00 -3.0526464E+00
  1.000E+01  1.340E-01  1.500E+00 7.3116942E+00 6.0219812E+00 -3.4762998E+00
  9.957E+00  1.218E-01  1.478E+00 7.2584293E+00 6.1735989E+00 -3.3620330E+00
  1.000E+01  1.600E-01  1.543E+00 7.4580833E+00 5.8423697E+00 -3.7733566E+00
  9.957E+00  1.467E-01  1.521E+00 7.4185536E+00 5.9983131E+00 -3.6650907E+00
  1.000E+01  1.881E-01  1.584E+00 7.4819138E+00 5.6469877E+00 -4.0600244E+00
  9.957E+00  1.738E-01  1.563E+00 7.4641303E+00 5.8089641E+00 -3.9606433E+00
  1.000E+01  2.182E-01  1.623E+00 7.5763412E+00 5.4373289E+00 -4.3360577E+00
  9.957E+00  2.029E-01  1.604E+00 7.5526917E+00 5.6039337E+00 -4.2447960E+00
  1.000E+01  2.502E-01  1.662E+00 7.5888875E+00 5.2146028E+00 -4.6019529E+00
  9.957E+00  2.340E-01  1.643E+00 7.6071374E+00 5.3853926E+00 -4.5188811E+00
  1.000E+01  2.841E-01  1.698E+00 7.6354197E+00 4.9786180E+00 -4.8559764E+00
  9.957E+00  2.669E-01  1.680E+00 7.6094498E+00 5.1535281E+00 -4.7817582E+00
  1.000E+01  3.198E-01  1.733E+00 7.6019478E+00 4.7304714E+00 -5.0982165E+00
  9.957E+00  3.018E-01  1.716E+00 7.6429492E+00 4.9086474E+00 -5.0325930E+00
  1.000E+01  3.572E-01  1.766E+00 7.5995980E+00 4.4704218E+00 -5.3276149E+00
  9.957E+00  3.383E-01  1.750E+00 7.5963761E+00 4.6518825E+00 -5.2711357E+00
  1.000E+01  3.962E-01  1.797E+00 7.5451586E+00 4.1992662E+00 -5.5437869E+00
  9.957E+00  3.765E-01  1.782E+00 7.5838539E+00 4.3830967E+00 -5.4962838E+00
  1.000E+01  4.367E-01  1.826E+00 7.4566080E+00 3.9181730E+00 -5.7466453E+00
  9.957E+00  4.163E-01  1.812E+00 7.4893791E+00 4.1040743E+00 -5.7082002E+00
  1.000E+01  4.786E-01  1.853E+00 7.4109884E+00 3.6257835E+00 -5.9339462E+00
  9.957E+00  4.575E-01  1.840E+00 7.4656043E+00 3.8142982E+00 -5.9057227E+00
  1.000E+01  5.217E-01  1.878E+00 7.2509261E+00 3.3259757E+00 -6.1073487E+00
  9.957E+00  5.000E-01  1.866E+00 7.3191496E+00 3.5140195E+00 -6.0872665E+00
  1.000E+01  5.661E-01  1.901E+00 7.1961946E+00 3.0199083E+00 -6.2680571E+00
  9.957E+00  5.438E-01  1.890E+00 7.2412258E+00 3.2087349E+00 -6.2569103E+00
  1.000E+01  6.116E-01  1.921E+00 7.0631272E+00 2.6999264E+00 -6.4082039E+00
  9.957E+00  5.887E-01  1.912E+00 7.1512934E+00 2.8927145E+00 -6.4096636E+00
  1.000E+01  6.580E-01  1.940E+00 6.9042711E+00 2.3732319E+00 -6.5313479E+00
  9.957E+00  6.347E-01  1.931E+00 6.9786317E+00 2.5639151E+00 -6.5413146E+00
  1.000E+01  7.052E-01  1.956E+00 6.8275231E+00 2.0501310E+00 -6.6453296E+00
  9.957E+00  6.815E-01  1.948E+00 6.8721044E+00 2.2353431E+00 -6.6610159E+00
  1.000E+01  7.532E-01  1.969E+00 6.7382036E+00 1.7226379E+00 -6.7438280E+00
  9.957E+00  7.292E-01  1.963E+00 6.7946504E+00 1.9082286E+00 -6.7698089E+00
  1.000E+01  8.019E-01  1.980E+00 6.6296636E+00 1.3828378E+00 -6.8199184E+00
  9.957E+00  7.775E-01  1.975E+00 6.6911648E+00 1.5709750E+00 -6.8581854E+00
  1.000E+01  8.510E-01  1.989E+00 6.5304945E+00 1.0360460E+00 -6.8768704E+00
  9.957E+00  8.264E-01  1.985E+00 6.5843517E+00 1.2229160E+00 -6.9247630E+00
  1.000E+01  9.004E-01  1.995E+00 6.4619162E+00 6.8916757E-01 -6.9182902E+00
  9.957E+00  8.757E-01  1.992E+00 6.5010926E+00 8.7168369E-01 -6.9742225E+00
  1.000E+01  9.502E-01  1.999E+00 6.4257873E+00 3.4415039E-01 -6.9443036E+00
  9.957E+00  9.253E-01  1.997E+00 6.4483553E+00 5.2208237E-01 -7.0085233E+00
  1.000E+01  1.000E+00  2.000E+00 6.4150044E+00 1.4996059E-07 -6.9532790E+00
  9.957E+00  9.751E-01  2.000E+00 6.4236704E+00 1.7389722E-01 -7.0263738E+00
  1.000E+01  1.050E+00  1.999E+00 6.4257868E+00 -3.4414924E-01 -6.9443036E+00
  9.957E+00  1.025E+00  2.000E+00 6.4236702E+00 -1.7389650E-01 -7.0263738E+00
  1.000E+01  1.100E+00  1.995E+00 6.4619152E+00 -6.8916693E-01 -6.9182902E+00
  9.957E+00  1.075E+00  1.997E+00 6.4483545E+00 -5.2208116E-01 -7.0085234E+00
  1.000E+01  1.149E+00  1.989E+00 6.5304931E+00 -1.0360453E+00 -6.8768705E+00
  9.957E+00  1.124E+00  1.992E+00 6.5010914E+00 -8.7168327E-01 -6.9742226E+00
  1.000E+01  1.198E+00  1.980E+00 6.6296616E+00 -1.3828368E+00 -6.8199185E+00
  9.957E+00  1.174E+00  1.985E+00 6.5843499E+00 -1.2229149E+00 -6.9247631E+00