# TIME = 12.000000
VARIABLES = X, Y, Z, FX, FY, FZ
ZONE N=29232 E=58212 F=FEPOINT ET=TRIANGLE
  0.000E+00  9.502E-01  1.243E-03 7.5159697E+00 -1.3844854E-01 -2.7966484E+00
  0.000E+00  1.000E+00  0.000E+00 7.5054818E+00 -1.7373111E-06 -2.8002927E+00
  4.318E-02  9.751E-01  3.108E-04 7.6899973E+00 -6.5096811E-02 -2.6335741E+00
  0.000E+00  1.050E+00  1.243E-03 7.5159685E+00 1.3844291E-01 -2.7966489E+00
  4.318E-02  1.025E+00  3.108E-04 7.6899967E+00 6.5094056E-02 -2.6335744E+00
  0.000E+00  1.100E+00  4.969E-03 7.5518381E+00 2.7718557E-01 -2.7862702E+00
  4.318E-02  1.075E+00  2.796E-03 7.7145009E+00 1.9542048E-01 -2.6270058E+00
  0.000E+00  1.149E+00  1.117E-02 7.6215952E+00 4.1676725E-01 -2.7699912E+00
  4.318E-02  1.124E+00  7.761E-03 7.7678165E+00 3.2627891E-01 -2.6144301E+00
  0.000E+00  1.198E+00  1.983E-02 7.7237137E+00 5.5659681E-01 -2.7474094E+00
  4.318E-02  1.174E+00  1.519E-02 7.8533038E+00 4.5788409E-01 -2.5963114E+00
  0.000E+00  1.247E+00  3.092E-02 7.8343130E+00 6.9391609E-01 -2.7164395E+00
  4.318E-02  1.223E+00  2.507E-02 7.9633781E+00 5.8869468E-01 -2.5715425E+00
  0.000E+00  1.295E+00  4.443E-02 7.9205721E+00 8.2624508E-01 -2.6758382E+00
  4.318E-02  1.271E+00  3.738E-02 8.0670990E+00 7.1574147E-01 -2.5376819E+00
  0.000E+00  1.342E+00  6.031E-02 7.9900533E+00 9.5642736E-01 -2.6299623E+00
  4.318E-02  1.318E+00  5.207E-02 8.1379214E+00 8.3864162E-01 -2.4958040E+00
  0.000E+00  1.388E+00  7.852E-02 8.1546938E+00 1.0879386E+00 -2.5819838E+00
  4.318E-02  1.365E+00  6.913E-02 8.2408849E+00 9.6159289E-01 -2.4522585E+00
  0.000E+00  1.434E+00  9.903E-02 8.2915011E+00 1.2166270E+00 -2.5241955E+00
  4.318E-02  1.411E+00  8.849E-02 8.4234411E+00 1.0849914E+00 -2.4038062E+00
  0.000E+00  1.478E+00  1.218E-01 8.3366783E+00 1.3400366E+00 -2.4588365E+00
  4.318E-02  1.456E+00  1.101E-01 8.5101370E+00 1.2033084E+00 -2.3442247E+00
  0.000E+00  1.521E+00  1.467E-01 8.5051548E+00 1.4611591E+00 -2.3910880E+00
  4.318E-02  1.500E+00  1.340E-01 8.5815581E+00 1.3177055E+00 -2.2818971E+00
  0.000E+00  1.563E+00  1.738E-01 8.5464416E+00 1.5779481E+00 -2.3130817E+00
  4.318E-02  1.543E+00  1.600E-01 8.7377956E+00 1.4305319E+00 -2.2141611E+00
  0.000E+00  1.604E+00  2.029E-01 8.6357492E+00 1.6923008E+00 -2.2336804E+00
  4.318E-02  1.584E+00  1.881E-01 8.7520579E+00 1.5388416E+00 -2.1388355E+00
  0.000E+00  1.643E+00  2.340E-01 8.6928306E+00 1.8005226E+00 -2.1449094E+00
  4.318E-02  1.623E+00  2.182E-01 8.8529032E+00 1.6432232E+00 -2.0605203E+00
  0.000E+00  1.680E+00  2.669E-01 8.6900402E+00 1.9056242E+00 -2.0536744E+00
  4.318E-02  1.662E+00  2.502E-01 8.8604862E+00 1.7444219E+00 -1.9752628E+00
  0.000E+00  1.716E+00  3.018E-01 8.7287220E+00 2.0054740E+00 -1.9551872E+00
  4.318E-02  1.698E+00  2.841E-01 8.9129868E+00 1.8398565E+00 -1.8863235E+00
  0.000E+00  1.750E+00  3.383E-01 8.6772075E+00 2.0999888E+00 -1.8535513E+00
  4.318E-02  1.733E+00  3.198E-01 8.8735519E+00 1.9325328E+00 -1.7922768E+00
  0.000E+00  1.782E+00  3.765E-01 8.6690485E+00 2.1903261E+00 -1.7459602E+00
  4.318E-02  1.766E+00  3.572E-01 8.8774026E+00 2.0180610E+00 -1.6932439E+00
  0.000E+00  1.812E+00  4.163E-01 8.5692131E+00 2.2736568E+00 -1.6349538E+00
  4.318E-02  1.797E+00  3.962E-01 8.8199307E+00 2.1017214E+00 -1.5915202E+00
  0.000E+00  1.840E+00  4.575E-01 8.5537529E+00 2.3533297E+00 -1.5197118E+00
  4.318E-02  1.826E+00  4.367E-01 8.7307660E+00 2.1758646E+00 -1.4836753E+00
  0.000E+00  1.866E+00  5.000E-01 8.3990051E+00 2.4252942E+00 -1.3998350E+00
  4.318E-02  1.853E+00  4.786E-01 8.6902024E+00 2.2495805E+00 -1.3739555E+00
  0.000E+00  1.890E+00  5.438E-01 8.3267273E+00 2.4916034E+00 -1.2782334E+00
  4.318E-02  1.878E+00  5.217E-01 8.5205376E+00 2.3127392E+00 -1.2599006E+00
  0.000E+00  1.912E+00  5.887E-01 8.2397386E+00 2.5543950E+00 -1.1524533E+00
  4.318E-02  1.901E+00  5.661E-01 8.4770459E+00 2.3742510E+00 -1.1438097E+00
  0.000E+00  1.931E+00  6.347E-01 8.0586536E+00 2.6059807E+00 -1.0213648E+00
  4.318E-02  1.921E+00  6.116E-01 8.3396504E+00 2.4286913E+00 -1.0228097E+00
  0.000E+00  1.948E+00  6.815E-01 7.9552243E+00 2.6523678E+00 -8.9069259E-01
  4.318E-02  1.940E+00  6.580E-01 8.1741922E+00 2.4733682E+00 -8.9914707E-01
  0.000E+00  1.963E+00  7.292E-01 7.8835618E+00 2.6965706E+00 -7.6017095E-01
  4.318E-02  1.956E+00  7.052E-01 8.1059996E+00 2.5164450E+00 -7.7673773E-01
  0.000E+00  1.975E+00  7.775E-01 7.7799565E+00 2.7323639E+00 -6.2531647E-01
  4.318E-02  1.969E+00  7.532E-01 8.0202806E+00 2.5547174E+00 -6.5224734E-01
  0.000E+00  1.985E+00  8.264E-01 7.6703979E+00 2.7586758E+00 -4.8641743E-01
  4.318E-02  1.980E+00  8.019E-01 7.9093678E+00 2.5838112E+00 -5.2308242E-01
  0.000E+00  1.992E+00  8.757E-01 7.5852704E+00 2.7779664E+00 -3.4661454E-01
  4.318E-02  1.989E+00  8.510E-01 7.8067903E+00 2.6049053E+00 -3.9162701E-01
  0.000E+00  1.997E+00  9.253E-01 7.5320729E+00 2.7913504E+00 -2.0759617E-01
  4.318E-02  1.995E+00  9.004E-01 7.7368562E+00 2.6200903E+00 -2.6046073E-01
  0.000E+00  2.000E+00  9.751E-01 7.5075626E+00 2.7983351E+00 -6.9147463E-02
  4.318E-02  1.999E+00  9.502E-01 7.7010322E+00 2.6298074E+00 -1.3009672E-01
  0.000E+00  2.000E+00  1.025E+00 7.5075620E+00 2.7983341E+00 6.9152234E-02
  4.318E-02  2.000E+00  1.000E+00 7.6905909E+00 2.6332310E+00 1.8942137E-06
  0.000E+00  1.997E+00  1.075E+00 7.5320711E+00 2.7913469E+00 2.0760102E-01
  4.318E-02  1.999E+00  1.050E+00 7.7010308E+00 2.6298055E+00 1.3010055E-01
  0.000E+00  1.992E+00  1.124E+00 7.5852673E+00 2.7779604E+00 3.4661953E-01
  4.318E-02  1.995E+00  1.100E+00 7.7368534E+00 2.6200856E+00 2.6046470E-01
  0.000E+00  1.985E+00  1.174E+00 7.6703935E+00 2.7586717E+00 4.8642264E-01
  4.318E-02  1.989E+00  1.149E+00 7.8067862E+00 2.6048996E+00 3.9163122E-01
  0.000E+00  1.975E+00  1.223E+00 7.7799510E+00 2.7323691E+00 6.2532196E-01
  4.318E-02  1.980E+00  1.198E+00 7.9093624E+00 2.5838113E+00 5.2308695E-01
  0.000E+00  1.963E+00  1.271E+00 7.8835552E+00 2.6965808E+00 7.6017675E-01
  4.318E-02  1.969E+00  1.247E+00 8.0202741E+00 2.5547271E+00 6.5225224E-01
  0.000E+00  1.948E+00  1.318E+00 7.9552165E+00 2.6523665E+00 8.9069878E-01
  4.318E-02  1.956E+00  1.295E+00 8.1059920E+00 2.5164525E+00 7.7674308E-01
  0.000E+00  1.931E+00  1.365E+00 8.0586446E+00 2.6059771E+00 1.0213714E+00
  4.318E-02  1.940E+00  1.342E+00 8.1741834E+00 2.4733640E+00 8.9915293E-01
  0.000E+00  1.912E+00  1.411E+00 8.2397279E+00 2.5544079E+00 1.1524604E+00
  4.318E-02  1.921E+00  1.388E+00 8.3396407E+00 2.4286978E+00 1.0228162E+00
  0.000E+00  1.890E+00  1.456E+00 8.3267167E+00 2.4916043E+00 1.2782411E+00
  4.318E-02  1.901E+00  1.434E+00 8.4770353E+00 2.3742624E+00 1.1438169E+00
  0.000E+00  1.866E+00  1.500E+00 8.3989936E+00 2.4252897E+00 1.3998431E+00
  4.318E-02  1.878E+00  1.478E+00 8.5205260E+00 2.3127333E+00 1.2599083E+00
  0.000E+00  1.840E+00  1.543E+00 8.5537407E+00 2.3533417E+00 1.5197207E+00
  4.318E-02  1.853E+00  1.521E+00 8.6901900E+00 2.2495877E+00 1.3739641E+00
  0.000E+00  1.812E+00  1.584E+00 8.5692004E+00 2.2736595E+00 1.6349630E+00
  4.318E-02  1.826E+00  1.563E+00 8.7307530E+00 2.1758739E+00 1.4836844E+00
  0.000E+00  1.782E+00  1.623E+00 8.6690351E+00 2.1903325E+00 1.7459701E+00
  4.318E-02  1.797E+00  1.604E+00 8.8199169E+00 2.1017260E+00 1.5915300E+00
  0.000E+00  1.750E+00  1.662E+00 8.6771937E+00 2.0999921E+00 1.8535617E+00
  4.318E-02  1.766E+00  1.643E+00 8.8773882E+00 2.0180686E+00 1.6932545E+00
  0.000E+00  1.716E+00  1.698E+00 8.7287076E+00 2.0054789E+00 1.9551982E+00
  4.318E-02  1.733E+00  1.680E+00 8.8735372E+00 1.9325356E+00 1.7922878E+00
  0.000E+00  1.680E+00  1.733E+00 8.6900254E+00 1.9056315E+00 2.0536859E+00
  4.318E-02  1.698E+00  1.716E+00 8.9129718E+00 1.8398654E+00 1.8863353E+00
  0.000E+00  1.643E+00  1.766E+00 8.6928154E+00 1.8005254E+00 2.1449213E+00
  4.318E-02  1.662E+00  1.750E+00 8.8604710E+00 1.7444271E+00 1.9752751E+00
  0.000E+00  1.604E+00  1.797E+00 8.6357343E+00 1.6923041E+00 2.2336927E+00
  4.318E-02  1.623E+00  1.782E+00 8.8528875E+00 1.6432269E+00 2.0605332E+00
  0.000E+00  1.563E+00  1.826E+00 8.5464268E+00 1.5779526E+00 2.3130943E+00
  4.318E-02  1.584E+00  1.812E+00 8.7520418E+00 1.5388475E+00 2.1388490E+00
  0.000E+00  1.521E+00  1.853E+00 8.5051391E+00 1.4611617E+00 2.3911011E+00
  4.318E-02  1.543E+00  1.840E+00 8.7377791E+00 1.4305380E+00 2.2141750E+00
  0.000E+00  1.478E+00  1.878E+00 8.3366615E+00 1.3400399E+00 2.4588504E+00
  4.318E-02  1.500E+00  1.866E+00 8.5815422E+00 1.3177075E+00 2.2819113E+00
  0.000E+00  1.434E+00  1.901E+00 8.2914840E+00 1.2166346E+00 2.5242103E+00
  4.318E-02  1.456E+00  1.890E+00 8.5101214E+00 1.2033124E+00 2.3442390E+00
  0.000E+00  1.388E+00  1.921E+00 8.1546782E+00 1.0879425E+00 2.5819991E+00
  4.318E-02  1.411E+00  1.912E+00 8.4234250E+00 1.0849931E+00 2.4038205E+00
  0.000E+00  1.342E+00  1.940E+00 7.9900391E+00 9.5642982E-01 2.6299773E+00
  4.318E-02  1.365E+00  1.931E+00 8.2408682E+00 9.6159290E-01 2.4522731E+00
  0.000E+00  1.295E+00  1.956E+00 7.9205572E+00 8.2624322E-01 2.6758521E+00
  4.318E-02  1.318E+00  1.948E+00 8.1379047E+00 8.3864749E-01 2.4958195E+00
  0.000E+00  1.247E+00  1.969E+00 7.8342965E+00 6.9390836E-01 2.7164518E+00
  4.318E-02  1.271E+00  1.963E+00 8.0670829E+00 7.1574722E-01 2.5376986E+00
  0.000E+00  1.198E+00  1.980E+00 7.7236964E+00 5.5659177E-01 2.7474207E+00
  4.318E-02  1.223E+00  1.975E+00 7.9633624E+00 5.8870146E-01 2.5715603E+00
  0.000E+00  1.149E+00  1.989E+00 7.6215783E+00 4.1676323E-01 2.7700018E+00
  4.318E-02  1.174E+00  1.985E+00 7.8532877E+00 4.5789033E-01 2.5963301E+00
  0.000E+00  1.100E+00  1.995E+00 7.5518222E+00 2.7718426E-01 2.7862807E+00
  4.318E-02  1.124E+00  1.992E+00 7.7678000E+00 3.2628000E-01 2.6144491E+00
  0.000E+00  1.050E+00  1.999E+00 7.5159532E+00 1.3844392E-01 2.7966594E+00
  4.318E-02  1.075E+00  1.997E+00 7.7144842E+00 1.9542231E-01 2.6270249E+00
  0.000E+00  1.000E+00  2.000E+00 7.5054668E+00 -3.1707759E-06 2.8003032E+00
  4.318E-02  1.025E+00  2.000E+00 7.6899799E+00 6.5093542E-02 2.6335934E+00
  0.000E+00  9.502E-01  1.999E+00 7.5159546E+00 -1.3844805E-01 2.7966588E+00
  4.318E-02  9.751E-01  2.000E+00 7.6899806E+00 -6.5097652E-02 2.6335931E+00
  0.000E+00  9.004E-01  1.995E+00 7.5518249E+00 -2.7718959E-01 2.7862795E+00
  4.318E-02  9.253E-01  1.997E+00 7.7144862E+00 -1.9542479E-01 2.6270240E+00
  0.000E+00  8.510E-01  1.989E+00 7.6215823E+00 -4.1676853E-01 2.7700002E+00
  4.318E-02  8.757E-01  1.992E+00 7.7678033E+00 -3.2628493E-01 2.6144477E+00
  0.000E+00  8.019E-01  1.980E+00 7.7237016E+00 -5.5659527E-01 2.7474185E+00
  4.318E-02  8.264E-01  1.985E+00 7.8532924E+00 -4.5789254E-01 2.5963281E+00
  0.000E+00  7.532E-01  1.969E+00 7.8343029E+00 -6.9391413E-01 2.7164491E+00
  4.318E-02  7.775E-01  1.975E+00 7.9633683E+00 -5.8870476E-01 2.5715578E+00
  0.000E+00  7.052E-01  1.956E+00 7.9205649E+00 -8.2624640E-01 2.6758489E+00
  4.318E-02  7.292E-01  1.963E+00 8.0670901E+00 -7.1575086E-01 2.5376956E+00
  0.000E+00  6.580E-01  1.940E+00 7.9900478E+00 -9.5643325E-01 2.6299737E+00
  4.318E-02  6.815E-01  1.948E+00 8.1379130E+00 -8.3864815E-01 2.4958159E+00
  0.000E+00  6.116E-01  1.921E+00 8.1546882E+00 -1.0879473E+00 2.5819952E+00
  4.318E-02  6.347E-01  1.931E+00 8.2408776E+00 -9.6159660E-01 2.4522693E+00
  0.000E+00  5.661E-01  1.901E+00 8.2914948E+00 -1.2166354E+00 2.5242060E+00
  4.318E-02  5.887E-01  1.912E+00 8.4234352E+00 -1.0849943E+00 2.4038161E+00
  0.000E+00  5.217E-01  1.878E+00 8.3366732E+00 -1.3400433E+00 2.4588459E+00
  4.318E-02  5.438E-01  1.890E+00 8.5101328E+00 -1.2033122E+00 2.3442345E+00
  0.000E+00  4.786E-01  1.853E+00 8.5051516E+00 -1.4611643E+00 2.3910963E+00
  4.318E-02  5.000E-01  1.866E+00 8.5815545E+00 -1.3177103E+00 2.2819066E+00
  0.000E+00  4.367E-01  1.826E+00 8.5464401E+00 -1.5779527E+00 2.3130894E+00
  4.318E-02  4.575E-01  1.840E+00 8.7377923E+00 -1.4305371E+00 2.2141701E+00
  0.000E+00  3.962E-01  1.797E+00 8.6357482E+00 -1.6923055E+00 2.2336877E+00
  4.318E-02  4.163E-01  1.812E+00 8.7520555E+00 -1.5388465E+00 2.1388440E+00
  0.000E+00  3.572E-01  1.766E+00 8.6928300E+00 -1.8005274E+00 2.1449163E+00
  4.318E-02  3.765E-01  1.782E+00 8.8529020E+00 -1.6432276E+00 2.0605282E+00
  0.000E+00  3.198E-01  1.733E+00 8.6900405E+00 -1.9056289E+00 2.0536810E+00
  4.318E-02  3.383E-01  1.750E+00 8.8604861E+00 -1.7444259E+00 1.9752701E+00
  0.000E+00  2.841E-01  1.698E+00 8.7287232E+00 -2.0054783E+00 1.9551933E+00
  4.318E-02  3.018E-01  1.716E+00 8.9129874E+00 -1.8398602E+00 1.8863302E+00
  0.000E+00  2.502E-01  1.662E+00 8.6772097E+00 -2.0999926E+00 1.8535571E+00
  4.318E-02  2.669E-01  1.680E+00 8.8735532E+00 -1.9325362E+00 1.7922831E+00
  0.000E+00  2.182E-01  1.623E+00 8.6690515E+00 -2.1903295E+00 1.7459655E+00
  4.318E-02  2.340E-01  1.643E+00 8.8774047E+00 -2.0180642E+00 1.6932498E+00
  0.000E+00  1.881E-01  1.584E+00 8.5692169E+00 -2.2736597E+00 1.6349588E+00
  4.318E-02  2.029E-01  1.604E+00 8.8199337E+00 -2.1017242E+00 1.5915256E+00
  0.000E+00  1.600E-01  1.543E+00 8.5537575E+00 -2.3533322E+00 1.5197165E+00
  4.318E-02  1.738E-01  1.563E+00 8.7307698E+00 -2.1758669E+00 1.4836804E+00
  0.000E+00  1.340E-01  1.500E+00 8.3990105E+00 -2.4252962E+00 1.3998396E+00
  4.318E-02  1.467E-01  1.521E+00 8.6902071E+00 -2.2495824E+00 1.3739602E+00
  0.000E+00  1.101E-01  1.456E+00 8.3267336E+00 -2.4916050E+00 1.2782378E+00
  4.318E-02  1.218E-01  1.478E+00 8.5205431E+00 -2.3127405E+00 1.2599050E+00
  0.000E+00  8.849E-02  1.411E+00 8.2397455E+00 -2.5543960E+00 1.1524575E+00
  4.318E-02  9.903E-02  1.434E+00 8.4770524E+00 -2.3742518E+00 1.1438138E+00
  0.000E+00  6.913E-02  1.365E+00 8.0586617E+00 -2.6059812E+00 1.0213689E+00
  4.318E-02  7.852E-02  1.388E+00 8.3396578E+00 -2.4286916E+00 1.0228136E+00
  0.000E+00  5.207E-02  1.318E+00 7.9552333E+00 -2.6523678E+00 8.9069669E-01
  4.318E-02  6.031E-02  1.342E+00 8.1742005E+00 -2.4733679E+00 8.9915084E-01
  0.000E+00  3.738E-02  1.271E+00 7.8835719E+00 -2.6965700E+00 7.6017502E-01
  4.318E-02  4.443E-02  1.295E+00 8.1060088E+00 -2.5164441E+00 7.7674136E-01
  0.000E+00  2.507E-02  1.223E+00 7.7799676E+00 -2.7323627E+00 6.2532062E-01
  4.318E-02  3.092E-02  1.247E+00 8.0202908E+00 -2.5547158E+00 6.5225091E-01
  0.000E+00  1.519E-02  1.174E+00 7.6704101E+00 -2.7586741E+00 4.8642173E-01
  4.318E-02  1.983E-02  1.198E+00 7.9093791E+00 -2.5838090E+00 5.2308603E-01
  0.000E+00  7.761E-03  1.124E+00 7.5852837E+00 -2.7779641E+00 3.4661906E-01
  4.318E-02  1.117E-02  1.149E+00 7.8068027E+00 -2.6049024E+00 3.9163074E-01
  0.000E+00  2.796E-03  1.075E+00 7.5320874E+00 -2.7913475E+00 2.0760095E-01
  4.318E-02  4.969E-03  1.100E+00 7.7368697E+00 -2.6200867E+00 2.6046463E-01
  0.000E+00  3.108E-04  1.025E+00 7.5075781E+00 -2.7983317E+00 6.9152551E-02
  4.318E-02  1.243E-03  1.050E+00 7.7010468E+00 -2.6298031E+00 1.3010086E-01
  0.000E+00  3.108E-04  9.751E-01 7.5075785E+00 -2.7983302E+00 -6.9146767E-02
  4.318E-02  0.000E+00  1.000E+00 7.6906067E+00 -2.6332261E+00 2.5644537E-06
  0.000E+00  2.796E-03  9.253E-01 7.5320888E+00 -2.7913425E+00 -2.0759511E-01
  4.318E-02  1.243E-03  9.502E-01 7.7010479E+00 -2.6297998E+00 -1.3009571E-01
  0.000E+00  7.761E-03  8.757E-01 7.5852861E+00 -2.7779556E+00 -3.4661313E-01
  4.318E-02  4.969E-03  9.004E-01 7.7368717E+00 -2.6200793E+00 -2.6045940E-01
  0.000E+00  1.519E-02  8.264E-01 7.6704135E+00 -2.7586664E+00 -4.8641569E-01
  4.318E-02  1.117E-02  8.510E-01 7.8068057E+00 -2.6048928E+00 -3.9162539E-01
  0.000E+00  2.507E-02  7.775E-01 7.7799721E+00 -2.7323634E+00 -6.2531442E-01
  4.318E-02  1.983E-02  8.019E-01 7.9093831E+00 -2.5838039E+00 -5.2308052E-01
  0.000E+00  3.738E-02  7.292E-01 7.8835775E+00 -2.6965748E+00 -7.6016855E-01
  4.318E-02  3.092E-02  7.532E-01 8.0202959E+00 -2.5547193E+00 -6.5224515E-01
  0.000E+00  5.207E-02  6.815E-01 7.9552397E+00 -2.6523603E+00 -8.9068986E-01
  4.318E-02  4.443E-02  7.052E-01 8.1060148E+00 -2.5164443E+00 -7.7673525E-01
  0.000E+00  6.913E-02  6.347E-01 8.0586688E+00 -2.6059707E+00 -1.0213617E+00
  4.318E-02  6.031E-02  6.580E-01 8.1742073E+00 -2.4733555E+00 -8.9914430E-01
  0.000E+00  8.849E-02  5.887E-01 8.2397533E+00 -2.5544015E+00 -1.1524501E+00
  4.318E-02  7.852E-02  6.116E-01 8.3396654E+00 -2.4286890E+00 -1.0228068E+00
  0.000E+00  1.101E-01  5.438E-01 8.3267426E+00 -2.4915977E+00 -1.2782299E+00
  4.318E-02  9.903E-02  5.661E-01 8.4770610E+00 -2.3742535E+00 -1.1438066E+00
  0.000E+00  1.340E-01  5.000E-01 8.3990202E+00 -2.4252832E+00 -1.3998312E+00
  4.318E-02  1.218E-01  5.217E-01 8.5205524E+00 -2.3127244E+00 -1.2598971E+00
  0.000E+00  1.600E-01  4.575E-01 8.5537680E+00 -2.3533354E+00 -1.5197080E+00
  4.318E-02  1.467E-01  4.786E-01 8.6902172E+00 -2.2495788E+00 -1.3739521E+00
  0.000E+00  1.881E-01  4.163E-01 8.5692280E+00 -2.2736535E+00 -1.6349496E+00
  4.318E-02  1.738E-01  4.367E-01 8.7307808E+00 -2.1758651E+00 -1.4836715E+00
  0.000E+00  2.182E-01  3.765E-01 8.6690631E+00 -2.1903268E+00 -1.7459560E+00
  4.318E-02  2.029E-01  3.962E-01 8.8199452E+00 -2.1017175E+00 -1.5915162E+00
  0.000E+00  2.502E-01  3.383E-01 8.6772219E+00 -2.0999868E+00 -1.8535470E+00
  4.318E-02  2.340E-01  3.572E-01 8.8774169E+00 -2.0180605E+00 -1.6932399E+00
  0.000E+00  2.841E-01  3.018E-01 8.7287362E+00 -2.0054740E+00 -1.9551828E+00
  4.318E-02  2.669E-01  3.198E-01 8.8735661E+00 -1.9325280E+00 -1.7922725E+00
  0.000E+00  3.198E-01  2.669E-01 8.6900540E+00 -1.9056270E+00 -2.0536699E+00
  4.318E-02  3.018E-01  2.841E-01 8.9130007E+00 -1.8398584E+00 -1.8863194E+00
  0.000E+00  3.572E-01  2.340E-01 8.6928439E+00 -1.8005217E+00 -2.1449049E+00
  4.318E-02  3.383E-01  2.502E-01 8.8604997E+00 -1.7444206E+00 -1.9752585E+00
  0.000E+00  3.962E-01  2.029E-01 8.6357620E+00 -1.6923014E+00 -2.2336759E+00
  4.318E-02  3.765E-01  2.182E-01 8.8529162E+00 -1.6432209E+00 -2.0605160E+00
  0.000E+00  4.367E-01  1.738E-01 8.5464539E+00 -1.5779509E+00 -2.3130773E+00
  4.318E-02  4.163E-01  1.881E-01 8.7520705E+00 -1.5388419E+00 -2.1388311E+00
  0.000E+00  4.786E-01  1.467E-01 8.5051664E+00 -1.4611604E+00 -2.3910838E+00
  4.318E-02  4.575E-01  1.600E-01 8.7378074E+00 -1.4305331E+00 -2.2141569E+00
  0.000E+00  5.217E-01  1.218E-01 8.3366892E+00 -1.3400379E+00 -2.4588325E+00
  4.318E-02  5.000E-01  1.340E-01 8.5815693E+00 -1.3177039E+00 -2.2818930E+00
  0.000E+00  5.661E-01  9.903E-02 8.2915110E+00 -1.2166317E+00 -2.5241917E+00
  4.318E-02  5.438E-01  1.101E-01 8.5101475E+00 -1.2033107E+00 -2.3442208E+00
  0.000E+00  6.116E-01  7.852E-02 8.1547029E+00 -1.0879401E+00 -2.5819802E+00
  4.318E-02  5.887E-01  8.849E-02 8.4234504E+00 -1.0849932E+00 -2.4038024E+00
  0.000E+00  6.580E-01  6.031E-02 7.9900615E+00 -9.5643104E-01 -2.6299591E+00
  4.318E-02  6.347E-01  6.913E-02 8.2408936E+00 -9.6159288E-01 -2.4522551E+00
  0.000E+00  7.052E-01  4.443E-02 7.9205792E+00 -8.2624972E-01 -2.6758354E+00
  4.318E-02  6.815E-01  5.207E-02 8.1379291E+00 -8.3864543E-01 -2.4958010E+00
  0.000E+00  7.532E-01  3.092E-02 7.8343191E+00 -6.9391874E-01 -2.7164370E+00
  4.318E-02  7.292E-01  3.738E-02 8.0671056E+00 -7.1574297E-01 -2.5376793E+00
  0.000E+00  8.019E-01  1.983E-02 7.7237186E+00 -5.5660223E-01 -2.7474075E+00
  4.318E-02  7.775E-01  2.507E-02 7.9633837E+00 -5.8869708E-01 -2.5715402E+00
  0.000E+00  8.510E-01  1.117E-02 7.6215989E+00 -4.1677124E-01 -2.7699897E+00
  4.318E-02  8.264E-01  1.519E-02 7.8533081E+00 -4.5788803E-01 -2.5963097E+00
  0.000E+00  9.004E-01  4.969E-03 7.5518406E+00 -2.7718982E-01 -2.7862691E+00
  4.318E-02  8.757E-01  7.761E-03 7.7678197E+00 -3.2628049E-01 -2.6144289E+00
  4.318E-02  9.253E-01  2.796E-03 7.7145028E+00 -1.9542475E-01 -2.6270050E+00
  1.000E+01  1.050E+00  1.243E-03 7.5159685E+00 1.3844291E-01 -2.7966489E+00
  1.000E+01  1.000E+00  5.551E-16 7.5054818E+00 -1.7373111E-06 -2.8002927E+00
  9.957E+00  1.025E+00  3.108E-04 7.3438089E+00 7.2146544E-02 -2.9181077E+00
  1.000E+01  9.502E-01  1.243E-03 7.5159697E+00 -1.3844854E-01 -2.7966484E+00
  9.957E+00  9.751E-01  3.108E-04 7.3438095E+00 -7.2152383E-02 -2.9181074E+00
  1.000E+01  9.004E-01  4.969E-03 7.5518406E+00 -2.7718982E-01 -2.7862691E+00
  9.957E+00  9.253E-01  2.796E-03 7.3683487E+00 -2.1660780E-01 -2.9107941E+00
  1.000E+01  8.510E-01  1.117E-02 7.6215989E+00 -4.1677124E-01 -2.7699897E+00
  9.957E+00  8.757E-01  7.761E-03 7.4214830E+00 -3.6165407E-01 -2.8967667E+00
  1.000E+01  8.019E-01  1.983E-02 7.7237186E+00 -5.5660223E-01 -2.7474075E+00
  9.957E+00  8.264E-01  1.519E-02 7.5063454E+00 -5.0749912E-01 -2.8765408E+00
  1.000E+01  7.532E-01  3.092E-02 7.8343191E+00 -6.9391874E-01 -2.7164370E+00
  9.957E+00  7.775E-01  2.507E-02 7.6155192E+00 -6.5233999E-01 -2.8490146E+00
  1.000E+01  7.052E-01  4.443E-02 7.9205792E+00 -8.2624972E-01 -2.6758354E+00
  9.957E+00  7.292E-01  3.738E-02 7.7191280E+00 -7.9291009E-01 -2.8117277E+00
  1.000E+01  6.580E-01  6.031E-02 7.9900615E+00 -9.5643104E-01 -2.6299591E+00
  9.957E+00  6.815E-01  5.207E-02 7.7916759E+00 -9.2899736E-01 -2.7657266E+00
  1.000E+01  6.116E-01  7.852E-02 8.1547029E+00 -1.0879401E+00 -2.5819802E+00
  9.957E+00  6.347E-01  6.913E-02 7.8956503E+00 -1.0652994E+00 -2.7170908E+00
  1.000E+01  5.661E-01  9.903E-02 8.2915110E+00 -1.2166317E+00 -2.5241917E+00
  9.957E+00  5.887E-01  8.849E-02 8.0755601E+00 -1.2019728E+00 -2.6630533E+00
  1.000E+01  5.217E-01  1.218E-01 8.3366892E+00 -1.3400379E+00 -2.4588325E+00
  9.957E+00  5.438E-01  1.101E-01 8.1629997E+00 -1.3331375E+00 -2.5978111E+00
  1.000E+01  4.786E-01  1.467E-01 8.5051664E+00 -1.4611604E+00 -2.3910838E+00
  9.957E+00  5.000E-01  1.340E-01 8.2362277E+00 -1.4599045E+00 -2.5284001E+00
  1.000E+01  4.367E-01  1.738E-01 8.5464539E+00 -1.5779509E+00 -2.3130773E+00
  9.957E+00  4.575E-01  1.600E-01 8.3898380E+00 -1.5848137E+00 -2.4531888E+00
  1.000E+01  3.962E-01  2.029E-01 8.6357620E+00 -1.6923014E+00 -2.2336759E+00
  9.957E+00  4.163E-01  1.881E-01 8.4065918E+00 -1.7049657E+00 -2.3702195E+00
  1.000E+01  3.572E-01  2.340E-01 8.6928439E+00 -1.8005217E+00 -2.1449049E+00
  9.957E+00  3.765E-01  2.182E-01 8.5057487E+00 -1.8206478E+00 -2.2830537E+00
  1.000E+01  3.198E-01  2.669E-01 8.6900540E+00 -1.9056270E+00 -2.0536699E+00
  9.957E+00  3.383E-01  2.502E-01 8.5146505E+00 -1.9326879E+00 -2.1889085E+00
  1.000E+01  2.841E-01  3.018E-01 8.7287362E+00 -2.0054740E+00 -1.9551828E+00
  9.957E+00  3.018E-01  2.841E-01 8.5655314E+00 -2.0386522E+00 -2.0902003E+00
  1.000E+01  2.502E-01  3.383E-01 8.6772219E+00 -2.0999868E+00 -1.8535470E+00
  9.957E+00  2.669E-01  3.198E-01 8.5277464E+00 -2.1411094E+00 -1.9860447E+00
  1.000E+01  2.182E-01  3.765E-01 8.6690631E+00 -2.1903268E+00 -1.7459560E+00
  9.957E+00  2.340E-01  3.572E-01 8.5298458E+00 -2.2362894E+00 -1.8764634E+00
  1.000E+01  1.881E-01  4.163E-01 8.5692280E+00 -2.2736535E+00 -1.6349496E+00
  9.957E+00  2.029E-01  3.962E-01 8.4733240E+00 -2.3284754E+00 -1.7634590E+00
  1.000E+01  1.600E-01  4.575E-01 8.5537680E+00 -2.3533354E+00 -1.5197080E+00
  9.957E+00  1.738E-01  4.367E-01 8.3841367E+00 -2.4115027E+00 -1.6444036E+00
  1.000E+01  1.340E-01  5.000E-01 8.3990202E+00 -2.4252832E+00 -1.3998312E+00
  9.957E+00  1.467E-01  4.786E-01 8.3423967E+00 -2.4923056E+00 -1.5224712E+00
  1.000E+01  1.101E-01  5.438E-01 8.3267426E+00 -2.4915977E+00 -1.2782299E+00
  9.957E+00  1.218E-01  5.217E-01 8.1751830E+00 -2.5631795E+00 -1.3962946E+00
  1.000E+01  8.849E-02  5.887E-01 8.2397533E+00 -2.5544015E+00 -1.1524501E+00
  9.957E+00  9.903E-02  5.661E-01 8.1287001E+00 -2.6310861E+00 -1.2676546E+00
  1.000E+01  6.913E-02  6.347E-01 8.0586688E+00 -2.6059707E+00 -1.0213617E+00
  9.957E+00  7.852E-02  6.116E-01 7.9925653E+00 -2.6910394E+00 -1.1335017E+00
  1.000E+01  5.207E-02  6.815E-01 7.9552397E+00 -2.6523603E+00 -8.9068986E-01
  9.957E+00  6.031E-02  6.580E-01 7.8288023E+00 -2.7412402E+00 -9.9644481E-01
  1.000E+01  3.738E-02  7.292E-01 7.8835775E+00 -2.6965748E+00 -7.6016855E-01
  9.957E+00  4.443E-02  7.052E-01 7.7583182E+00 -2.7889644E+00 -8.6078098E-01
  1.000E+01  2.507E-02  7.775E-01 7.7799721E+00 -2.7323634E+00 -6.2531442E-01
  9.957E+00  3.092E-02  7.532E-01 7.6716899E+00 -2.8310697E+00 -7.2295839E-01
  1.000E+01  1.519E-02  8.264E-01 7.6704135E+00 -2.7586664E+00 -4.8641569E-01
  9.957E+00  1.983E-02  8.019E-01 7.5614514E+00 -2.8632531E+00 -5.7995147E-01
  1.000E+01  7.761E-03  8.757E-01 7.5852861E+00 -2.7779556E+00 -3.4661313E-01
  9.957E+00  1.117E-02  8.510E-01 7.4598026E+00 -2.8868125E+00 -4.3428210E-01
  1.000E+01  2.796E-03  9.253E-01 7.5320888E+00 -2.7913425E+00 -2.0759511E-01
  9.957E+00  4.969E-03  9.004E-01 7.3902498E+00 -2.9038187E+00 -2.8883385E-01
  1.000E+01  3.108E-04  9.751E-01 7.5075785E+00 -2.7983302E+00 -6.9146767E-02
  9.957E+00  1.243E-03  9.502E-01 7.3543700E+00 -2.9146373E+00 -1.4425418E-01
  1.000E+01  3.108E-04  1.025E+00 7.5075781E+00 -2.7983317E+00 6.9152551E-02
  9.957E+00  0.000E+00  1.000E+00 7.3438526E+00 -2.9184279E+00 3.2056620E-06
  1.000E+01  2.796E-03  1.075E+00 7.5320874E+00 -2.7913475E+00 2.0760095E-01
  9.957E+00  1.243E-03  1.050E+00 7.3543689E+00 -2.9146403E+00 1.4426061E-01
  1.000E+01  7.761E-03  1.124E+00 7.5852837E+00 -2.7779641E+00 3.4661906E-01
  9.957E+00  4.969E-03  1.100E+00 7.3902477E+00 -2.9038256E+00 2.8884036E-01
  1.000E+01  1.519E-02  1.174E+00 7.6704101E+00 -2.7586741E+00 4.8642173E-01
  9.957E+00  1.117E-02  1.149E+00 7.4597996E+00 -2.8868210E+00 4.3428869E-01
  1.000E+01  2.507E-02  1.223E+00 7.7799676E+00 -2.7323627E+00 6.2532062E-01
  9.957E+00  1.983E-02  1.198E+00 7.5614474E+00 -2.8632564E+00 5.7995817E-01
  1.000E+01  3.738E-02  1.271E+00 7.8835719E+00 -2.6965700E+00 7.6017502E-01
  9.957E+00  3.092E-02  1.247E+00 7.6716849E+00 -2.8310646E+00 7.2296527E-01
  1.000E+01  5.207E-02  1.318E+00 7.9552333E+00 -2.6523678E+00 8.9069669E-01
  9.957E+00  4.443E-02  1.295E+00 7.7583123E+00 -2.7889641E+00 8.6078811E-01
  1.000E+01  6.913E-02  1.365E+00 8.0586617E+00 -2.6059812E+00 1.0213689E+00
  9.957E+00  6.031E-02  1.342E+00 7.8287957E+00 -2.7412532E+00 9.9645225E-01
  1.000E+01  8.849E-02  1.411E+00 8.2397455E+00 -2.5543960E+00 1.1524575E+00
  9.957E+00  7.852E-02  1.388E+00 7.9925581E+00 -2.6910399E+00 1.1335091E+00
  1.000E+01  1.101E-01  1.456E+00 8.3267336E+00 -2.4916050E+00 1.2782378E+00
  9.957E+00  9.903E-02  1.434E+00 8.1286919E+00 -2.6310818E+00 1.2676627E+00
  1.000E+01  1.340E-01  1.500E+00 8.3990105E+00 -2.4252962E+00 1.3998396E+00
  9.957E+00  1.218E-01  1.478E+00 8.1751740E+00 -2.5631951E+00 1.3963030E+00
  1.000E+01  1.600E-01  1.543E+00 8.5537575E+00 -2.3533322E+00 1.5197165E+00
  9.957E+00  1.467E-01  1.521E+00 8.3423869E+00 -2.4923064E+00 1.5224796E+00
  1.000E+01  1.881E-01  1.584E+00 8.5692169E+00 -2.2736597E+00 1.6349588E+00
  9.957E+00  1.738E-01  1.563E+00 8.3841262E+00 -2.4115028E+00 1.6444126E+00
  1.000E+01  2.182E-01  1.623E+00 8.6690515E+00 -2.1903295E+00 1.7459655E+00
  9.957E+00  2.029E-01  1.604E+00 8.4733129E+00 -2.3284807E+00 1.7634684E+00
  1.000E+01  2.502E-01  1.662E+00 8.6772097E+00 -2.0999926E+00 1.8535571E+00
  9.957E+00  2.340E-01  1.643E+00 8.5298340E+00 -2.2362903E+00 1.8764730E+00
  1.000E+01  2.841E-01  1.698E+00 8.7287232E+00 -2.0054783E+00 1.9551933E+00
  9.957E+00  2.669E-01  1.680E+00 8.5277342E+00 -2.1411156E+00 1.9860549E+00
  1.000E+01  3.198E-01  1.733E+00 8.6900405E+00 -1.9056289E+00 2.0536810E+00
  9.957E+00  3.018E-01  1.716E+00 8.5655188E+00 -2.0386520E+00 2.0902106E+00
  1.000E+01  3.572E-01  1.766E+00 8.6928300E+00 -1.8005274E+00 2.1449163E+00
  9.957E+00  3.383E-01  1.750E+00 8.5146376E+00 -1.9326914E+00 2.1889193E+00
  1.000E+01  3.962E-01  1.797E+00 8.6357482E+00 -1.6923055E+00 2.2336877E+00
  9.957E+00  3.765E-01  1.782E+00 8.5057351E+00 -1.8206522E+00 2.2830649E+00
  1.000E+01  4.367E-01  1.826E+00 8.5464401E+00 -1.5779527E+00 2.3130894E+00
  9.957E+00  4.163E-01  1.812E+00 8.4065776E+00 -1.7049687E+00 2.3702311E+00
  1.000E+01  4.786E-01  1.853E+00 8.5051516E+00 -1.4611643E+00 2.3910963E+00
  9.957E+00  4.575E-01  1.840E+00 8.3898237E+00 -1.5848160E+00 2.4532008E+00
  1.000E+01  5.217E-01  1.878E+00 8.3366732E+00 -1.3400433E+00 2.4588459E+00
  9.957E+00  5.000E-01  1.866E+00 8.2362140E+00 -1.4599088E+00 2.5284123E+00
  1.000E+01  5.661E-01  1.901E+00 8.2914948E+00 -1.2166354E+00 2.5242060E+00
  9.957E+00  5.438E-01  1.890E+00 8.1629862E+00 -1.3331376E+00 2.5978231E+00
  1.000E+01  6.116E-01  1.921E+00 8.1546882E+00 -1.0879473E+00 2.5819952E+00
  9.957E+00  5.887E-01  1.912E+00 8.0755454E+00 -1.2019729E+00 2.6630650E+00
  1.000E+01  6.580E-01  1.940E+00 7.9900478E+00 -9.5643325E-01 2.6299737E+00
  9.957E+00  6.347E-01  1.931E+00 7.8956342E+00 -1.0653019E+00 2.7171031E+00
  1.000E+01  7.052E-01  1.956E+00 7.9205649E+00 -8.2624640E-01 2.6758489E+00
  9.957E+00  6.815E-01  1.948E+00 7.7916592E+00 -9.2899921E-01 2.7657397E+00
  1.000E+01  7.532E-01  1.969E+00 7.8343029E+00 -6.9391413E-01 2.7164491E+00
  9.957E+00  7.292E-01  1.963E+00 7.7191123E+00 -7.9291649E-01 2.8117421E+00
  1.000E+01  8.019E-01  1.980E+00 7.7237016E+00 -5.5659527E-01 2.7474185E+00
  9.957E+00  7.775E-01  1.975E+00 7.6155048E+00 -6.5234661E-01 2.8490301E+00
  1.000E+01  8.510E-01  1.989E+00 7.6215823E+00 -4.1676853E-01 2.7700002E+00
  9.957E+00  8.264E-01  1.985E+00 7.5063315E+00 -5.0750334E-01 2.8765571E+00
  1.000E+01  9.004E-01  1.995E+00 7.5518249E+00 -2.7718959E-01 2.7862795E+00
  9.957E+00  8.757E-01  1.992E+00 7.4214687E+00 -3.6165787E-01 2.8967833E+00
  1.000E+01  9.502E-01  1.999E+00 7.5159546E+00 -1.3844805E-01 2.7966588E+00
  9.957E+00  9.253E-01  1.997E+00 7.3683335E+00 -2.1660797E-01 2.9108108E+00
  1.000E+01  1.000E+00  2.000E+00 7.5054668E+00 -3.1707759E-06 2.8003032E+00
  9.957E+00  9.751E-01  2.000E+00 7.3437938E+00 -7.2153010E-02 2.9181242E+00
  1.000E+01  1.050E+00  1.999E+00 7.5159532E+00 1.3844392E-01 2.7966594E+00
  9.957E+00  1.025E+00  2.000E+00 7.3437932E+00 7.2146177E-02 2.9181245E+00
  1.000E+01  1.100E+00  1.995E+00 7.5518222E+00 2.7718426E-01 2.7862807E+00
  9.957E+00  1.075E+00  1.997E+00 7.3683316E+00 2.1660236E-01 2.9108117E+00
  1.000E+01  1.149E+00  1.989E+00 7.6215783E+00 4.1676323E-01 2.7700018E+00
  9.957E+00  1.124E+00  1.992E+00 7.4214654E+00 3.6165045E-01 2.8967847E+00