# TIME = 11.000000
VARIABLES = X, Y, Z, FX, FY, FZ
ZONE N=29232 E=58212 F=FEPOINT ET=TRIANGLE
  0.000E+00  9.502E-01  1.243E-03 1.0734486E+01 3.0620630E-01 6.2029648E+00
  0.000E+00  1.000E+00  0.000E+00 1.0723950E+01 1.2732361E-05 6.2101542E+00
  4.318E-02  9.751E-01  3.108E-04 1.0806400E+01 1.9349073E-01 7.8656954E+00
  0.000E+00  1.050E+00  1.243E-03 1.0734486E+01 -3.0620953E-01 6.2029714E+00
  4.318E-02  1.025E+00  3.108E-04 1.0806395E+01 -1.9347917E-01 7.8656994E+00
  0.000E+00  1.100E+00  4.969E-03 1.0771342E+01 -6.1420379E-01 6.1808989E+00
  4.318E-02  1.075E+00  2.796E-03 1.0832490E+01 -5.8170390E-01 7.8488127E+00
  0.000E+00  1.149E+00  1.117E-02 1.0845648E+01 -9.2477435E-01 6.1439582E+00
  4.318E-02  1.124E+00  7.761E-03 1.0890957E+01 -9.7371392E-01 7.8151338E+00
  0.000E+00  1.198E+00  1.983E-02 1.0956357E+01 -1.2349054E+00 6.0912190E+00
  4.318E-02  1.174E+00  1.519E-02 1.0985531E+01 -1.3693279E+00 7.7625593E+00
  0.000E+00  1.247E+00  3.092E-02 1.1072743E+01 -1.5377491E+00 6.0212812E+00
  4.318E-02  1.223E+00  2.507E-02 1.1104889E+01 -1.7608867E+00 7.6867823E+00
  0.000E+00  1.295E+00  4.443E-02 1.1150154E+01 -1.8297219E+00 5.9335700E+00
  4.318E-02  1.271E+00  3.738E-02 1.1208223E+01 -2.1378627E+00 7.5834144E+00
  0.000E+00  1.342E+00  6.031E-02 1.1197230E+01 -2.1191568E+00 5.8323985E+00
  4.318E-02  1.318E+00  5.207E-02 1.1261124E+01 -2.5029249E+00 7.4581836E+00
  0.000E+00  1.388E+00  7.852E-02 1.1376120E+01 -2.4110267E+00 5.7190899E+00
  4.318E-02  1.365E+00  6.913E-02 1.1352263E+01 -2.8714045E+00 7.3223523E+00
  0.000E+00  1.434E+00  9.903E-02 1.1525560E+01 -2.6955222E+00 5.5932096E+00
  4.318E-02  1.411E+00  8.849E-02 1.1558407E+01 -3.2394369E+00 7.1736625E+00
  0.000E+00  1.478E+00  1.218E-01 1.1541319E+01 -2.9682390E+00 5.4503865E+00
  4.318E-02  1.456E+00  1.101E-01 1.1638539E+01 -3.5915862E+00 7.0016487E+00
  0.000E+00  1.521E+00  1.467E-01 1.1730310E+01 -3.2342420E+00 5.2923548E+00
  4.318E-02  1.500E+00  1.340E-01 1.1690613E+01 -3.9319100E+00 6.8091658E+00
  0.000E+00  1.563E+00  1.738E-01 1.1763556E+01 -3.4955874E+00 5.1275088E+00
  4.318E-02  1.543E+00  1.600E-01 1.1870015E+01 -4.2669321E+00 6.6058810E+00
  0.000E+00  1.604E+00  2.029E-01 1.1848534E+01 -3.7445589E+00 4.9443133E+00
  4.318E-02  1.584E+00  1.881E-01 1.1861055E+01 -4.5902467E+00 6.3844655E+00
  0.000E+00  1.643E+00  2.340E-01 1.1917437E+01 -3.9869730E+00 4.7536003E+00
  4.318E-02  1.623E+00  2.182E-01 1.1976606E+01 -4.9014044E+00 6.1472479E+00
  0.000E+00  1.680E+00  2.669E-01 1.1896741E+01 -4.2187868E+00 4.5490132E+00
  4.318E-02  1.662E+00  2.502E-01 1.1971386E+01 -5.2015749E+00 5.8965189E+00
  0.000E+00  1.716E+00  3.018E-01 1.1952558E+01 -4.4404680E+00 4.3346242E+00
  4.318E-02  1.698E+00  2.841E-01 1.2039418E+01 -5.4896207E+00 5.6311411E+00
  0.000E+00  1.750E+00  3.383E-01 1.1886325E+01 -4.6526724E+00 4.1094117E+00
  4.318E-02  1.733E+00  3.198E-01 1.1983803E+01 -5.7634204E+00 5.3519456E+00
  0.000E+00  1.782E+00  3.765E-01 1.1891750E+01 -4.8518077E+00 3.8736786E+00
  4.318E-02  1.766E+00  3.572E-01 1.2006162E+01 -6.0256672E+00 5.0606922E+00
  0.000E+00  1.812E+00  4.163E-01 1.1777843E+01 -5.0425331E+00 3.6296616E+00
  4.318E-02  1.797E+00  3.962E-01 1.1937921E+01 -6.2707460E+00 4.7553575E+00
  0.000E+00  1.840E+00  4.575E-01 1.1786311E+01 -5.2177048E+00 3.3746821E+00
  4.318E-02  1.826E+00  4.367E-01 1.1853999E+01 -6.5053976E+00 4.4407612E+00
  0.000E+00  1.866E+00  5.000E-01 1.1608761E+01 -5.3817139E+00 3.1112585E+00
  4.318E-02  1.853E+00  4.786E-01 1.1822177E+01 -6.7188659E+00 4.1112408E+00
  0.000E+00  1.890E+00  5.438E-01 1.1556377E+01 -5.5353007E+00 2.8425398E+00
  4.318E-02  1.878E+00  5.217E-01 1.1633132E+01 -6.9201205E+00 3.7737842E+00
  0.000E+00  1.912E+00  5.887E-01 1.1476508E+01 -5.6715286E+00 2.5641813E+00
  4.318E-02  1.901E+00  5.661E-01 1.1620040E+01 -7.1070660E+00 3.4295449E+00
  0.000E+00  1.931E+00  6.347E-01 1.1272662E+01 -5.7930207E+00 2.2741153E+00
  4.318E-02  1.921E+00  6.116E-01 1.1470263E+01 -7.2691092E+00 3.0676367E+00
  0.000E+00  1.948E+00  6.815E-01 1.1181074E+01 -5.9017947E+00 1.9819656E+00
  4.318E-02  1.940E+00  6.580E-01 1.1290886E+01 -7.4118823E+00 2.6961945E+00
  0.000E+00  1.963E+00  7.292E-01 1.1126211E+01 -5.9981874E+00 1.6916876E+00
  4.318E-02  1.956E+00  7.052E-01 1.1246935E+01 -7.5451186E+00 2.3297465E+00
  0.000E+00  1.975E+00  7.775E-01 1.1022744E+01 -6.0779029E+00 1.3932725E+00
  4.318E-02  1.969E+00  7.532E-01 1.1172038E+01 -7.6623175E+00 1.9588971E+00
  0.000E+00  1.985E+00  8.264E-01 1.0905744E+01 -6.1391859E+00 1.0844555E+00
  4.318E-02  1.980E+00  8.019E-01 1.1055345E+01 -7.7521372E+00 1.5717450E+00
  0.000E+00  1.992E+00  8.757E-01 1.0814403E+01 -6.1835308E+00 7.7214519E-01
  4.318E-02  1.989E+00  8.510E-01 1.0942355E+01 -7.8156878E+00 1.1752150E+00
  0.000E+00  1.997E+00  9.253E-01 1.0758357E+01 -6.2126930E+00 4.6179515E-01
  4.318E-02  1.995E+00  9.004E-01 1.0865896E+01 -7.8578347E+00 7.7962007E-01
  0.000E+00  2.000E+00  9.751E-01 1.0733339E+01 -6.2274693E+00 1.5368329E-01
  4.318E-02  1.999E+00  9.502E-01 1.0827770E+01 -7.8826226E+00 3.8856646E-01
  0.000E+00  2.000E+00  1.025E+00 1.0733335E+01 -6.2274528E+00 -1.5370063E-01
  4.318E-02  2.000E+00  1.000E+00 1.0816948E+01 -7.8910699E+00 -1.0232751E-05
  0.000E+00  1.997E+00  1.075E+00 1.0758347E+01 -6.2126477E+00 -4.6180974E-01
  4.318E-02  1.999E+00  1.050E+00 1.0827764E+01 -7.8825529E+00 -3.8858461E-01
  0.000E+00  1.992E+00  1.124E+00 1.0814385E+01 -6.1834738E+00 -7.7215498E-01
  4.318E-02  1.995E+00  1.100E+00 1.0865886E+01 -7.8576976E+00 -7.7963182E-01
  0.000E+00  1.985E+00  1.174E+00 1.0905717E+01 -6.1391457E+00 -1.0844586E+00
  4.318E-02  1.989E+00  1.149E+00 1.0942337E+01 -7.8155170E+00 -1.1752180E+00
  0.000E+00  1.975E+00  1.223E+00 1.1022708E+01 -6.0778819E+00 -1.3932648E+00
  4.318E-02  1.980E+00  1.198E+00 1.1055317E+01 -7.7520072E+00 -1.5717387E+00
  0.000E+00  1.963E+00  1.271E+00 1.1126173E+01 -5.9981115E+00 -1.6916638E+00
  4.318E-02  1.969E+00  1.247E+00 1.1171998E+01 -7.6622656E+00 -1.9588794E+00
  0.000E+00  1.948E+00  1.318E+00 1.1181041E+01 -5.9016006E+00 -1.9819269E+00
  4.318E-02  1.956E+00  1.295E+00 1.1246893E+01 -7.5450349E+00 -2.3297125E+00
  0.000E+00  1.931E+00  1.365E+00 1.1272630E+01 -5.7928513E+00 -2.2740717E+00
  4.318E-02  1.940E+00  1.342E+00 1.1290856E+01 -7.4116753E+00 -2.6961469E+00
  0.000E+00  1.912E+00  1.411E+00 1.1476473E+01 -5.6714900E+00 -2.5641382E+00
  4.318E-02  1.921E+00  1.388E+00 1.1470236E+01 -7.2689784E+00 -3.0675866E+00
  0.000E+00  1.890E+00  1.456E+00 1.1556348E+01 -5.5352334E+00 -2.8424956E+00
  4.318E-02  1.901E+00  1.434E+00 1.1620010E+01 -7.1070320E+00 -3.4294972E+00
  0.000E+00  1.866E+00  1.500E+00 1.1608730E+01 -5.3816350E+00 -3.1112112E+00
  4.318E-02  1.878E+00  1.478E+00 1.1633107E+01 -6.9199961E+00 -3.7737317E+00
  0.000E+00  1.840E+00  1.543E+00 1.1786277E+01 -5.2176510E+00 -3.3746284E+00
  4.318E-02  1.853E+00  1.521E+00 1.1822142E+01 -6.7187858E+00 -4.1111869E+00
  0.000E+00  1.812E+00  1.584E+00 1.1777814E+01 -5.0424192E+00 -3.6295991E+00
  4.318E-02  1.826E+00  1.563E+00 1.1853966E+01 -6.5053337E+00 -4.4406995E+00
  0.000E+00  1.782E+00  1.623E+00 1.1891722E+01 -4.8517438E+00 -3.8736161E+00
  4.318E-02  1.797E+00  1.604E+00 1.1937899E+01 -6.2706566E+00 -4.7552906E+00
  0.000E+00  1.750E+00  1.662E+00 1.1886297E+01 -4.6526313E+00 -4.1093481E+00
  4.318E-02  1.766E+00  1.643E+00 1.2006140E+01 -6.0256066E+00 -5.0606244E+00
  0.000E+00  1.716E+00  1.698E+00 1.1952527E+01 -4.4403971E+00 -4.3345531E+00
  4.318E-02  1.733E+00  1.680E+00 1.1983774E+01 -5.7633417E+00 -5.3518734E+00
  0.000E+00  1.680E+00  1.733E+00 1.1896714E+01 -4.2187041E+00 -4.5489350E+00
  4.318E-02  1.698E+00  1.716E+00 1.2039389E+01 -5.4895602E+00 -5.6310643E+00
  0.000E+00  1.643E+00  1.766E+00 1.1917411E+01 -3.9869231E+00 -4.7535204E+00
  4.318E-02  1.662E+00  1.750E+00 1.1971367E+01 -5.2015095E+00 -5.8964391E+00
  0.000E+00  1.604E+00  1.797E+00 1.1848503E+01 -3.7445098E+00 -4.9442290E+00
  4.318E-02  1.623E+00  1.782E+00 1.1976581E+01 -4.9013403E+00 -6.1471638E+00
  0.000E+00  1.563E+00  1.826E+00 1.1763526E+01 -3.4955099E+00 -5.1274184E+00
  4.318E-02  1.584E+00  1.812E+00 1.1861026E+01 -4.5901894E+00 -6.3843763E+00
  0.000E+00  1.521E+00  1.853E+00 1.1730283E+01 -3.2341999E+00 -5.2922636E+00
  4.318E-02  1.543E+00  1.840E+00 1.1869997E+01 -4.2668793E+00 -6.6057873E+00
  0.000E+00  1.478E+00  1.878E+00 1.1541289E+01 -2.9682004E+00 -5.4502936E+00
  4.318E-02  1.500E+00  1.866E+00 1.1690590E+01 -3.9318547E+00 -6.8090684E+00
  0.000E+00  1.434E+00  1.901E+00 1.1525532E+01 -2.6954660E+00 -5.5931132E+00
  4.318E-02  1.456E+00  1.890E+00 1.1638511E+01 -3.5915400E+00 -7.0015467E+00
  0.000E+00  1.388E+00  1.921E+00 1.1376093E+01 -2.4110049E+00 -5.7189927E+00
  4.318E-02  1.411E+00  1.912E+00 1.1558391E+01 -3.2393912E+00 -7.1735562E+00
  0.000E+00  1.342E+00  1.940E+00 1.1197198E+01 -2.1191213E+00 -5.8322973E+00
  4.318E-02  1.365E+00  1.931E+00 1.1352237E+01 -2.8713605E+00 -7.3222437E+00
  0.000E+00  1.295E+00  1.956E+00 1.1150127E+01 -1.8296772E+00 -5.9334645E+00
  4.318E-02  1.318E+00  1.948E+00 1.1261099E+01 -2.5028969E+00 -7.4580736E+00
  0.000E+00  1.247E+00  1.969E+00 1.1072715E+01 -1.5377327E+00 -6.0211732E+00
  4.318E-02  1.271E+00  1.963E+00 1.1208205E+01 -2.1378367E+00 -7.5833037E+00
  0.000E+00  1.198E+00  1.980E+00 1.0956328E+01 -1.2348654E+00 -6.0911080E+00
  4.318E-02  1.223E+00  1.975E+00 1.1104860E+01 -1.7608678E+00 -7.6866710E+00
  0.000E+00  1.149E+00  1.989E+00 1.0845622E+01 -9.2476257E-01 -6.1438465E+00
  4.318E-02  1.174E+00  1.985E+00 1.0985513E+01 -1.3693155E+00 -7.7624476E+00
  0.000E+00  1.100E+00  1.995E+00 1.0771311E+01 -6.1419874E-01 -6.1807869E+00
  4.318E-02  1.124E+00  1.992E+00 1.0890936E+01 -9.7369897E-01 -7.8150216E+00
  0.000E+00  1.050E+00  1.999E+00 1.0734459E+01 -3.0619346E-01 -6.2028594E+00
  4.318E-02  1.075E+00  1.997E+00 1.0832466E+01 -5.8169930E-01 -7.8487001E+00
  0.000E+00  1.000E+00  2.000E+00 1.0723921E+01 -4.1170391E-06 -6.2100427E+00
  4.318E-02  1.025E+00  2.000E+00 1.0806380E+01 -1.9347634E-01 -7.8655871E+00
  0.000E+00  9.502E-01  1.999E+00 1.0734456E+01 3.0621335E-01 -6.2028541E+00
  4.318E-02  9.751E-01  2.000E+00 1.0806373E+01 1.9348773E-01 -7.8655836E+00
  0.000E+00  9.004E-01  1.995E+00 1.0771311E+01 6.1420088E-01 -6.1807760E+00
  4.318E-02  9.253E-01  1.997E+00 1.0832467E+01 5.8170632E-01 -7.8486901E+00
  0.000E+00  8.510E-01  1.989E+00 1.0845616E+01 9.2476216E-01 -6.1438302E+00
  4.318E-02  8.757E-01  1.992E+00 1.0890933E+01 9.7371083E-01 -7.8150048E+00
  0.000E+00  8.019E-01  1.980E+00 1.0956325E+01 1.2348827E+00 -6.0910868E+00
  4.318E-02  8.264E-01  1.985E+00 1.0985505E+01 1.3693194E+00 -7.7624240E+00
  0.000E+00  7.532E-01  1.969E+00 1.1072710E+01 1.5377176E+00 -6.0211461E+00
  4.318E-02  7.775E-01  1.975E+00 1.1104861E+01 1.7608722E+00 -7.6866413E+00
  0.000E+00  7.052E-01  1.956E+00 1.1150119E+01 1.8296857E+00 -5.9334335E+00
  4.318E-02  7.292E-01  1.963E+00 1.1208193E+01 2.1378394E+00 -7.5832676E+00
  0.000E+00  6.580E-01  1.940E+00 1.1197193E+01 2.1191176E+00 -5.8322612E+00
  4.318E-02  6.815E-01  1.948E+00 1.1261093E+01 2.5028897E+00 -7.4580318E+00
  0.000E+00  6.116E-01  1.921E+00 1.1376083E+01 2.4109828E+00 -5.7189516E+00
  4.318E-02  6.347E-01  1.931E+00 1.1352231E+01 2.8713564E+00 -7.3221965E+00
  0.000E+00  5.661E-01  1.901E+00 1.1525522E+01 2.6954696E+00 -5.5930698E+00
  4.318E-02  5.887E-01  1.912E+00 1.1558374E+01 3.2393776E+00 -7.1735036E+00
  0.000E+00  5.217E-01  1.878E+00 1.1541280E+01 2.9681751E+00 -5.4502454E+00
  4.318E-02  5.438E-01  1.890E+00 1.1638505E+01 3.5915176E+00 -7.0014885E+00
  0.000E+00  4.786E-01  1.853E+00 1.1730269E+01 3.2341673E+00 -5.2922128E+00
  4.318E-02  5.000E-01  1.866E+00 1.1690579E+01 3.9318320E+00 -6.8090047E+00
  0.000E+00  4.367E-01  1.826E+00 1.1763513E+01 3.4955035E+00 -5.1273675E+00
  4.318E-02  4.575E-01  1.840E+00 1.1869980E+01 4.2668433E+00 -6.6057191E+00
  0.000E+00  3.962E-01  1.797E+00 1.1848491E+01 3.7444664E+00 -4.9441737E+00
  4.318E-02  4.163E-01  1.812E+00 1.1861019E+01 4.5901460E+00 -6.3843035E+00
  0.000E+00  3.572E-01  1.766E+00 1.1917393E+01 3.9868722E+00 -4.7534633E+00
  4.318E-02  3.765E-01  1.782E+00 1.1976569E+01 4.9012914E+00 -6.1470865E+00
  0.000E+00  3.198E-01  1.733E+00 1.1896697E+01 4.2186772E+00 -4.5488796E+00
  4.318E-02  3.383E-01  1.750E+00 1.1971348E+01 5.2014505E+00 -5.8963596E+00
  0.000E+00  2.841E-01  1.698E+00 1.1952512E+01 4.4403497E+00 -4.3344945E+00
  4.318E-02  3.018E-01  1.716E+00 1.2039378E+01 5.4894842E+00 -5.6309845E+00
  0.000E+00  2.502E-01  1.662E+00 1.1886278E+01 4.6525469E+00 -4.1092873E+00
  4.318E-02  2.669E-01  1.680E+00 1.1983763E+01 5.7632726E+00 -5.3517929E+00
  0.000E+00  2.182E-01  1.623E+00 1.1891702E+01 4.8516738E+00 -3.8735601E+00
  4.318E-02  2.340E-01  1.643E+00 1.2006120E+01 6.0255109E+00 -5.0605459E+00
  0.000E+00  1.881E-01  1.584E+00 1.1777795E+01 5.0423928E+00 -3.6295498E+00
  4.318E-02  2.029E-01  1.604E+00 1.1937878E+01 6.2705818E+00 -4.7552190E+00
  0.000E+00  1.600E-01  1.543E+00 1.1786263E+01 5.2175585E+00 -3.3745775E+00
  4.318E-02  1.738E-01  1.563E+00 1.1853955E+01 6.5052274E+00 -4.4406320E+00
  0.000E+00  1.340E-01  1.500E+00 1.1608713E+01 5.3815624E+00 -3.1111618E+00
  4.318E-02  1.467E-01  1.521E+00 1.1822131E+01 6.7186902E+00 -4.1111222E+00
  0.000E+00  1.101E-01  1.456E+00 1.1556328E+01 5.5351448E+00 -2.8424518E+00
  4.318E-02  1.218E-01  1.478E+00 1.1633086E+01 6.9199390E+00 -3.7736750E+00
  0.000E+00  8.849E-02  1.411E+00 1.1476458E+01 5.6713695E+00 -2.5641017E+00
  4.318E-02  9.903E-02  1.434E+00 1.1619992E+01 7.1068744E+00 -3.4294457E+00
  0.000E+00  6.913E-02  1.365E+00 1.1272613E+01 5.7928586E+00 -2.2740453E+00
  4.318E-02  7.852E-02  1.388E+00 1.1470217E+01 7.2689144E+00 -3.0675471E+00
  0.000E+00  5.207E-02  1.318E+00 1.1181025E+01 5.9016311E+00 -1.9819053E+00
  4.318E-02  6.031E-02  1.342E+00 1.1290840E+01 7.4116838E+00 -2.6961160E+00
  0.000E+00  3.738E-02  1.271E+00 1.1126162E+01 5.9980232E+00 -1.6916370E+00
  4.318E-02  4.443E-02  1.295E+00 1.1246888E+01 7.5449182E+00 -2.3296789E+00
  0.000E+00  2.507E-02  1.223E+00 1.1022696E+01 6.0777395E+00 -1.3932316E+00
  4.318E-02  3.092E-02  1.247E+00 1.1171991E+01 7.6621187E+00 -1.9588415E+00
  0.000E+00  1.519E-02  1.174E+00 1.0905698E+01 6.1390248E+00 -1.0844245E+00
  4.318E-02  1.983E-02  1.198E+00 1.1055299E+01 7.7519422E+00 -1.5717018E+00
  0.000E+00  7.761E-03  1.124E+00 1.0814358E+01 6.1833731E+00 -7.7212367E-01
  4.318E-02  1.117E-02  1.149E+00 1.0942309E+01 7.8154978E+00 -1.1751842E+00
  0.000E+00  2.796E-03  1.075E+00 1.0758314E+01 6.2125398E+00 -4.6178271E-01
  4.318E-02  4.969E-03  1.100E+00 1.0865852E+01 7.8576489E+00 -7.7960041E-01
  0.000E+00  3.108E-04  1.025E+00 1.0733297E+01 6.2273218E+00 -1.5367935E-01
  4.318E-02  1.243E-03  1.050E+00 1.0827727E+01 7.8824421E+00 -3.8855719E-01
  0.000E+00  3.108E-04  9.751E-01 1.0733295E+01 6.2273120E+00 1.5369673E-01
  4.318E-02  0.000E+00  1.000E+00 1.0816906E+01 7.8908958E+00 9.7301590E-06
  0.000E+00  2.796E-03  9.253E-01 1.0758309E+01 6.2125142E+00 4.6179862E-01
  4.318E-02  1.243E-03  9.502E-01 1.0827724E+01 7.8823862E+00 3.8857491E-01
  0.000E+00  7.761E-03  8.757E-01 1.0814349E+01 6.1833484E+00 7.7213735E-01
  4.318E-02  4.969E-03  9.004E-01 1.0865847E+01 7.8575395E+00 7.7961360E-01
  0.000E+00  1.519E-02  8.264E-01 1.0905683E+01 6.1390291E+00 1.0844352E+00
  4.318E-02  1.117E-02  8.510E-01 1.0942301E+01 7.8153675E+00 1.1751921E+00
  0.000E+00  2.507E-02  7.775E-01 1.1022676E+01 6.0777751E+00 1.3932366E+00
  4.318E-02  1.983E-02  8.019E-01 1.1055282E+01 7.7518678E+00 1.5717059E+00
  0.000E+00  3.738E-02  7.292E-01 1.1126144E+01 5.9980154E+00 1.6916322E+00
  4.318E-02  3.092E-02  7.532E-01 1.1171965E+01 7.6621364E+00 1.9588406E+00
  0.000E+00  5.207E-02  6.815E-01 1.1181016E+01 5.9015156E+00 1.9818934E+00
  4.318E-02  4.443E-02  7.052E-01 1.1246864E+01 7.5449176E+00 2.3296697E+00
  0.000E+00  6.913E-02  6.347E-01 1.1272607E+01 5.7927772E+00 2.2740374E+00
  4.318E-02  6.031E-02  6.580E-01 1.1290829E+01 7.4115688E+00 2.6961010E+00
  0.000E+00  8.849E-02  5.887E-01 1.1476453E+01 5.6714263E+00 2.5641039E+00
  4.318E-02  7.852E-02  6.116E-01 1.1470212E+01 7.2688850E+00 3.0675399E+00
  0.000E+00  1.101E-01  5.438E-01 1.1556331E+01 5.5351802E+00 2.8424619E+00
  4.318E-02  9.903E-02  5.661E-01 1.1619990E+01 7.1069521E+00 3.4294490E+00
  0.000E+00  1.340E-01  5.000E-01 1.1608716E+01 5.3815920E+00 3.1111799E+00
  4.318E-02  1.218E-01  5.217E-01 1.1633088E+01 6.9199261E+00 3.7736855E+00
  0.000E+00  1.600E-01  4.575E-01 1.1786266E+01 5.2176180E+00 3.3745997E+00
  4.318E-02  1.467E-01  4.786E-01 1.1822127E+01 6.7187266E+00 4.1111415E+00
  0.000E+00  1.881E-01  4.163E-01 1.1777806E+01 5.0423951E+00 3.6295741E+00
  4.318E-02  1.738E-01  4.367E-01 1.1853952E+01 6.5052875E+00 4.4406579E+00
  0.000E+00  2.182E-01  3.765E-01 1.1891717E+01 4.8517290E+00 3.8735957E+00
  4.318E-02  2.029E-01  3.962E-01 1.1937888E+01 6.2706215E+00 4.7552533E+00
  0.000E+00  2.502E-01  3.383E-01 1.1886294E+01 4.6526231E+00 4.1093329E+00
  4.318E-02  2.340E-01  3.572E-01 1.2006132E+01 6.0255825E+00 5.0605925E+00
  0.000E+00  2.841E-01  3.018E-01 1.1952527E+01 4.4403975E+00 4.3345444E+00
  4.318E-02  2.669E-01  3.198E-01 1.1983768E+01 5.7633268E+00 5.3518479E+00
  0.000E+00  3.198E-01  2.669E-01 1.1896717E+01 4.2187109E+00 4.5489331E+00
  4.318E-02  3.018E-01  2.841E-01 1.2039385E+01 5.4895534E+00 5.6310445E+00
  0.000E+00  3.572E-01  2.340E-01 1.1917415E+01 3.9869361E+00 4.7535255E+00
  4.318E-02  3.383E-01  2.502E-01 1.1971367E+01 5.2015086E+00 5.8964243E+00
  0.000E+00  3.962E-01  2.029E-01 1.1848511E+01 3.7445277E+00 4.9442415E+00
  4.318E-02  3.765E-01  2.182E-01 1.1976582E+01 4.9013473E+00 6.1471580E+00
  0.000E+00  4.367E-01  1.738E-01 1.1763536E+01 3.4955320E+00 5.1274380E+00
  4.318E-02  4.163E-01  1.881E-01 1.1861029E+01 4.5902018E+00 6.3843790E+00
  0.000E+00  4.786E-01  1.467E-01 1.1730295E+01 3.2342246E+00 5.2922900E+00
  4.318E-02  4.575E-01  1.600E-01 1.1870002E+01 4.2668971E+00 6.6057989E+00
  0.000E+00  5.217E-01  1.218E-01 1.1541302E+01 2.9682253E+00 5.4503263E+00
  4.318E-02  5.000E-01  1.340E-01 1.1690596E+01 3.9318771E+00 6.8090896E+00
  0.000E+00  5.661E-01  9.903E-02 1.1525547E+01 2.6954898E+00 5.5931516E+00
  4.318E-02  5.438E-01  1.101E-01 1.1638519E+01 3.5915681E+00 7.0015783E+00
  0.000E+00  6.116E-01  7.852E-02 1.1376111E+01 2.4110288E+00 5.7190383E+00
  4.318E-02  5.887E-01  8.849E-02 1.1558400E+01 3.2394232E+00 7.1735982E+00
  0.000E+00  6.580E-01  6.031E-02 1.1197218E+01 2.1191493E+00 5.8323527E+00
  4.318E-02  6.347E-01  6.913E-02 1.1352249E+01 2.8713925E+00 7.3222952E+00
  0.000E+00  7.052E-01  4.443E-02 1.1150147E+01 1.8297102E+00 5.9335304E+00
  4.318E-02  6.815E-01  5.207E-02 1.1261112E+01 2.5029257E+00 7.4581334E+00
  0.000E+00  7.532E-01  3.092E-02 1.1072735E+01 1.5377673E+00 6.0212492E+00
  4.318E-02  7.292E-01  3.738E-02 1.1208220E+01 2.1378622E+00 7.5833713E+00
  0.000E+00  8.019E-01  1.983E-02 1.0956350E+01 1.2348963E+00 6.0911927E+00
  4.318E-02  7.775E-01  2.507E-02 1.1104876E+01 1.7608914E+00 7.6867468E+00
  0.000E+00  8.510E-01  1.117E-02 1.0845646E+01 9.2478694E-01 6.1439387E+00
  4.318E-02  8.264E-01  1.519E-02 1.0985530E+01 1.3693384E+00 7.7625315E+00
  0.000E+00  9.004E-01  4.969E-03 1.0771337E+01 6.1421665E-01 6.1808860E+00
  4.318E-02  8.757E-01  7.761E-03 1.0890953E+01 9.7372101E-01 7.8151140E+00
  4.318E-02  9.253E-01  2.796E-03 1.0832485E+01 5.8171833E-01 7.8488008E+00
  1.000E+01  1.050E+00  1.243E-03 1.0734486E+01 -3.0620953E-01 6.2029714E+00
  1.000E+01  1.000E+00  5.551E-16 1.0723950E+01 1.2732361E-05 6.2101542E+00
  9.957E+00  1.025E+00  3.108E-04 1.0529626E+01 -1.1484666E-01 4.6551046E+00
  1.000E+01  9.502E-01  1.243E-03 1.0734486E+01 3.0620630E-01 6.2029648E+00
  9.957E+00  9.751E-01  3.108E-04 1.0529624E+01 1.1485789E-01 4.6551020E+00
  1.000E+01  9.004E-01  4.969E-03 1.0771337E+01 6.1421665E-01 6.1808860E+00
  9.957E+00  9.253E-01  2.796E-03 1.0554171E+01 3.4509634E-01 4.6435649E+00
  1.000E+01  8.510E-01  1.117E-02 1.0845646E+01 9.2478694E-01 6.1439387E+00
  9.957E+00  8.757E-01  7.761E-03 1.0609323E+01 5.7681426E-01 4.6205905E+00
  1.000E+01  8.019E-01  1.983E-02 1.0956350E+01 1.2348963E+00 6.0911927E+00
  9.957E+00  8.264E-01  1.519E-02 1.0699861E+01 8.0973727E-01 4.5866069E+00
  1.000E+01  7.532E-01  3.092E-02 1.1072735E+01 1.5377673E+00 6.0212492E+00
  9.957E+00  7.775E-01  2.507E-02 1.0816969E+01 1.0401091E+00 4.5415074E+00
  1.000E+01  7.052E-01  4.443E-02 1.1150147E+01 1.8297102E+00 5.9335304E+00
  9.957E+00  7.292E-01  3.738E-02 1.0921776E+01 1.2630500E+00 4.4840334E+00
  1.000E+01  6.580E-01  6.031E-02 1.1197218E+01 2.1191493E+00 5.8323527E+00
  9.957E+00  6.815E-01  5.207E-02 1.0978794E+01 1.4802695E+00 4.4143760E+00
  1.000E+01  6.116E-01  7.852E-02 1.1376111E+01 2.4110288E+00 5.7190383E+00
  9.957E+00  6.347E-01  6.913E-02 1.1071591E+01 1.6986673E+00 4.3330081E+00
  1.000E+01  5.661E-01  9.903E-02 1.1525547E+01 2.6954898E+00 5.5931516E+00
  9.957E+00  5.887E-01  8.849E-02 1.1274221E+01 1.9152388E+00 4.2422134E+00
  1.000E+01  5.217E-01  1.218E-01 1.1541302E+01 2.9682253E+00 5.4503263E+00
  9.957E+00  5.438E-01  1.101E-01 1.1355471E+01 2.1245186E+00 4.1439578E+00
  1.000E+01  4.786E-01  1.467E-01 1.1730295E+01 3.2342246E+00 5.2922900E+00
  9.957E+00  5.000E-01  1.340E-01 1.1410354E+01 2.3265310E+00 4.0302272E+00
  1.000E+01  4.367E-01  1.738E-01 1.1763536E+01 3.4955320E+00 5.1274380E+00
  9.957E+00  4.575E-01  1.600E-01 1.1587097E+01 2.5240077E+00 3.9082169E+00
  1.000E+01  3.962E-01  2.029E-01 1.1848511E+01 3.7445277E+00 4.9442415E+00
  9.957E+00  4.163E-01  1.881E-01 1.1581010E+01 2.7165494E+00 3.7800061E+00
  1.000E+01  3.572E-01  2.340E-01 1.1917415E+01 3.9869361E+00 4.7535255E+00
  9.957E+00  3.765E-01  2.182E-01 1.1694926E+01 2.9002738E+00 3.6379733E+00
  1.000E+01  3.198E-01  2.669E-01 1.1896717E+01 4.2187109E+00 4.5489331E+00
  9.957E+00  3.383E-01  2.502E-01 1.1691266E+01 3.0784763E+00 3.4910074E+00
  1.000E+01  2.841E-01  3.018E-01 1.1952527E+01 4.4403975E+00 4.3345444E+00
  9.957E+00  3.018E-01  2.841E-01 1.1757417E+01 3.2486983E+00 3.3329625E+00
  1.000E+01  2.502E-01  3.383E-01 1.1886294E+01 4.6526231E+00 4.1093329E+00
  9.957E+00  2.669E-01  3.198E-01 1.1703626E+01 3.4109926E+00 3.1682810E+00
  1.000E+01  2.182E-01  3.765E-01 1.1891717E+01 4.8517290E+00 3.8735957E+00
  9.957E+00  2.340E-01  3.572E-01 1.1723730E+01 3.5664003E+00 2.9957619E+00
  1.000E+01  1.881E-01  4.163E-01 1.1777806E+01 5.0423951E+00 3.6295741E+00
  9.957E+00  2.029E-01  3.962E-01 1.1656630E+01 3.7106085E+00 2.8144344E+00
  1.000E+01  1.600E-01  4.575E-01 1.1786266E+01 5.2176180E+00 3.3745997E+00
  9.957E+00  1.738E-01  4.367E-01 1.1571734E+01 3.8510946E+00 2.6291806E+00
  1.000E+01  1.340E-01  5.000E-01 1.1608716E+01 5.3815920E+00 3.1111799E+00
  9.957E+00  1.467E-01  4.786E-01 1.1538844E+01 3.9746754E+00 2.4327022E+00
  1.000E+01  1.101E-01  5.438E-01 1.1556331E+01 5.5351802E+00 2.8424619E+00
  9.957E+00  1.218E-01  5.217E-01 1.1351670E+01 4.0971167E+00 2.2341417E+00
  1.000E+01  8.849E-02  5.887E-01 1.1476453E+01 5.6714263E+00 2.5641039E+00
  9.957E+00  9.903E-02  5.661E-01 1.1334171E+01 4.2043762E+00 2.0289661E+00
  1.000E+01  6.913E-02  6.347E-01 1.1272607E+01 5.7927772E+00 2.2740374E+00
  9.957E+00  7.852E-02  6.116E-01 1.1186116E+01 4.2995346E+00 1.8150405E+00
  1.000E+01  5.207E-02  6.815E-01 1.1181016E+01 5.9015156E+00 1.9818934E+00
  9.957E+00  6.031E-02  6.580E-01 1.1008898E+01 4.3882439E+00 1.5962911E+00
  1.000E+01  3.738E-02  7.292E-01 1.1126144E+01 5.9980154E+00 1.6916322E+00
  9.957E+00  4.443E-02  7.052E-01 1.0960634E+01 4.4648679E+00 1.3782379E+00
  1.000E+01  2.507E-02  7.775E-01 1.1022676E+01 6.0777751E+00 1.3932366E+00
  9.957E+00  3.092E-02  7.532E-01 1.0882138E+01 4.5297371E+00 1.1580213E+00
  1.000E+01  1.519E-02  8.264E-01 1.0905683E+01 6.1390291E+00 1.0844352E+00
  9.957E+00  1.983E-02  8.019E-01 1.0765650E+01 4.5812233E+00 9.2976513E-01
  1.000E+01  7.761E-03  8.757E-01 1.0814349E+01 6.1833484E+00 7.7213735E-01
  9.957E+00  1.117E-02  8.510E-01 1.0655747E+01 4.6208120E+00 6.9651819E-01
  1.000E+01  2.796E-03  9.253E-01 1.0758309E+01 6.2125142E+00 4.6179862E-01
  9.957E+00  4.969E-03  9.004E-01 1.0582615E+01 4.6494874E+00 4.6296013E-01
  1.000E+01  3.108E-04  9.751E-01 1.0733295E+01 6.2273120E+00 1.5369673E-01
  9.957E+00  1.243E-03  9.502E-01 1.0546617E+01 4.6667361E+00 2.3095597E-01
  1.000E+01  3.108E-04  1.025E+00 1.0733297E+01 6.2273218E+00 -1.5367935E-01
  9.957E+00  0.000E+00  1.000E+00 1.0536442E+01 4.6725570E+00 7.4267783E-06
  1.000E+01  2.796E-03  1.075E+00 1.0758314E+01 6.2125398E+00 -4.6178271E-01
  9.957E+00  1.243E-03  1.050E+00 1.0546620E+01 4.6667232E+00 -2.3094117E-01
  1.000E+01  7.761E-03  1.124E+00 1.0814358E+01 6.1833731E+00 -7.7212367E-01
  9.957E+00  4.969E-03  1.100E+00 1.0582621E+01 4.6494584E+00 -4.6294554E-01
  1.000E+01  1.519E-02  1.174E+00 1.0905698E+01 6.1390248E+00 -1.0844245E+00
  9.957E+00  1.117E-02  1.149E+00 1.0655757E+01 4.6207643E+00 -6.9650457E-01
  1.000E+01  2.507E-02  1.223E+00 1.1022696E+01 6.0777395E+00 -1.3932316E+00
  9.957E+00  1.983E-02  1.198E+00 1.0765663E+01 4.5811699E+00 -9.2975488E-01
  1.000E+01  3.738E-02  1.271E+00 1.1126162E+01 5.9980232E+00 -1.6916370E+00
  9.957E+00  3.092E-02  1.247E+00 1.0882149E+01 4.5297167E+00 -1.1580173E+00
  1.000E+01  5.207E-02  1.318E+00 1.1181025E+01 5.9016311E+00 -1.9819053E+00
  9.957E+00  4.443E-02  1.295E+00 1.0960640E+01 4.4649110E+00 -1.3782383E+00
  1.000E+01  6.913E-02  1.365E+00 1.1272613E+01 5.7928586E+00 -2.2740453E+00
  9.957E+00  6.031E-02  1.342E+00 1.1008903E+01 4.3882965E+00 -1.5962903E+00
  1.000E+01  8.849E-02  1.411E+00 1.1476458E+01 5.6713695E+00 -2.5641017E+00
  9.957E+00  7.852E-02  1.388E+00 1.1186122E+01 4.2995021E+00 -1.8150352E+00
  1.000E+01  1.101E-01  1.456E+00 1.1556328E+01 5.5351448E+00 -2.8424518E+00
  9.957E+00  9.903E-02  1.434E+00 1.1334170E+01 4.2043296E+00 -2.0289561E+00
  1.000E+01  1.340E-01  1.500E+00 1.1608713E+01 5.3815624E+00 -3.1111618E+00
  9.957E+00  1.218E-01  1.478E+00 1.1351664E+01 4.0970916E+00 -2.2341253E+00
  1.000E+01  1.600E-01  1.543E+00 1.1786263E+01 5.2175585E+00 -3.3745775E+00
  9.957E+00  1.467E-01  1.521E+00 1.1538836E+01 3.9746160E+00 -2.4326800E+00
  1.000E+01  1.881E-01  1.584E+00 1.1777795E+01 5.0423928E+00 -3.6295498E+00
  9.957E+00  1.738E-01  1.563E+00 1.1571721E+01 3.8510706E+00 -2.6291560E+00
  1.000E+01  2.182E-01  1.623E+00 1.1891702E+01 4.8516738E+00 -3.8735601E+00
  9.957E+00  2.029E-01  1.604E+00 1.1656617E+01 3.7105844E+00 -2.8144036E+00
  1.000E+01  2.502E-01  1.662E+00 1.1886278E+01 4.6525469E+00 -4.1092873E+00
  9.957E+00  2.340E-01  1.643E+00 1.1723714E+01 3.5663315E+00 -2.9957229E+00
  1.000E+01  2.841E-01  1.698E+00 1.1952512E+01 4.4403497E+00 -4.3344945E+00
  9.957E+00  2.669E-01  1.680E+00 1.1703606E+01 3.4109364E+00 -3.1682363E+00
  1.000E+01  3.198E-01  1.733E+00 1.1896697E+01 4.2186772E+00 -4.5488796E+00
  9.957E+00  3.018E-01  1.716E+00 1.1757395E+01 3.2486638E+00 -3.3329138E+00
  1.000E+01  3.572E-01  1.766E+00 1.1917393E+01 3.9868722E+00 -4.7534633E+00
  9.957E+00  3.383E-01  1.750E+00 1.1691245E+01 3.0784345E+00 -3.4909531E+00
  1.000E+01  3.962E-01  1.797E+00 1.1848491E+01 3.7444664E+00 -4.9441737E+00
  9.957E+00  3.765E-01  1.782E+00 1.1694902E+01 2.9002060E+00 -3.6379122E+00
  1.000E+01  4.367E-01  1.826E+00 1.1763513E+01 3.4955035E+00 -5.1273675E+00
  9.957E+00  4.163E-01  1.812E+00 1.1580984E+01 2.7165137E+00 -3.7799410E+00
  1.000E+01  4.786E-01  1.853E+00 1.1730269E+01 3.2341673E+00 -5.2922128E+00
  9.957E+00  4.575E-01  1.840E+00 1.1587073E+01 2.5239722E+00 -3.9081461E+00
  1.000E+01  5.217E-01  1.878E+00 1.1541280E+01 2.9681751E+00 -5.4502454E+00
  9.957E+00  5.000E-01  1.866E+00 1.1410327E+01 2.3264699E+00 -4.0301487E+00
  1.000E+01  5.661E-01  1.901E+00 1.1525522E+01 2.6954696E+00 -5.5930698E+00
  9.957E+00  5.438E-01  1.890E+00 1.1355443E+01 2.1244857E+00 -4.1438740E+00
  1.000E+01  6.116E-01  1.921E+00 1.1376083E+01 2.4109828E+00 -5.7189516E+00
  9.957E+00  5.887E-01  1.912E+00 1.1274196E+01 1.9151987E+00 -4.2421199E+00
  1.000E+01  6.580E-01  1.940E+00 1.1197193E+01 2.1191176E+00 -5.8322612E+00
  9.957E+00  6.347E-01  1.931E+00 1.1071564E+01 1.6986153E+00 -4.3329134E+00
  1.000E+01  7.052E-01  1.956E+00 1.1150119E+01 1.8296857E+00 -5.9334335E+00
  9.957E+00  6.815E-01  1.948E+00 1.0978766E+01 1.4802552E+00 -4.4142825E+00
  1.000E+01  7.532E-01  1.969E+00 1.1072710E+01 1.5377176E+00 -6.0211461E+00
  9.957E+00  7.292E-01  1.963E+00 1.0921747E+01 1.2630201E+00 -4.4839395E+00
  1.000E+01  8.019E-01  1.980E+00 1.0956325E+01 1.2348827E+00 -6.0910868E+00
  9.957E+00  7.775E-01  1.975E+00 1.0816937E+01 1.0400894E+00 -4.5414122E+00
  1.000E+01  8.510E-01  1.989E+00 1.0845616E+01 9.2476216E-01 -6.1438302E+00
  9.957E+00  8.264E-01  1.985E+00 1.0699831E+01 8.0973505E-01 -4.5865104E+00
  1.000E+01  9.004E-01  1.995E+00 1.0771311E+01 6.1420088E-01 -6.1807760E+00
  9.957E+00  8.757E-01  1.992E+00 1.0609292E+01 5.7678685E-01 -4.6204916E+00
  1.000E+01  9.502E-01  1.999E+00 1.0734456E+01 3.0621335E-01 -6.2028541E+00
  9.957E+00  9.253E-01  1.997E+00 1.0554140E+01 3.4510059E-01 -4.6434646E+00
  1.000E+01  1.000E+00  2.000E+00 1.0723921E+01 -4.1170391E-06 -6.2100427E+00
  9.957E+00  9.751E-01  2.000E+00 1.0529595E+01 1.1484959E-01 -4.6550005E+00
  1.000E+01  1.050E+00  1.999E+00 1.0734459E+01 -3.0619346E-01 -6.2028594E+00
  9.957E+00  1.025E+00  2.000E+00 1.0529595E+01 -1.1484968E-01 -4.6550026E+00
  1.000E+01  1.100E+00  1.995E+00 1.0771311E+01 -6.1419874E-01 -6.1807869E+00
  9.957E+00  1.075E+00  1.997E+00 1.0554142E+01 -3.4508382E-01 -4.6434710E+00
  1.000E+01  1.149E+00  1.989E+00 1.0845622E+01 -9.2476257E-01 -6.1438465E+00
  9.957E+00  1.124E+00  1.992E+00 1.0609295E+01 -5.7679908E-01 -4.6205025E+00
  1.000E+01  1.198E+00  1.980E+00 1.0956328E+01 -1.2348654E+00 -6.0911080E+00
  9.957E+00  1.174E+00  1.985E+00 1.0699833E+01 -8.0972104E-01 -4.5865251E+00