VARIABLES = X, Y, Z
ZONE N=8 E=2 F=FEPOINT ET=QUADRILATERAL
0	0	0
12	0	0
12	6	0
0	6	0
0	0	8
12	0	8
12	6	8
0	6	8
1 2 3 4
5 6 7 8
