VARIABLES = X, Y, Z
ZONE N=8 E=2 F=FEPOINT ET=QUADRILATERAL
0	0	0
16	0	0
16	9	0
0	9	0
0	0	12
16	0	12
16	9	12
0	9	12
1 2 3 4
5 6 7 8
