# TIME = 13.300000
variables = x, y, z
zone N=5762 E=11520 F=FEPOINT ET=TRIANGLE
 2.0860698E+00 1.4634671E+00 1.7497364E+00
 2.0860698E+00 1.4634667E+00 2.5026402E-01
 2.0860698E+00 5.3653314E-01 1.7497366E+00
 2.0860698E+00 5.3653360E-01 2.5026383E-01
 9.7816994E-01 1.0000002E+00 1.5716033E+00
 3.2378766E+00 1.0000002E+00 1.5794577E+00
 9.7816821E-01 1.0000002E+00 4.2839503E-01
 3.2378761E+00 1.0000002E+00 4.2054266E-01
 1.4152362E+00 1.8875193E+00 9.9999980E-01
 1.4152363E+00 1.1248139E-01 9.9999984E-01
 2.7461171E+00 1.8041366E+00 9.9999983E-01
 2.7461172E+00 1.9586359E-01 9.9999985E-01
 2.0412497E+00 1.4570308E+00 1.7588245E+00
 1.9918465E+00 1.4497777E+00 1.7688511E+00
 1.9402629E+00 1.4420376E+00 1.7792866E+00
 1.8871256E+00 1.4336868E+00 1.7899359E+00
 1.8328531E+00 1.4245466E+00 1.8005433E+00
 1.7778398E+00 1.4143910E+00 1.8107596E+00
 1.7223951E+00 1.4029745E+00 1.8201503E+00
 1.6667718E+00 1.3900542E+00 1.8282096E+00
 1.6111729E+00 1.3754108E+00 1.8343923E+00
 1.5557860E+00 1.3588704E+00 1.8381507E+00
 1.5008238E+00 1.3403255E+00 1.8389771E+00
 1.4465609E+00 1.3197517E+00 1.8364471E+00
 1.3933482E+00 1.2972177E+00 1.8302596E+00
 1.3416007E+00 1.2728857E+00 1.8202658E+00
 1.2917648E+00 1.2470008E+00 1.8064817E+00
 1.2442761E+00 1.2198711E+00 1.7890804E+00
 1.1995179E+00 1.1918441E+00 1.7683699E+00
 1.1577913E+00 1.1632817E+00 1.7447575E+00
 1.1192986E+00 1.1345376E+00 1.7187118E+00
 1.0841421E+00 1.1059390E+00 1.6907269E+00
 1.0523536E+00 1.0777916E+00 1.6613169E+00
 1.0239214E+00 1.0503760E+00 1.6310121E+00
 9.9888726E-01 1.0240348E+00 1.6004804E+00
 2.0358482E+00 5.7581415E-01 1.7782633E+00
 1.9847097E+00 5.8515357E-01 1.7890503E+00
 1.9320413E+00 5.9457318E-01 1.7998641E+00
 1.8782211E+00 6.0448084E-01 1.8106698E+00
 1.8235497E+00 6.1520148E-01 1.8212766E+00
 1.7683452E+00 6.2700449E-01 1.8313425E+00
 1.7128924E+00 6.4013687E-01 1.8404197E+00
 1.6574168E+00 6.5481264E-01 1.8479888E+00
 1.6021039E+00 6.7120300E-01 1.8534969E+00
 1.5471316E+00 6.8942343E-01 1.8564007E+00
 1.4927120E+00 7.0952005E-01 1.8562098E+00
 1.4391217E+00 7.3145918E-01 1.8525304E+00
 1.3867113E+00 7.5512333E-01 1.8451027E+00
 1.3358880E+00 7.8031562E-01 1.8338246E+00
 1.2870808E+00 8.0677312E-01 1.8187584E+00
 1.2406975E+00 8.3418607E-01 1.8001180E+00
 1.1970846E+00 8.6221893E-01 1.7782390E+00
 1.1564967E+00 8.9052931E-01 1.7535368E+00
 1.1190788E+00 9.1878227E-01 1.7264608E+00
 1.0848584E+00 9.4666089E-01 1.6974441E+00
 1.0537383E+00 9.7386409E-01 1.6668463E+00
 1.0254626E+00 1.0000002E+00 1.6348640E+00
 2.0334183E+00 6.0981778E-01 1.7961194E+00
 1.9803016E+00 6.2119541E-01 1.8074634E+00
 1.9263525E+00 6.3234229E-01 1.8185353E+00
 1.8716284E+00 6.4390835E-01 1.8294292E+00
 1.8163820E+00 6.5628980E-01 1.8399589E+00
 1.7608621E+00 6.6979867E-01 1.8497851E+00
 1.7053020E+00 6.8467436E-01 1.8584488E+00
 1.6498912E+00 7.0109865E-01 1.8654204E+00
 1.5947896E+00 7.1919476E-01 1.8701451E+00
 1.5401625E+00 7.3902366E-01 1.8720889E+00
 1.4862171E+00 7.6057679E-01 1.8707837E+00
 1.4332286E+00 7.8377189E-01 1.8658691E+00
 1.3815430E+00 8.0845370E-01 1.8571270E+00
 1.3315551E+00 8.3440222E-01 1.8444993E+00
 1.2836692E+00 8.6134685E-01 1.8280880E+00
 1.2382540E+00 8.8898400E-01 1.8081323E+00
 1.1955992E+00 9.1699321E-01 1.7849700E+00
 1.1558800E+00 9.4504954E-01 1.7589797E+00
 1.1191278E+00 9.7282926E-01 1.7305130E+00
 1.0852107E+00 1.0000002E+00 1.6998158E+00
 1.0537383E+00 1.0261363E+00 1.6668463E+00
 2.0316669E+00 6.4540679E-01 1.8127940E+00
 1.9772298E+00 6.5849349E-01 1.8242702E+00
 1.9221529E+00 6.7135436E-01 1.8354177E+00
 1.8666076E+00 6.8460215E-01 1.8462507E+00
 1.8107966E+00 6.9868661E-01 1.8565783E+00
 1.7549476E+00 7.1392399E-01 1.8660401E+00
 1.6992552E+00 7.3053842E-01 1.8741636E+00
 1.6438784E+00 7.4867506E-01 1.8804111E+00
 1.5889557E+00 7.6841115E-01 1.8842305E+00
 1.5346406E+00 7.8975810E-01 1.8851020E+00
 1.4811348E+00 8.1266081E-01 1.8825834E+00
 1.4287087E+00 8.3699780E-01 1.8763499E+00
 1.3776983E+00 8.6258629E-01 1.8662233E+00
 1.3284778E+00 8.8919216E-01 1.8521838E+00
 1.2814147E+00 9.1654301E-01 1.8343595E+00
 1.2368190E+00 9.4434079E-01 1.8129926E+00
 1.1948949E+00 9.7227028E-01 1.7883849E+00
 1.1557035E+00 1.0000002E+00 1.7608279E+00
 1.1191278E+00 1.0271712E+00 1.7305131E+00
 1.0848584E+00 1.0533395E+00 1.6974441E+00
 2.0303026E+00 6.8254691E-01 1.8281613E+00
 1.9748576E+00 6.9718891E-01 1.8395190E+00
 1.9189028E+00 7.1167401E-01 1.8505234E+00
 1.8626648E+00 7.2658788E-01 1.8611270E+00
 1.8063739E+00 7.4236580E-01 1.8710952E+00
 1.7502430E+00 7.5931316E-01 1.8800428E+00
 1.6944473E+00 7.7762377E-01 1.8874798E+00
 1.6391236E+00 7.9740414E-01 1.8928638E+00
 1.5843943E+00 8.1868743E-01 1.8956500E+00
 1.5304028E+00 8.4144170E-01 1.8953375E+00
 1.4773436E+00 8.6557304E-01 1.8915131E+00
 1.4254779E+00 8.9092999E-01 1.8838876E+00
 1.3751237E+00 9.1731039E-01 1.8723187E+00
 1.3266220E+00 9.4447101E-01 1.8568138E+00
 1.2802857E+00 9.7213572E-01 1.8375088E+00
 1.2363441E+00 1.0000002E+00 1.8146210E+00
 1.1948949E+00 1.0277301E+00 1.7883849E+00
 1.1558800E+00 1.0549509E+00 1.7589797E+00
 1.1190787E+00 1.0812182E+00 1.7264608E+00
 2.0291891E+00 7.2122169E-01 1.8420941E+00
 1.9729404E+00 7.3728773E-01 1.8531283E+00
 1.9162855E+00 7.5331541E-01 1.8637988E+00
 1.8594991E+00 7.6983998E-01 1.8739940E+00
 1.8028354E+00 7.8726609E-01 1.8834344E+00
 1.7465085E+00 8.0586552E-01 1.8917049E+00
 1.6906798E+00 8.2579517E-01 1.8983011E+00
 1.6354711E+00 8.4712047E-01 1.9026802E+00
 1.5809915E+00 8.6983423E-01 1.9043093E+00
 1.5273744E+00 8.9386718E-01 1.9027110E+00
 1.4748041E+00 9.1909482E-01 1.8975027E+00
 1.4235252E+00 9.4534334E-01 1.8884285E+00
 1.3738264E+00 9.7239638E-01 1.8753740E+00
 1.3259998E+00 1.0000002E+00 1.8583598E+00
 1.2802857E+00 1.0278647E+00 1.8375088E+00
 1.2368190E+00 1.0556596E+00 1.8129926E+00
 1.1955992E+00 1.0830072E+00 1.7849700E+00
 1.1564967E+00 1.1094711E+00 1.7535368E+00
 2.0282547E+00 7.6134608E-01 1.8544380E+00
 1.9713505E+00 7.7872877E-01 1.8649768E+00
 1.9141430E+00 7.9621121E-01 1.8751382E+00
 1.8569460E+00 8.1427140E-01 1.8847511E+00
 1.8000335E+00 8.3326886E-01 1.8934935E+00
 1.7436206E+00 8.5343178E-01 1.9009236E+00
 1.6878592E+00 8.7487433E-01 1.9065279E+00
 1.6328576E+00 8.9762205E-01 1.9097683E+00
 1.5787128E+00 9.2163155E-01 1.9101295E+00
 1.5255460E+00 9.4680343E-01 1.9071601E+00
 1.4735256E+00 9.7298983E-01 1.9005079E+00
 1.4228704E+00 1.0000002E+00 1.8899448E+00
 1.3738264E+00 1.0276040E+00 1.8753740E+00
 1.3266220E+00 1.0555294E+00 1.8568138E+00
 1.2814147E+00 1.0834574E+00 1.8343595E+00
 1.2382540E+00 1.1110164E+00 1.8081323E+00
 1.1970846E+00 1.1377815E+00 1.7782390E+00
 2.0274684E+00 8.0278283E-01 1.8650306E+00
 1.9700336E+00 8.2138578E-01 1.8749245E+00
 1.9124113E+00 8.4022764E-01 1.8844151E+00
 1.8549429E+00 8.5972996E-01 1.8932805E+00
 1.7979156E+00 8.8019830E-01 1.9011615E+00
 1.7415425E+00 9.0181127E-01 1.9075968E+00
 1.6859650E+00 9.2463931E-01 1.9120698E+00
 1.6312785E+00 9.4867064E-01 1.9140536E+00
 1.5775663E+00 9.7383183E-01 1.9130543E+00
 1.5249335E+00 1.0000002E+00 1.9086473E+00
 1.4735256E+00 1.0270106E+00 1.9005079E+00
 1.4235252E+00 1.0546570E+00 1.8884285E+00
 1.3751237E+00 1.0826900E+00 1.8723187E+00
 1.3284777E+00 1.1108082E+00 1.8521839E+00
 1.2836692E+00 1.1386535E+00 1.8280880E+00
 1.2406974E+00 1.1658143E+00 1.8001180E+00
 2.0268222E+00 8.4535606E-01 1.8737185E+00
 1.9689815E+00 8.6507810E-01 1.8828322E+00
 1.9110833E+00 8.8517449E-01 1.8915039E+00
 1.8534867E+00 9.0600862E-01 1.8994683E+00
 1.7964841E+00 9.2782793E-01 1.9063376E+00
 1.7402824E+00 9.5075947E-01 1.9116386E+00
 1.6850105E+00 9.7483150E-01 1.9148589E+00
 1.6307494E+00 1.0000002E+00 1.9154877E+00
 1.5775663E+00 1.0261686E+00 1.9130543E+00
 1.5255460E+00 1.0531970E+00 1.9071601E+00
 1.4748041E+00 1.0809056E+00 1.8975027E+00
 1.4254779E+00 1.1090704E+00 1.8838876E+00
 1.3776983E+00 1.1374141E+00 1.8662233E+00
 1.3315551E+00 1.1655982E+00 1.8444993E+00
 1.2870808E+00 1.1932273E+00 1.8187584E+00
 2.0263221E+00 8.8885346E-01 1.8803653E+00
 1.9682083E+00 9.0958371E-01 1.8885772E+00
 1.9101778E+00 9.3081747E-01 1.8962959E+00
 1.8525984E+00 9.5285807E-01 1.9032215E+00
 1.7957602E+00 9.7589348E-01 1.9089458E+00
 1.7398594E+00 1.0000002E+00 1.9129925E+00
 1.6850105E+00 1.0251689E+00 1.9148589E+00
 1.6312785E+00 1.0513297E+00 1.9140536E+00
 1.5787128E+00 1.0783688E+00 1.9101295E+00
 1.5273744E+00 1.1061332E+00 1.9027110E+00
 1.4773436E+00 1.1344273E+00 1.8915131E+00
 1.4287087E+00 1.1630026E+00 1.8763499E+00
 1.3815430E+00 1.1915467E+00 1.8571270E+00
 1.3358880E+00 1.2196848E+00 1.8338246E+00
 2.0259795E+00 9.3303295E-01 1.8848612E+00
 1.9677340E+00 9.5464928E-01 1.8920643E+00
 1.9097179E+00 9.7689075E-01 1.8987126E+00
 1.8522994E+00 1.0000002E+00 1.9044795E+00
 1.7957602E+00 1.0241069E+00 1.9089458E+00
 1.7402824E+00 1.0492409E+00 1.9116386E+00
 1.6859650E+00 1.0753611E+00 1.9120698E+00
 1.6328576E+00 1.1023783E+00 1.9097683E+00
 1.5809915E+00 1.1301661E+00 1.9043093E+00
 1.5304028E+00 1.1585587E+00 1.8953375E+00
 1.4811348E+00 1.1873396E+00 1.8825834E+00
 1.4332286E+00 1.2162285E+00 1.8658692E+00
 1.3867113E+00 1.2448771E+00 1.8451027E+00
 2.0258051E+00 9.7763078E-01 1.8871290E+00
 1.9675739E+00 1.0000002E+00 1.8932335E+00
 1.9097179E+00 1.0231096E+00 1.8987126E+00
 1.8525984E+00 1.0471423E+00 1.9032215E+00
 1.7964841E+00 1.0721724E+00 1.9063375E+00
 1.7415425E+00 1.0981891E+00 1.9075968E+00
 1.6878592E+00 1.1251260E+00 1.9065278E+00
 1.6354710E+00 1.1528799E+00 1.9026802E+00
 1.5843943E+00 1.1813130E+00 1.8956500E+00
 1.5346406E+00 1.2102423E+00 1.8851020E+00
 1.4862171E+00 1.2394236E+00 1.8707837E+00
 1.4391217E+00 1.2685412E+00 1.8525305E+00
 2.0258051E+00 1.0223696E+00 1.8871290E+00
 1.9677340E+00 1.0453511E+00 1.8920643E+00
 1.9101778E+00 1.0691829E+00 1.8962959E+00
 1.8534867E+00 1.0939918E+00 1.8994683E+00
 1.7979156E+00 1.1198021E+00 1.9011615E+00
 1.7436206E+00 1.1465686E+00 1.9009236E+00
 1.6906798E+00 1.1742052E+00 1.8983011E+00
 1.6391236E+00 1.2025962E+00 1.8928638E+00
 1.5889557E+00 1.2315892E+00 1.8842304E+00
 1.5401624E+00 1.2609767E+00 1.8720889E+00
 1.4927120E+00 1.2904803E+00 1.8562098E+00
 2.0259795E+00 1.0669674E+00 1.8848612E+00
 1.9682083E+00 1.0904167E+00 1.8885771E+00
 1.9110833E+00 1.1148259E+00 1.8915038E+00
 1.8549429E+00 1.1402704E+00 1.8932805E+00
 1.8000335E+00 1.1667315E+00 1.8934934E+00
 1.7465085E+00 1.1941349E+00 1.8917048E+00
 1.6944473E+00 1.2223766E+00 1.8874797E+00
 1.6438784E+00 1.2513253E+00 1.8804110E+00
 1.5947896E+00 1.2808056E+00 1.8701451E+00
 1.5471316E+00 1.3105770E+00 1.8564007E+00
 2.0263221E+00 1.1111469E+00 1.8803653E+00
 1.9689816E+00 1.1349223E+00 1.8828321E+00
 1.9124114E+00 1.1597727E+00 1.8844151E+00
 1.8569460E+00 1.1857290E+00 1.8847511E+00
 1.8028354E+00 1.2127343E+00 1.8834344E+00
 1.7502430E+00 1.2406872E+00 1.8800427E+00
 1.6992552E+00 1.2694619E+00 1.8741635E+00
 1.6498912E+00 1.2989017E+00 1.8654203E+00
 1.6021038E+00 1.3287974E+00 1.8534969E+00
 2.0268223E+00 1.1546443E+00 1.8737184E+00
 1.9700336E+00 1.1786146E+00 1.8749244E+00
 1.9141430E+00 1.2037892E+00 1.8751381E+00
 1.8594991E+00 1.2301604E+00 1.8739939E+00
 1.8063739E+00 1.2576346E+00 1.8710952E+00
 1.7549476E+00 1.2860764E+00 1.8660401E+00
 1.7053020E+00 1.3153260E+00 1.8584488E+00
 1.6574168E+00 1.3451877E+00 1.8479887E+00
 2.0274685E+00 1.1972175E+00 1.8650306E+00
 1.9713505E+00 1.2212716E+00 1.8649767E+00
 1.9162855E+00 1.2466850E+00 1.8637987E+00
 1.8626648E+00 1.2734125E+00 1.8611269E+00
 1.8107966E+00 1.3013137E+00 1.8565782E+00
 1.7608621E+00 1.3302017E+00 1.8497850E+00
 1.7128924E+00 1.3598635E+00 1.8404197E+00
 2.0282547E+00 1.2386543E+00 1.8544379E+00
 1.9729404E+00 1.2627126E+00 1.8531282E+00
 1.9189028E+00 1.2883263E+00 1.8505233E+00
 1.8666076E+00 1.3153982E+00 1.8462506E+00
 1.8163820E+00 1.3437105E+00 1.8399588E+00
 1.7683452E+00 1.3729959E+00 1.8313424E+00
 2.0291892E+00 1.2787787E+00 1.8420940E+00
 1.9748577E+00 1.3028114E+00 1.8395188E+00
 1.9221530E+00 1.3286460E+00 1.8354176E+00
 1.8716284E+00 1.3560920E+00 1.8294291E+00
 1.8235497E+00 1.3847988E+00 1.8212765E+00
 2.0303026E+00 1.3174534E+00 1.8281612E+00
 1.9772298E+00 1.3415068E+00 1.8242701E+00
 1.9263526E+00 1.3676580E+00 1.8185352E+00
 1.8782212E+00 1.3955195E+00 1.8106697E+00
 2.0316669E+00 1.3545935E+00 1.8127939E+00
 1.9803016E+00 1.3788049E+00 1.8074632E+00
 1.9320413E+00 1.4054271E+00 1.7998640E+00
 2.0334183E+00 1.3901825E+00 1.7961193E+00
 1.9847097E+00 1.4148467E+00 1.7890501E+00
 2.0358482E+00 1.4241861E+00 1.7782631E+00
 2.0858692E+00 1.4350564E+00 1.7666197E+00
 2.0855588E+00 1.4028970E+00 1.7840566E+00
 2.0852491E+00 1.3688492E+00 1.8006894E+00
 2.0849665E+00 1.3330079E+00 1.8162878E+00
 2.0847237E+00 1.2955050E+00 1.8306364E+00
 2.0845214E+00 1.2564793E+00 1.8435344E+00
 2.0843556E+00 1.2160626E+00 1.8548055E+00
 2.0842224E+00 1.1744209E+00 1.8642852E+00
 2.0841194E+00 1.1317544E+00 1.8718262E+00
 2.0840456E+00 1.0882915E+00 1.8773059E+00
 2.0840011E+00 1.0442841E+00 1.8806319E+00
 2.0839862E+00 1.0000002E+00 1.8817471E+00
 2.0840011E+00 9.5571627E-01 1.8806319E+00
 2.0840456E+00 9.1170886E-01 1.8773059E+00
 2.0841194E+00 8.6824602E-01 1.8718263E+00
 2.0842224E+00 8.2557946E-01 1.8642853E+00
 2.0843556E+00 7.8393772E-01 1.8548056E+00
 2.0845214E+00 7.4352104E-01 1.8435345E+00
 2.0847237E+00 7.0449536E-01 1.8306365E+00
 2.0849665E+00 6.6699246E-01 1.8162879E+00
 2.0852490E+00 6.3115112E-01 1.8006895E+00
 2.0855588E+00 5.9710334E-01 1.7840567E+00
 2.0858692E+00 5.6494388E-01 1.7666198E+00
 2.1305266E+00 5.4739063E-01 1.7515583E+00
 2.1790567E+00 5.5930828E-01 1.7535313E+00
 2.2293492E+00 5.7163252E-01 1.7555247E+00
 2.2809288E+00 5.8435403E-01 1.7575046E+00
 2.3335600E+00 5.9752646E-01 1.7593982E+00
 2.3870322E+00 6.1123853E-01 1.7611003E+00
 2.4411716E+00 6.2559322E-01 1.7624685E+00
 2.4957921E+00 6.4069368E-01 1.7633276E+00
 2.5506943E+00 6.5663890E-01 1.7634778E+00
 2.6056618E+00 6.7351791E-01 1.7627033E+00
 2.6604597E+00 6.9140393E-01 1.7607833E+00
 2.7148355E+00 7.1034888E-01 1.7575023E+00
 2.7685223E+00 7.3037851E-01 1.7526615E+00
 2.8212434E+00 7.5148950E-01 1.7460890E+00
 2.8727185E+00 7.7364795E-01 1.7376490E+00
 2.9226705E+00 7.9679049E-01 1.7272483E+00
 2.9708324E+00 8.2082655E-01 1.7148412E+00
 3.0169548E+00 8.4564291E-01 1.7004310E+00
 3.0608122E+00 8.7110840E-01 1.6840691E+00
 3.1022073E+00 8.9707674E-01 1.6658507E+00
 3.1409503E+00 9.2336444E-01 1.6459255E+00
 3.1768568E+00 9.4973447E-01 1.6244952E+00
 3.2096412E+00 9.7577437E-01 1.6019133E+00
 2.1354001E+00 1.4195033E+00 1.7700100E+00
 2.1855988E+00 1.4057044E+00 1.7722648E+00
 2.2369363E+00 1.3920483E+00 1.7742490E+00
 2.2891955E+00 1.3782171E+00 1.7760722E+00
 2.3422648E+00 1.3639846E+00 1.7777301E+00
 2.3960026E+00 1.3491987E+00 1.7791314E+00
 2.4502452E+00 1.3337341E+00 1.7801333E+00
 2.5048161E+00 1.3174885E+00 1.7805521E+00
 2.5595200E+00 1.3003780E+00 1.7801791E+00
 2.6141427E+00 1.2823357E+00 1.7787920E+00
 2.6684510E+00 1.2633135E+00 1.7761685E+00
 2.7221942E+00 1.2432849E+00 1.7720974E+00
 2.7751088E+00 1.2222475E+00 1.7663896E+00
 2.8269238E+00 1.2002245E+00 1.7588880E+00
 2.8773686E+00 1.1772649E+00 1.7494748E+00
 2.9261805E+00 1.1534432E+00 1.7380758E+00
 2.9731156E+00 1.1288582E+00 1.7246612E+00
 3.0179630E+00 1.1036329E+00 1.7092402E+00
 3.0605577E+00 1.0779159E+00 1.6918523E+00
 3.1008028E+00 1.0518865E+00 1.6725462E+00
 3.1387087E+00 1.0257730E+00 1.6513430E+00
 3.1744885E+00 1.0000002E+00 1.6281534E+00
 2.1371821E+00 1.3856337E+00 1.7873324E+00
 2.1893384E+00 1.3700209E+00 1.7896163E+00
 2.2419602E+00 1.3549909E+00 1.7914455E+00
 2.2951520E+00 1.3399421E+00 1.7930233E+00
 2.3488552E+00 1.3245609E+00 1.7943595E+00
 2.4029921E+00 1.3086299E+00 1.7953719E+00
 2.4574377E+00 1.2920058E+00 1.7959109E+00
 2.5120371E+00 1.2745882E+00 1.7957844E+00
 2.5666094E+00 1.2563076E+00 1.7947757E+00
 2.6209484E+00 1.2371169E+00 1.7926591E+00
 2.6748264E+00 1.2169895E+00 1.7892137E+00
 2.7279980E+00 1.1959192E+00 1.7842349E+00
 2.7802067E+00 1.1739214E+00 1.7775446E+00
 2.8311929E+00 1.1510324E+00 1.7689995E+00
 2.8807053E+00 1.1273099E+00 1.7584952E+00
 2.9285132E+00 1.1028337E+00 1.7459659E+00
 2.9744268E+00 1.0777084E+00 1.7313772E+00
 3.0183250E+00 1.0520683E+00 1.7147075E+00
 3.0601917E+00 1.0260862E+00 1.6959178E+00
 3.1001658E+00 1.0000002E+00 1.6749017E+00
 3.1387087E+00 9.7422742E-01 1.6513430E+00
 2.1383111E+00 1.3503130E+00 1.8035667E+00
 2.1917877E+00 1.3333215E+00 1.8055636E+00
 2.2455495E+00 1.3169752E+00 1.8070915E+00
 2.2995968E+00 1.3007127E+00 1.8083060E+00
 2.3539246E+00 1.2841510E+00 1.8092188E+00
 2.4084701E+00 1.2670498E+00 1.8097374E+00
 2.4631351E+00 1.2492547E+00 1.8097031E+00
 2.5177828E+00 1.2306723E+00 1.8089148E+00
 2.5722445E+00 1.2112467E+00 1.8071505E+00
 2.6263229E+00 1.1909482E+00 1.8041836E+00
 2.6797970E+00 1.1697678E+00 1.7997971E+00
 2.7324297E+00 1.1477145E+00 1.7937942E+00
 2.7839769E+00 1.1248154E+00 1.7860075E+00
 2.8341996E+00 1.1011149E+00 1.7763032E+00
 2.8828817E+00 1.0766768E+00 1.7645814E+00
 2.9298523E+00 1.0515892E+00 1.7507674E+00
 2.9750177E+00 1.0259737E+00 1.7347930E+00
 3.0184003E+00 1.0000002E+00 1.7165657E+00
 3.0601917E+00 9.7391422E-01 1.6959179E+00
 3.1008028E+00 9.4811386E-01 1.6725462E+00
 2.1391311E+00 1.3135248E+00 1.8185515E+00
 2.1936225E+00 1.2953782E+00 1.8200707E+00
 2.2482757E+00 1.2778586E+00 1.8211359E+00
 2.3030479E+00 1.2604301E+00 1.8218607E+00
 2.3579094E+00 1.2427145E+00 1.8222305E+00
 2.4128066E+00 1.2244629E+00 1.8221373E+00
 2.4676499E+00 1.2055267E+00 1.8214092E+00
 2.5223137E+00 1.1858224E+00 1.8198371E+00
 2.5766387E+00 1.1653088E+00 1.8171958E+00
 2.6304354E+00 1.1439708E+00 1.8132602E+00
 2.6834925E+00 1.1218125E+00 1.8078188E+00
 2.7355852E+00 1.0988535E+00 1.8006828E+00
 2.7864898E+00 1.0751285E+00 1.7916922E+00
 2.8360017E+00 1.0506887E+00 1.7807161E+00
 2.8839624E+00 1.0256090E+00 1.7676461E+00
 2.9302899E+00 1.0000002E+00 1.7523796E+00
 2.9750177E+00 9.7402673E-01 1.7347930E+00
 3.0183250E+00 9.4793211E-01 1.7147075E+00
 3.0605577E+00 9.2208454E-01 1.6918523E+00
 2.1397863E+00 1.2752619E+00 1.8321456E+00
 2.1950924E+00 1.2561453E+00 1.8330311E+00
 2.2504594E+00 1.2375777E+00 1.8334927E+00
 2.3058092E+00 1.2190691E+00 1.8335973E+00
 2.3610906E+00 1.2002604E+00 1.8333001E+00
 2.4162437E+00 1.1809175E+00 1.8324719E+00
 2.4711828E+00 1.1609050E+00 1.8309278E+00
 2.5257888E+00 1.1401545E+00 1.8284519E+00
 2.5799102E+00 1.1186381E+00 1.8248180E+00
 2.6333673E+00 1.0963528E+00 1.8198044E+00
 2.6859613E+00 1.0733119E+00 1.8132055E+00
 2.7374871E+00 1.0495416E+00 1.8048386E+00
 2.7877523E+00 1.0250833E+00 1.7945465E+00
 2.8366040E+00 1.0000002E+00 1.7821920E+00
 2.8839624E+00 9.7439135E-01 1.7676461E+00
 2.9298523E+00 9.4841122E-01 1.7507674E+00
 2.9744268E+00 9.2229197E-01 1.7313773E+00
 3.0179630E+00 8.9636750E-01 1.7092403E+00
 2.1403428E+00 1.2355970E+00 1.8441895E+00
 2.1963174E+00 1.2156607E+00 1.8443143E+00
 2.2522520E+00 1.1961679E+00 1.8440464E+00
 2.3080398E+00 1.1766784E+00 1.8434080E+00
 2.3636121E+00 1.1568647E+00 1.8423227E+00
 2.4189027E+00 1.1365175E+00 1.8406402E+00
 2.4738273E+00 1.1155221E+00 1.8381637E+00
 2.5282733E+00 1.0938260E+00 1.8346729E+00
 2.5820980E+00 1.0714136E+00 1.8299426E+00
 2.6351345E+00 1.0482904E+00 1.8237551E+00
 2.6872021E+00 1.0244752E+00 1.8159101E+00
 2.7381240E+00 1.0000002E+00 1.8062275E+00
 2.7877523E+00 9.7491712E-01 1.7945465E+00
 2.8360017E+00 9.4931170E-01 1.7807161E+00
 2.8828818E+00 9.2332363E-01 1.7645814E+00
 2.9285132E+00 8.9716671E-01 1.7459660E+00
 2.9731156E+00 8.7114223E-01 1.7246612E+00
 2.1408226E+00 1.1946594E+00 1.8545214E+00
 2.1973426E+00 1.1740342E+00 1.8537816E+00
 2.2537093E+00 1.1537386E+00 1.8526742E+00
 2.3097962E+00 1.1333785E+00 1.8511809E+00
 2.3655224E+00 1.1126658E+00 1.8491959E+00
 2.4208184E+00 1.0914226E+00 1.8465498E+00
 2.4756038E+00 1.0695572E+00 1.8430366E+00
 2.5297739E+00 1.0470330E+00 1.8384337E+00
 2.5831981E+00 1.0238438E+00 1.8325180E+00
 2.6357261E+00 1.0000002E+00 1.8250761E+00
 2.6872021E+00 9.7552514E-01 1.8159101E+00
 2.7374871E+00 9.5045880E-01 1.8048387E+00
 2.7864898E+00 9.2487192E-01 1.7916922E+00
 2.8341996E+00 8.9888552E-01 1.7763032E+00
 2.8807053E+00 8.7269052E-01 1.7584952E+00
 2.9261805E+00 8.4655720E-01 1.7380758E+00
 2.1412268E+00 1.1526185E+00 1.8629913E+00
 2.1981702E+00 1.1314325E+00 1.8613012E+00
 2.2548335E+00 1.1104579E+00 1.8592604E+00
 2.3110777E+00 1.0893472E+00 1.8568147E+00
 2.3668163E+00 1.0678551E+00 1.8538318E+00
 2.4219813E+00 1.0458379E+00 1.8501272E+00
 2.4764993E+00 1.0232273E+00 1.8454883E+00
 2.5302766E+00 1.0000002E+00 1.8396920E+00
 2.5831981E+00 9.7615662E-01 1.8325180E+00
 2.6351345E+00 9.5171000E-01 1.8237552E+00
 2.6859613E+00 9.2668853E-01 1.8132055E+00
 2.7355852E+00 9.0114684E-01 1.8006828E+00
 2.7839769E+00 8.7518501E-01 1.7860075E+00
 2.8311930E+00 8.4896803E-01 1.7689995E+00
 2.8773686E+00 8.2273546E-01 1.7494748E+00
 2.1415457E+00 1.1096801E+00 1.8694683E+00
 2.1987833E+00 1.0880637E+00 1.8667600E+00
 2.2556033E+00 1.0665387E+00 1.8637089E+00
 2.3118614E+00 1.0448049E+00 1.8602292E+00
 2.3674715E+00 1.0226618E+00 1.8561667E+00
 2.4223719E+00 1.0000002E+00 1.8513252E+00
 2.4764993E+00 9.7677306E-01 1.8454883E+00
 2.5297739E+00 9.5296742E-01 1.8384337E+00
 2.5820980E+00 9.2858678E-01 1.8299426E+00
 2.6333673E+00 9.0364754E-01 1.8198044E+00
 2.6834925E+00 8.7818790E-01 1.8078189E+00
 2.7324298E+00 8.5228584E-01 1.7937942E+00
 2.7802067E+00 8.2607898E-01 1.7775447E+00
 2.8269238E+00 7.9977591E-01 1.7588881E+00
 2.1417671E+00 1.0660792E+00 1.8738476E+00
 2.1991613E+00 1.0441666E+00 1.8700714E+00
 2.2559953E+00 1.0222243E+00 1.8659510E+00
 2.3121255E+00 1.0000002E+00 1.8613732E+00
 2.3674715E+00 9.7733855E-01 1.8561667E+00
 2.4219813E+00 9.5416251E-01 1.8501272E+00
 2.4756038E+00 9.3044318E-01 1.8430366E+00
 2.5282733E+00 9.0617442E-01 1.8346729E+00
 2.5799102E+00 8.8136227E-01 1.8248180E+00
 2.6304354E+00 8.5602962E-01 1.8132603E+00
 2.6797970E+00 8.3023259E-01 1.7997971E+00
 2.7279980E+00 8.0408114E-01 1.7842349E+00
 2.7751088E+00 7.7775291E-01 1.7663897E+00
 2.1418806E+00 1.0220722E+00 1.8760560E+00
 2.1992892E+00 1.0000002E+00 1.8711814E+00
 2.2559953E+00 9.7777609E-01 1.8659510E+00
 2.3118614E+00 9.5519544E-01 1.8602292E+00
 2.3668163E+00 9.3214529E-01 1.8538319E+00
 2.4208184E+00 9.0857777E-01 1.8465498E+00
 2.4738273E+00 8.8447827E-01 1.8381637E+00
 2.5257888E+00 8.5984589E-01 1.8284519E+00
 2.5766387E+00 8.3469161E-01 1.8171959E+00
 2.6263229E+00 8.0905213E-01 1.8041837E+00
 2.6748265E+00 7.8301091E-01 1.7892138E+00
 2.7221942E+00 7.5671545E-01 1.7720974E+00
 2.1418805E+00 9.7792821E-01 1.8760560E+00
 2.1991613E+00 9.5583379E-01 1.8700714E+00
 2.2556033E+00 9.3346166E-01 1.8637089E+00
 2.3110777E+00 9.1065315E-01 1.8568147E+00
 2.3655224E+00 8.8733455E-01 1.8491959E+00
 2.4189027E+00 8.6348285E-01 1.8406402E+00
 2.4711828E+00 8.3909535E-01 1.8309278E+00
 2.5223137E+00 8.1417796E-01 1.8198372E+00
 2.5722446E+00 7.8875370E-01 1.8071506E+00
 2.6209484E+00 7.6288349E-01 1.7926592E+00
 2.6684510E+00 7.3668682E-01 1.7761686E+00
 2.1417671E+00 9.3392114E-01 1.8738476E+00
 2.1987833E+00 9.1193666E-01 1.8667600E+00
 2.2548334E+00 8.8954244E-01 1.8592604E+00
 2.3097962E+00 8.6662184E-01 1.8511810E+00
 2.3636121E+00 8.4313571E-01 1.8423227E+00
 2.4162437E+00 8.1908286E-01 1.8324720E+00
 2.4676499E+00 7.9447369E-01 1.8214093E+00
 2.5177828E+00 7.6932808E-01 1.8089149E+00
 2.5666094E+00 7.4369275E-01 1.7947758E+00
 2.6141427E+00 7.1766462E-01 1.7787921E+00
 2.1415457E+00 8.9032030E-01 1.8694684E+00
 2.1981702E+00 8.6856788E-01 1.8613013E+00
 2.2537093E+00 8.4626181E-01 1.8526742E+00
 2.3080398E+00 8.2332193E-01 1.8434081E+00
 2.3610906E+00 7.9973996E-01 1.8333002E+00
 2.4128066E+00 7.7553742E-01 1.8221374E+00
 2.4631351E+00 7.5074563E-01 1.8097032E+00
 2.5120371E+00 7.2541212E-01 1.7957845E+00
 2.5595200E+00 6.9962231E-01 1.7801792E+00
 2.1412267E+00 8.4738188E-01 1.8629914E+00
 2.1973426E+00 8.2596617E-01 1.8537817E+00
 2.2522520E+00 8.0383246E-01 1.8440465E+00
 2.3058092E+00 7.8093124E-01 1.8335974E+00
 2.3579094E+00 7.5728583E-01 1.8222306E+00
 2.4084701E+00 7.3295054E-01 1.8097375E+00
 2.4574377E+00 7.0799455E-01 1.7959110E+00
 2.5048161E+00 6.8251180E-01 1.7805523E+00
 2.1408226E+00 8.0534096E-01 1.8545215E+00
 2.1963173E+00 7.8433965E-01 1.8443144E+00
 2.2504594E+00 7.6242267E-01 1.8334928E+00
 2.3030479E+00 7.3957025E-01 1.8218608E+00
 2.3539246E+00 7.1584934E-01 1.8092189E+00
 2.4029921E+00 6.9137040E-01 1.7953720E+00
 2.4502452E+00 6.6626624E-01 1.7801334E+00
 2.1403428E+00 7.6440340E-01 1.8441896E+00
 2.1950924E+00 7.4385503E-01 1.8330313E+00
 2.2482757E+00 7.2214174E-01 1.8211360E+00
 2.2995968E+00 6.9928768E-01 1.8083061E+00
 2.3488552E+00 6.7543944E-01 1.7943596E+00
 2.3960026E+00 6.5080162E-01 1.7791316E+00
 2.1397863E+00 7.2473843E-01 1.8321457E+00
 2.1936225E+00 7.0462216E-01 1.8200708E+00
 2.2455495E+00 6.8302511E-01 1.8070917E+00
 2.2951520E+00 6.6005826E-01 1.7930234E+00
 2.3422648E+00 6.3601574E-01 1.7777303E+00
 2.1391311E+00 6.8647559E-01 1.8185516E+00
 2.1917877E+00 6.6667882E-01 1.8055638E+00
 2.2419602E+00 6.4500940E-01 1.7914456E+00
 2.2891955E+00 6.2178318E-01 1.7760724E+00
 2.1383111E+00 6.4968734E-01 1.8035669E+00
 2.1893384E+00 6.2997946E-01 1.7896164E+00
 2.2369363E+00 6.0795197E-01 1.7742491E+00
 2.1371821E+00 6.1436660E-01 1.7873326E+00
 2.1855987E+00 5.9429589E-01 1.7722649E+00
 2.1354001E+00 5.8049704E-01 1.7700101E+00
 2.0583097E+00 1.4873465E+00 1.7376874E+00
 2.0275591E+00 1.5134642E+00 1.7234736E+00
 1.9955353E+00 1.5402590E+00 1.7077169E+00
 1.9625290E+00 1.5675024E+00 1.6903631E+00
 1.9287754E+00 1.5950345E+00 1.6713066E+00
 1.8945305E+00 1.6226825E+00 1.6504230E+00
 1.8600281E+00 1.6502557E+00 1.6275850E+00
 1.8255072E+00 1.6775234E+00 1.6026859E+00
 1.7912061E+00 1.7042222E+00 1.5756486E+00
 1.7573533E+00 1.7300663E+00 1.5464350E+00
 1.7241618E+00 1.7547592E+00 1.5150549E+00
 1.6918256E+00 1.7780080E+00 1.4815716E+00
 1.6605181E+00 1.7995370E+00 1.4461040E+00
 1.6303923E+00 1.8191014E+00 1.4088250E+00
 1.6015815E+00 1.8364980E+00 1.3699561E+00
 1.5742008E+00 1.8515735E+00 1.3297579E+00
 1.5483484E+00 1.8642299E+00 1.2885198E+00
 1.5241062E+00 1.8744250E+00 1.2465480E+00
 1.5015385E+00 1.8821706E+00 1.2041556E+00
 1.4806886E+00 1.8875261E+00 1.1616553E+00
 1.4615821E+00 1.8905900E+00 1.1193835E+00
 1.4442102E+00 1.8914881E+00 1.0776998E+00
 1.4286074E+00 1.8903925E+00 1.0372542E+00
 9.9449485E-01 1.0699322E+00 1.5910076E+00
 9.9065132E-01 1.1153288E+00 1.5785323E+00
 9.8836160E-01 1.1613640E+00 1.5641621E+00
 9.8797393E-01 1.2081029E+00 1.5481154E+00
 9.8971804E-01 1.2554735E+00 1.5304528E+00
 9.9379104E-01 1.3033190E+00 1.5112093E+00
 1.0003597E+00 1.3514133E+00 1.4904119E+00
 1.0095587E+00 1.3994762E+00 1.4680910E+00
 1.0214872E+00 1.4471826E+00 1.4442912E+00
 1.0362066E+00 1.4941728E+00 1.4190805E+00
 1.0537371E+00 1.5400644E+00 1.3925564E+00
 1.0740539E+00 1.5844644E+00 1.3648495E+00
 1.0970834E+00 1.6269819E+00 1.3361234E+00
 1.1227026E+00 1.6672433E+00 1.3065717E+00
 1.1507394E+00 1.7049060E+00 1.2764140E+00
 1.1809757E+00 1.7396723E+00 1.2458883E+00
 1.2131530E+00 1.7713007E+00 1.2152421E+00
 1.2469802E+00 1.7996170E+00 1.1847187E+00
 1.2821414E+00 1.8245195E+00 1.1545419E+00
 1.3183052E+00 1.8459821E+00 1.1248877E+00
 1.3551326E+00 1.8640536E+00 1.0958277E+00
 1.3921659E+00 1.8788247E+00 1.0671842E+00
 1.0209569E+00 1.0990747E+00 1.6216064E+00
 1.0186713E+00 1.1469646E+00 1.6092084E+00
 1.0178726E+00 1.1947872E+00 1.5946468E+00
 1.0189874E+00 1.2428540E+00 1.5782312E+00
 1.0222979E+00 1.2912084E+00 1.5600866E+00
 1.0280209E+00 1.3397469E+00 1.5402758E+00
 1.0363203E+00 1.3882602E+00 1.5188360E+00
 1.0473113E+00 1.4364608E+00 1.4958009E+00
 1.0610636E+00 1.4840071E+00 1.4712189E+00
 1.0776033E+00 1.5305225E+00 1.4451661E+00
 1.0969115E+00 1.5756119E+00 1.4177538E+00
 1.1189230E+00 1.6188788E+00 1.3891308E+00
 1.1435260E+00 1.6599408E+00 1.3594819E+00
 1.1705622E+00 1.6984458E+00 1.3290223E+00
 1.1998313E+00 1.7340867E+00 1.2979890E+00
 1.2310957E+00 1.7666141E+00 1.2666271E+00
 1.2640880E+00 1.7958471E+00 1.2351698E+00
 1.2985207E+00 1.8216807E+00 1.2038100E+00
 1.3340978E+00 1.8440894E+00 1.1726559E+00
 1.3705195E+00 1.8631230E+00 1.1416608E+00
 1.4074374E+00 1.8788892E+00 1.1104124E+00
 1.0507087E+00 1.1282306E+00 1.6516116E+00
 1.0499304E+00 1.1778694E+00 1.6389955E+00
 1.0506781E+00 1.2271761E+00 1.6240876E+00
 1.0533780E+00 1.2764028E+00 1.6071861E+00
 1.0583387E+00 1.3256143E+00 1.5884439E+00
 1.0657840E+00 1.3747158E+00 1.5679400E+00
 1.0758657E+00 1.4234940E+00 1.5457188E+00
 1.0886740E+00 1.4716497E+00 1.5218202E+00
 1.1042453E+00 1.5188273E+00 1.4963021E+00
 1.1225678E+00 1.5646389E+00 1.4692551E+00
 1.1435838E+00 1.6086868E+00 1.4408102E+00
 1.1671905E+00 1.6505824E+00 1.4111387E+00
 1.1932422E+00 1.6899644E+00 1.3804478E+00
 1.2215538E+00 1.7265154E+00 1.3489707E+00
 1.2519065E+00 1.7599768E+00 1.3169505E+00
 1.2840531E+00 1.7901589E+00 1.2846159E+00
 1.3177266E+00 1.8169510E+00 1.2521460E+00
 1.3526456E+00 1.8403215E+00 1.2196249E+00
 1.3885201E+00 1.8603160E+00 1.1869674E+00
 1.4250151E+00 1.8770362E+00 1.1538177E+00
 1.0837974E+00 1.1575786E+00 1.6804892E+00
 1.0845228E+00 1.2084651E+00 1.6674361E+00
 1.0868534E+00 1.2588762E+00 1.6520160E+00
 1.0912000E+00 1.3089830E+00 1.6344959E+00
 1.0978708E+00 1.3588078E+00 1.6150296E+00
 1.1070811E+00 1.4082329E+00 1.5937016E+00
 1.1189607E+00 1.4570253E+00 1.5705631E+00
 1.1335685E+00 1.5048688E+00 1.5456641E+00
 1.1509043E+00 1.5513967E+00 1.5190782E+00
 1.1709188E+00 1.5962185E+00 1.4909169E+00
 1.1935174E+00 1.6389444E+00 1.4613348E+00
 1.2185653E+00 1.6792068E+00 1.4305274E+00
 1.2458908E+00 1.7166788E+00 1.3987216E+00
 1.2752911E+00 1.7510909E+00 1.3661586E+00
 1.3065361E+00 1.7822428E+00 1.3330687E+00
 1.3393735E+00 1.8100136E+00 1.2996339E+00
 1.3735299E+00 1.8343639E+00 1.2659422E+00
 1.4087114E+00 1.8553308E+00 1.2319340E+00
 1.4445848E+00 1.8730119E+00 1.1973447E+00
 1.1202723E+00 1.1870139E+00 1.7077687E+00
 1.1225000E+00 1.2387559E+00 1.6940803E+00
 1.1264339E+00 1.2899154E+00 1.6779794E+00