# TIME = 0.700000
variables = x, y, z
zone N=5762 E=11520 F=FEPOINT ET=TRIANGLE
 5.4243990E+00 1.4694010E+00 1.7594578E+00
 5.4243990E+00 1.4694011E+00 2.4054211E-01
 5.4243990E+00 5.3059885E-01 1.7594580E+00
 5.4243990E+00 5.3059889E-01 2.4054204E-01
 4.2987241E+00 1.0000000E+00 1.5682255E+00
 6.5644757E+00 1.0000000E+00 1.5798010E+00
 4.2987240E+00 1.0000000E+00 4.3177432E-01
 6.5644757E+00 1.0000000E+00 4.2019890E-01
 4.7614488E+00 1.8700073E+00 9.9999998E-01
 4.7614488E+00 1.2999281E-01 9.9999999E-01
 6.0720592E+00 1.8079095E+00 9.9999998E-01
 6.0720592E+00 1.9209031E-01 9.9999998E-01
 5.3829703E+00 1.4621748E+00 1.7670211E+00
 5.3378951E+00 1.4539578E+00 1.7749227E+00
 5.2907385E+00 1.4450144E+00 1.7828463E+00
 5.2416655E+00 1.4352973E+00 1.7906712E+00
 5.1907159E+00 1.4246876E+00 1.7982822E+00
 5.1380059E+00 1.4130674E+00 1.8054892E+00
 5.0836782E+00 1.4002891E+00 1.8120383E+00
 5.0279265E+00 1.3861905E+00 1.8175921E+00
 4.9709999E+00 1.3706004E+00 1.8217329E+00
 4.9132206E+00 1.3533563E+00 1.8239753E+00
 4.8550028E+00 1.3343305E+00 1.8238030E+00
 4.7968661E+00 1.3134593E+00 1.8207235E+00
 4.7394291E+00 1.2907710E+00 1.8143375E+00
 4.6833771E+00 1.2664003E+00 1.8044007E+00
 4.6294051E+00 1.2405865E+00 1.7908657E+00
 4.5781509E+00 1.2136520E+00 1.7738868E+00
 4.5301368E+00 1.1859687E+00 1.7537935E+00
 4.4857337E+00 1.1579218E+00 1.7310408E+00
 4.4451496E+00 1.1298765E+00 1.7061519E+00
 4.4084411E+00 1.1021569E+00 1.6796648E+00
 4.3755353E+00 1.0750261E+00 1.6520902E+00
 4.3462761E+00 1.0487080E+00 1.6238964E+00
 4.3204507E+00 1.0233578E+00 1.5954834E+00
 5.3798384E+00 5.6915083E-01 1.7852550E+00
 5.3336817E+00 5.7876130E-01 1.7934350E+00
 5.2856163E+00 5.8903921E-01 1.8015080E+00
 5.2356421E+00 6.0017734E-01 1.8094349E+00
 5.1838362E+00 6.1227777E-01 1.8170678E+00
 5.1303151E+00 6.2546310E-01 1.8241994E+00
 5.0752524E+00 6.3986954E-01 1.8305445E+00
 5.0188681E+00 6.5564542E-01 1.8357352E+00
 4.9614425E+00 6.7293645E-01 1.8393227E+00
 4.9033310E+00 6.9186658E-01 1.8407988E+00
 4.8449824E+00 7.1251218E-01 1.8396387E+00
 4.7869470E+00 7.3487502E-01 1.8353636E+00
 4.7298641E+00 7.5886221E-01 1.8276115E+00
 4.6744222E+00 7.8427969E-01 1.8161960E+00
 4.6212983E+00 8.1084395E-01 1.8011386E+00
 4.5710926E+00 8.3820883E-01 1.7826622E+00
 4.5242766E+00 8.6600001E-01 1.7611548E+00
 4.4811640E+00 8.9385033E-01 1.7371138E+00
 4.4419085E+00 9.2142538E-01 1.7110879E+00
 4.4065156E+00 9.4844976E-01 1.6836223E+00
 4.3748683E+00 9.7470297E-01 1.6552173E+00
 4.3466511E+00 1.0000000E+00 1.6261827E+00
 5.3787493E+00 6.0187057E-01 1.8024208E+00
 5.3315406E+00 6.1288250E-01 1.8107695E+00
 5.2824876E+00 6.2458988E-01 1.8189315E+00
 5.2315410E+00 6.3722647E-01 1.8268779E+00
 5.1787834E+00 6.5089897E-01 1.8344449E+00
 5.1243617E+00 6.6572150E-01 1.8413986E+00
 5.0684733E+00 6.8182027E-01 1.8474256E+00
 5.0113694E+00 6.9932305E-01 1.8521259E+00
 4.9533625E+00 7.1834464E-01 1.8550215E+00
 4.8948435E+00 7.3896535E-01 1.8555837E+00
 4.8362969E+00 7.6120615E-01 1.8532846E+00
 4.7783040E+00 7.8500624E-01 1.8476653E+00
 4.7215238E+00 8.1021003E-01 1.8384087E+00
 4.6666460E+00 8.3656985E-01 1.8253923E+00
 4.6143268E+00 8.6376526E-01 1.8087103E+00
 4.5651275E+00 8.9143438E-01 1.7886560E+00
 4.5194666E+00 9.1920922E-01 1.7656753E+00
 4.4776014E+00 9.4674538E-01 1.7403063E+00
 4.4396265E+00 9.7375312E-01 1.7131164E+00
 4.4054880E+00 1.0000000E+00 1.6846459E+00
 4.3748683E+00 1.0252970E+00 1.6552174E+00
 5.3777831E+00 6.3657082E-01 1.8187990E+00
 5.3296422E+00 6.4899334E-01 1.8271653E+00
 5.2796566E+00 6.6219845E-01 1.8352989E+00
 5.2278052E+00 6.7639863E-01 1.8431341E+00
 5.1741858E+00 6.9169739E-01 1.8504896E+00
 5.1189704E+00 7.0819852E-01 1.8571070E+00
 5.0623852E+00 7.2601006E-01 1.8626451E+00
 5.0047111E+00 7.4523258E-01 1.8666763E+00
 4.9462926E+00 7.6594223E-01 1.8687003E+00
 4.8875531E+00 7.8816936E-01 1.8681782E+00
 4.8290073E+00 8.1187619E-01 1.8645920E+00
 4.7712596E+00 8.3693984E-01 1.8575163E+00
 4.7149773E+00 8.6314762E-01 1.8466887E+00
 4.6608388E+00 8.9020825E-01 1.8320564E+00
 4.6094697E+00 9.1777729E-01 1.8137856E+00
 4.5613836E+00 9.4549133E-01 1.7922337E+00
 4.5169446E+00 9.7299970E-01 1.7678950E+00
 4.4763483E+00 9.9999999E-01 1.7413332E+00
 4.4396265E+00 1.0262469E+00 1.7131164E+00
 4.4065155E+00 1.0515502E+00 1.6836223E+00
 5.3768912E+00 6.7332958E-01 1.8342155E+00
 5.3278734E+00 6.8722706E-01 1.8424786E+00
 5.2770454E+00 7.0197331E-01 1.8504386E+00
 5.2243910E+00 7.1777466E-01 1.8580078E+00
 5.1700342E+00 7.3472184E-01 1.8649831E+00
 5.1141723E+00 7.5290382E-01 1.8710841E+00
 5.0570606E+00 7.7240487E-01 1.8759461E+00
 4.9990090E+00 7.9329185E-01 1.8791205E+00
 4.9403914E+00 8.1559621E-01 1.8800944E+00
 4.8816586E+00 8.3929396E-01 1.8783320E+00
 4.8233473E+00 8.6428725E-01 1.8733386E+00
 4.7660735E+00 8.9039466E-01 1.8647343E+00
 4.7104996E+00 9.1735474E-01 1.8523199E+00
 4.6572805E+00 9.4484465E-01 1.8361127E+00
 4.6070004E+00 9.7251056E-01 1.8163462E+00
 4.5601208E+00 9.9999999E-01 1.7934315E+00
 4.5169445E+00 1.0270003E+00 1.7678950E+00
 4.4776014E+00 1.0532546E+00 1.7403063E+00
 4.4419084E+00 1.0785746E+00 1.7110880E+00
 5.3760600E+00 7.1208814E-01 1.8484354E+00
 5.3262539E+00 7.2748870E-01 1.8564495E+00
 5.2746862E+00 7.4380332E-01 1.8640809E+00
 5.2213551E+00 7.6121553E-01 1.8712150E+00
 5.1664085E+00 7.7980269E-01 1.8776310E+00
 5.1100708E+00 7.9963258E-01 1.8830291E+00
 5.0526247E+00 8.2076024E-01 1.8870266E+00
 4.9944074E+00 8.4321309E-01 1.8891628E+00
 4.9358173E+00 8.6697361E-01 1.8889240E+00
 4.8773257E+00 8.9196168E-01 1.8857908E+00
 4.8194819E+00 9.1802184E-01 1.8793052E+00
 4.7629009E+00 9.4492112E-01 1.8691428E+00
 4.7082278E+00 9.7236050E-01 1.8551711E+00
 4.6560823E+00 9.9999998E-01 1.8374751E+00
 4.6070004E+00 1.0274894E+00 1.8163462E+00
 4.5613836E+00 1.0545086E+00 1.7922338E+00
 4.5194666E+00 1.0807908E+00 1.7656754E+00
 4.4811640E+00 1.1061497E+00 1.7371139E+00
 5.3753139E+00 7.5273608E-01 1.8612154E+00
 5.3248193E+00 7.6964700E-01 1.8688248E+00
 5.2726328E+00 7.8752224E-01 1.8759591E+00
 5.2187670E+00 8.0651962E-01 1.8824801E+00
 5.1633949E+00 8.2669736E-01 1.8881516E+00
 5.1067670E+00 8.4809807E-01 1.8926595E+00
 5.0491915E+00 8.7074258E-01 1.8956106E+00
 4.9910285E+00 8.9461523E-01 1.8965424E+00
 4.9326957E+00 9.1964762E-01 1.8949530E+00
 4.8746765E+00 9.4570524E-01 1.8903525E+00
 4.8175216E+00 9.7258087E-01 1.8823311E+00
 4.7618335E+00 9.9999998E-01 1.8706259E+00
 4.7082278E+00 1.0276395E+00 1.8551711E+00
 4.6572805E+00 1.0551553E+00 1.8361128E+00
 4.6094696E+00 1.0822227E+00 1.8137857E+00
 4.5651274E+00 1.1085656E+00 1.7886561E+00
 4.5242765E+00 1.1340000E+00 1.7611550E+00
 5.3746645E+00 7.9510263E-01 1.8723138E+00
 5.3235975E+00 8.1349832E-01 1.8793543E+00
 5.2709279E+00 8.3289176E-01 1.8858178E+00
 5.2166845E+00 8.5340921E-01 1.8915459E+00
 5.1610646E+00 8.7508613E-01 1.8962907E+00
 5.1043428E+00 8.9793591E-01 1.8997302E+00
 5.0468495E+00 9.2194214E-01 1.9014698E+00
 4.9889629E+00 9.4704446E-01 1.9010561E+00
 4.9311126E+00 9.7312509E-01 1.8980116E+00
 4.8737849E+00 9.9999998E-01 1.8918878E+00
 4.8175216E+00 1.0274191E+00 1.8823311E+00
 4.7629009E+00 1.0550788E+00 1.8691429E+00
 4.7104995E+00 1.0826452E+00 1.8523200E+00
 4.6608387E+00 1.1097917E+00 1.8320565E+00
 4.6143268E+00 1.1362347E+00 1.8087105E+00
 4.5710925E+00 1.1617912E+00 1.7826624E+00
 5.3741266E+00 8.3896725E-01 1.8815051E+00
 5.3226160E+00 8.5878745E-01 1.8878111E+00
 5.2696114E+00 8.7961801E-01 1.8934316E+00
 5.2151582E+00 9.0154935E-01 1.8981926E+00
 5.1594763E+00 9.2459101E-01 1.9018405E+00
 5.1028617E+00 9.4872467E-01 1.9040524E+00
 5.0456622E+00 9.7389562E-01 1.9044416E+00
 4.9882679E+00 9.9999999E-01 1.9025753E+00
 4.9311126E+00 1.0268749E+00 1.8980116E+00
 4.8746765E+00 1.0542947E+00 1.8903525E+00
 4.8194819E+00 1.0819781E+00 1.8793053E+00
 4.7660735E+00 1.1096053E+00 1.8647344E+00
 4.7149772E+00 1.1368524E+00 1.8466889E+00
 4.6666459E+00 1.1634302E+00 1.8253925E+00
 4.6212982E+00 1.1891561E+00 1.8011388E+00
 5.3737114E+00 8.8405823E-01 1.8885906E+00
 5.3218973E+00 9.0520620E-01 1.8940016E+00
 5.2687148E+00 9.2735448E-01 1.8986165E+00
 5.2142262E+00 9.5055378E-01 1.9022517E+00
 5.1586715E+00 9.7478581E-01 1.9046536E+00
 5.1023635E+00 1.0000000E+00 1.9055067E+00
 5.0456622E+00 1.0261044E+00 1.9044416E+00
 4.9889629E+00 1.0529555E+00 1.9010561E+00
 4.9326957E+00 1.0803524E+00 1.8949530E+00
 4.8773257E+00 1.1080383E+00 1.8857909E+00
 4.8233473E+00 1.1357127E+00 1.8733387E+00
 4.7712596E+00 1.1630602E+00 1.8575165E+00
 4.7215238E+00 1.1897900E+00 1.8384090E+00
 4.6744221E+00 1.2157203E+00 1.8161963E+00
 5.3734290E+00 9.3006027E-01 1.8934093E+00
 5.3214587E+00 9.5240423E-01 1.8977779E+00
 5.2682607E+00 9.7571454E-01 1.9012426E+00
 5.2139128E+00 1.0000000E+00 1.9036168E+00
 5.1586715E+00 1.0252142E+00 1.9046536E+00
 5.1028617E+00 1.0512753E+00 1.9040524E+00
 5.0468495E+00 1.0780578E+00 1.9014698E+00
 4.9910284E+00 1.1053848E+00 1.8965424E+00
 4.9358173E+00 1.1330264E+00 1.8889241E+00
 4.8816585E+00 1.1607060E+00 1.8783321E+00
 4.8290073E+00 1.1881238E+00 1.8645922E+00
 4.7783039E+00 1.2149938E+00 1.8476656E+00
 4.7298640E+00 1.2411378E+00 1.8276117E+00
 5.3732860E+00 9.7662355E-01 1.8958480E+00
 5.3213113E+00 9.9999999E-01 1.8990473E+00
 5.2682607E+00 1.0242854E+00 1.9012426E+00
 5.2142262E+00 1.0494462E+00 1.9022517E+00
 5.1594763E+00 1.0754090E+00 1.9018405E+00
 5.1043428E+00 1.1020641E+00 1.8997302E+00
 5.0491915E+00 1.1292574E+00 1.8956106E+00
 4.9944074E+00 1.1567869E+00 1.8891628E+00
 4.9403914E+00 1.1844038E+00 1.8800945E+00
 4.8875531E+00 1.2118307E+00 1.8681784E+00
 4.8362968E+00 1.2387939E+00 1.8532848E+00
 4.7869469E+00 1.2651250E+00 1.8353639E+00
 5.3732860E+00 1.0233764E+00 1.8958480E+00
 5.3214587E+00 1.0475957E+00 1.8977779E+00
 5.2687149E+00 1.0726455E+00 1.8986164E+00
 5.2151582E+00 1.0984506E+00 1.8981926E+00
 5.1610646E+00 1.1249139E+00 1.8962906E+00
 5.1067670E+00 1.1519019E+00 1.8926595E+00
 5.0526247E+00 1.1792398E+00 1.8870266E+00
 4.9990090E+00 1.2067081E+00 1.8791206E+00
 4.9462926E+00 1.2340578E+00 1.8687004E+00
 4.8948435E+00 1.2610347E+00 1.8555839E+00
 4.8449824E+00 1.2874879E+00 1.8396389E+00
 5.3734290E+00 1.0699397E+00 1.8934093E+00
 5.3218973E+00 1.0947938E+00 1.8940015E+00
 5.2696114E+00 1.1203820E+00 1.8934315E+00
 5.2166845E+00 1.1465908E+00 1.8915458E+00
 5.1633949E+00 1.1733026E+00 1.8881516E+00
 5.1100708E+00 1.2003674E+00 1.8830290E+00
 5.0570606E+00 1.2275951E+00 1.8759461E+00
 5.0047111E+00 1.2547674E+00 1.8666764E+00
 4.9533625E+00 1.2816554E+00 1.8550217E+00
 4.9033310E+00 1.3081335E+00 1.8407990E+00
 5.3737114E+00 1.1159417E+00 1.8885905E+00
 5.3226160E+00 1.1412125E+00 1.8878110E+00
 5.2709279E+00 1.1671082E+00 1.8858178E+00
 5.2187670E+00 1.1934804E+00 1.8824801E+00
 5.1664085E+00 1.2201973E+00 1.8776309E+00
 5.1141723E+00 1.2470962E+00 1.8710841E+00
 5.0623852E+00 1.2739899E+00 1.8626451E+00
 5.0113693E+00 1.3006770E+00 1.8521259E+00
 4.9614425E+00 1.3270636E+00 1.8393228E+00
 5.3741266E+00 1.1610327E+00 1.8815050E+00
 5.3235976E+00 1.1865016E+00 1.8793542E+00
 5.2726328E+00 1.2124777E+00 1.8759590E+00
 5.2213551E+00 1.2387844E+00 1.8712149E+00
 5.1700342E+00 1.2652781E+00 1.8649830E+00
 5.1189704E+00 1.2918015E+00 1.8571069E+00
 5.0684733E+00 1.3181797E+00 1.8474255E+00
 5.0188681E+00 1.3443546E+00 1.8357352E+00
 5.3746646E+00 1.2048973E+00 1.8723137E+00
 5.3248193E+00 1.2303530E+00 1.8688247E+00
 5.2746862E+00 1.2561966E+00 1.8640808E+00
 5.2243910E+00 1.2822253E+00 1.8580077E+00
 5.1741858E+00 1.3083026E+00 1.8504896E+00
 5.1243617E+00 1.3342785E+00 1.8413985E+00
 5.0752524E+00 1.3601304E+00 1.8305445E+00
 5.3753139E+00 1.2472639E+00 1.8612153E+00
 5.3262540E+00 1.2725113E+00 1.8564494E+00
 5.2770454E+00 1.2980267E+00 1.8504385E+00
 5.2278052E+00 1.3236013E+00 1.8431341E+00
 5.1787834E+00 1.3491010E+00 1.8344448E+00
 5.1303151E+00 1.3745369E+00 1.8241994E+00
 5.3760600E+00 1.2879118E+00 1.8484353E+00
 5.3278734E+00 1.3127729E+00 1.8424784E+00
 5.2796566E+00 1.3378015E+00 1.8352988E+00
 5.2315410E+00 1.3627735E+00 1.8268778E+00
 5.1838362E+00 1.3877222E+00 1.8170678E+00
 5.3768912E+00 1.3266704E+00 1.8342153E+00
 5.3296422E+00 1.3510066E+00 1.8271651E+00
 5.2824877E+00 1.3754101E+00 1.8189314E+00
 5.2356421E+00 1.3998226E+00 1.8094348E+00
 5.3777831E+00 1.3634291E+00 1.8187989E+00
 5.3315406E+00 1.3871174E+00 1.8107693E+00
 5.2856163E+00 1.4109607E+00 1.8015079E+00
 5.3787494E+00 1.3981293E+00 1.8024207E+00
 5.3336817E+00 1.4212386E+00 1.7934349E+00
 5.3798384E+00 1.4308491E+00 1.7852548E+00
 5.4243973E+00 1.4412357E+00 1.7761998E+00
 5.4243961E+00 1.4098298E+00 1.7932586E+00
 5.4243955E+00 1.3764597E+00 1.8096424E+00
 5.4243953E+00 1.3410162E+00 1.8252102E+00
 5.4243953E+00 1.3036004E+00 1.8397083E+00
 5.4243954E+00 1.2642919E+00 1.8529071E+00
 5.4243954E+00 1.2232355E+00 1.8645702E+00
 5.4243955E+00 1.1806201E+00 1.8744740E+00
 5.4243955E+00 1.1366866E+00 1.8824146E+00
 5.4243956E+00 1.0917196E+00 1.8882195E+00
 5.4243956E+00 1.0460412E+00 1.8917574E+00
 5.4243956E+00 9.9999999E-01 1.8929461E+00
 5.4243956E+00 9.5395881E-01 1.8917574E+00
 5.4243956E+00 9.0828038E-01 1.8882195E+00
 5.4243955E+00 8.6331337E-01 1.8824147E+00
 5.4243955E+00 8.1937989E-01 1.8744741E+00
 5.4243954E+00 7.7676447E-01 1.8645703E+00
 5.4243953E+00 7.3570808E-01 1.8529073E+00
 5.4243952E+00 6.9639952E-01 1.8397084E+00
 5.4243953E+00 6.5898374E-01 1.8252103E+00
 5.4243954E+00 6.2354025E-01 1.8096426E+00
 5.4243961E+00 5.9017009E-01 1.7932587E+00
 5.4243973E+00 5.5876419E-01 1.7762000E+00
 5.4657831E+00 5.4064675E-01 1.7623421E+00
 5.5106936E+00 5.5180110E-01 1.7650944E+00
 5.5575493E+00 5.6366050E-01 1.7675845E+00
 5.6061588E+00 5.7622554E-01 1.7697343E+00
 5.6564518E+00 5.8956390E-01 1.7714797E+00
 5.7082762E+00 6.0372268E-01 1.7727255E+00
 5.7614495E+00 6.1875992E-01 1.7733633E+00
 5.8157392E+00 6.3472947E-01 1.7732642E+00
 5.8708703E+00 6.5168262E-01 1.7722828E+00
 5.9265269E+00 6.6966258E-01 1.7702588E+00
 5.9823592E+00 6.8869940E-01 1.7670239E+00
 6.0379912E+00 7.0880445E-01 1.7624092E+00
 6.0930313E+00 7.2996439E-01 1.7562568E+00
 6.1470836E+00 7.5213685E-01 1.7484309E+00
 6.1997597E+00 7.7524720E-01 1.7388303E+00
 6.2506919E+00 7.9918854E-01 1.7273974E+00
 6.2995451E+00 8.2382392E-01 1.7141250E+00
 6.3460272E+00 8.4899177E-01 1.6990585E+00
 6.3898984E+00 8.7451274E-01 1.6822938E+00
 6.4309770E+00 9.0019969E-01 1.6639711E+00
 6.4691442E+00 9.2586524E-01 1.6442651E+00
 6.5043291E+00 9.5132891E-01 1.6233816E+00
 6.5364889E+00 9.7640715E-01 1.6015514E+00
 5.4689015E+00 1.4280166E+00 1.7801057E+00
 5.5148775E+00 1.4156320E+00 1.7828887E+00
 5.5626174E+00 1.4026414E+00 1.7852972E+00
 5.6120951E+00 1.3888913E+00 1.7873195E+00
 5.6632027E+00 1.3743353E+00 1.7888706E+00
 5.7157883E+00 1.3589226E+00 1.7898491E+00
 5.7696393E+00 1.3426069E+00 1.7901344E+00
 5.8244996E+00 1.3253426E+00 1.7895880E+00
 5.8800682E+00 1.3070919E+00 1.7880552E+00
 5.9360057E+00 1.2878283E+00 1.7853688E+00
 5.9919418E+00 1.2675420E+00 1.7813573E+00
 6.0474847E+00 1.2462460E+00 1.7758535E+00
 6.1022330E+00 1.2239800E+00 1.7687071E+00
 6.1557878E+00 1.2008145E+00 1.7597966E+00
 6.2077660E+00 1.1768512E+00 1.7490406E+00
 6.2578122E+00 1.1522217E+00 1.7364069E+00
 6.3056109E+00 1.1270828E+00 1.7219167E+00
 6.3508955E+00 1.1016098E+00 1.7056445E+00
 6.3934578E+00 1.0759868E+00 1.6877138E+00
 6.4331503E+00 1.0503968E+00 1.6682893E+00
 6.4699056E+00 1.0249975E+00 1.6475534E+00
 6.5038328E+00 1.0000000E+00 1.6256209E+00
 5.4699837E+00 1.3954474E+00 1.7970313E+00
 5.5170024E+00 1.3818425E+00 1.7997419E+00
 5.5657125E+00 1.3676391E+00 1.8020032E+00
 5.6161375E+00 1.3526418E+00 1.8038122E+00
 5.6681629E+00 1.3368015E+00 1.8050760E+00
 5.7216064E+00 1.3200772E+00 1.8056818E+00
 5.7762318E+00 1.3024297E+00 1.8054992E+00
 5.8317540E+00 1.2838262E+00 1.8043792E+00
 5.8878449E+00 1.2642442E+00 1.8021589E+00
 5.9441395E+00 1.2436765E+00 1.7986655E+00
 6.0002453E+00 1.2221363E+00 1.7937261E+00
 6.0557545E+00 1.1996625E+00 1.7871781E+00
 6.1102557E+00 1.1763229E+00 1.7788824E+00
 6.1633484E+00 1.1522160E+00 1.7687353E+00
 6.2146557E+00 1.1274700E+00 1.7566798E+00
 6.2638368E+00 1.1022386E+00 1.7427126E+00
 6.3105975E+00 1.0766956E+00 1.7268863E+00
 6.3547006E+00 1.0510242E+00 1.7093063E+00
 6.3959718E+00 1.0254072E+00 1.6901242E+00
 6.4343248E+00 1.0000000E+00 1.6695128E+00
 6.4699056E+00 9.7500254E-01 1.6475534E+00
 5.4709458E+00 1.3609283E+00 1.8131836E+00
 5.5188877E+00 1.3461261E+00 1.8156870E+00
 5.5685152E+00 1.3306714E+00 1.8176941E+00
 5.6198223E+00 1.3143940E+00 1.8191732E+00
 5.6726793E+00 1.2972485E+00 1.8200237E+00
 5.7268783E+00 1.2792028E+00 1.8201233E+00
 5.7821552E+00 1.2602297E+00 1.8193320E+00
 5.8381974E+00 1.2403115E+00 1.8174934E+00
 5.8946505E+00 1.2194444E+00 1.8144386E+00
 5.9511263E+00 1.1976435E+00 1.8099933E+00
 6.0072150E+00 1.1749474E+00 1.8039883E+00
 6.0624969E+00 1.1514221E+00 1.7962712E+00
 6.1165573E+00 1.1271631E+00 1.7867195E+00
 6.1690000E+00 1.1022954E+00 1.7752530E+00
 6.2194613E+00 1.0769696E+00 1.7618432E+00
 6.2676209E+00 1.0513569E+00 1.7465183E+00
 6.3132130E+00 1.0256397E+00 1.7293626E+00
 6.3560347E+00 1.0000000E+00 1.7105105E+00
 6.3959718E+00 9.7459278E-01 1.6901242E+00
 6.4331503E+00 9.4960322E-01 1.6682893E+00
 5.4718347E+00 1.3243797E+00 1.8283848E+00
 5.5206451E+00 1.3083435E+00 1.8305715E+00
 5.5711005E+00 1.2916247E+00 1.8321971E+00
 5.6231894E+00 1.2740603E+00 1.8332140E+00
 5.6767560E+00 1.2556176E+00 1.8335111E+00
 5.7315672E+00 1.2362753E+00 1.8329583E+00
 5.7873318E+00 1.2160213E+00 1.8314090E+00
 5.8437109E+00 1.1948558E+00 1.8287015E+00
 5.9003267E+00 1.1727965E+00 1.8246658E+00
 5.9567727E+00 1.1498827E+00 1.8191310E+00
 6.0126263E+00 1.1261796E+00 1.8119374E+00
 6.0674633E+00 1.1017800E+00 1.8029485E+00
 6.1208723E+00 1.0768054E+00 1.7920644E+00
 6.1724691E+00 1.0514031E+00 1.7792326E+00
 6.2219098E+00 1.0257412E+00 1.7644560E+00
 6.2689015E+00 1.0000000E+00 1.7477947E+00
 6.3132130E+00 9.7436033E-01 1.7293626E+00
 6.3547006E+00 9.4897579E-01 1.7093063E+00
 6.3934578E+00 9.2401322E-01 1.6877139E+00
 5.4726633E+00 1.2858576E+00 1.8424017E+00
 5.5222541E+00 1.2685881E+00 1.8441437E+00
 5.5734359E+00 1.2506072E+00 1.8452554E+00
 5.6261827E+00 1.2317754E+00 1.8456696E+00
 5.6803151E+00 1.2120714E+00 1.8452683E+00
 5.7355741E+00 1.1914886E+00 1.8439153E+00
 5.7916426E+00 1.1700321E+00 1.8414602E+00
 5.8481585E+00 1.1477229E+00 1.8377407E+00
 5.9047249E+00 1.1246018E+00 1.8325902E+00
 5.9609220E+00 1.1007334E+00 1.8258469E+00
 6.0163218E+00 1.0762087E+00 1.8173663E+00
 6.0705022E+00 1.0511459E+00 1.8070336E+00
 6.1230626E+00 1.0256882E+00 1.7947760E+00
 6.1736375E+00 1.0000000E+00 1.7805719E+00
 6.2219098E+00 9.7425880E-01 1.7644560E+00
 6.2676209E+00 9.4864308E-01 1.7465183E+00
 6.3105975E+00 9.2330440E-01 1.7268863E+00
 6.3508955E+00 8.9839019E-01 1.7056445E+00
 5.4734071E+00 1.2454726E+00 1.8549964E+00
 5.5236795E+00 1.2269889E+00 1.8561603E+00
 5.5754682E+00 1.2077801E+00 1.8566179E+00
 5.6287338E+00 1.1877316E+00 1.8562854E+00
 5.6832723E+00 1.1668373E+00 1.8550397E+00
 5.7388003E+00 1.1451072E+00 1.8527421E+00
 5.7949776E+00 1.1225658E+00 1.8492419E+00
 5.8514229E+00 1.0992561E+00 1.8443807E+00
 5.9077254E+00 1.0752427E+00 1.8380011E+00
 5.9634586E+00 1.0506150E+00 1.8299558E+00
 6.0181959E+00 1.0254877E+00 1.8201213E+00
 6.0715249E+00 1.0000000E+00 1.8084089E+00
 6.1230626E+00 9.7431184E-01 1.7947760E+00
 6.1724691E+00 9.4859691E-01 1.7792326E+00
 6.2194613E+00 9.2303042E-01 1.7618432E+00
 6.2638368E+00 8.9776136E-01 1.7427126E+00
 6.3056109E+00 8.7291722E-01 1.7219167E+00
 5.4740545E+00 1.2033934E+00 1.8659313E+00
 5.5248931E+00 1.1837451E+00 1.8663804E+00
 5.5771554E+00 1.1633732E+00 1.8660432E+00
 5.6307860E+00 1.1421930E+00 1.8648228E+00
 5.6855585E+00 1.1202149E+00 1.8625938E+00
 5.7411670E+00 1.0974675E+00 1.8592184E+00
 5.7972520E+00 1.0739957E+00 1.8545506E+00
 5.8534180E+00 1.0498648E+00 1.8484410E+00
 5.9092468E+00 1.0251624E+00 1.8407461E+00
 5.9643123E+00 1.0000000E+00 1.8313391E+00
 6.0181959E+00 9.7451227E-01 1.8201213E+00
 6.0705022E+00 9.4885413E-01 1.8070336E+00
 6.1208723E+00 9.2319458E-01 1.7920644E+00
 6.1690000E+00 8.9770460E-01 1.7752531E+00
 6.2146558E+00 8.7253001E-01 1.7566799E+00
 6.2578122E+00 8.4777828E-01 1.7364070E+00
 5.4745907E+00 1.1598381E+00 1.8749855E+00
 5.5258680E+00 1.1391054E+00 1.8745858E+00
 5.5784579E+00 1.1176689E+00 1.8733190E+00
 5.6322899E+00 1.0954763E+00 1.8710790E+00
 5.6871163E+00 1.0725563E+00 1.8677421E+00
 5.7426125E+00 1.0489565E+00 1.8631756E+00
 5.7984048E+00 1.0247423E+00 1.8572425E+00
 5.8540892E+00 9.9999999E-01 1.8498074E+00
 5.9092468E+00 9.7483757E-01 1.8407461E+00
 5.9634587E+00 9.4938497E-01 1.8299558E+00
 6.0163218E+00 9.2379126E-01 1.8173663E+00
 6.0674633E+00 8.9822000E-01 1.8029485E+00
 6.1165573E+00 8.7283685E-01 1.7867195E+00
 6.1633484E+00 8.4778402E-01 1.7687353E+00
 6.2077660E+00 8.2314877E-01 1.7490406E+00
 5.4750045E+00 1.1150745E+00 1.8819643E+00
 5.5265818E+00 1.0933694E+00 1.8805908E+00
 5.5793448E+00 1.0709990E+00 1.8782720E+00
 5.6332080E+00 1.0479460E+00 1.8748982E+00
 5.6879056E+00 1.0242576E+00 1.8703509E+00
 5.7430988E+00 9.9999999E-01 1.8645068E+00
 5.7984048E+00 9.7525765E-01 1.8572425E+00
 5.8534180E+00 9.5013514E-01 1.8484410E+00
 5.9077254E+00 9.2475725E-01 1.8380011E+00
 5.9609220E+00 8.9926662E-01 1.8258469E+00
 6.0126263E+00 8.7382043E-01 1.8119375E+00
 6.0624969E+00 8.4857792E-01 1.7962712E+00
 6.1102557E+00 8.2367711E-01 1.7788824E+00
 6.1557879E+00 7.9918552E-01 1.7597966E+00
 5.4752859E+00 1.0694137E+00 1.8867099E+00
 5.5270173E+00 1.0468776E+00 1.8842533E+00
 5.5797940E+00 1.0237334E+00 1.8807802E+00
 5.6335167E+00 9.9999999E-01 1.8761824E+00
 5.6879056E+00 9.7574235E-01 1.8703509E+00
 5.7426125E+00 9.5104349E-01 1.8631756E+00
 5.7972520E+00 9.2600423E-01 1.8545507E+00
 5.8514229E+00 9.0074391E-01 1.8443808E+00
 5.9047249E+00 8.7539822E-01 1.8325902E+00
 5.9567727E+00 8.5011726E-01 1.8191310E+00
 6.0072150E+00 8.2505259E-01 1.8039884E+00
 6.0557545E+00 8.0033750E-01 1.7871782E+00
 6.1022330E+00 7.7602000E-01 1.7687072E+00
 5.4754284E+00 1.0232001E+00 1.8891114E+00
 5.5271637E+00 9.9999999E-01 1.8854842E+00
 5.5797940E+00 9.7626653E-01 1.8807802E+00
 5.6332080E+00 9.5205402E-01 1.8748982E+00
 5.6871163E+00 9.2744368E-01 1.8677421E+00
 5.7411670E+00 9.0253251E-01 1.8592185E+00
 5.7949776E+00 8.7743416E-01 1.8492419E+00
 5.8481585E+00 8.5227708E-01 1.8377408E+00
 5.9003267E+00 8.2720350E-01 1.8246658E+00
 5.9511263E+00 8.0235644E-01 1.8099934E+00
 6.0002453E+00 7.7786368E-01 1.7937262E+00
 6.0474847E+00 7.5375399E-01 1.7758536E+00
 5.4754284E+00 9.7679985E-01 1.8891114E+00
 5.5270173E+00 9.5312241E-01 1.8842533E+00
 5.5793448E+00 9.2900097E-01 1.8782721E+00
 5.6322898E+00 9.0452371E-01 1.8710790E+00
 5.6855585E+00 8.7978504E-01 1.8625939E+00
 5.7388003E+00 8.5489281E-01 1.8527421E+00
 5.7916426E+00 8.2996783E-01 1.8414603E+00
 5.8437109E+00 8.0514419E-01 1.8287016E+00
 5.8946505E+00 7.8055552E-01 1.8144387E+00
 5.9441395E+00 7.5632351E-01 1.7986656E+00
 5.9919418E+00 7.3245792E-01 1.7813574E+00
 5.4752859E+00 9.3058629E-01 1.8867100E+00
 5.5265818E+00 9.0663053E-01 1.8805908E+00
 5.5784579E+00 8.8233111E-01 1.8733191E+00
 5.6307860E+00 8.5780697E-01 1.8648229E+00
 5.6832723E+00 8.3316266E-01 1.8550398E+00
 5.7355741E+00 8.0851137E-01 1.8439154E+00
 5.7873318E+00 7.8397868E-01 1.8314091E+00
 5.8381974E+00 7.5968847E-01 1.8174935E+00
 5.8878450E+00 7.3575574E-01 1.8021590E+00
 5.9360058E+00 7.1217168E-01 1.7853689E+00
 5.4750045E+00 8.8492542E-01 1.8819643E+00
 5.5258680E+00 8.6089458E-01 1.8745859E+00
 5.5771554E+00 8.3662673E-01 1.8660433E+00
 5.6287337E+00 8.1226832E-01 1.8562855E+00
 5.6803151E+00 7.8792860E-01 1.8452684E+00
 5.7315672E+00 7.6372462E-01 1.8329585E+00
 5.7821552E+00 7.3977028E-01 1.8193322E+00
 5.8317541E+00 7.1617374E-01 1.8043794E+00
 5.8800682E+00 6.9290806E-01 1.7880553E+00
 5.4745907E+00 8.4016189E-01 1.8749856E+00
 5.5248931E+00 8.1625482E-01 1.8663805E+00
 5.5754682E+00 7.9221989E-01 1.8566180E+00
 5.6261827E+00 7.6822453E-01 1.8456697E+00
 5.6767560E+00 7.4438235E-01 1.8335112E+00
 5.7268783E+00 7.2079718E-01 1.8201234E+00
 5.7762318E+00 6.9757026E-01 1.8054993E+00
 5.8244996E+00 6.7465738E-01 1.7895882E+00
 5.4740544E+00 7.9660652E-01 1.8659314E+00
 5.5236794E+00 7.7301103E-01 1.8561604E+00
 5.5734359E+00 7.4939279E-01 1.8452556E+00
 5.6231893E+00 7.2593964E-01 1.8332141E+00
 5.6726793E+00 7.0275143E-01 1.8200238E+00
 5.7216064E+00 6.7992271E-01 1.8056819E+00
 5.7696393E+00 6.5739308E-01 1.7901346E+00
 5.4734071E+00 7.5452737E-01 1.8549965E+00
 5.5222541E+00 7.3141188E-01 1.8441438E+00
 5.5711004E+00 7.0837522E-01 1.8321973E+00
 5.6198223E+00 6.8560596E-01 1.8191733E+00
 5.6681629E+00 6.6319840E-01 1.8050761E+00
 5.7157883E+00 6.4107728E-01 1.7898493E+00
 5.4726633E+00 7.1414239E-01 1.8424019E+00
 5.5206451E+00 6.9165640E-01 1.8305717E+00
 5.5685152E+00 6.6932854E-01 1.8176942E+00
 5.6161375E+00 6.4735808E-01 1.8038124E+00
 5.6632027E+00 6.2566466E-01 1.7888707E+00
 5.4718347E+00 6.7562028E-01 1.8283850E+00
 5.5188877E+00 6.5387385E-01 1.8156872E+00
 5.5657125E+00 6.3236081E-01 1.8020034E+00
 5.6120951E+00 6.1110864E-01 1.7873197E+00
 5.4709458E+00 6.3907161E-01 1.8131837E+00
 5.5170024E+00 6.1815739E-01 1.7997421E+00
 5.5626174E+00 5.9735851E-01 1.7852973E+00
 5.4699837E+00 6.0455248E-01 1.7970314E+00
 5.5148775E+00 5.8436792E-01 1.7828889E+00
 5.4689015E+00 5.7198327E-01 1.7801058E+00
 5.3987566E+00 1.4926127E+00 1.7466515E+00
 5.3708902E+00 1.5175099E+00 1.7317180E+00
 5.3419085E+00 1.5429788E+00 1.7151102E+00
 5.3118041E+00 1.5688991E+00 1.6967263E+00
 5.2807178E+00 1.5951336E+00 1.6764462E+00
 5.2487621E+00 1.6215127E+00 1.6541661E+00
 5.2160967E+00 1.6478386E+00 1.6297956E+00
 5.1829070E+00 1.6738799E+00 1.6032720E+00
 5.1494072E+00 1.6993775E+00 1.5745643E+00
 5.1158340E+00 1.7240498E+00 1.5436829E+00
 5.0824409E+00 1.7476021E+00 1.5106870E+00
 5.0494907E+00 1.7697383E+00 1.4756907E+00
 5.0172462E+00 1.7901761E+00 1.4388662E+00
 4.9859615E+00 1.8086624E+00 1.4004428E+00
 4.9558723E+00 1.8249890E+00 1.3607013E+00
 4.9271876E+00 1.8390038E+00 1.3199637E+00
 4.9000817E+00 1.8506201E+00 1.2785785E+00
 4.8746897E+00 1.8598176E+00 1.2369049E+00
 4.8511043E+00 1.8666407E+00 1.1952955E+00
 4.8293742E+00 1.8711896E+00 1.1540802E+00
 4.8095093E+00 1.8736109E+00 1.1135542E+00
 4.7914820E+00 1.8740806E+00 1.0739707E+00
 4.7752885E+00 1.8728044E+00 1.0355888E+00
 4.3149154E+00 1.0657289E+00 1.5855882E+00
 4.3099822E+00 1.1083077E+00 1.5730188E+00
 4.3068222E+00 1.1523300E+00 1.5588239E+00
 4.3057631E+00 1.1977475E+00 1.5430271E+00
 4.3070417E+00 1.2443823E+00 1.5255546E+00
 4.3108974E+00 1.2919754E+00 1.5063680E+00
 4.3175529E+00 1.3402137E+00 1.4854546E+00
 4.3272044E+00 1.3887279E+00 1.4628338E+00
 4.3400081E+00 1.4370995E+00 1.4385603E+00
 4.3560670E+00 1.4848669E+00 1.4127281E+00
 4.3754185E+00 1.5315389E+00 1.3854741E+00
 4.3980220E+00 1.5766103E+00 1.3569785E+00
 4.4237512E+00 1.6195832E+00 1.3274635E+00
 4.4523902E+00 1.6599916E+00 1.2971889E+00
 4.4836357E+00 1.6974262E+00 1.2664437E+00
 4.5171076E+00 1.7315587E+00 1.2355352E+00
 4.5523661E+00 1.7621619E+00 1.2047750E+00
 4.5889345E+00 1.7891215E+00 1.1744641E+00
 4.6263268E+00 1.8124395E+00 1.1448780E+00
 4.6640790E+00 1.8322291E+00 1.1162542E+00
 4.7017828E+00 1.8486992E+00 1.0887708E+00
 4.7390780E+00 1.8621343E+00 1.0624292E+00
 4.3418563E+00 1.0926848E+00 1.6140118E+00
 4.3381089E+00 1.1367829E+00 1.6014496E+00
 4.3362659E+00 1.1822273E+00 1.5871377E+00
 4.3366777E+00 1.2289922E+00 1.5710855E+00
 4.3395870E+00 1.2768669E+00 1.5532112E+00
 4.3452312E+00 1.3255451E+00 1.5334723E+00
 4.3538236E+00 1.3746609E+00 1.5118586E+00
 4.3655409E+00 1.4237906E+00 1.4883978E+00
 4.3805081E+00 1.4724624E+00 1.4631597E+00
 4.3987846E+00 1.5201675E+00 1.4362609E+00
 4.4203516E+00 1.5663773E+00 1.4078672E+00
 4.4451021E+00 1.6105654E+00 1.3781932E+00
 4.4728359E+00 1.6522332E+00 1.3474995E+00
 4.5032616E+00 1.6909374E+00 1.3160845E+00
 4.5360055E+00 1.7263169E+00 1.2842734E+00
 4.5706291E+00 1.7581144E+00 1.2524035E+00
 4.6066528E+00 1.7861914E+00 1.2208076E+00
 4.6435838E+00 1.8105318E+00 1.1897970E+00
 4.6809505E+00 1.8312391E+00 1.1596452E+00
 4.7183375E+00 1.8485217E+00 1.1305636E+00
 4.7553969E+00 1.8626808E+00 1.1025326E+00
 4.3723569E+00 1.1203589E+00 1.6421089E+00
 4.3699602E+00 1.1658355E+00 1.6294515E+00
 4.3696168E+00 1.2125940E+00 1.6149227E+00
 4.3716807E+00 1.2605718E+00 1.5985013E+00
 4.3763930E+00 1.3095100E+00 1.5800997E+00
 4.3839815E+00 1.3590505E+00 1.5596744E+00
 4.3946403E+00 1.4087718E+00 1.5372217E+00
 4.4085151E+00 1.4581955E+00 1.5127833E+00
 4.4256874E+00 1.5068000E+00 1.4864508E+00
 4.4461605E+00 1.5540373E+00 1.4583705E+00
 4.4698485E+00 1.5993554E+00 1.4287446E+00
 4.4965697E+00 1.6422254E+00 1.3978290E+00
 4.5260480E+00 1.6821712E+00 1.3659273E+00
 4.5579202E+00 1.7187981E+00 1.3333789E+00
 4.5917541E+00 1.7518175E+00 1.3005440E+00
 4.6270717E+00 1.7810640E+00 1.2677856E+00
 4.6633779E+00 1.8065004E+00 1.2354502E+00
 4.7001972E+00 1.8282163E+00 1.2038485E+00
 4.7371075E+00 1.8464124E+00 1.1732292E+00
 4.7737638E+00 1.8613987E+00 1.1436136E+00
 4.4066543E+00 1.1487103E+00 1.6694557E+00
 4.4058052E+00 1.1954347E+00 1.6565969E+00
 4.4071583E+00 1.2433421E+00 1.6417353E+00
 4.4110581E+00 1.2923246E+00 1.6248185E+00
 4.4177350E+00 1.3420702E+00 1.6057555E+00
 4.4273965E+00 1.3921663E+00 1.5845066E+00
 4.4402056E+00 1.4421359E+00 1.5610807E+00
 4.4562640E+00 1.4914502E+00 1.5355400E+00
 4.4755967E+00 1.5395478E+00 1.5080065E+00
 4.4981400E+00 1.5858560E+00 1.4786641E+00
 4.5237335E+00 1.6298205E+00 1.4477589E+00
 4.5521201E+00 1.6709349E+00 1.4155937E+00
 4.5829529E+00 1.7087731E+00 1.3825173E+00
 4.6158119E+00 1.7430145E+00 1.3489084E+00
 4.6502278E+00 1.7734652E+00 1.3151572E+00
 4.6857097E+00 1.8000632E+00 1.2816434E+00
 4.7217841E+00 1.8228791E+00 1.2487142E+00
 4.7580276E+00 1.8421009E+00 1.2166568E+00
 4.7941043E+00 1.8580397E+00 1.1855403E+00
 4.4449211E+00 1.1774978E+00 1.6955859E+00
 4.4458065E+00 1.2252859E+00 1.6823920E+00
 4.4490317E+00 1.2741172E+00 1.6670558E+00