# TIME = 10.300000
variables = x, y, z
zone N=5762 E=11520 F=FEPOINT ET=TRIANGLE
 4.9987136E-01 1.4633804E+00 1.7495987E+00
 4.9987126E-01 1.4633796E+00 2.5040064E-01
 4.9987136E-01 5.3661990E-01 1.7495991E+00
 4.9987130E-01 5.3662063E-01 2.5040030E-01
 -6.1067881E-01 1.0000003E+00 1.5695935E+00
 1.6492850E+00 1.0000002E+00 1.5803374E+00
 -6.1068075E-01 1.0000003E+00 4.3040326E-01
 1.6492846E+00 1.0000002E+00 4.1966122E-01
 -1.7036098E-01 1.8881705E+00 9.9999906E-01
 -1.7036081E-01 1.1183050E-01 9.9999909E-01
 1.1565934E+00 1.8044886E+00 9.9999908E-01
 1.1565935E+00 1.9551143E-01 9.9999909E-01
 4.5604628E-01 1.4569821E+00 1.7585565E+00
 4.0771424E-01 1.4497653E+00 1.7684468E+00
 3.5711946E-01 1.4420550E+00 1.7787698E+00
 3.0479438E-01 1.4337319E+00 1.7893536E+00
 2.5108475E-01 1.4246234E+00 1.7999640E+00
 1.9634878E-01 1.4145101E+00 1.8102643E+00
 1.4089152E-01 1.4031466E+00 1.8198202E+00
 8.4981892E-02 1.3902817E+00 1.8281105E+00
 2.8852561E-02 1.3756808E+00 1.8345588E+00
 -2.7270922E-02 1.3591509E+00 1.8385731E+00
 -8.3129176E-02 1.3405673E+00 1.8395947E+00
 -1.3839295E-01 1.3198949E+00 1.8371516E+00
 -1.9264782E-01 1.2972034E+00 1.8309093E+00
 -2.4540936E-01 1.2726674E+00 1.8207073E+00
 -2.9616425E-01 1.2465550E+00 1.8065755E+00
 -3.4442119E-01 1.2192037E+00 1.7887239E+00
 -3.8975875E-01 1.1909906E+00 1.7675135E+00
 -4.3185841E-01 1.1623036E+00 1.7434113E+00
 -4.7052034E-01 1.1335159E+00 1.7169441E+00
 -5.0566319E-01 1.1049664E+00 1.6886531E+00
 -5.3729329E-01 1.0769628E+00 1.6590791E+00
 -5.6547469E-01 1.0497759E+00 1.6287518E+00
 -5.9022354E-01 1.0237259E+00 1.5983109E+00
 4.5079799E-01 5.7554838E-01 1.7778120E+00
 4.0073886E-01 5.8484034E-01 1.7884677E+00
 3.4903217E-01 5.9421895E-01 1.7991792E+00
 2.9596493E-01 6.0409507E-01 1.8099388E+00
 2.4178362E-01 6.1479265E-01 1.8205765E+00
 1.8678125E-01 6.2657730E-01 1.8307596E+00
 1.3124367E-01 6.3969377E-01 1.8400348E+00
 7.5416275E-02 6.5436028E-01 1.8478603E+00
 1.9516553E-02 6.7075893E-01 1.8536466E+00
 -3.6236564E-02 6.8901878E-01 1.8568022E+00
 -9.1582464E-02 7.0919695E-01 1.8567855E+00
 -1.4618790E-01 7.3126323E-01 1.8531578E+00
 -1.9963801E-01 7.5509313E-01 1.8456309E+00
 -2.5145722E-01 7.8047260E-01 1.8340982E+00
 -3.0115258E-01 8.0711447E-01 1.8186429E+00
 -3.4826382E-01 8.3468307E-01 1.7995228E+00
 -3.9240868E-01 8.6282058E-01 1.7771326E+00
 -4.3331705E-01 8.9116892E-01 1.7519526E+00
 -4.7084948E-01 9.1938343E-01 1.7244916E+00
 -5.0500682E-01 9.4714129E-01 1.6952233E+00
 -5.3593539E-01 9.7414004E-01 1.6645192E+00
 -5.6394800E-01 1.0000003E+00 1.6325603E+00
 4.4847804E-01 6.0924918E-01 1.7955299E+00
 3.9647235E-01 6.2056727E-01 1.8067457E+00
 3.4347696E-01 6.3166343E-01 1.8177249E+00
 2.8947262E-01 6.4319742E-01 1.8285902E+00
 2.3466292E-01 6.5557047E-01 1.8391767E+00
 1.7927904E-01 6.6909012E-01 1.8491506E+00
 1.2356132E-01 6.8399034E-01 1.8580408E+00
 6.7725038E-02 7.0045326E-01 1.8652893E+00
 1.1967810E-02 7.1860869E-01 1.8702990E+00
 -4.3499605E-02 7.3852568E-01 1.8724845E+00
 -9.8417477E-02 7.6020025E-01 1.8713262E+00
 -1.5245093E-01 7.8354664E-01 1.8664221E+00
 -2.0518779E-01 8.0839651E-01 1.8575315E+00
 -2.5616453E-01 8.3450918E-01 1.8445998E+00
 -3.0491285E-01 8.6159037E-01 1.8277593E+00
 -3.5101214E-01 8.8931569E-01 1.8073024E+00
 -3.9413789E-01 9.1735103E-01 1.7836344E+00
 -4.3410333E-01 9.4536442E-01 1.7572030E+00
 -4.7089382E-01 9.7302691E-01 1.7284136E+00
 -5.0468727E-01 1.0000002E+00 1.6975357E+00
 -5.3593541E-01 1.0258605E+00 1.6645192E+00
 4.4683681E-01 6.4457290E-01 1.8121147E+00
 3.9353073E-01 6.5759661E-01 1.8234712E+00
 3.3940241E-01 6.7040238E-01 1.8345372E+00
 2.8454643E-01 6.8362399E-01 1.8453595E+00
 2.2912117E-01 6.9771962E-01 1.8557676E+00
 1.7334184E-01 7.1299982E-01 1.8654024E+00
 1.1741714E-01 7.2968014E-01 1.8737737E+00
 6.1538968E-02 7.4790239E-01 1.8803100E+00
 5.8901990E-03 7.6774580E-01 1.8844121E+00
 -4.9325022E-02 7.8922403E-01 1.8855067E+00
 -1.0384829E-01 8.1227958E-01 1.8831010E+00
 -1.5734572E-01 8.3678070E-01 1.8768330E+00
 -2.0941233E-01 8.6252660E-01 1.8665097E+00
 -2.5960341E-01 8.8926125E-01 1.8521247E+00
 -3.0748607E-01 9.1669220E-01 1.8338472E+00
 -3.5269852E-01 9.4450843E-01 1.8119832E+00
 -3.9500682E-01 9.7238937E-01 1.7869075E+00
 -4.3435260E-01 1.0000002E+00 1.7589757E+00
 -4.7089384E-01 1.0269736E+00 1.7284136E+00
 -5.0500686E-01 1.0528592E+00 1.6952234E+00
 4.4556783E-01 6.8151475E-01 1.8274467E+00
 3.9125550E-01 6.9609917E-01 1.8386972E+00
 3.3623141E-01 7.1053427E-01 1.8496343E+00
 2.8064620E-01 7.2543600E-01 1.8602450E+00
 2.2468879E-01 7.4124999E-01 1.8703133E+00
 1.6856440E-01 7.5827410E-01 1.8794514E+00
 1.1246911E-01 7.7669064E-01 1.8871477E+00
 5.6579340E-02 7.9659908E-01 1.8928214E+00
 1.0678655E-03 8.1802949E-01 1.8958776E+00
 -5.3866439E-02 8.4094590E-01 1.8957616E+00
 -1.0796808E-01 8.6524515E-01 1.8920130E+00
 -1.6090890E-01 8.9075987E-01 1.8843115E+00
 -2.1229903E-01 9.1726769E-01 1.8725097E+00
 -2.6172457E-01 9.4450615E-01 1.8566393E+00
 -3.0880713E-01 9.7218655E-01 1.8368884E+00
 -3.5327135E-01 1.0000002E+00 1.8135437E+00
 -3.9500683E-01 1.0276111E+00 1.7869076E+00
 -4.3410336E-01 1.0546361E+00 1.7572030E+00
 -4.7084954E-01 1.0806171E+00 1.7244917E+00
 4.4451971E-01 7.2007647E-01 1.8413954E+00
 3.8938437E-01 7.3609983E-01 1.8523371E+00
 3.3362885E-01 7.5209404E-01 1.8629559E+00
 2.7745415E-01 7.6862986E-01 1.8731741E+00
 2.2107535E-01 7.8612209E-01 1.8827282E+00
 1.6470278E-01 8.0483266E-01 1.8911975E+00
 1.0852442E-01 8.2490417E-01 1.8980532E+00
 5.2706989E-02 8.4639111E-01 1.9027115E+00
 -2.5851064E-03 8.6927793E-01 1.9045893E+00
 -5.7158995E-02 8.9348515E-01 1.9031574E+00
 -1.1076610E-01 9.1887344E-01 1.8979912E+00
 -1.6309162E-01 9.4525029E-01 1.8888123E+00
 -2.1377276E-01 9.7238116E-01 1.8755112E+00
 -2.6244435E-01 1.0000002E+00 1.8581431E+00
 -3.0880714E-01 1.0278139E+00 1.8368884E+00
 -3.5269855E-01 1.0554920E+00 1.8119832E+00
 -3.9413793E-01 1.0826495E+00 1.7836345E+00
 -4.3331712E-01 1.1088316E+00 1.7519527E+00
 4.4361846E-01 7.6017918E-01 1.8537947E+00
 3.8779344E-01 7.7754376E-01 1.8642555E+00
 3.3144749E-01 7.9502065E-01 1.8743796E+00
 2.7482307E-01 8.1312414E-01 1.8840269E+00
 2.1815663E-01 8.3222127E-01 1.8928887E+00
 1.6166281E-01 8.5252763E-01 1.9005162E+00
 1.0552391E-01 8.7414024E-01 1.9063697E+00
 4.9897534E-02 8.9706992E-01 1.9098705E+00
 -5.0607338E-03 9.2125993E-01 1.9104548E+00
 -5.9167221E-02 9.4659571E-01 1.9076239E+00
 -1.1218676E-01 9.7291171E-01 1.9009909E+00
 -1.6382854E-01 1.0000002E+00 1.8903143E+00
 -2.1377276E-01 1.0276193E+00 1.8755112E+00
 -2.6172458E-01 1.0554943E+00 1.8566394E+00
 -3.0748610E-01 1.0833083E+00 1.8338473E+00
 -3.5101219E-01 1.1106848E+00 1.8073025E+00
 -3.9240875E-01 1.1371799E+00 1.7771327E+00
 4.4284126E-01 8.0168322E-01 1.8644666E+00
 3.8644633E-01 8.2030105E-01 1.8742940E+00
 3.2964958E-01 8.3917455E-01 1.8837574E+00
 2.7272253E-01 8.5875796E-01 1.8926620E+00
 2.1591622E-01 8.7935974E-01 1.9006597E+00
 1.5944578E-01 9.0114262E-01 1.9072817E+00
 1.0348612E-01 9.2415718E-01 1.9119858E+00
 4.8184412E-02 9.4837357E-01 1.9142066E+00
 -6.3152632E-03 9.7370133E-01 1.9134057E+00
 -5.9843423E-02 1.0000002E+00 1.9091178E+00
 -1.1218676E-01 1.0270888E+00 1.9009910E+00
 -1.6309163E-01 1.0547502E+00 1.8888123E+00
 -2.1229904E-01 1.0827328E+00 1.8725097E+00
 -2.5960344E-01 1.1107392E+00 1.8521247E+00
 -3.0491290E-01 1.1384101E+00 1.8277594E+00
 -3.4826389E-01 1.1653174E+00 1.7995229E+00
 4.4219096E-01 8.4440493E-01 1.8732412E+00
 3.8535434E-01 8.6418025E-01 1.8822948E+00
 3.2825333E-01 8.8435073E-01 1.8909426E+00
 2.7117848E-01 9.0530499E-01 1.8989430E+00
 2.1438731E-01 9.2728706E-01 1.9059180E+00
 1.5809061E-01 9.5040454E-01 1.9113878E+00
 1.0245277E-01 9.7466360E-01 1.9148166E+00
 4.7607851E-02 1.0000002E+00 1.9156590E+00
 -6.3152637E-03 1.0262991E+00 1.9134057E+00
 -5.9167223E-02 1.0534048E+00 1.9076239E+00
 -1.1076610E-01 1.0811270E+00 1.8979912E+00
 -1.6090891E-01 1.1092406E+00 1.8843116E+00
 -2.0941236E-01 1.1374739E+00 1.8665098E+00
 -2.5616457E-01 1.1654913E+00 1.8445999E+00
 -3.0115265E-01 1.1928860E+00 1.8186431E+00
 4.4168240E-01 8.8811998E-01 1.8799677E+00
 3.8454557E-01 9.0894324E-01 1.8881189E+00
 3.2729501E-01 9.3029356E-01 1.8958092E+00
 2.7023113E-01 9.5248907E-01 1.9027595E+00
 2.1361039E-01 9.7570675E-01 1.9085717E+00
 1.5763412E-01 1.0000002E+00 1.9127646E+00
 1.0245277E-01 1.0253369E+00 1.9148166E+00
 4.8184411E-02 1.0516269E+00 1.9142066E+00
 -5.0607352E-03 1.0787405E+00 1.9104548E+00
 -5.7158999E-02 1.1065153E+00 1.9031574E+00
 -1.0796809E-01 1.1347553E+00 1.8920130E+00
 -1.5734574E-01 1.1632198E+00 1.8768331E+00
 -2.0518782E-01 1.1916040E+00 1.8575316E+00
 -2.5145727E-01 1.2195279E+00 1.8340983E+00
 4.4133233E-01 9.3257035E-01 1.8845240E+00
 3.8404771E-01 9.5431611E-01 1.8916587E+00
 3.2680687E-01 9.7671109E-01 1.8982663E+00
 2.6991159E-01 1.0000002E+00 1.9040399E+00
 2.1361039E-01 1.0242937E+00 1.9085717E+00
 1.5809061E-01 1.0495959E+00 1.9113878E+00
 1.0348612E-01 1.0758433E+00 1.9119857E+00
 4.9897534E-02 1.1029305E+00 1.9098705E+00
 -2.5851086E-03 1.1307225E+00 1.9045893E+00
 -5.3866445E-02 1.1590546E+00 1.8957616E+00
 -1.0384830E-01 1.1877209E+00 1.8831011E+00
 -1.5245095E-01 1.2164538E+00 1.8664222E+00
 -1.9963804E-01 1.2449074E+00 1.8456310E+00
 4.4115383E-01 9.7747277E-01 1.8868243E+00
 3.8387956E-01 1.0000002E+00 1.8928464E+00
 3.2680687E-01 1.0232894E+00 1.8982663E+00
 2.7023114E-01 1.0475114E+00 1.9027595E+00
 2.1438731E-01 1.0727134E+00 1.9059180E+00
 1.5944578E-01 1.0988578E+00 1.9072816E+00
 1.0552391E-01 1.1258602E+00 1.9063697E+00
 5.2706988E-02 1.1536093E+00 1.9027115E+00
 1.0678628E-03 1.1819710E+00 1.8958775E+00
 -4.9325029E-02 1.2107764E+00 1.8855067E+00
 -9.8417491E-02 1.2398002E+00 1.8713263E+00
 -1.4618792E-01 1.2687373E+00 1.8531579E+00
 4.4115383E-01 1.0225277E+00 1.8868242E+00
 3.8404771E-01 1.0456844E+00 1.8916587E+00
 3.2729501E-01 1.0697069E+00 1.8958092E+00
 2.7117848E-01 1.0946955E+00 1.8989430E+00
 2.1591622E-01 1.1206407E+00 1.9006596E+00
 1.6166281E-01 1.1474728E+00 1.9005162E+00
 1.0852442E-01 1.1750963E+00 1.8980531E+00
 5.6579339E-02 1.2034014E+00 1.8928213E+00
 5.8901959E-03 1.2322547E+00 1.8844120E+00
 -4.3499612E-02 1.2614748E+00 1.8724845E+00
 -9.1582479E-02 1.2908035E+00 1.8567855E+00
 4.4133234E-01 1.0674301E+00 1.8845239E+00
 3.8454557E-01 1.0910572E+00 1.8881188E+00
 3.2825333E-01 1.1156497E+00 1.8909425E+00
 2.7272254E-01 1.1412425E+00 1.8926619E+00
 2.1815664E-01 1.1677792E+00 1.8928886E+00
 1.6470278E-01 1.1951678E+00 1.8911974E+00
 1.1246911E-01 1.2233098E+00 1.8871476E+00
 6.1538967E-02 1.2520981E+00 1.8803100E+00
 1.1967807E-02 1.2813918E+00 1.8702989E+00
 -3.6236572E-02 1.3109817E+00 1.8568022E+00
 4.4168240E-01 1.1118805E+00 1.8799676E+00
 3.8535435E-01 1.1358202E+00 1.8822947E+00
 3.2964959E-01 1.1608259E+00 1.8837573E+00
 2.7482308E-01 1.1868763E+00 1.8840268E+00
 2.2107535E-01 1.2138784E+00 1.8827280E+00
 1.6856440E-01 1.2417263E+00 1.8794513E+00
 1.1741714E-01 1.2703203E+00 1.8737736E+00
 6.7725037E-02 1.2995472E+00 1.8652892E+00
 1.9516549E-02 1.3292415E+00 1.8536466E+00
 4.4219097E-01 1.1555955E+00 1.8732410E+00
 3.8644634E-01 1.1796994E+00 1.8742939E+00
 3.3144750E-01 1.2049798E+00 1.8743794E+00
 2.7745416E-01 1.2313706E+00 1.8731740E+00
 2.2468880E-01 1.2587504E+00 1.8703131E+00
 1.7334184E-01 1.2870006E+00 1.8654022E+00
 1.2356132E-01 1.3160101E+00 1.8580407E+00
 7.5416274E-02 1.3456401E+00 1.8478602E+00
 4.4284127E-01 1.1983172E+00 1.8644664E+00
 3.8779345E-01 1.2224567E+00 1.8642553E+00
 3.3362886E-01 1.2479064E+00 1.8629558E+00
 2.8064621E-01 1.2745644E+00 1.8602448E+00
 2.2912117E-01 1.3022808E+00 1.8557674E+00
 1.7927904E-01 1.3309103E+00 1.8491505E+00
 1.3124367E-01 1.3603066E+00 1.8400346E+00
 4.4361847E-01 1.2398212E+00 1.8537945E+00
 3.8938439E-01 1.2639006E+00 1.8523369E+00
 3.3623142E-01 1.2894661E+00 1.8496341E+00
 2.8454643E-01 1.3163764E+00 1.8453593E+00
 2.3466292E-01 1.3444299E+00 1.8391765E+00
 1.8678125E-01 1.3734231E+00 1.8307594E+00
 4.4451972E-01 1.2799239E+00 1.8413952E+00
 3.9125551E-01 1.3039012E+00 1.8386969E+00
 3.3940242E-01 1.3295980E+00 1.8345370E+00
 2.8947262E-01 1.3568029E+00 1.8285899E+00
 2.4178363E-01 1.3852077E+00 1.8205763E+00
 4.4556785E-01 1.3184856E+00 1.8274465E+00
 3.9353074E-01 1.3424038E+00 1.8234710E+00
 3.4347697E-01 1.3683369E+00 1.8177247E+00
 2.9596494E-01 1.3959053E+00 1.8099385E+00
 4.4683682E-01 1.3554275E+00 1.8121144E+00
 3.9647236E-01 1.3794331E+00 1.8067454E+00
 3.4903217E-01 1.4057814E+00 1.7991789E+00
 4.4847804E-01 1.3907512E+00 1.7955296E+00
 4.0073887E-01 1.4151600E+00 1.7884674E+00
 4.5079799E-01 1.4244519E+00 1.7778117E+00
 4.9970179E-01 1.4352510E+00 1.7663192E+00
 4.9945133E-01 1.4033943E+00 1.7836091E+00
 4.9921312E-01 1.3696214E+00 1.8001384E+00
 4.9900343E-01 1.3339978E+00 1.8156857E+00
 4.9882734E-01 1.2966341E+00 1.8300340E+00
 4.9868193E-01 1.2576599E+00 1.8429730E+00
 4.9856237E-01 1.2172077E+00 1.8543127E+00
 4.9846527E-01 1.1754495E+00 1.8638738E+00
 4.9838920E-01 1.1325954E+00 1.8714953E+00
 4.9833414E-01 1.0888869E+00 1.8770422E+00
 4.9830069E-01 1.0445926E+00 1.8804128E+00
 4.9828945E-01 1.0000002E+00 1.8815435E+00
 4.9830068E-01 9.5540784E-01 1.8804128E+00
 4.9833413E-01 9.1111351E-01 1.8770423E+00
 4.9838920E-01 8.6740509E-01 1.8714954E+00
 4.9846526E-01 8.2455096E-01 1.8638740E+00
 4.9856236E-01 7.8279276E-01 1.8543129E+00
 4.9868191E-01 7.4234047E-01 1.8429732E+00
 4.9882733E-01 7.0336632E-01 1.8300342E+00
 4.9900342E-01 6.6600262E-01 1.8156859E+00
 4.9921311E-01 6.3037894E-01 1.8001387E+00
 4.9945132E-01 5.9660607E-01 1.7836094E+00
 4.9970179E-01 5.6474926E-01 1.7663195E+00
 5.4338028E-01 5.4734620E-01 1.7514375E+00
 5.9093703E-01 5.5912932E-01 1.7534249E+00
 6.4035524E-01 5.7134100E-01 1.7554348E+00
 6.9120700E-01 5.8398110E-01 1.7574378E+00
 7.4328728E-01 5.9710711E-01 1.7593654E+00
 7.9639180E-01 6.1080454E-01 1.7611134E+00
 8.5033855E-01 6.2517189E-01 1.7625392E+00
 9.0492683E-01 6.4030933E-01 1.7634656E+00
 9.5993825E-01 6.5631486E-01 1.7636888E+00
 1.0151327E+00 6.7327742E-01 1.7629873E+00
 1.0702476E+00 6.9126966E-01 1.7611336E+00
 1.1249991E+00 7.1034133E-01 1.7579050E+00
 1.1790879E+00 7.3051365E-01 1.7530973E+00
 1.2322059E+00 7.5177610E-01 1.7465351E+00
 1.2840447E+00 7.7408493E-01 1.7380829E+00
 1.3343044E+00 7.9736474E-01 1.7276516E+00
 1.3827012E+00 8.2151095E-01 1.7152036E+00
 1.4289740E+00 8.4639509E-01 1.7007538E+00
 1.4728909E+00 8.7187106E-01 1.6843691E+00
 1.5142552E+00 8.9778191E-01 1.6661623E+00
 1.5528880E+00 9.2394387E-01 1.6462994E+00
 1.5886287E+00 9.5013475E-01 1.6249903E+00
 1.6212236E+00 9.7596942E-01 1.6025846E+00
 5.4818754E-01 1.4198791E+00 1.7697198E+00
 5.9741162E-01 1.4062243E+00 1.7719957E+00
 6.4789303E-01 1.3926815E+00 1.7740052E+00
 6.9946198E-01 1.3789196E+00 1.7758647E+00
 7.5202383E-01 1.3647086E+00 1.7775737E+00
 8.0543821E-01 1.3499012E+00 1.7790409E+00
 8.5953244E-01 1.3343814E+00 1.7801198E+00
 9.1411489E-01 1.3180549E+00 1.7806214E+00
 9.6896943E-01 1.3008428E+00 1.7803306E+00
 1.0238556E+00 1.2826812E+00 1.7790184E+00
 1.0785095E+00 1.2635247E+00 1.7764553E+00
 1.1326476E+00 1.2433516E+00 1.7724236E+00
 1.1859733E+00 1.2221665E+00 1.7667295E+00
 1.2381850E+00 1.2000026E+00 1.7592144E+00
 1.2889854E+00 1.1769200E+00 1.7497632E+00
 1.3380896E+00 1.1530043E+00 1.7383093E+00
 1.3852354E+00 1.1283641E+00 1.7248359E+00
 1.4301980E+00 1.1031305E+00 1.7093701E+00
 1.4728053E+00 1.0774586E+00 1.6919716E+00
 1.5129664E+00 1.0515324E+00 1.6727077E+00
 1.5507136E+00 1.0255773E+00 1.6516096E+00
 1.5862925E+00 1.0000002E+00 1.6285890E+00
 5.4998935E-01 1.3863154E+00 1.7869134E+00
 6.0113516E-01 1.3708555E+00 1.7892305E+00
 6.5288985E-01 1.3559386E+00 1.7910978E+00
 7.0539654E-01 1.3409471E+00 1.7927263E+00
 7.5861304E-01 1.3255612E+00 1.7941305E+00
 8.1246074E-01 1.3095720E+00 1.7952255E+00
 8.6680362E-01 1.2928507E+00 1.7958552E+00
 9.2146798E-01 1.2753097E+00 1.7958199E+00
 9.7624668E-01 1.2568878E+00 1.7948951E+00
 1.0309020E+00 1.2375436E+00 1.7928476E+00
 1.0851713E+00 1.2172562E+00 1.7894492E+00
 1.1387729E+00 1.1960272E+00 1.7844896E+00
 1.1914159E+00 1.1738820E+00 1.7777877E+00
 1.2428088E+00 1.1508690E+00 1.7692014E+00
 1.2926718E+00 1.1270573E+00 1.7586335E+00
 1.3407487E+00 1.1025347E+00 1.7460316E+00
 1.3868277E+00 1.0774098E+00 1.7313814E+00
 1.4307731E+00 1.0518179E+00 1.7146848E+00
 1.4725705E+00 1.0259346E+00 1.6959243E+00
 1.5123837E+00 1.0000002E+00 1.6750045E+00
 1.5507136E+00 9.7442319E-01 1.6516096E+00
 5.5115233E-01 1.3512558E+00 1.8030694E+00
 6.0358656E-01 1.3344130E+00 1.8051173E+00
 6.5646437E-01 1.3181741E+00 1.8066981E+00
 7.0982801E-01 1.3019527E+00 1.8079777E+00
 7.6368833E-01 1.2853588E+00 1.8089719E+00
 8.1798092E-01 1.2681638E+00 1.8095838E+00
 8.7259314E-01 1.2502327E+00 1.8096463E+00
 9.2736352E-01 1.2314887E+00 1.8089494E+00
 9.8209082E-01 1.2118874E+00 1.8072625E+00
 1.0365400E+00 1.1914078E+00 1.8043513E+00
 1.0904505E+00 1.1700498E+00 1.7999921E+00
 1.1435454E+00 1.1478338E+00 1.7939838E+00
 1.1955432E+00 1.1247996E+00 1.7861589E+00
 1.2461697E+00 1.1010041E+00 1.7763898E+00
 1.2951759E+00 1.0765195E+00 1.7645896E+00
 1.3423606E+00 1.0514363E+00 1.7507047E+00
 1.3876082E+00 1.0258735E+00 1.7346924E+00
 1.4309385E+00 1.0000002E+00 1.7164840E+00
 1.4725705E+00 9.7406592E-01 1.6959243E+00
 1.5129664E+00 9.4846811E-01 1.6727077E+00
 5.5201572E-01 1.3146565E+00 1.8180297E+00
 6.0544819E-01 1.2966421E+00 1.8196187E+00
 6.5921346E-01 1.2792141E+00 1.8207517E+00
 7.1331164E-01 1.2618042E+00 1.8215540E+00
 7.6772940E-01 1.2440267E+00 1.8220140E+00
 8.2241054E-01 1.2256480E+00 1.8220178E+00
 8.7724688E-01 1.2065424E+00 1.8213848E+00
 9.3208285E-01 1.1866461E+00 1.8198963E+00
 9.8672020E-01 1.1659324E+00 1.8173189E+00
 1.0409266E+00 1.1443985E+00 1.8134201E+00
 1.0944463E+00 1.1220609E+00 1.8079833E+00
 1.1470112E+00 1.0989531E+00 1.8008184E+00
 1.1983560E+00 1.0751231E+00 1.7917699E+00
 1.2482364E+00 1.0506315E+00 1.7807190E+00
 1.2964564E+00 1.0255552E+00 1.7675774E+00
 1.3429050E+00 1.0000002E+00 1.7522682E+00
 1.3876082E+00 9.7412695E-01 1.7346925E+00
 1.4307731E+00 9.4818253E-01 1.7146849E+00
 1.4728054E+00 9.2254189E-01 1.6919717E+00
 5.5272797E-01 1.2764936E+00 1.8316466E+00
 6.0697885E-01 1.2574813E+00 1.8326186E+00
 6.6146918E-01 1.2389782E+00 1.8331612E+00
 7.1616237E-01 1.2204582E+00 1.8333524E+00
 7.7102442E-01 1.2015558E+00 1.8331486E+00
 8.2599168E-01 1.1820557E+00 1.8324146E+00
 8.8095685E-01 1.1618478E+00 1.8309566E+00
 9.3576585E-01 1.1408862E+00 1.8285503E+00
 9.9022350E-01 1.1191605E+00 1.8249619E+00
 1.0441025E+00 1.0966828E+00 1.8199643E+00
 1.0971557E+00 1.0734817E+00 1.8133497E+00
 1.1491310E+00 1.0495976E+00 1.8049382E+00
 1.1997901E+00 1.0250820E+00 1.7945828E+00
 1.2489368E+00 1.0000002E+00 1.7821642E+00
 1.2964564E+00 9.7444529E-01 1.7675774E+00
 1.3423606E+00 9.4856420E-01 1.7507047E+00
 1.3868278E+00 9.2259070E-01 1.7313814E+00
 1.4301980E+00 8.9686998E-01 1.7093702E+00
 5.5335307E-01 1.2368355E+00 1.8437479E+00
 6.0829171E-01 1.2169656E+00 1.8439722E+00
 6.6336951E-01 1.1974996E+00 1.8437952E+00
 7.1851992E-01 1.1779617E+00 1.8432478E+00
 7.7369199E-01 1.1580217E+00 1.8422537E+00
 8.2881508E-01 1.1374919E+00 1.8406564E+00
 8.8378094E-01 1.1162851E+00 1.8382516E+00
 9.3843803E-01 1.0943733E+00 1.8348122E+00
 9.9259639E-01 1.0717606E+00 1.8301077E+00
 1.0460378E+00 1.0484700E+00 1.8239179E+00
 1.0985301E+00 1.0245355E+00 1.8160442E+00
 1.1498461E+00 1.0000002E+00 1.8063144E+00
 1.1997901E+00 9.7491846E-01 1.7945828E+00
 1.2482364E+00 9.4936900E-01 1.7807191E+00
 1.2951759E+00 9.2348094E-01 1.7645897E+00
 1.3407487E+00 8.9746574E-01 1.7460317E+00
 1.3852354E+00 8.7163636E-01 1.7248360E+00
 5.5390471E-01 1.1958155E+00 1.8541574E+00
 6.0941453E-01 1.1752110E+00 1.8535250E+00
 6.6494479E-01 1.1548964E+00 1.8525136E+00
 7.2040911E-01 1.1344469E+00 1.8511107E+00
 7.7574472E-01 1.1135769E+00 1.8492088E+00
 8.3087740E-01 1.0921331E+00 1.8466339E+00
 8.8570045E-01 1.0700530E+00 1.8431743E+00
 9.4006772E-01 1.0473255E+00 1.8386035E+00
 9.9379853E-01 1.0239654E+00 1.8326963E+00
 1.0466891E+00 1.0000002E+00 1.8252404E+00
 1.0985301E+00 9.7546493E-01 1.8160442E+00
 1.1491310E+00 9.5040284E-01 1.8049383E+00
 1.1983561E+00 9.2487742E-01 1.7917700E+00
 1.2461697E+00 8.9899637E-01 1.7763898E+00
 1.2926718E+00 8.7294318E-01 1.7586335E+00
 1.3380897E+00 8.4699618E-01 1.7383094E+00
 5.5437471E-01 1.1536118E+00 1.8627106E+00
 6.1033169E-01 1.1323965E+00 1.8611303E+00
 6.6617355E-01 1.1113532E+00 1.8591849E+00
 7.2180174E-01 1.0901119E+00 1.8568227E+00
 7.7714818E-01 1.0684369E+00 1.8539099E+00
 8.3213944E-01 1.0462121E+00 1.8502587E+00
 8.8667435E-01 1.0233992E+00 1.8456543E+00
 9.4061627E-01 1.0000002E+00 1.8398731E+00
 9.9379854E-01 9.7603511E-01 1.8326963E+00
 1.0460378E+00 9.5153051E-01 1.8239180E+00
 1.0971558E+00 9.2651879E-01 1.8133497E+00
 1.1470113E+00 9.0104737E-01 1.8008185E+00
 1.1955432E+00 8.7520086E-01 1.7861590E+00
 1.2428089E+00 8.4913147E-01 1.7692015E+00
 1.2889855E+00 8.2308042E-01 1.7497633E+00
 5.5474666E-01 1.1104426E+00 1.8692637E+00
 6.1101430E-01 1.0887467E+00 1.8666614E+00
 6.6701925E-01 1.0671040E+00 1.8636988E+00
 7.2265768E-01 1.0452034E+00 1.8602902E+00
 7.7786211E-01 1.0228618E+00 1.8562806E+00
 8.3256480E-01 1.0000002E+00 1.8514737E+00
 8.8667435E-01 9.7660129E-01 1.8456543E+00
 9.4006773E-01 9.5267495E-01 1.8386035E+00
 9.9259640E-01 9.2823984E-01 1.8301077E+00
 1.0441025E+00 9.0331762E-01 1.8199644E+00
 1.0944463E+00 8.7793960E-01 1.8079834E+00
 1.1435455E+00 8.5216665E-01 1.7939839E+00
 1.1914159E+00 8.2611849E-01 1.7777878E+00
 1.2381851E+00 7.9999784E-01 1.7592145E+00
 5.5500444E-01 1.0665588E+00 1.8737006E+00
 6.1143565E-01 1.0445205E+00 1.8700210E+00
 6.6745066E-01 1.0224175E+00 1.8659763E+00
 7.2294663E-01 1.0000002E+00 1.8614529E+00
 7.7786211E-01 9.7713869E-01 1.8562806E+00
 8.3213944E-01 9.5378837E-01 1.8502588E+00
 8.8570045E-01 9.2994742E-01 1.8431744E+00
 9.3843804E-01 9.0562720E-01 1.8348123E+00
 9.9022351E-01 8.8084001E-01 1.8249620E+00
 1.0409267E+00 8.5560200E-01 1.8134202E+00
 1.0904505E+00 8.2995066E-01 1.7999922E+00
 1.1387729E+00 8.0397329E-01 1.7844897E+00
 1.1859733E+00 7.7783391E-01 1.7667296E+00
 5.5513634E-01 1.0222358E+00 1.8759400E+00
 6.1157812E-01 1.0000002E+00 1.8711479E+00
 6.6745066E-01 9.7758294E-01 1.8659763E+00
 7.2265768E-01 9.5479707E-01 1.8602902E+00
 7.7714818E-01 9.3156360E-01 1.8539099E+00
 8.3087741E-01 9.0786736E-01 1.8466339E+00
 8.8378094E-01 8.8371533E-01 1.8382517E+00
 9.3576586E-01 8.5911426E-01 1.8285504E+00
 9.8672021E-01 8.3406803E-01 1.8173190E+00
 1.0365400E+00 8.0859266E-01 1.8043514E+00
 1.0851713E+00 7.8274423E-01 1.7894494E+00
 1.1326476E+00 7.5664887E-01 1.7724237E+00
 5.5513634E-01 9.7776466E-01 1.8759401E+00
 6.1143565E-01 9.5547993E-01 1.8700211E+00
 6.6701925E-01 9.3289645E-01 1.8636988E+00
 7.2180174E-01 9.0988860E-01 1.8568228E+00
 7.7574472E-01 8.8642359E-01 1.8492089E+00
 8.2881508E-01 8.6250858E-01 1.8406565E+00
 8.8095686E-01 8.3815263E-01 1.8309567E+00
 9.3208286E-01 8.1335435E-01 1.8198964E+00
 9.8209084E-01 7.8811308E-01 1.8072626E+00
 1.0309021E+00 7.6245679E-01 1.7928477E+00
 1.0785096E+00 7.3647571E-01 1.7764555E+00
 5.5500443E-01 9.3344170E-01 1.8737007E+00
 6.1101430E-01 9.1125376E-01 1.8666615E+00
 6.6617354E-01 8.8864729E-01 1.8591849E+00
 7.2040911E-01 8.6555359E-01 1.8511107E+00
 7.7369199E-01 8.4197878E-01 1.8422538E+00
 8.2599169E-01 8.1794479E-01 1.8324147E+00
 8.7724690E-01 7.9345809E-01 1.8213849E+00
 9.2736354E-01 7.6851175E-01 1.8089495E+00
 9.7624670E-01 7.4311259E-01 1.7948953E+00
 1.0238557E+00 7.1731925E-01 1.7790186E+00
 5.5474665E-01 8.8955791E-01 1.8692638E+00
 6.1033168E-01 8.6760399E-01 1.8611304E+00
 6.6494479E-01 8.4510404E-01 1.8525137E+00
 7.1851992E-01 8.2203875E-01 1.8432479E+00
 7.7102442E-01 7.9844460E-01 1.8331488E+00
 8.2241055E-01 7.7435239E-01 1.8220180E+00
 8.7259316E-01 7.4976771E-01 1.8096465E+00
 9.2146800E-01 7.2469072E-01 1.7958201E+00
 9.6896946E-01 6.9915758E-01 1.7803308E+00
 5.5437470E-01 8.4638868E-01 1.8627108E+00
 6.0941452E-01 8.2478947E-01 1.8535252E+00
 6.6336950E-01 8.0250082E-01 1.8437953E+00
 7.1616237E-01 7.7954228E-01 1.8333525E+00
 7.6772941E-01 7.5597368E-01 1.8220141E+00
 8.1798093E-01 7.3183662E-01 1.8095840E+00
 8.6680364E-01 7.0714974E-01 1.7958554E+00
 9.1411492E-01 6.8194547E-01 1.7806216E+00
 5.5390470E-01 8.0418496E-01 1.8541575E+00
 6.0829170E-01 7.8303485E-01 1.8439723E+00
 6.6146918E-01 7.6102217E-01 1.8331614E+00
 7.1331164E-01 7.3819620E-01 1.8215542E+00
 7.6368834E-01 7.1464162E-01 1.8089721E+00
 8.1246076E-01 6.9042836E-01 1.7952257E+00
 8.5953246E-01 6.6561900E-01 1.7801200E+00
 5.5335306E-01 7.6316496E-01 1.8437481E+00
 6.0697884E-01 7.4251907E-01 1.8326188E+00
 6.5921346E-01 7.2078628E-01 1.8207519E+00
 7.0982801E-01 6.9804768E-01 1.8079779E+00
 7.5861305E-01 6.7443914E-01 1.7941307E+00
 8.0543823E-01 6.5009913E-01 1.7790412E+00
 5.5272797E-01 7.2350678E-01 1.8316468E+00
 6.0544818E-01 7.0335833E-01 1.8196189E+00
 6.5646437E-01 6.8182627E-01 1.8066983E+00
 7.0539654E-01 6.5905324E-01 1.7927266E+00
 7.5202384E-01 6.3529177E-01 1.7775739E+00
 5.5201572E-01 6.8534392E-01 1.8180299E+00
 6.0358656E-01 6.6558737E-01 1.8051175E+00
 6.5288986E-01 6.4406173E-01 1.7910980E+00
 6.9946199E-01 6.2108079E-01 1.7758650E+00
 5.5115232E-01 6.4874454E-01 1.8030696E+00
 6.0113516E-01 6.2914483E-01 1.7892307E+00
 6.4789304E-01 6.0731880E-01 1.7740055E+00
 5.4998935E-01 6.1368496E-01 1.7869137E+00
 5.9741162E-01 5.9377600E-01 1.7719960E+00
 5.4818754E-01 5.8012123E-01 1.7697201E+00
 4.7273668E-01 1.4870155E+00 1.7376421E+00
 4.4268512E-01 1.5128875E+00 1.7235319E+00
 4.1134547E-01 1.5394767E+00 1.7078728E+00
 3.7896277E-01 1.5665761E+00 1.6905981E+00
 3.4573609E-01 1.5940366E+00 1.6715935E+00
 3.1189681E-01 1.6216861E+00 1.6507314E+00
 2.7766793E-01 1.6493288E+00 1.6278837E+00
 2.4328753E-01 1.6767264E+00 1.6029423E+00
 2.0900106E-01 1.7036061E+00 1.5758279E+00
 1.7505092E-01 1.7296691E+00 1.5465004E+00
 1.4166937E-01 1.7546034E+00 1.5149702E+00
 1.0907265E-01 1.7780977E+00 1.4813045E+00
 7.7457362E-02 1.7998580E+00 1.4456314E+00
 4.6998337E-02 1.8196229E+00 1.4081372E+00
 1.7847540E-02 1.8371768E+00 1.3690608E+00
 -9.8653776E-03 1.8523593E+00 1.3286825E+00
 -3.6032100E-02 1.8650710E+00 1.2873116E+00
 -6.0563799E-02 1.8752739E+00 1.2452738E+00
 -8.3390598E-02 1.8829891E+00 1.2028996E+00
 -1.0446279E-01 1.8882903E+00 1.1605135E+00
 -1.2374848E-01 1.8912941E+00 1.1184509E+00
 -1.4125293E-01 1.8921456E+00 1.0770524E+00
 -1.5694078E-01 1.8910314E+00 1.0369383E+00
 -5.9458086E-01 1.0690406E+00 1.5889207E+00
 -5.9843582E-01 1.1138896E+00 1.5765427E+00
 -6.0079044E-01 1.1594371E+00 1.5622711E+00
 -6.0127642E-01 1.2057905E+00 1.5463295E+00
 -5.9963878E-01 1.2529045E+00 1.5287842E+00
 -5.9566080E-01 1.3006302E+00 1.5096671E+00
 -5.8916221E-01 1.3487368E+00 1.4889944E+00
 -5.7999741E-01 1.3969332E+00 1.4667843E+00
 -5.6805572E-01 1.4448796E+00 1.4430718E+00
 -5.5326436E-01 1.4921979E+00 1.4179201E+00
 -5.3559387E-01 1.5384828E+00 1.3914268E+00
 -5.1506439E-01 1.5833148E+00 1.3637261E+00
 -4.9175043E-01 1.6262749E+00 1.3349877E+00
 -4.6578256E-01 1.6669614E+00 1.3054137E+00
 -4.3734641E-01 1.7050067E+00 1.2752328E+00
 -4.0667820E-01 1.7400928E+00 1.2446936E+00
 -3.7405852E-01 1.7719643E+00 1.2140553E+00
 -3.3980306E-01 1.8004394E+00 1.1835730E+00
 -3.0425472E-01 1.8254164E+00 1.1534804E+00
 -2.6777028E-01 1.8468773E+00 1.1239567E+00
 -2.3070258E-01 1.8648889E+00 1.0950675E+00
 -1.9350165E-01 1.8795667E+00 1.0666256E+00
 -5.6843164E-01 1.0978990E+00 1.6194438E+00
 -5.7075931E-01 1.1452536E+00 1.6071570E+00
 -5.7164528E-01 1.1926212E+00 1.5927126E+00
 -5.7063334E-01 1.2403581E+00 1.5764295E+00
 -5.6741146E-01 1.2885341E+00 1.5584359E+00
 -5.6174423E-01 1.3370491E+00 1.5387840E+00
 -5.5345807E-01 1.3856822E+00 1.5174925E+00
 -5.4242991E-01 1.4341268E+00 1.4945775E+00
 -5.2858108E-01 1.4820184E+00 1.4700766E+00
 -5.1187688E-01 1.5289535E+00 1.4440620E+00
 -4.9233080E-01 1.5745075E+00 1.4166473E+00
 -4.7000827E-01 1.6182516E+00 1.3879875E+00
 -4.4502893E-01 1.6597716E+00 1.3582770E+00
 -4.1756515E-01 1.6986864E+00 1.3277431E+00
 -3.8783686E-01 1.7346656E+00 1.2966375E+00
 -3.5610406E-01 1.7674436E+00 1.2652231E+00
 -3.2265783E-01 1.7968320E+00 1.2337531E+00
 -2.8781077E-01 1.8227267E+00 1.2024384E+00
 -2.5188529E-01 1.8451115E+00 1.1713950E+00
 -2.1520377E-01 1.8640548E+00 1.1405674E+00
 -1.7812070E-01 1.8796901E+00 1.1095261E+00
 -5.3893499E-01 1.1268568E+00 1.6495068E+00
 -5.3976643E-01 1.1759903E+00 1.6370318E+00
 -5.3911103E-01 1.2248863E+00 1.6222717E+00
 -5.3650170E-01 1.2738484E+00 1.6055356E+00
 -5.3159561E-01 1.3229668E+00 1.5869752E+00
 -5.2415246E-01 1.3721449E+00 1.5666511E+00
 -5.1401362E-01 1.4211500E+00 1.5445840E+00
 -5.0108431E-01 1.4696549E+00 1.5207941E+00
 -4.8532229E-01 1.5172718E+00 1.4953288E+00
 -4.6673479E-01 1.5635780E+00 1.4682776E+00
 -4.4537974E-01 1.6081390E+00 1.4397767E+00
 -4.2136734E-01 1.6505292E+00 1.4100081E+00
 -3.9485835E-01 1.6903538E+00 1.3791937E+00
 -3.6605869E-01 1.7272678E+00 1.3475854E+00
 -3.3521123E-01 1.7609932E+00 1.3154495E+00
 -3.0258707E-01 1.7913311E+00 1.2830419E+00
 -2.6847708E-01 1.8181718E+00 1.2505674E+00
 -2.3318892E-01 1.8414951E+00 1.2181241E+00
 -1.9703981E-01 1.8613679E+00 1.1856182E+00
 -1.6038164E-01 1.8779212E+00 1.1526652E+00
 -5.0598871E-01 1.1561122E+00 1.6785910E+00
 -5.0530919E-01 1.2065474E+00 1.6657121E+00
 -5.0305658E-01 1.2566137E+00 1.6504701E+00
 -4.9876857E-01 1.3065359E+00 1.6331430E+00
 -4.9210059E-01 1.3563589E+00 1.6138774E+00
 -4.8282310E-01 1.4059570E+00 1.5927337E+00
 -4.7080356E-01 1.4550702E+00 1.5697362E+00
 -4.5598229E-01 1.5033463E+00 1.5449154E+00
 -4.3835808E-01 1.5503781E+00 1.5183367E+00
 -4.1798182E-01 1.5957332E+00 1.4901139E+00
 -3.9495542E-01 1.6389800E+00 1.4604119E+00
 -3.6942870E-01 1.6797121E+00 1.4294423E+00
 -3.4159501E-01 1.7175703E+00 1.3974542E+00
 -3.1168180E-01 1.7522620E+00 1.3647163E+00
 -2.7994374E-01 1.7835751E+00 1.3314916E+00
 -2.4665582E-01 1.8113889E+00 1.2979944E+00
 -2.1211590E-01 1.8356762E+00 1.2643329E+00
 -1.7664661E-01 1.8564981E+00 1.2304412E+00