# TIME = 0.000000
VARIABLES = X, Y, Z, FX, FY, FZ
ZONE N=29232 E=58212 F=FEPOINT ET=TRIANGLE
  0.000E+00  9.502E-01  1.243E-03 6.7499427E+00 3.1682407E-02 6.3921173E-01
  0.000E+00  1.000E+00  0.000E+00 6.7400787E+00 -1.0234291E-05 6.4003474E-01
  4.318E-02  9.751E-01  3.108E-04 6.7410913E+00 1.5834077E-02 6.3984968E-01
  0.000E+00  1.050E+00  1.243E-03 6.7499426E+00 -3.1702887E-02 6.3921083E-01
  4.318E-02  1.025E+00  3.108E-04 6.7410912E+00 -1.5854783E-02 6.3984921E-01
  0.000E+00  1.100E+00  4.969E-03 6.7834997E+00 -6.3467044E-02 6.3682160E-01
  4.318E-02  1.075E+00  2.796E-03 6.7639039E+00 -4.7572723E-02 6.3822663E-01
  0.000E+00  1.149E+00  1.117E-02 6.8482819E+00 -9.5395403E-02 6.3301738E-01
  4.318E-02  1.124E+00  7.761E-03 6.8133682E+00 -7.9409722E-02 6.3510977E-01
  0.000E+00  1.198E+00  1.983E-02 6.9426647E+00 -1.2731765E-01 6.2779359E-01
  4.318E-02  1.174E+00  1.519E-02 6.8923864E+00 -1.1139258E-01 6.3061894E-01
  0.000E+00  1.247E+00  3.092E-02 7.0449267E+00 -1.5859549E-01 6.2081137E-01
  4.318E-02  1.223E+00  2.507E-02 6.9937513E+00 -1.4309027E-01 6.2457689E-01
  0.000E+00  1.295E+00  4.443E-02 7.1260398E+00 -1.8873900E-01 6.1176438E-01
  4.318E-02  1.271E+00  3.738E-02 7.0899744E+00 -1.7380042E-01 6.1655057E-01
  0.000E+00  1.342E+00  6.031E-02 7.1927456E+00 -2.1847945E-01 6.0128853E-01
  4.318E-02  1.318E+00  5.207E-02 7.1581066E+00 -2.0358707E-01 6.0666314E-01
  0.000E+00  1.388E+00  7.852E-02 7.3443871E+00 -2.4855132E-01 5.8996250E-01
  4.318E-02  1.365E+00  6.913E-02 7.2556012E+00 -2.3350798E-01 5.9577432E-01
  0.000E+00  1.434E+00  9.903E-02 7.4708074E+00 -2.7800097E-01 5.7707508E-01
  4.318E-02  1.411E+00  8.849E-02 7.4218535E+00 -2.6344761E-01 5.8379404E-01
  0.000E+00  1.478E+00  1.218E-01 7.5151365E+00 -3.0616501E-01 5.6228369E-01
  4.318E-02  1.456E+00  1.101E-01 7.5029690E+00 -2.9221982E-01 5.6989691E-01
  0.000E+00  1.521E+00  1.467E-01 7.6699195E+00 -3.3375953E-01 5.4630984E-01
  4.318E-02  1.500E+00  1.340E-01 7.5726116E+00 -3.2001527E-01 5.5444219E-01
  0.000E+00  1.563E+00  1.738E-01 7.7087973E+00 -3.6068276E-01 5.2907863E-01
  4.318E-02  1.543E+00  1.600E-01 7.7143450E+00 -3.4736131E-01 5.3790427E-01
  0.000E+00  1.604E+00  2.029E-01 7.7920982E+00 -3.8656259E-01 5.1038557E-01
  4.318E-02  1.584E+00  1.881E-01 7.7308828E+00 -3.7375752E-01 5.1991689E-01
  0.000E+00  1.643E+00  2.340E-01 7.8438255E+00 -4.1153360E-01 4.9047970E-01
  4.318E-02  1.623E+00  2.182E-01 7.8231964E+00 -3.9917880E-01 5.0059877E-01
  0.000E+00  1.680E+00  2.669E-01 7.8434560E+00 -4.3548154E-01 4.6934211E-01
  4.318E-02  1.662E+00  2.502E-01 7.8312663E+00 -4.2365921E-01 4.8008210E-01
  0.000E+00  1.716E+00  3.018E-01 7.8777599E+00 -4.5833918E-01 4.4703491E-01
  4.318E-02  1.698E+00  2.841E-01 7.8777794E+00 -4.4706296E-01 4.5834270E-01
  0.000E+00  1.750E+00  3.383E-01 7.8312470E+00 -4.8007675E-01 4.2363100E-01
  4.318E-02  1.733E+00  3.198E-01 7.8434755E+00 -4.6937066E-01 4.3548382E-01
  0.000E+00  1.782E+00  3.765E-01 7.8231778E+00 -5.0059125E-01 3.9915088E-01
  4.318E-02  1.766E+00  3.572E-01 7.8438445E+00 -4.9050749E-01 4.1153437E-01
  0.000E+00  1.812E+00  4.163E-01 7.7308649E+00 -5.1990790E-01 3.7373018E-01
  4.318E-02  1.797E+00  3.962E-01 7.7921167E+00 -5.1041433E-01 3.8656273E-01
  0.000E+00  1.840E+00  4.575E-01 7.7143274E+00 -5.3789185E-01 3.4733455E-01
  4.318E-02  1.826E+00  4.367E-01 7.7088153E+00 -5.2910719E-01 3.6068238E-01
  0.000E+00  1.866E+00  5.000E-01 7.5725937E+00 -5.5442971E-01 3.1998859E-01
  4.318E-02  1.853E+00  4.786E-01 7.6699358E+00 -5.4633826E-01 3.3375789E-01
  0.000E+00  1.890E+00  5.438E-01 7.5029523E+00 -5.6988330E-01 2.9219361E-01
  4.318E-02  1.878E+00  5.217E-01 7.5151521E+00 -5.6231357E-01 3.0616130E-01
  0.000E+00  1.912E+00  5.887E-01 7.4218378E+00 -5.8377767E-01 2.6342246E-01
  4.318E-02  1.901E+00  5.661E-01 7.4708224E+00 -5.7710225E-01 2.7799542E-01
  0.000E+00  1.931E+00  6.347E-01 7.2555852E+00 -5.9575844E-01 2.3348378E-01
  4.318E-02  1.921E+00  6.116E-01 7.3444012E+00 -5.8998903E-01 2.4854439E-01
  0.000E+00  1.948E+00  6.815E-01 7.1580904E+00 -6.0664630E-01 2.0356287E-01
  4.318E-02  1.940E+00  6.580E-01 7.1927591E+00 -6.0131584E-01 2.1847050E-01
  0.000E+00  1.963E+00  7.292E-01 7.0899598E+00 -6.1653136E-01 1.7377698E-01
  4.318E-02  1.956E+00  7.052E-01 7.1260534E+00 -6.1178976E-01 1.8872800E-01
  0.000E+00  1.975E+00  7.775E-01 6.9937380E+00 -6.2455649E-01 1.4306855E-01
  4.318E-02  1.969E+00  7.532E-01 7.0449412E+00 -6.2083554E-01 1.5858361E-01
  0.000E+00  1.985E+00  8.264E-01 6.8923733E+00 -6.3059777E-01 1.1137251E-01
  4.318E-02  1.980E+00  8.019E-01 6.9426783E+00 -6.2781760E-01 1.2730571E-01
  0.000E+00  1.992E+00  8.757E-01 6.8133549E+00 -6.3508774E-01 7.9390088E-02
  4.318E-02  1.989E+00  8.510E-01 6.8482933E+00 -6.3304068E-01 9.5382059E-02
  0.000E+00  1.997E+00  9.253E-01 6.7638915E+00 -6.3820440E-01 4.7553221E-02
  4.318E-02  1.995E+00  9.004E-01 6.7835104E+00 -6.3684367E-01 6.3451444E-02
  0.000E+00  2.000E+00  9.751E-01 6.7410785E+00 -6.3982692E-01 1.5836939E-02
  4.318E-02  1.999E+00  9.502E-01 6.7499559E+00 -6.3923193E-01 3.1685665E-02
  0.000E+00  2.000E+00  1.025E+00 6.7410760E+00 -6.3982643E-01 -1.5849753E-02
  4.318E-02  2.000E+00  1.000E+00 6.7400940E+00 -6.4005487E-01 -6.8957121E-06
  0.000E+00  1.997E+00  1.075E+00 6.7638856E+00 -6.3820288E-01 -4.7566010E-02
  4.318E-02  1.999E+00  1.050E+00 6.7499596E+00 -6.3923090E-01 -3.1699291E-02
  0.000E+00  1.992E+00  1.124E+00 6.8133489E+00 -6.3508527E-01 -7.9402834E-02
  4.318E-02  1.995E+00  1.100E+00 6.7835161E+00 -6.3684157E-01 -6.3464699E-02
  0.000E+00  1.985E+00  1.174E+00 6.8923694E+00 -6.3059520E-01 -1.1138519E-01
  4.318E-02  1.989E+00  1.149E+00 6.8482990E+00 -6.3303799E-01 -9.5395023E-02
  0.000E+00  1.975E+00  1.223E+00 6.9937363E+00 -6.2455491E-01 -1.4308115E-01
  4.318E-02  1.980E+00  1.198E+00 6.9426832E+00 -6.2781551E-01 -1.2731858E-01
  0.000E+00  1.963E+00  1.271E+00 7.0899592E+00 -6.1652922E-01 -1.7378946E-01
  4.318E-02  1.969E+00  1.247E+00 7.0449458E+00 -6.2083411E-01 -1.5859648E-01
  0.000E+00  1.948E+00  1.318E+00 7.1580899E+00 -6.0664047E-01 -2.0357521E-01
  4.318E-02  1.956E+00  1.295E+00 7.1260584E+00 -6.1178595E-01 -1.8874083E-01
  0.000E+00  1.931E+00  1.365E+00 7.2555850E+00 -5.9575257E-01 -2.3349599E-01
  4.318E-02  1.940E+00  1.342E+00 7.1927647E+00 -6.0130900E-01 -2.1848316E-01
  0.000E+00  1.912E+00  1.411E+00 7.4218377E+00 -5.8377536E-01 -2.6343441E-01
  4.318E-02  1.921E+00  1.388E+00 7.3444073E+00 -5.8998548E-01 -2.4855692E-01
  0.000E+00  1.890E+00  1.456E+00 7.5029540E+00 -5.6987727E-01 -2.9220544E-01
  4.318E-02  1.901E+00  1.434E+00 7.4708283E+00 -5.7709899E-01 -2.7800761E-01
  0.000E+00  1.866E+00  1.500E+00 7.5725965E+00 -5.5442255E-01 -3.2000017E-01
  4.318E-02  1.878E+00  1.478E+00 7.5151577E+00 -5.6230570E-01 -3.0617325E-01
  0.000E+00  1.840E+00  1.543E+00 7.7143316E+00 -5.3788768E-01 -3.4734591E-01
  4.318E-02  1.853E+00  1.521E+00 7.6699411E+00 -5.4633346E-01 -3.3376964E-01
  0.000E+00  1.812E+00  1.584E+00 7.7308705E+00 -5.1990075E-01 -3.7374122E-01
  4.318E-02  1.826E+00  1.563E+00 7.7088200E+00 -5.2910166E-01 -3.6069384E-01
  0.000E+00  1.782E+00  1.623E+00 7.8231843E+00 -5.0058522E-01 -3.9916167E-01
  4.318E-02  1.797E+00  1.604E+00 7.7921210E+00 -5.1040746E-01 -3.8657393E-01
  0.000E+00  1.750E+00  1.662E+00 7.8312539E+00 -4.8007015E-01 -4.2364145E-01
  4.318E-02  1.766E+00  1.643E+00 7.8438485E+00 -4.9050176E-01 -4.1154532E-01
  0.000E+00  1.716E+00  1.698E+00 7.8777664E+00 -4.5833225E-01 -4.4704505E-01
  4.318E-02  1.733E+00  1.680E+00 7.8434797E+00 -4.6936346E-01 -4.3549445E-01
  0.000E+00  1.680E+00  1.733E+00 7.8434617E+00 -4.3547467E-01 -4.6935189E-01
  4.318E-02  1.698E+00  1.716E+00 7.8777841E+00 -4.4705637E-01 -4.5835304E-01
  0.000E+00  1.643E+00  1.766E+00 7.8438302E+00 -4.1152629E-01 -4.9048909E-01
  4.318E-02  1.662E+00  1.750E+00 7.8312716E+00 -4.2365189E-01 -4.8009205E-01
  0.000E+00  1.604E+00  1.797E+00 7.7921020E+00 -3.8655533E-01 -5.1039458E-01
  4.318E-02  1.623E+00  1.782E+00 7.8232022E+00 -3.9917160E-01 -5.0060831E-01
  0.000E+00  1.563E+00  1.826E+00 7.7088010E+00 -3.6067527E-01 -5.2908722E-01
  4.318E-02  1.584E+00  1.812E+00 7.7308888E+00 -3.7375013E-01 -5.1992595E-01
  0.000E+00  1.521E+00  1.853E+00 7.6699234E+00 -3.3375211E-01 -5.4631801E-01
  4.318E-02  1.543E+00  1.840E+00 7.7143507E+00 -3.4735400E-01 -5.3791288E-01
  0.000E+00  1.478E+00  1.878E+00 7.5151403E+00 -3.0615747E-01 -5.6229140E-01
  4.318E-02  1.500E+00  1.866E+00 7.5726168E+00 -3.2000780E-01 -5.5445036E-01
  0.000E+00  1.434E+00  1.901E+00 7.4708103E+00 -2.7799363E-01 -5.7708233E-01
  4.318E-02  1.456E+00  1.890E+00 7.5029742E+00 -2.9221243E-01 -5.6990466E-01
  0.000E+00  1.388E+00  1.921E+00 7.3443896E+00 -2.4854377E-01 -5.8996929E-01
  4.318E-02  1.411E+00  1.912E+00 7.4218587E+00 -2.6344025E-01 -5.8380129E-01
  0.000E+00  1.342E+00  1.940E+00 7.1927483E+00 -2.1847206E-01 -6.0129484E-01
  4.318E-02  1.365E+00  1.931E+00 7.2556060E+00 -2.3350064E-01 -5.9578106E-01
  0.000E+00  1.295E+00  1.956E+00 7.1260426E+00 -1.8873165E-01 -6.1177018E-01
  4.318E-02  1.318E+00  1.948E+00 7.1581107E+00 -2.0357985E-01 -6.0666937E-01
  0.000E+00  1.247E+00  1.969E+00 7.0449293E+00 -1.5858823E-01 -6.2081667E-01
  4.318E-02  1.271E+00  1.963E+00 7.0899780E+00 -1.7379322E-01 -6.1655630E-01
  0.000E+00  1.198E+00  1.980E+00 6.9426669E+00 -1.2731041E-01 -6.2779837E-01
  4.318E-02  1.223E+00  1.975E+00 6.9937545E+00 -1.4308314E-01 -6.2458211E-01
  0.000E+00  1.149E+00  1.989E+00 6.8482836E+00 -9.5388266E-02 -6.3302163E-01
  4.318E-02  1.174E+00  1.985E+00 6.8923892E+00 -1.1138549E-01 -6.3062362E-01
  0.000E+00  1.100E+00  1.995E+00 6.7835008E+00 -6.3459967E-02 -6.3682531E-01
  4.318E-02  1.124E+00  1.992E+00 6.8133707E+00 -7.9402793E-02 -6.3511392E-01
  0.000E+00  1.050E+00  1.999E+00 6.7499430E+00 -3.1695848E-02 -6.3921401E-01
  4.318E-02  1.075E+00  1.997E+00 6.7639061E+00 -4.7565790E-02 -6.3823025E-01
  0.000E+00  1.000E+00  2.000E+00 6.7400786E+00 -3.4034027E-06 -6.4003740E-01
  4.318E-02  1.025E+00  2.000E+00 6.7410932E+00 -1.5847985E-02 -6.3985229E-01
  0.000E+00  9.502E-01  1.999E+00 6.7499423E+00 3.1689209E-02 -6.3921387E-01
  4.318E-02  9.751E-01  2.000E+00 6.7410929E+00 1.5840792E-02 -6.3985222E-01
  0.000E+00  9.004E-01  1.995E+00 6.7834993E+00 6.3453522E-02 -6.3682504E-01
  4.318E-02  9.253E-01  1.997E+00 6.7639052E+00 4.7558808E-02 -6.3823004E-01
  0.000E+00  8.510E-01  1.989E+00 6.8482815E+00 9.5382213E-02 -6.3302121E-01
  4.318E-02  8.757E-01  1.992E+00 6.8133692E+00 7.9396039E-02 -6.3511357E-01
  0.000E+00  8.019E-01  1.980E+00 6.9426641E+00 1.2730493E-01 -6.2779779E-01
  4.318E-02  8.264E-01  1.985E+00 6.8923872E+00 1.1137928E-01 -6.3062312E-01
  0.000E+00  7.532E-01  1.969E+00 7.0449258E+00 1.5858337E-01 -6.2081593E-01
  4.318E-02  7.775E-01  1.975E+00 6.9937519E+00 1.4307750E-01 -6.2458144E-01
  0.000E+00  7.052E-01  1.956E+00 7.1260385E+00 1.8872760E-01 -6.1176927E-01
  4.318E-02  7.292E-01  1.963E+00 7.0899748E+00 1.7378834E-01 -6.1655546E-01
  0.000E+00  6.580E-01  1.940E+00 7.1927436E+00 2.1846889E-01 -6.0129372E-01
  4.318E-02  6.815E-01  1.948E+00 7.1581070E+00 2.0357580E-01 -6.0666833E-01
  0.000E+00  6.116E-01  1.921E+00 7.3443844E+00 2.4854170E-01 -5.8996796E-01
  4.318E-02  6.347E-01  1.931E+00 7.2556019E+00 2.3349763E-01 -5.9577981E-01
  0.000E+00  5.661E-01  1.901E+00 7.4708046E+00 2.7799242E-01 -5.7708075E-01
  4.318E-02  5.887E-01  1.912E+00 7.4218539E+00 2.6343814E-01 -5.8379979E-01
  0.000E+00  5.217E-01  1.878E+00 7.5151340E+00 3.0615757E-01 -5.6228956E-01
  4.318E-02  5.438E-01  1.890E+00 7.5029693E+00 2.9221147E-01 -5.6990292E-01
  0.000E+00  4.786E-01  1.853E+00 7.6699168E+00 3.3375326E-01 -5.4631586E-01
  4.318E-02  5.000E-01  1.866E+00 7.5726115E+00 3.2000813E-01 -5.5444835E-01
  0.000E+00  4.367E-01  1.826E+00 7.7087940E+00 3.6067774E-01 -5.2908476E-01
  4.318E-02  4.575E-01  1.840E+00 7.7143450E+00 3.4735542E-01 -5.3791056E-01
  0.000E+00  3.962E-01  1.797E+00 7.7920947E+00 3.8655884E-01 -5.1039178E-01
  4.318E-02  4.163E-01  1.812E+00 7.7308829E+00 3.7375287E-01 -5.1992330E-01
  0.000E+00  3.572E-01  1.766E+00 7.8438227E+00 4.1153116E-01 -4.9048593E-01
  4.318E-02  3.765E-01  1.782E+00 7.8231961E+00 3.9917540E-01 -5.0060530E-01
  0.000E+00  3.198E-01  1.733E+00 7.8434541E+00 4.3548043E-01 -4.6934835E-01
  4.318E-02  3.383E-01  1.750E+00 7.8312653E+00 4.2365713E-01 -4.8008867E-01
  0.000E+00  2.841E-01  1.698E+00 7.8777586E+00 4.5833939E-01 -4.4704111E-01
  4.318E-02  3.018E-01  1.716E+00 7.8777777E+00 4.4706224E-01 -4.5834924E-01
  0.000E+00  2.502E-01  1.662E+00 7.8312460E+00 4.8007827E-01 -4.2363712E-01
  4.318E-02  2.669E-01  1.680E+00 7.8434733E+00 4.6937131E-01 -4.3549028E-01
  0.000E+00  2.182E-01  1.623E+00 7.8231765E+00 5.0059407E-01 -3.9915691E-01
  4.318E-02  2.340E-01  1.643E+00 7.8438422E+00 4.9050951E-01 -4.1154070E-01
  0.000E+00  1.881E-01  1.584E+00 7.7308627E+00 5.1991199E-01 -3.7373609E-01
  4.318E-02  2.029E-01  1.604E+00 7.7921147E+00 5.1041768E-01 -3.8656890E-01
  0.000E+00  1.600E-01  1.543E+00 7.7143240E+00 5.3789717E-01 -3.4734032E-01
  4.318E-02  1.738E-01  1.563E+00 7.7088138E+00 5.2911181E-01 -3.6068839E-01
  0.000E+00  1.340E-01  1.500E+00 7.5725890E+00 5.5443621E-01 -3.1999422E-01
  4.318E-02  1.467E-01  1.521E+00 7.6699351E+00 5.4634409E-01 -3.3376375E-01
  0.000E+00  1.101E-01  1.456E+00 7.5029468E+00 5.6989093E-01 -2.9219910E-01
  4.318E-02  1.218E-01  1.478E+00 7.5151519E+00 5.6232055E-01 -3.0616702E-01
  0.000E+00  8.849E-02  1.411E+00 7.4218313E+00 5.8378632E-01 -2.6342773E-01
  4.318E-02  9.903E-02  1.434E+00 7.4708227E+00 5.7711032E-01 -2.7800099E-01
  0.000E+00  6.913E-02  1.365E+00 7.2555783E+00 5.9576809E-01 -2.3348897E-01
  4.318E-02  7.852E-02  1.388E+00 7.3444019E+00 5.8999809E-01 -2.4854988E-01
  0.000E+00  5.207E-02  1.318E+00 7.1580835E+00 6.0665685E-01 -2.0356790E-01
  4.318E-02  6.031E-02  1.342E+00 7.1927597E+00 6.0132583E-01 -2.1847584E-01
  0.000E+00  3.738E-02  1.271E+00 7.0899532E+00 6.1654271E-01 -1.7378187E-01
  4.318E-02  4.443E-02  1.295E+00 7.1260537E+00 6.1180059E-01 -1.8873321E-01
  0.000E+00  2.507E-02  1.223E+00 6.9937307E+00 6.2456852E-01 -1.4307331E-01
  4.318E-02  3.092E-02  1.247E+00 7.0449416E+00 6.2084714E-01 -1.5858859E-01
  0.000E+00  1.519E-02  1.174E+00 6.8923642E+00 6.3061039E-01 -1.1137715E-01
  4.318E-02  1.983E-02  1.198E+00 6.9426793E+00 6.2782986E-01 -1.2731045E-01
  0.000E+00  7.761E-03  1.124E+00 6.8133441E+00 6.3510082E-01 -7.9394601E-02
  4.318E-02  1.117E-02  1.149E+00 6.8482955E+00 6.3305343E-01 -9.5386686E-02
  0.000E+00  2.796E-03  1.075E+00 6.7638812E+00 6.3821782E-01 -4.7557614E-02
  4.318E-02  4.969E-03  1.100E+00 6.7835131E+00 6.3685680E-01 -6.3456178E-02
  0.000E+00  3.108E-04  1.025E+00 6.7410721E+00 6.3984055E-01 -1.5841209E-02
  4.318E-02  1.243E-03  1.050E+00 6.7499570E+00 6.3924533E-01 -3.1690605E-02
  0.000E+00  3.108E-04  9.751E-01 6.7410750E+00 6.3984014E-01 1.5845616E-02
  4.318E-02  0.000E+00  1.000E+00 6.7400917E+00 6.4006847E-01 1.9383438E-06
  0.000E+00  2.796E-03  9.253E-01 6.7638884E+00 6.3821654E-01 4.7562019E-02
  4.318E-02  1.243E-03  9.502E-01 6.7499540E+00 6.3924455E-01 3.1694633E-02
  0.000E+00  7.761E-03  8.757E-01 6.8133522E+00 6.3509875E-01 7.9399005E-02
  4.318E-02  4.969E-03  9.004E-01 6.7835090E+00 6.3685511E-01 6.3460539E-02
  0.000E+00  1.519E-02  8.264E-01 6.8923709E+00 6.3060837E-01 1.1138155E-01
  4.318E-02  1.117E-02  8.510E-01 6.8482922E+00 6.3305124E-01 9.5391275E-02
  0.000E+00  2.507E-02  7.775E-01 6.9937360E+00 6.2456765E-01 1.4307770E-01
  4.318E-02  1.983E-02  8.019E-01 6.9426776E+00 6.2782837E-01 1.2731505E-01
  0.000E+00  3.738E-02  7.292E-01 7.0899583E+00 6.1654142E-01 1.7378624E-01
  4.318E-02  3.092E-02  7.532E-01 7.0449409E+00 6.2084648E-01 1.5859306E-01
  0.000E+00  5.207E-02  6.815E-01 7.1580891E+00 6.0665200E-01 2.0357224E-01
  4.318E-02  4.443E-02  7.052E-01 7.1260534E+00 6.1179772E-01 1.8873757E-01
  0.000E+00  6.913E-02  6.347E-01 7.2555843E+00 5.9576334E-01 2.3349327E-01
  4.318E-02  6.031E-02  6.580E-01 7.1927595E+00 6.0132005E-01 2.1848018E-01
  0.000E+00  8.849E-02  5.887E-01 7.4218368E+00 5.8378528E-01 2.6343205E-01
  4.318E-02  7.852E-02  6.116E-01 7.3444021E+00 5.8999569E-01 2.4855424E-01
  0.000E+00  1.101E-01  5.438E-01 7.5029521E+00 5.6988621E-01 2.9220330E-01
  4.318E-02  9.903E-02  5.661E-01 7.4708235E+00 5.7710825E-01 2.7800530E-01
  0.000E+00  1.340E-01  5.000E-01 7.5725937E+00 5.5443046E-01 3.1999835E-01
  4.318E-02  1.218E-01  5.217E-01 7.5151534E+00 5.6231395E-01 3.0617125E-01
  0.000E+00  1.600E-01  4.575E-01 7.7143277E+00 5.3789448E-01 3.4734439E-01
  4.318E-02  1.467E-01  4.786E-01 7.6699373E+00 5.4634060E-01 3.3376796E-01
  0.000E+00  1.881E-01  4.163E-01 7.7308654E+00 5.1990638E-01 3.7373999E-01
  4.318E-02  1.738E-01  4.367E-01 7.7088170E+00 5.2910765E-01 3.6069245E-01
  0.000E+00  2.182E-01  3.765E-01 7.8231784E+00 5.0058963E-01 3.9916071E-01
  4.318E-02  2.029E-01  3.962E-01 7.7921186E+00 5.1041224E-01 3.8657280E-01
  0.000E+00  2.502E-01  3.383E-01 7.8312478E+00 4.8007328E-01 4.2364075E-01
  4.318E-02  2.340E-01  3.572E-01 7.8438465E+00 4.9050532E-01 4.1154442E-01
  0.000E+00  2.841E-01  3.018E-01 7.8777608E+00 4.5833407E-01 4.4704457E-01
  4.318E-02  2.669E-01  3.198E-01 7.8434777E+00 4.6936577E-01 4.3549374E-01
  0.000E+00  3.198E-01  2.669E-01 7.8434570E+00 4.3547516E-01 4.6935159E-01
  4.318E-02  3.018E-01  2.841E-01 7.8777816E+00 4.4705739E-01 4.5835251E-01
  0.000E+00  3.572E-01  2.340E-01 7.8438266E+00 4.1152544E-01 4.9048895E-01
  4.318E-02  3.383E-01  2.502E-01 7.8312686E+00 4.2365158E-01 4.8009168E-01
  0.000E+00  3.962E-01  2.029E-01 7.7920993E+00 3.8655314E-01 5.1039454E-01
  4.318E-02  3.765E-01  2.182E-01 7.8231986E+00 3.9916992E-01 5.0060810E-01
  0.000E+00  4.367E-01  1.738E-01 7.7087984E+00 3.6067174E-01 5.2908724E-01
  4.318E-02  4.163E-01  1.881E-01 7.7308850E+00 3.7374704E-01 5.1992587E-01
  0.000E+00  4.786E-01  1.467E-01 7.6699206E+00 3.3374727E-01 5.4631803E-01
  4.318E-02  4.575E-01  1.600E-01 7.7143471E+00 3.4734954E-01 5.3791286E-01
  0.000E+00  5.217E-01  1.218E-01 7.5151375E+00 3.0615138E-01 5.6229138E-01
  4.318E-02  5.000E-01  1.340E-01 7.5726137E+00 3.2000207E-01 5.5445031E-01
  0.000E+00  5.661E-01  9.903E-02 7.4708083E+00 2.7798633E-01 5.7708221E-01
  4.318E-02  5.438E-01  1.101E-01 7.5029709E+00 2.9220551E-01 5.6990451E-01
  0.000E+00  6.116E-01  7.852E-02 7.3443880E+00 2.4853530E-01 5.8996905E-01
  4.318E-02  5.887E-01  8.849E-02 7.4218550E+00 2.6343202E-01 5.8380102E-01
  0.000E+00  6.580E-01  6.031E-02 7.1927464E+00 2.1846253E-01 6.0129440E-01
  4.318E-02  6.347E-01  6.913E-02 7.2556028E+00 2.3349132E-01 5.9578066E-01
  0.000E+00  7.052E-01  4.443E-02 7.1260405E+00 1.8872115E-01 6.1176952E-01
  4.318E-02  6.815E-01  5.207E-02 7.1581080E+00 2.0356948E-01 6.0666876E-01
  0.000E+00  7.532E-01  3.092E-02 7.0449273E+00 1.5857687E-01 6.2081574E-01
  4.318E-02  7.292E-01  3.738E-02 7.0899757E+00 1.7378196E-01 6.1655542E-01
  0.000E+00  8.019E-01  1.983E-02 6.9426652E+00 1.2729832E-01 6.2779713E-01
  4.318E-02  7.775E-01  2.507E-02 6.9937523E+00 1.4307109E-01 6.2458093E-01
  0.000E+00  8.510E-01  1.117E-02 6.8482822E+00 9.5375580E-02 6.3302007E-01
  4.318E-02  8.264E-01  1.519E-02 6.8923872E+00 1.1137276E-01 6.3062212E-01
  0.000E+00  9.004E-01  4.969E-03 6.7834999E+00 6.3446839E-02 6.3682341E-01
  4.318E-02  8.757E-01  7.761E-03 6.8133688E+00 7.9389521E-02 6.3511206E-01
  4.318E-02  9.253E-01  2.796E-03 6.7639043E+00 4.7552121E-02 6.3822802E-01
  1.000E+01  1.050E+00  1.243E-03 6.7499426E+00 -3.1702887E-02 6.3921083E-01
  1.000E+01  1.000E+00  5.551E-16 6.7400787E+00 -1.0234291E-05 6.4003474E-01
  9.957E+00  1.025E+00  3.108E-04 6.7410911E+00 -1.5853534E-02 6.3985093E-01
  1.000E+01  9.502E-01  1.243E-03 6.7499427E+00 3.1682407E-02 6.3921173E-01
  9.957E+00  9.751E-01  3.108E-04 6.7410911E+00 1.5833300E-02 6.3985138E-01
  1.000E+01  9.004E-01  4.969E-03 6.7834999E+00 6.3446839E-02 6.3682341E-01
  9.957E+00  9.253E-01  2.796E-03 6.7639038E+00 4.7550724E-02 6.3822973E-01
  1.000E+01  8.510E-01  1.117E-02 6.8482822E+00 9.5375580E-02 6.3302007E-01
  9.957E+00  8.757E-01  7.761E-03 6.8133677E+00 7.9390294E-02 6.3511373E-01
  1.000E+01  8.019E-01  1.983E-02 6.9426652E+00 1.2729832E-01 6.2779713E-01
  9.957E+00  8.264E-01  1.519E-02 6.8923858E+00 1.1137513E-01 6.3062371E-01
  1.000E+01  7.532E-01  3.092E-02 7.0449273E+00 1.5857687E-01 6.2081574E-01
  9.957E+00  7.775E-01  2.507E-02 6.9937503E+00 1.4307219E-01 6.2458250E-01
  1.000E+01  7.052E-01  4.443E-02 7.1260405E+00 1.8872115E-01 6.1176952E-01
  9.957E+00  7.292E-01  3.738E-02 7.0899732E+00 1.7378161E-01 6.1655698E-01
  1.000E+01  6.580E-01  6.031E-02 7.1927464E+00 2.1846253E-01 6.0129440E-01
  9.957E+00  6.815E-01  5.207E-02 7.1581053E+00 2.0356960E-01 6.0667012E-01
  1.000E+01  6.116E-01  7.852E-02 7.3443880E+00 2.4853530E-01 5.8996905E-01
  9.957E+00  6.347E-01  6.913E-02 7.2555998E+00 2.3349318E-01 5.9578175E-01
  1.000E+01  5.661E-01  9.903E-02 7.4708083E+00 2.7798633E-01 5.7708221E-01
  9.957E+00  5.887E-01  8.849E-02 7.4218514E+00 2.6343349E-01 5.8380218E-01
  1.000E+01  5.217E-01  1.218E-01 7.5151375E+00 3.0615138E-01 5.6229138E-01
  9.957E+00  5.438E-01  1.101E-01 7.5029674E+00 2.9220655E-01 5.6990563E-01
  1.000E+01  4.786E-01  1.467E-01 7.6699206E+00 3.3374727E-01 5.4631803E-01
  9.957E+00  5.000E-01  1.340E-01 7.5726101E+00 3.2000393E-01 5.5445078E-01
  1.000E+01  4.367E-01  1.738E-01 7.7087984E+00 3.6067174E-01 5.2908724E-01
  9.957E+00  4.575E-01  1.600E-01 7.7143434E+00 3.4735199E-01 5.3791323E-01
  1.000E+01  3.962E-01  2.029E-01 7.7920993E+00 3.8655314E-01 5.1039454E-01
  9.957E+00  4.163E-01  1.881E-01 7.7308810E+00 3.7374872E-01 5.1992655E-01
  1.000E+01  3.572E-01  2.340E-01 7.8438266E+00 4.1152544E-01 4.9048895E-01
  9.957E+00  3.765E-01  2.182E-01 7.8231948E+00 3.9917045E-01 5.0060932E-01
  1.000E+01  3.198E-01  2.669E-01 7.8434570E+00 4.3547516E-01 4.6935159E-01
  9.957E+00  3.383E-01  2.502E-01 7.8312646E+00 4.2365186E-01 4.8009345E-01
  1.000E+01  2.841E-01  3.018E-01 7.8777608E+00 4.5833407E-01 4.4704457E-01
  9.957E+00  3.018E-01  2.841E-01 7.8777777E+00 4.4705749E-01 4.5835446E-01
  1.000E+01  2.502E-01  3.383E-01 7.8312478E+00 4.8007328E-01 4.2364075E-01
  9.957E+00  2.669E-01  3.198E-01 7.8434737E+00 4.6936579E-01 4.3549539E-01
  1.000E+01  2.182E-01  3.765E-01 7.8231784E+00 5.0058963E-01 3.9916071E-01
  9.957E+00  2.340E-01  3.572E-01 7.8438426E+00 4.9050586E-01 4.1154597E-01
  1.000E+01  1.881E-01  4.163E-01 7.7308654E+00 5.1990638E-01 3.7373999E-01
  9.957E+00  2.029E-01  3.962E-01 7.7921147E+00 5.1041332E-01 3.8657363E-01
  1.000E+01  1.600E-01  4.575E-01 7.7143277E+00 5.3789448E-01 3.4734439E-01
  9.957E+00  1.738E-01  4.367E-01 7.7088132E+00 5.2910933E-01 3.6069217E-01
  1.000E+01  1.340E-01  5.000E-01 7.5725937E+00 5.5443046E-01 3.1999835E-01
  9.957E+00  1.467E-01  4.786E-01 7.6699339E+00 5.4634236E-01 3.3376757E-01
  1.000E+01  1.101E-01  5.438E-01 7.5029521E+00 5.6988621E-01 2.9220330E-01
  9.957E+00  1.218E-01  5.217E-01 7.5151500E+00 5.6231547E-01 3.0617175E-01
  1.000E+01  8.849E-02  5.887E-01 7.4218368E+00 5.8378528E-01 2.6343205E-01
  9.957E+00  9.903E-02  5.661E-01 7.4708203E+00 5.7710948E-01 2.7800629E-01
  1.000E+01  6.913E-02  6.347E-01 7.2555843E+00 5.9576334E-01 2.3349327E-01
  9.957E+00  7.852E-02  6.116E-01 7.3443988E+00 5.8999696E-01 2.4855393E-01
  1.000E+01  5.207E-02  6.815E-01 7.1580891E+00 6.0665200E-01 2.0357224E-01
  9.957E+00  6.031E-02  6.580E-01 7.1927567E+00 6.0132146E-01 2.1848101E-01
  1.000E+01  3.738E-02  7.292E-01 7.0899583E+00 6.1654142E-01 1.7378624E-01
  9.957E+00  4.443E-02  7.052E-01 7.1260509E+00 6.1179921E-01 1.8873969E-01
  1.000E+01  2.507E-02  7.775E-01 6.9937360E+00 6.2456765E-01 1.4307770E-01
  9.957E+00  3.092E-02  7.532E-01 7.0449385E+00 6.2084795E-01 1.5859445E-01
  1.000E+01  1.519E-02  8.264E-01 6.8923709E+00 6.3060837E-01 1.1138155E-01
  9.957E+00  1.983E-02  8.019E-01 6.9426756E+00 6.2782986E-01 1.2731392E-01
  1.000E+01  7.761E-03  8.757E-01 6.8133522E+00 6.3509875E-01 7.9399005E-02
  9.957E+00  1.117E-02  8.510E-01 6.8482906E+00 6.3305279E-01 9.5390360E-02
  1.000E+01  2.796E-03  9.253E-01 6.7638884E+00 6.3821654E-01 4.7562019E-02
  9.957E+00  4.969E-03  9.004E-01 6.7835078E+00 6.3685673E-01 6.3461711E-02
  1.000E+01  3.108E-04  9.751E-01 6.7410750E+00 6.3984014E-01 1.5845616E-02
  9.957E+00  1.243E-03  9.502E-01 6.7499520E+00 6.3924614E-01 3.1697050E-02
  1.000E+01  3.108E-04  1.025E+00 6.7410721E+00 6.3984055E-01 -1.5841209E-02
  9.957E+00  0.000E+00  1.000E+00 6.7400911E+00 6.4007031E-01 2.4716143E-06
  1.000E+01  2.796E-03  1.075E+00 6.7638812E+00 6.3821782E-01 -4.7557614E-02
  9.957E+00  1.243E-03  1.050E+00 6.7499550E+00 6.3924702E-01 -3.1692263E-02
  1.000E+01  7.761E-03  1.124E+00 6.8133441E+00 6.3510082E-01 -7.9394601E-02
  9.957E+00  4.969E-03  1.100E+00 6.7835119E+00 6.3685854E-01 -6.3457264E-02
  1.000E+01  1.519E-02  1.174E+00 6.8923642E+00 6.3061039E-01 -1.1137715E-01
  9.957E+00  1.117E-02  1.149E+00 6.8482939E+00 6.3305504E-01 -9.5386150E-02
  1.000E+01  2.507E-02  1.223E+00 6.9937307E+00 6.2456852E-01 -1.4307331E-01
  9.957E+00  1.983E-02  1.198E+00 6.9426773E+00 6.2783139E-01 -1.2730973E-01
  1.000E+01  3.738E-02  1.271E+00 7.0899532E+00 6.1654271E-01 -1.7378187E-01
  9.957E+00  3.092E-02  1.247E+00 7.0449391E+00 6.2084870E-01 -1.5859017E-01
  1.000E+01  5.207E-02  1.318E+00 7.1580835E+00 6.0665685E-01 -2.0356790E-01
  9.957E+00  4.443E-02  1.295E+00 7.1260512E+00 6.1180222E-01 -1.8873535E-01
  1.000E+01  6.913E-02  1.365E+00 7.2555783E+00 5.9576809E-01 -2.3348897E-01
  9.957E+00  6.031E-02  1.342E+00 7.1927569E+00 6.0132738E-01 -2.1847674E-01
  1.000E+01  8.849E-02  1.411E+00 7.4218313E+00 5.8378632E-01 -2.6342773E-01
  9.957E+00  7.852E-02  1.388E+00 7.3443989E+00 5.8999944E-01 -2.4854985E-01
  1.000E+01  1.101E-01  1.456E+00 7.5029468E+00 5.6989093E-01 -2.9219910E-01
  9.957E+00  9.903E-02  1.434E+00 7.4708196E+00 5.7711170E-01 -2.7800201E-01
  1.000E+01  1.340E-01  1.500E+00 7.5725890E+00 5.5443621E-01 -3.1999422E-01
  9.957E+00  1.218E-01  1.478E+00 7.5151486E+00 5.6232215E-01 -3.0616771E-01
  1.000E+01  1.600E-01  1.543E+00 7.7143240E+00 5.3789717E-01 -3.4734032E-01
  9.957E+00  1.467E-01  1.521E+00 7.6699315E+00 5.4634588E-01 -3.3376359E-01
  1.000E+01  1.881E-01  1.584E+00 7.7308627E+00 5.1991199E-01 -3.7373609E-01
  9.957E+00  1.738E-01  1.563E+00 7.7088100E+00 5.2911352E-01 -3.6068832E-01
  1.000E+01  2.182E-01  1.623E+00 7.8231765E+00 5.0059407E-01 -3.9915691E-01
  9.957E+00  2.029E-01  1.604E+00 7.7921107E+00 5.1041882E-01 -3.8656987E-01
  1.000E+01  2.502E-01  1.662E+00 7.8312460E+00 4.8007827E-01 -4.2363712E-01
  9.957E+00  2.340E-01  1.643E+00 7.8438382E+00 4.9051019E-01 -4.1154229E-01
  1.000E+01  2.841E-01  1.698E+00 7.8777586E+00 4.5833939E-01 -4.4704111E-01
  9.957E+00  2.669E-01  1.680E+00 7.8434693E+00 4.6937156E-01 -4.3549186E-01
  1.000E+01  3.198E-01  1.733E+00 7.8434541E+00 4.3548043E-01 -4.6934835E-01
  9.957E+00  3.018E-01  1.716E+00 7.8777738E+00 4.4706267E-01 -4.5835106E-01
  1.000E+01  3.572E-01  1.766E+00 7.8438227E+00 4.1153116E-01 -4.9048593E-01
  9.957E+00  3.383E-01  1.750E+00 7.8312613E+00 4.2365778E-01 -4.8009028E-01
  1.000E+01  3.962E-01  1.797E+00 7.7920947E+00 3.8655884E-01 -5.1039178E-01
  9.957E+00  3.765E-01  1.782E+00 7.8231922E+00 3.9917628E-01 -5.0060641E-01
  1.000E+01  4.367E-01  1.826E+00 7.7087940E+00 3.6067774E-01 -5.2908476E-01
  9.957E+00  4.163E-01  1.812E+00 7.7308788E+00 3.7375480E-01 -5.1992396E-01
  1.000E+01  4.786E-01  1.853E+00 7.6699168E+00 3.3375326E-01 -5.4631586E-01
  9.957E+00  4.575E-01  1.840E+00 7.7143412E+00 3.4735804E-01 -5.3791095E-01
  1.000E+01  5.217E-01  1.878E+00 7.5151340E+00 3.0615757E-01 -5.6228956E-01
  9.957E+00  5.000E-01  1.866E+00 7.5726079E+00 3.2001023E-01 -5.5444880E-01
  1.000E+01  5.661E-01  1.901E+00 7.4708046E+00 2.7799242E-01 -5.7708075E-01
  9.957E+00  5.438E-01  1.890E+00 7.5029658E+00 2.9221286E-01 -5.6990396E-01
  1.000E+01  6.116E-01  1.921E+00 7.3443844E+00 2.4854170E-01 -5.8996796E-01
  9.957E+00  5.887E-01  1.912E+00 7.4218501E+00 2.6343984E-01 -5.8380087E-01
  1.000E+01  6.580E-01  1.940E+00 7.1927436E+00 2.1846889E-01 -6.0129372E-01
  9.957E+00  6.347E-01  1.931E+00 7.2555989E+00 2.3349969E-01 -5.9578087E-01
  1.000E+01  7.052E-01  1.956E+00 7.1260385E+00 1.8872760E-01 -6.1176927E-01
  9.957E+00  6.815E-01  1.948E+00 7.1581044E+00 2.0357608E-01 -6.0666965E-01
  1.000E+01  7.532E-01  1.969E+00 7.0449258E+00 1.5858337E-01 -6.2081593E-01
  9.957E+00  7.292E-01  1.963E+00 7.0899724E+00 1.7378822E-01 -6.1655693E-01
  1.000E+01  8.019E-01  1.980E+00 6.9426641E+00 1.2730493E-01 -6.2779779E-01
  9.957E+00  7.775E-01  1.975E+00 6.9937499E+00 1.4307887E-01 -6.2458290E-01
  1.000E+01  8.510E-01  1.989E+00 6.8482815E+00 9.5382213E-02 -6.3302121E-01
  9.957E+00  8.264E-01  1.985E+00 6.8923858E+00 1.1138192E-01 -6.3062459E-01
  1.000E+01  9.004E-01  1.995E+00 6.7834993E+00 6.3453522E-02 -6.3682504E-01
  9.957E+00  8.757E-01  1.992E+00 6.8133682E+00 7.9397115E-02 -6.3511510E-01
  1.000E+01  9.502E-01  1.999E+00 6.7499423E+00 3.1689209E-02 -6.3921387E-01
  9.957E+00  9.253E-01  1.997E+00 6.7639049E+00 4.7557713E-02 -6.3823160E-01
  1.000E+01  1.000E+00  2.000E+00 6.7400786E+00 -3.4034027E-06 -6.4003740E-01
  9.957E+00  9.751E-01  2.000E+00 6.7410928E+00 1.5840288E-02 -6.3985377E-01
  1.000E+01  1.050E+00  1.999E+00 6.7499430E+00 -3.1695848E-02 -6.3921401E-01
  9.957E+00  1.025E+00  2.000E+00 6.7410932E+00 -1.5846531E-02 -6.3985384E-01
  1.000E+01  1.100E+00  1.995E+00 6.7835008E+00 -6.3459967E-02 -6.3682531E-01
  9.957E+00  1.075E+00  1.997E+00 6.7639061E+00 -4.7563757E-02 -6.3823181E-01
  1.000E+01  1.149E+00  1.989E+00 6.8482836E+00 -9.5388266E-02 -6.3302163E-01
  9.957E+00  1.124E+00  1.992E+00 6.8133703E+00 -7.9402930E-02 -6.3511545E-01
  1.000E+01  1.198E+00  1.980E+00 6.9426669E+00 -1.2731041E-01 -6.2779837E-01
  9.957E+00  1.174E+00  1.985E+00 6.8923887E+00 -1.1138721E-01 -6.3062509E-01