# TIME = 8.000000
VARIABLES = X, Y, Z, FX, FY, FZ
ZONE N=29232 E=58212 F=FEPOINT ET=TRIANGLE
  0.000E+00  9.502E-01  1.243E-03 1.0538339E+01 -2.2206840E-01 -4.4457253E+00
  0.000E+00  1.000E+00  0.000E+00 1.0528425E+01 1.6377418E-05 -4.4518108E+00
  4.318E-02  9.751E-01  3.108E-04 1.0410657E+01 -7.6684051E-02 -3.0739502E+00
  0.000E+00  1.050E+00  1.243E-03 1.0538336E+01 2.2204638E-01 -4.4457239E+00
  4.318E-02  1.025E+00  3.108E-04 1.0410650E+01 7.6690065E-02 -3.0739496E+00
  0.000E+00  1.100E+00  4.969E-03 1.0573251E+01 4.4438675E-01 -4.4274974E+00
  4.318E-02  1.075E+00  2.796E-03 1.0433808E+01 2.2993910E-01 -3.0650984E+00
  0.000E+00  1.149E+00  1.117E-02 1.0644081E+01 6.6623822E-01 -4.3974259E+00
  4.318E-02  1.124E+00  7.761E-03 1.0486340E+01 3.8268405E-01 -3.0479488E+00
  0.000E+00  1.198E+00  1.983E-02 1.0750288E+01 8.8485827E-01 -4.3562567E+00
  4.318E-02  1.174E+00  1.519E-02 1.0573531E+01 5.3421799E-01 -3.0235615E+00
  0.000E+00  1.247E+00  3.092E-02 1.0863187E+01 1.0971242E+00 -4.3055393E+00
  4.318E-02  1.223E+00  2.507E-02 1.0687966E+01 6.8338711E-01 -2.9936715E+00
  0.000E+00  1.295E+00  4.443E-02 1.0940971E+01 1.3052139E+00 -4.2465542E+00
  4.318E-02  1.271E+00  3.738E-02 1.0792543E+01 8.3000472E-01 -2.9583526E+00
  0.000E+00  1.342E+00  6.031E-02 1.0991871E+01 1.5162096E+00 -4.1790020E+00
  4.318E-02  1.318E+00  5.207E-02 1.0852218E+01 9.7623947E-01 -2.9159643E+00
  0.000E+00  1.388E+00  7.852E-02 1.1172798E+01 1.7278278E+00 -4.0981596E+00
  4.318E-02  1.365E+00  6.913E-02 1.0947824E+01 1.1227123E+00 -2.8627919E+00
  0.000E+00  1.434E+00  9.903E-02 1.1321552E+01 1.9297267E+00 -4.0061199E+00
  4.318E-02  1.411E+00  8.849E-02 1.1150269E+01 1.2641617E+00 -2.8010622E+00
  0.000E+00  1.478E+00  1.218E-01 1.1338907E+01 2.1247515E+00 -3.9056691E+00
  4.318E-02  1.456E+00  1.101E-01 1.1231060E+01 1.4010834E+00 -2.7365649E+00
  0.000E+00  1.521E+00  1.467E-01 1.1528513E+01 2.3168397E+00 -3.7938686E+00
  4.318E-02  1.500E+00  1.340E-01 1.1287580E+01 1.5359087E+00 -2.6634642E+00
  0.000E+00  1.563E+00  1.738E-01 1.1562165E+01 2.5046282E+00 -3.6758740E+00
  4.318E-02  1.543E+00  1.600E-01 1.1464545E+01 1.6668805E+00 -2.5829469E+00
  0.000E+00  1.604E+00  2.029E-01 1.1648356E+01 2.6836959E+00 -3.5451267E+00
  4.318E-02  1.584E+00  1.881E-01 1.1459087E+01 1.7942941E+00 -2.4985074E+00
  0.000E+00  1.643E+00  2.340E-01 1.1716592E+01 2.8580311E+00 -3.4080645E+00
  4.318E-02  1.623E+00  2.182E-01 1.1573280E+01 1.9163676E+00 -2.4048321E+00
  0.000E+00  1.680E+00  2.669E-01 1.1696859E+01 3.0245997E+00 -3.2612033E+00
  4.318E-02  1.662E+00  2.502E-01 1.1569873E+01 2.0344883E+00 -2.3075342E+00
  0.000E+00  1.716E+00  3.018E-01 1.1751583E+01 3.1833979E+00 -3.1066344E+00
  4.318E-02  1.698E+00  2.841E-01 1.1635521E+01 2.1471689E+00 -2.2027130E+00
  0.000E+00  1.750E+00  3.383E-01 1.1685360E+01 3.3354662E+00 -2.9444663E+00
  4.318E-02  1.733E+00  3.198E-01 1.1581903E+01 2.2545640E+00 -2.0934453E+00
  0.000E+00  1.782E+00  3.765E-01 1.1689535E+01 3.4774913E+00 -2.7742863E+00
  4.318E-02  1.766E+00  3.572E-01 1.1600728E+01 2.3569649E+00 -1.9786116E+00
  0.000E+00  1.812E+00  4.163E-01 1.1574985E+01 3.6131713E+00 -2.5979637E+00
  4.318E-02  1.797E+00  3.962E-01 1.1533616E+01 2.4519998E+00 -1.8580233E+00
  0.000E+00  1.840E+00  4.575E-01 1.1581579E+01 3.7373627E+00 -2.4142801E+00
  4.318E-02  1.826E+00  4.367E-01 1.1446951E+01 2.5437489E+00 -1.7344624E+00
  0.000E+00  1.866E+00  5.000E-01 1.1403529E+01 3.8536153E+00 -2.2238211E+00
  4.318E-02  1.853E+00  4.786E-01 1.1413614E+01 2.6249424E+00 -1.6041593E+00
  0.000E+00  1.890E+00  5.438E-01 1.1348465E+01 3.9597607E+00 -2.0294024E+00
  4.318E-02  1.878E+00  5.217E-01 1.1224749E+01 2.7041036E+00 -1.4712334E+00
  0.000E+00  1.912E+00  5.887E-01 1.1267981E+01 4.0560301E+00 -1.8314286E+00
  4.318E-02  1.901E+00  5.661E-01 1.1205626E+01 2.7720837E+00 -1.3347954E+00
  0.000E+00  1.931E+00  6.347E-01 1.1063417E+01 4.1430457E+00 -1.6234970E+00
  4.318E-02  1.921E+00  6.116E-01 1.1057946E+01 2.8349269E+00 -1.1953229E+00
  0.000E+00  1.948E+00  6.815E-01 1.0967471E+01 4.2160736E+00 -1.4101440E+00
  4.318E-02  1.940E+00  6.580E-01 1.0878800E+01 2.8934044E+00 -1.0504277E+00
  0.000E+00  1.963E+00  7.292E-01 1.0909738E+01 4.2782088E+00 -1.2009956E+00
  4.318E-02  1.956E+00  7.052E-01 1.0826714E+01 2.9401168E+00 -9.0328367E-01
  0.000E+00  1.975E+00  7.775E-01 1.0807781E+01 4.3326069E+00 -9.9133277E-01
  4.318E-02  1.969E+00  7.532E-01 1.0746428E+01 2.9781027E+00 -7.5674024E-01
  0.000E+00  1.985E+00  8.264E-01 1.0694900E+01 4.3779384E+00 -7.7561155E-01
  4.318E-02  1.980E+00  8.019E-01 1.0631420E+01 3.0099138E+00 -6.0882509E-01
  0.000E+00  1.992E+00  8.757E-01 1.0607740E+01 4.4131073E+00 -5.5498271E-01
  4.318E-02  1.989E+00  8.510E-01 1.0524772E+01 3.0366729E+00 -4.5832076E-01
  0.000E+00  1.997E+00  9.253E-01 1.0554477E+01 4.4369950E+00 -3.3289203E-01
  4.318E-02  1.995E+00  9.004E-01 1.0454745E+01 3.0571435E+00 -3.0609233E-01
  0.000E+00  2.000E+00  9.751E-01 1.0530724E+01 4.4490405E+00 -1.1091202E-01
  4.318E-02  1.999E+00  9.502E-01 1.0420869E+01 3.0698867E+00 -1.5316218E-01
  0.000E+00  2.000E+00  1.025E+00 1.0530726E+01 4.4490344E+00 1.1089422E-01
  4.318E-02  2.000E+00  1.000E+00 1.0411428E+01 3.0741678E+00 -8.2885014E-06
  0.000E+00  1.997E+00  1.075E+00 1.0554483E+01 4.4369564E+00 3.3287377E-01
  4.318E-02  1.999E+00  1.050E+00 1.0420872E+01 3.0698233E+00 1.5314457E-01
  0.000E+00  1.992E+00  1.124E+00 1.0607751E+01 4.4129980E+00 5.5496376E-01
  4.318E-02  1.995E+00  1.100E+00 1.0454754E+01 3.0570017E+00 3.0607237E-01
  0.000E+00  1.985E+00  1.174E+00 1.0694917E+01 4.3777824E+00 7.7559423E-01
  4.318E-02  1.989E+00  1.149E+00 1.0524786E+01 3.0364912E+00 4.5830033E-01
  0.000E+00  1.975E+00  1.223E+00 1.0807798E+01 4.3325728E+00 9.9132419E-01
  4.318E-02  1.980E+00  1.198E+00 1.0631434E+01 3.0098325E+00 6.0881075E-01
  0.000E+00  1.963E+00  1.271E+00 1.0909752E+01 4.2783818E+00 1.2010013E+00
  4.318E-02  1.969E+00  1.247E+00 1.0746438E+01 2.9782094E+00 7.5673730E-01
  0.000E+00  1.948E+00  1.318E+00 1.0967492E+01 4.2161871E+00 1.4101591E+00
  4.318E-02  1.956E+00  1.295E+00 1.0826730E+01 2.9402053E+00 9.0328875E-01
  0.000E+00  1.931E+00  1.365E+00 1.1063451E+01 4.1429753E+00 1.6235134E+00
  4.318E-02  1.940E+00  1.342E+00 1.0878831E+01 2.8932988E+00 1.0504348E+00
  0.000E+00  1.912E+00  1.411E+00 1.1268008E+01 4.0560918E+00 1.8314480E+00
  4.318E-02  1.921E+00  1.388E+00 1.1057977E+01 2.8349267E+00 1.1953355E+00
  0.000E+00  1.890E+00  1.456E+00 1.1348489E+01 3.9597839E+00 2.0294185E+00
  4.318E-02  1.901E+00  1.434E+00 1.1205652E+01 2.7721644E+00 1.3348098E+00
  0.000E+00  1.866E+00  1.500E+00 1.1403554E+01 3.8535290E+00 2.2238323E+00
  4.318E-02  1.878E+00  1.478E+00 1.1224776E+01 2.7040431E+00 1.4712437E+00
  0.000E+00  1.840E+00  1.543E+00 1.1581597E+01 3.7374145E+00 2.4142956E+00
  4.318E-02  1.853E+00  1.521E+00 1.1413629E+01 2.6249514E+00 1.6041716E+00
  0.000E+00  1.812E+00  1.584E+00 1.1575008E+01 3.6132129E+00 2.5979781E+00
  4.318E-02  1.826E+00  1.563E+00 1.1446968E+01 2.5437793E+00 1.7344748E+00
  0.000E+00  1.782E+00  1.623E+00 1.1689561E+01 3.4774971E+00 2.7742968E+00
  4.318E-02  1.797E+00  1.604E+00 1.1533643E+01 2.4520062E+00 1.8580341E+00
  0.000E+00  1.750E+00  1.662E+00 1.1685382E+01 3.3354265E+00 2.9444709E+00
  4.318E-02  1.766E+00  1.643E+00 1.1600754E+01 2.3569655E+00 1.9786189E+00
  0.000E+00  1.716E+00  1.698E+00 1.1751601E+01 3.1834037E+00 3.1066390E+00
  4.318E-02  1.733E+00  1.680E+00 1.1581919E+01 2.2545505E+00 2.0934499E+00
  0.000E+00  1.680E+00  1.733E+00 1.1696882E+01 3.0246361E+00 3.2612076E+00
  4.318E-02  1.698E+00  1.716E+00 1.1635538E+01 2.1471867E+00 2.2027181E+00
  0.000E+00  1.643E+00  1.766E+00 1.1716616E+01 2.8580054E+00 3.4080651E+00
  4.318E-02  1.662E+00  1.750E+00 1.1569901E+01 2.0344896E+00 2.3075369E+00
  0.000E+00  1.604E+00  1.797E+00 1.1648375E+01 2.6836787E+00 3.5451263E+00
  4.318E-02  1.623E+00  1.782E+00 1.1573301E+01 1.9163541E+00 2.4048327E+00
  0.000E+00  1.563E+00  1.826E+00 1.1562187E+01 2.5046625E+00 3.6758745E+00
  4.318E-02  1.584E+00  1.812E+00 1.1459104E+01 1.7942983E+00 2.4985083E+00
  0.000E+00  1.521E+00  1.853E+00 1.1528539E+01 2.3168192E+00 3.7938657E+00
  4.318E-02  1.543E+00  1.840E+00 1.1464573E+01 1.6668866E+00 2.5829475E+00
  0.000E+00  1.478E+00  1.878E+00 1.1338930E+01 2.1247311E+00 3.9056647E+00
  4.318E-02  1.500E+00  1.866E+00 1.1287602E+01 1.5358938E+00 2.6634630E+00
  0.000E+00  1.434E+00  1.901E+00 1.1321579E+01 1.9297573E+00 4.0061161E+00
  4.318E-02  1.456E+00  1.890E+00 1.1231075E+01 1.4010913E+00 2.7365642E+00
  0.000E+00  1.388E+00  1.921E+00 1.1172824E+01 1.7277972E+00 4.0981530E+00
  4.318E-02  1.411E+00  1.912E+00 1.1150297E+01 1.2641640E+00 2.8010605E+00
  0.000E+00  1.342E+00  1.940E+00 1.0991889E+01 1.5162106E+00 4.1789958E+00
  4.318E-02  1.365E+00  1.931E+00 1.0947845E+01 1.1226996E+00 2.8627890E+00
  0.000E+00  1.295E+00  1.956E+00 1.0940993E+01 1.3052321E+00 4.2465482E+00
  4.318E-02  1.318E+00  1.948E+00 1.0852243E+01 9.7625140E-01 2.9159623E+00
  0.000E+00  1.247E+00  1.969E+00 1.0863209E+01 1.0970933E+00 4.3055320E+00
  4.318E-02  1.271E+00  1.963E+00 1.0792574E+01 8.2999609E-01 2.9583494E+00
  0.000E+00  1.198E+00  1.980E+00 1.0750311E+01 8.8488890E-01 4.3562509E+00
  4.318E-02  1.223E+00  1.975E+00 1.0687984E+01 6.8338080E-01 2.9936669E+00
  0.000E+00  1.149E+00  1.989E+00 1.0644110E+01 6.6623220E-01 4.3974205E+00
  4.318E-02  1.174E+00  1.985E+00 1.0573558E+01 5.3422185E-01 3.0235555E+00
  0.000E+00  1.100E+00  1.995E+00 1.0573276E+01 4.4438263E-01 4.4274926E+00
  4.318E-02  1.124E+00  1.992E+00 1.0486362E+01 3.8266733E-01 3.0479410E+00
  0.000E+00  1.050E+00  1.999E+00 1.0538365E+01 2.2207301E-01 4.4457200E+00
  4.318E-02  1.075E+00  1.997E+00 1.0433828E+01 2.2994588E-01 3.0650901E+00
  0.000E+00  1.000E+00  2.000E+00 1.0528452E+01 -1.3879830E-05 4.4518071E+00
  4.318E-02  1.025E+00  2.000E+00 1.0410680E+01 7.6685586E-02 3.0739410E+00
  0.000E+00  9.502E-01  1.999E+00 1.0538364E+01 -2.2204612E-01 4.4457214E+00
  4.318E-02  9.751E-01  2.000E+00 1.0410675E+01 -7.6686519E-02 3.0739416E+00
  0.000E+00  9.004E-01  1.995E+00 1.0573281E+01 -4.4438858E-01 4.4274958E+00
  4.318E-02  9.253E-01  1.997E+00 1.0433833E+01 -2.2993365E-01 3.0650920E+00
  0.000E+00  8.510E-01  1.989E+00 1.0644111E+01 -6.6624107E-01 4.3974249E+00
  4.318E-02  8.757E-01  1.992E+00 1.0486365E+01 -3.8267712E-01 3.0479444E+00
  0.000E+00  8.019E-01  1.980E+00 1.0750317E+01 -8.8486032E-01 4.3562563E+00
  4.318E-02  8.264E-01  1.985E+00 1.0573557E+01 -5.3421081E-01 3.0235597E+00
  0.000E+00  7.532E-01  1.969E+00 1.0863215E+01 -1.0971241E+00 4.3055399E+00
  4.318E-02  7.775E-01  1.975E+00 1.0687995E+01 -6.8338162E-01 2.9936726E+00
  0.000E+00  7.052E-01  1.956E+00 1.0940998E+01 -1.3052125E+00 4.2465560E+00
  4.318E-02  7.292E-01  1.963E+00 1.0792575E+01 -8.3000198E-01 2.9583562E+00
  0.000E+00  6.580E-01  1.940E+00 1.0991900E+01 -1.5162081E+00 4.1790051E+00
  4.318E-02  6.815E-01  1.948E+00 1.0852251E+01 -9.7623897E-01 2.9159695E+00
  0.000E+00  6.116E-01  1.921E+00 1.1172831E+01 -1.7278267E+00 4.0981640E+00
  4.318E-02  6.347E-01  1.931E+00 1.0947856E+01 -1.1227126E+00 2.8627979E+00
  0.000E+00  5.661E-01  1.901E+00 1.1321588E+01 -1.9297256E+00 4.0061256E+00
  4.318E-02  5.887E-01  1.912E+00 1.1150299E+01 -1.2641630E+00 2.8010691E+00
  0.000E+00  5.217E-01  1.878E+00 1.1338943E+01 -2.1247513E+00 3.9056765E+00
  4.318E-02  5.438E-01  1.890E+00 1.1231090E+01 -1.4010860E+00 2.7365735E+00
  0.000E+00  4.786E-01  1.853E+00 1.1528548E+01 -2.3168419E+00 3.7938775E+00
  4.318E-02  5.000E-01  1.866E+00 1.1287612E+01 -1.5359124E+00 2.6634736E+00
  0.000E+00  4.367E-01  1.826E+00 1.1562199E+01 -2.5046334E+00 3.6758845E+00
  4.318E-02  4.575E-01  1.840E+00 1.1464578E+01 -1.6668844E+00 2.5829569E+00
  0.000E+00  3.962E-01  1.797E+00 1.1648390E+01 -2.6837030E+00 3.5451383E+00
  4.318E-02  4.163E-01  1.812E+00 1.1459121E+01 -1.7942989E+00 2.4985179E+00
  0.000E+00  3.572E-01  1.766E+00 1.1716626E+01 -2.8580393E+00 3.4080766E+00
  4.318E-02  3.765E-01  1.782E+00 1.1573314E+01 -1.9163740E+00 2.4048432E+00
  0.000E+00  3.198E-01  1.733E+00 1.1696894E+01 -3.0246091E+00 3.2612157E+00
  4.318E-02  3.383E-01  1.750E+00 1.1569907E+01 -2.0344965E+00 2.3075458E+00
  0.000E+00  2.841E-01  1.698E+00 1.1751618E+01 -3.1834092E+00 3.1066472E+00
  4.318E-02  3.018E-01  1.716E+00 1.1635554E+01 -2.1471790E+00 2.2027250E+00
  0.000E+00  2.502E-01  1.662E+00 1.1685394E+01 -3.3354781E+00 2.9444791E+00
  4.318E-02  2.669E-01  1.680E+00 1.1581936E+01 -2.2545756E+00 2.0934576E+00
  0.000E+00  2.182E-01  1.623E+00 1.1689570E+01 -3.4775064E+00 2.7742992E+00
  4.318E-02  2.340E-01  1.643E+00 1.1600761E+01 -2.3569782E+00 1.9786238E+00
  0.000E+00  1.881E-01  1.584E+00 1.1575019E+01 -3.6131878E+00 2.5979763E+00
  4.318E-02  2.029E-01  1.604E+00 1.1533649E+01 -2.4520143E+00 1.8580351E+00
  0.000E+00  1.600E-01  1.543E+00 1.1581612E+01 -3.7373807E+00 2.4142922E+00
  4.318E-02  1.738E-01  1.563E+00 1.1446984E+01 -2.5437649E+00 1.7344737E+00
  0.000E+00  1.340E-01  1.500E+00 1.1403562E+01 -3.8536348E+00 2.2238326E+00
  4.318E-02  1.467E-01  1.521E+00 1.1413646E+01 -2.6249597E+00 1.6041700E+00
  0.000E+00  1.101E-01  1.456E+00 1.1348497E+01 -3.9597815E+00 2.0294129E+00
  4.318E-02  1.218E-01  1.478E+00 1.1224780E+01 -2.7041221E+00 1.4712434E+00
  0.000E+00  8.849E-02  1.411E+00 1.1268012E+01 -4.0560513E+00 1.8314380E+00
  4.318E-02  9.903E-02  1.434E+00 1.1205657E+01 -2.7721042E+00 1.3348044E+00
  0.000E+00  6.913E-02  1.365E+00 1.1063447E+01 -4.1430688E+00 1.6235055E+00
  4.318E-02  7.852E-02  1.388E+00 1.1057976E+01 -2.8349473E+00 1.1953307E+00
  0.000E+00  5.207E-02  1.318E+00 1.0967500E+01 -4.2160979E+00 1.4101514E+00
  4.318E-02  6.031E-02  1.342E+00 1.0878829E+01 -2.8934258E+00 1.0504346E+00
  0.000E+00  3.738E-02  1.271E+00 1.0909766E+01 -4.2782338E+00 1.2010014E+00
  4.318E-02  4.443E-02  1.295E+00 1.0826742E+01 -2.9401390E+00 9.0328942E-01
  0.000E+00  2.507E-02  1.223E+00 1.0807807E+01 -4.3326320E+00 9.9133688E-01
  4.318E-02  3.092E-02  1.247E+00 1.0746454E+01 -2.9781253E+00 7.5674453E-01
  0.000E+00  1.519E-02  1.174E+00 1.0694925E+01 -4.3779635E+00 7.7561419E-01
  4.318E-02  1.983E-02  1.198E+00 1.0631445E+01 -3.0099365E+00 6.0882784E-01
  0.000E+00  7.761E-03  1.124E+00 1.0607763E+01 -4.4131325E+00 5.5498407E-01
  4.318E-02  1.117E-02  1.149E+00 1.0524795E+01 -3.0366955E+00 4.5832213E-01
  0.000E+00  2.796E-03  1.075E+00 1.0554500E+01 -4.4370202E+00 3.3289211E-01
  4.318E-02  4.969E-03  1.100E+00 1.0454767E+01 -3.0571659E+00 3.0609248E-01
  0.000E+00  3.108E-04  1.025E+00 1.0530745E+01 -4.4490657E+00 1.1091078E-01
  4.318E-02  1.243E-03  1.050E+00 1.0420889E+01 -3.0699090E+00 1.5316115E-01
  0.000E+00  3.108E-04  9.751E-01 1.0530745E+01 -4.4490595E+00 -1.1089683E-01
  4.318E-02  0.000E+00  1.000E+00 1.0411448E+01 -3.0741899E+00 6.0851729E-06
  0.000E+00  2.796E-03  9.253E-01 1.0554501E+01 -4.4369810E+00 -3.3287768E-01
  4.318E-02  1.243E-03  9.502E-01 1.0420890E+01 -3.0698450E+00 -1.5314792E-01
  0.000E+00  7.761E-03  8.757E-01 1.0607767E+01 -4.4130222E+00 -5.5496891E-01
  4.318E-02  4.969E-03  9.004E-01 1.0454769E+01 -3.0570230E+00 -3.0607682E-01
  0.000E+00  1.519E-02  8.264E-01 1.0694932E+01 -4.3778061E+00 -7.7560058E-01
  4.318E-02  1.117E-02  8.510E-01 1.0524800E+01 -3.0365120E+00 -4.5830587E-01
  0.000E+00  2.507E-02  7.775E-01 1.0807811E+01 -4.3325959E+00 -9.9133176E-01
  4.318E-02  1.983E-02  8.019E-01 1.0631447E+01 -3.0098527E+00 -6.0881739E-01
  0.000E+00  3.738E-02  7.292E-01 1.0909763E+01 -4.2784043E+00 -1.2010101E+00
  4.318E-02  3.092E-02  7.532E-01 1.0746449E+01 -2.9782290E+00 -7.5674502E-01
  0.000E+00  5.207E-02  6.815E-01 1.0967501E+01 -4.2162089E+00 -1.4101690E+00
  4.318E-02  4.443E-02  7.052E-01 1.0826739E+01 -2.9402241E+00 -9.0329738E-01
  0.000E+00  6.913E-02  6.347E-01 1.1063458E+01 -4.1429961E+00 -1.6235242E+00
  4.318E-02  6.031E-02  6.580E-01 1.0878839E+01 -2.8933167E+00 -1.0504441E+00
  0.000E+00  8.849E-02  5.887E-01 1.1268014E+01 -4.0561121E+00 -1.8314596E+00
  4.318E-02  7.852E-02  6.116E-01 1.1057983E+01 -2.8349435E+00 -1.1953455E+00
  0.000E+00  1.101E-01  5.438E-01 1.1348494E+01 -3.9598029E+00 -2.0294309E+00
  4.318E-02  9.903E-02  5.661E-01 1.1205657E+01 -2.7721802E+00 -1.3348204E+00
  0.000E+00  1.340E-01  5.000E-01 1.1403556E+01 -3.8535470E+00 -2.2238454E+00
  4.318E-02  1.218E-01  5.217E-01 1.1224779E+01 -2.7040582E+00 -1.4712548E+00
  0.000E+00  1.600E-01  4.575E-01 1.1581598E+01 -3.7374314E+00 -2.4143094E+00
  4.318E-02  1.467E-01  4.786E-01 1.1413630E+01 -2.6249655E+00 -1.6041833E+00
  0.000E+00  1.881E-01  4.163E-01 1.1575007E+01 -3.6132288E+00 -2.5979924E+00
  4.318E-02  1.738E-01  4.367E-01 1.1446968E+01 -2.5437925E+00 -1.7344869E+00
  0.000E+00  2.182E-01  3.765E-01 1.1689558E+01 -3.4775117E+00 -2.7743116E+00
  4.318E-02  2.029E-01  3.962E-01 1.1533642E+01 -2.4520185E+00 -1.8580466E+00
  0.000E+00  2.502E-01  3.383E-01 1.1685378E+01 -3.3354414E+00 -2.9444863E+00
  4.318E-02  2.340E-01  3.572E-01 1.1600751E+01 -2.3569765E+00 -1.9786315E+00
  0.000E+00  2.841E-01  3.018E-01 1.1751596E+01 -3.1834163E+00 -3.1066546E+00
  4.318E-02  2.669E-01  3.198E-01 1.1581914E+01 -2.2545607E+00 -2.0934628E+00
  0.000E+00  3.198E-01  2.669E-01 1.1696875E+01 -3.0246478E+00 -3.2612234E+00
  4.318E-02  3.018E-01  2.841E-01 1.1635532E+01 -2.1471960E+00 -2.2027313E+00
  0.000E+00  3.572E-01  2.340E-01 1.1716608E+01 -2.8580155E+00 -3.4080809E+00
  4.318E-02  3.383E-01  2.502E-01 1.1569894E+01 -2.0344981E+00 -2.3075502E+00
  0.000E+00  3.962E-01  2.029E-01 1.1648365E+01 -2.6836871E+00 -3.5451420E+00
  4.318E-02  3.765E-01  2.182E-01 1.1573292E+01 -1.9163620E+00 -2.4048461E+00
  0.000E+00  4.367E-01  1.738E-01 1.1562176E+01 -2.5046701E+00 -3.6758903E+00
  4.318E-02  4.163E-01  1.881E-01 1.1459093E+01 -1.7943053E+00 -2.4985216E+00
  0.000E+00  4.786E-01  1.467E-01 1.1528526E+01 -2.3168273E+00 -3.7938819E+00
  4.318E-02  4.575E-01  1.600E-01 1.1464562E+01 -1.6668921E+00 -2.5829602E+00
  0.000E+00  5.217E-01  1.218E-01 1.1338914E+01 -2.1247390E+00 -3.9056810E+00
  4.318E-02  5.000E-01  1.340E-01 1.1287590E+01 -1.5358974E+00 -2.6634752E+00
  0.000E+00  5.661E-01  9.903E-02 1.1321561E+01 -1.9297638E+00 -4.0061323E+00
  4.318E-02  5.438E-01  1.101E-01 1.1231063E+01 -1.4010939E+00 -2.7365760E+00
  0.000E+00  6.116E-01  7.852E-02 1.1172807E+01 -1.7278018E+00 -4.0981689E+00
  4.318E-02  5.887E-01  8.849E-02 1.1150283E+01 -1.2641659E+00 -2.8010718E+00
  0.000E+00  6.580E-01  6.031E-02 1.0991875E+01 -1.5162136E+00 -4.1790107E+00
  4.318E-02  6.347E-01  6.913E-02 1.0947828E+01 -1.1227007E+00 -2.8627999E+00
  0.000E+00  7.052E-01  4.443E-02 1.0940979E+01 -1.3052334E+00 -4.2465623E+00
  4.318E-02  6.815E-01  5.207E-02 1.0852223E+01 -9.7625184E-01 -2.9159721E+00
  0.000E+00  7.532E-01  3.092E-02 1.0863192E+01 -1.0970916E+00 -4.3055449E+00
  4.318E-02  7.292E-01  3.738E-02 1.0792553E+01 -8.2999732E-01 -2.9583588E+00
  0.000E+00  8.019E-01  1.983E-02 1.0750290E+01 -8.8488386E-01 -4.3562621E+00
  4.318E-02  7.775E-01  2.507E-02 1.0687964E+01 -6.8338354E-01 -2.9936765E+00
  0.000E+00  8.510E-01  1.117E-02 1.0644086E+01 -6.6622548E-01 -4.3974296E+00
  4.318E-02  8.264E-01  1.519E-02 1.0573538E+01 -5.3422530E-01 -3.0235657E+00
  0.000E+00  9.004E-01  4.969E-03 1.0573251E+01 -4.4437632E-01 -4.4274997E+00
  4.318E-02  8.757E-01  7.761E-03 1.0486342E+01 -3.8266984E-01 -3.0479514E+00
  4.318E-02  9.253E-01  2.796E-03 1.0433806E+01 -2.2994647E-01 -3.0651001E+00
  1.000E+01  1.050E+00  1.243E-03 1.0538336E+01 2.2204638E-01 -4.4457239E+00
  1.000E+01  1.000E+00  5.551E-16 1.0528425E+01 1.6377418E-05 -4.4518108E+00
  9.957E+00  1.025E+00  3.108E-04 1.0622289E+01 1.4649084E-01 -5.8913629E+00
  1.000E+01  9.502E-01  1.243E-03 1.0538339E+01 -2.2206840E-01 -4.4457253E+00
  9.957E+00  9.751E-01  3.108E-04 1.0622289E+01 -1.4647870E-01 -5.8913637E+00
  1.000E+01  9.004E-01  4.969E-03 1.0573251E+01 -4.4437632E-01 -4.4274997E+00
  9.957E+00  9.253E-01  2.796E-03 1.0647500E+01 -4.4024553E-01 -5.8762515E+00
  1.000E+01  8.510E-01  1.117E-02 1.0644086E+01 -6.6622548E-01 -4.3974296E+00
  9.957E+00  8.757E-01  7.761E-03 1.0703347E+01 -7.3550439E-01 -5.8460681E+00
  1.000E+01  8.019E-01  1.983E-02 1.0750290E+01 -8.8488386E-01 -4.3562621E+00
  9.957E+00  8.264E-01  1.519E-02 1.0793006E+01 -1.0301961E+00 -5.8001574E+00
  1.000E+01  7.532E-01  3.092E-02 1.0863192E+01 -1.0970916E+00 -4.3055449E+00
  9.957E+00  7.775E-01  2.507E-02 1.0906554E+01 -1.3173413E+00 -5.7378410E+00
  1.000E+01  7.052E-01  4.443E-02 1.0940979E+01 -1.3052334E+00 -4.2465623E+00
  9.957E+00  7.292E-01  3.738E-02 1.1006709E+01 -1.5928158E+00 -5.6606191E+00
  1.000E+01  6.580E-01  6.031E-02 1.0991875E+01 -1.5162136E+00 -4.1790107E+00
  9.957E+00  6.815E-01  5.207E-02 1.1061546E+01 -1.8650614E+00 -5.5737278E+00
  1.000E+01  6.116E-01  7.852E-02 1.1172807E+01 -1.7278018E+00 -4.0981689E+00
  9.957E+00  6.347E-01  6.913E-02 1.1156536E+01 -2.1456898E+00 -5.4781232E+00
  1.000E+01  5.661E-01  9.903E-02 1.1321561E+01 -1.9297638E+00 -4.0061323E+00
  9.957E+00  5.887E-01  8.849E-02 1.1363028E+01 -2.4229383E+00 -5.3656814E+00
  1.000E+01  5.217E-01  1.218E-01 1.1338914E+01 -2.1247390E+00 -3.9056810E+00
  9.957E+00  5.438E-01  1.101E-01 1.1443780E+01 -2.6844227E+00 -5.2363122E+00
  1.000E+01  4.786E-01  1.467E-01 1.1528526E+01 -2.3168273E+00 -3.7938819E+00
  9.957E+00  5.000E-01  1.340E-01 1.1497537E+01 -2.9395038E+00 -5.0954018E+00
  1.000E+01  4.367E-01  1.738E-01 1.1562176E+01 -2.5046701E+00 -3.6758903E+00
  9.957E+00  4.575E-01  1.600E-01 1.1676743E+01 -3.1916273E+00 -4.9435395E+00
  1.000E+01  3.962E-01  2.029E-01 1.1648365E+01 -2.6836871E+00 -3.5451420E+00
  9.957E+00  4.163E-01  1.881E-01 1.1669718E+01 -3.4344884E+00 -4.7793565E+00
  1.000E+01  3.572E-01  2.340E-01 1.1716608E+01 -2.8580155E+00 -3.4080809E+00
  9.957E+00  3.765E-01  2.182E-01 1.1784913E+01 -3.6679647E+00 -4.6012903E+00
  1.000E+01  3.198E-01  2.669E-01 1.1696875E+01 -3.0246478E+00 -3.2612234E+00
  9.957E+00  3.383E-01  2.502E-01 1.1780445E+01 -3.8935742E+00 -4.4138316E+00
  1.000E+01  2.841E-01  3.018E-01 1.1751596E+01 -3.1834163E+00 -3.1066546E+00
  9.957E+00  3.018E-01  2.841E-01 1.1847539E+01 -4.1087233E+00 -4.2137749E+00
  1.000E+01  2.502E-01  3.383E-01 1.1685378E+01 -3.3354414E+00 -2.9444863E+00
  9.957E+00  2.669E-01  3.198E-01 1.1792179E+01 -4.3140813E+00 -4.0043377E+00
  1.000E+01  2.182E-01  3.765E-01 1.1689558E+01 -3.4775117E+00 -2.7743116E+00
  9.957E+00  2.340E-01  3.572E-01 1.1813061E+01 -4.5089341E+00 -3.7844375E+00
  1.000E+01  1.881E-01  4.163E-01 1.1575007E+01 -3.6132288E+00 -2.5979924E+00
  9.957E+00  2.029E-01  3.962E-01 1.1744223E+01 -4.6917195E+00 -3.5546389E+00
  1.000E+01  1.600E-01  4.575E-01 1.1581598E+01 -3.7374314E+00 -2.4143094E+00
  9.957E+00  1.738E-01  4.367E-01 1.1659047E+01 -4.8652892E+00 -3.3176565E+00
  1.000E+01  1.340E-01  5.000E-01 1.1403556E+01 -3.8535470E+00 -2.2238454E+00
  9.957E+00  1.467E-01  4.786E-01 1.1625231E+01 -5.0229326E+00 -3.0690106E+00
  1.000E+01  1.101E-01  5.438E-01 1.1348494E+01 -3.9598029E+00 -2.0294309E+00
  9.957E+00  1.218E-01  5.217E-01 1.1435448E+01 -5.1703102E+00 -2.8144168E+00
  1.000E+01  8.849E-02  5.887E-01 1.1268014E+01 -4.0561121E+00 -1.8314596E+00
  9.957E+00  9.903E-02  5.661E-01 1.1419511E+01 -5.3059105E+00 -2.5569165E+00
  1.000E+01  6.913E-02  6.347E-01 1.1063458E+01 -4.1429961E+00 -1.6235242E+00
  9.957E+00  7.852E-02  6.116E-01 1.1269165E+01 -5.4271619E+00 -2.2868122E+00
  1.000E+01  5.207E-02  6.815E-01 1.0967501E+01 -4.2162089E+00 -1.4101690E+00
  9.957E+00  6.031E-02  6.580E-01 1.1087175E+01 -5.5297639E+00 -2.0045008E+00
  1.000E+01  3.738E-02  7.292E-01 1.0909763E+01 -4.2784043E+00 -1.2010101E+00
  9.957E+00  4.443E-02  7.052E-01 1.1038738E+01 -5.6196268E+00 -1.7279968E+00
  1.000E+01  2.507E-02  7.775E-01 1.0807811E+01 -4.3325959E+00 -9.9133176E-01
  9.957E+00  3.092E-02  7.532E-01 1.0963907E+01 -5.7014724E+00 -1.4556533E+00
  1.000E+01  1.519E-02  8.264E-01 1.0694932E+01 -4.3778061E+00 -7.7560058E-01
  9.957E+00  1.983E-02  8.019E-01 1.0852007E+01 -5.7708641E+00 -1.1744481E+00
  1.000E+01  7.761E-03  8.757E-01 1.0607767E+01 -4.4130222E+00 -5.5496891E-01
  9.957E+00  1.117E-02  8.510E-01 1.0744480E+01 -5.8245238E+00 -8.8266842E-01
  1.000E+01  2.796E-03  9.253E-01 1.0554501E+01 -4.4369810E+00 -3.3287768E-01
  9.957E+00  4.969E-03  9.004E-01 1.0671420E+01 -5.8621083E+00 -5.8729386E-01
  1.000E+01  3.108E-04  9.751E-01 1.0530745E+01 -4.4490595E+00 -1.1089683E-01
  9.957E+00  1.243E-03  9.502E-01 1.0634749E+01 -5.8844613E+00 -2.9293952E-01
  1.000E+01  3.108E-04  1.025E+00 1.0530745E+01 -4.4490657E+00 1.1091078E-01
  9.957E+00  0.000E+00  1.000E+00 1.0624220E+01 -5.8919602E+00 8.3688730E-06
  1.000E+01  2.796E-03  1.075E+00 1.0554500E+01 -4.4370202E+00 3.3289211E-01
  9.957E+00  1.243E-03  1.050E+00 1.0634747E+01 -5.8844299E+00 2.9295521E-01
  1.000E+01  7.761E-03  1.124E+00 1.0607763E+01 -4.4131325E+00 5.5498407E-01
  9.957E+00  4.969E-03  1.100E+00 1.0671416E+01 -5.8620870E+00 5.8730723E-01
  1.000E+01  1.519E-02  1.174E+00 1.0694925E+01 -4.3779635E+00 7.7561419E-01
  9.957E+00  1.117E-02  1.149E+00 1.0744473E+01 -5.8245763E+00 8.8267935E-01
  1.000E+01  2.507E-02  1.223E+00 1.0807807E+01 -4.3326320E+00 9.9133688E-01
  9.957E+00  1.983E-02  1.198E+00 1.0851998E+01 -5.7709599E+00 1.1744545E+00
  1.000E+01  3.738E-02  1.271E+00 1.0909766E+01 -4.2782338E+00 1.2010014E+00
  9.957E+00  3.092E-02  1.247E+00 1.0963901E+01 -5.7014323E+00 1.4556494E+00
  1.000E+01  5.207E-02  1.318E+00 1.0967500E+01 -4.2160979E+00 1.4101514E+00
  9.957E+00  4.443E-02  1.295E+00 1.1038741E+01 -5.6194077E+00 1.7279793E+00
  1.000E+01  6.913E-02  1.365E+00 1.1063447E+01 -4.1430688E+00 1.6235055E+00
  9.957E+00  6.031E-02  1.342E+00 1.1087173E+01 -5.5296767E+00 2.0044758E+00
  1.000E+01  8.849E-02  1.411E+00 1.1268012E+01 -4.0560513E+00 1.8314380E+00
  9.957E+00  7.852E-02  1.388E+00 1.1269159E+01 -5.4271998E+00 2.2867862E+00
  1.000E+01  1.101E-01  1.456E+00 1.1348497E+01 -3.9597815E+00 2.0294129E+00
  9.957E+00  9.903E-02  1.434E+00 1.1419516E+01 -5.3058316E+00 2.5568911E+00
  1.000E+01  1.340E-01  1.500E+00 1.1403562E+01 -3.8536348E+00 2.2238326E+00
  9.957E+00  1.218E-01  1.478E+00 1.1435453E+01 -5.1703513E+00 2.8143968E+00
  1.000E+01  1.600E-01  1.543E+00 1.1581612E+01 -3.7373807E+00 2.4142922E+00
  9.957E+00  1.467E-01  1.521E+00 1.1625239E+01 -5.0229588E+00 3.0689917E+00
  1.000E+01  1.881E-01  1.584E+00 1.1575019E+01 -3.6131878E+00 2.5979763E+00
  9.957E+00  1.738E-01  1.563E+00 1.1659060E+01 -4.8652173E+00 3.3176374E+00
  1.000E+01  2.182E-01  1.623E+00 1.1689570E+01 -3.4775064E+00 2.7742992E+00
  9.957E+00  2.029E-01  1.604E+00 1.1744238E+01 -4.6916960E+00 3.5546228E+00
  1.000E+01  2.502E-01  1.662E+00 1.1685394E+01 -3.3354781E+00 2.9444791E+00
  9.957E+00  2.340E-01  1.643E+00 1.1813079E+01 -4.5089510E+00 3.7844253E+00
  1.000E+01  2.841E-01  1.698E+00 1.1751618E+01 -3.1834092E+00 3.1066472E+00
  9.957E+00  2.669E-01  1.680E+00 1.1792197E+01 -4.3141114E+00 4.0043294E+00
  1.000E+01  3.198E-01  1.733E+00 1.1696894E+01 -3.0246091E+00 3.2612157E+00
  9.957E+00  3.018E-01  1.716E+00 1.1847559E+01 -4.1086802E+00 4.2137658E+00
  1.000E+01  3.572E-01  1.766E+00 1.1716626E+01 -2.8580393E+00 3.4080766E+00
  9.957E+00  3.383E-01  1.750E+00 1.1780468E+01 -3.8935646E+00 4.4138250E+00
  1.000E+01  3.962E-01  1.797E+00 1.1648390E+01 -2.6837030E+00 3.5451383E+00
  9.957E+00  3.765E-01  1.782E+00 1.1784936E+01 -3.6680024E+00 4.6012856E+00
  1.000E+01  4.367E-01  1.826E+00 1.1562199E+01 -2.5046334E+00 3.6758845E+00
  9.957E+00  4.163E-01  1.812E+00 1.1669742E+01 -3.4344671E+00 4.7793506E+00
  1.000E+01  4.786E-01  1.853E+00 1.1528548E+01 -2.3168419E+00 3.7938775E+00
  9.957E+00  4.575E-01  1.840E+00 1.1676769E+01 -3.1916051E+00 4.9435335E+00
  1.000E+01  5.217E-01  1.878E+00 1.1338943E+01 -2.1247513E+00 3.9056765E+00
  9.957E+00  5.000E-01  1.866E+00 1.1497561E+01 -2.9395429E+00 5.0953979E+00
  1.000E+01  5.661E-01  1.901E+00 1.1321588E+01 -1.9297256E+00 4.0061256E+00
  9.957E+00  5.438E-01  1.890E+00 1.1443804E+01 -2.6843983E+00 5.2363069E+00
  1.000E+01  6.116E-01  1.921E+00 1.1172831E+01 -1.7278267E+00 4.0981640E+00
  9.957E+00  5.887E-01  1.912E+00 1.1363054E+01 -2.4229281E+00 5.3656753E+00
  1.000E+01  6.580E-01  1.940E+00 1.0991900E+01 -1.5162081E+00 4.1790051E+00
  9.957E+00  6.347E-01  1.931E+00 1.1156564E+01 -2.1457200E+00 5.4781186E+00
  1.000E+01  7.052E-01  1.956E+00 1.0940998E+01 -1.3052125E+00 4.2465560E+00
  9.957E+00  6.815E-01  1.948E+00 1.1061576E+01 -1.8650243E+00 5.5737211E+00
  1.000E+01  7.532E-01  1.969E+00 1.0863215E+01 -1.0971241E+00 4.3055399E+00
  9.957E+00  7.292E-01  1.963E+00 1.1006740E+01 -1.5928302E+00 5.6606122E+00
  1.000E+01  8.019E-01  1.980E+00 1.0750317E+01 -8.8486032E-01 4.3562563E+00
  9.957E+00  7.775E-01  1.975E+00 1.0906582E+01 -1.3173421E+00 5.7378326E+00
  1.000E+01  8.510E-01  1.989E+00 1.0644111E+01 -6.6624107E-01 4.3974249E+00
  9.957E+00  8.264E-01  1.985E+00 1.0793033E+01 -1.0301647E+00 5.8001471E+00
  1.000E+01  9.004E-01  1.995E+00 1.0573281E+01 -4.4438858E-01 4.4274958E+00
  9.957E+00  8.757E-01  1.992E+00 1.0703373E+01 -7.3553292E-01 5.8460576E+00
  1.000E+01  9.502E-01  1.999E+00 1.0538364E+01 -2.2204612E-01 4.4457214E+00
  9.957E+00  9.253E-01  1.997E+00 1.0647526E+01 -4.4021494E-01 5.8762400E+00
  1.000E+01  1.000E+00  2.000E+00 1.0528452E+01 -1.3879830E-05 4.4518071E+00
  9.957E+00  9.751E-01  2.000E+00 1.0622316E+01 -1.4648735E-01 5.8913518E+00
  1.000E+01  1.050E+00  1.999E+00 1.0538365E+01 2.2207301E-01 4.4457200E+00
  9.957E+00  1.025E+00  2.000E+00 1.0622315E+01 1.4648004E-01 5.8913510E+00
  1.000E+01  1.100E+00  1.995E+00 1.0573276E+01 4.4438263E-01 4.4274926E+00
  9.957E+00  1.075E+00  1.997E+00 1.0647525E+01 4.4024465E-01 5.8762374E+00
  1.000E+01  1.149E+00  1.989E+00 1.0644110E+01 6.6623220E-01 4.3974205E+00
  9.957E+00  1.124E+00  1.992E+00 1.0703370E+01 7.3550144E-01 5.8460530E+00