# TIME = 1.000000
VARIABLES = X, Y, Z, FX, FY, FZ
ZONE N=29232 E=58212 F=FEPOINT ET=TRIANGLE
  0.000E+00  9.502E-01  1.243E-03 6.4265547E+00 1.6574539E-01 3.3442729E+00
  0.000E+00  1.000E+00  0.000E+00 6.4158394E+00 6.8115152E-07 3.3485945E+00
  4.318E-02  9.751E-01  3.108E-04 6.4170133E+00 8.1168354E-02 3.2794628E+00
  0.000E+00  1.050E+00  1.243E-03 6.4265532E+00 -1.6574448E-01 3.3442729E+00
  4.318E-02  1.025E+00  3.108E-04 6.4170126E+00 -8.1168737E-02 3.2794628E+00
  0.000E+00  1.100E+00  4.969E-03 6.4624764E+00 -3.3190650E-01 3.3317440E+00
  4.318E-02  1.075E+00  2.796E-03 6.4415604E+00 -2.4368725E-01 3.2711288E+00
  0.000E+00  1.149E+00  1.117E-02 6.5307132E+00 -4.9895954E-01 3.3117909E+00
  4.318E-02  1.124E+00  7.761E-03 6.4940196E+00 -4.0686357E-01 3.2551154E+00
  0.000E+00  1.198E+00  1.983E-02 6.6294174E+00 -6.6596281E-01 3.2843612E+00
  4.318E-02  1.174E+00  1.519E-02 6.5768590E+00 -5.7079647E-01 3.2320260E+00
  0.000E+00  1.247E+00  3.092E-02 6.7374021E+00 -8.2959493E-01 3.2477295E+00
  4.318E-02  1.223E+00  2.507E-02 6.6831342E+00 -7.3324086E-01 3.2009533E+00
  0.000E+00  1.295E+00  4.443E-02 6.8261163E+00 -9.8730614E-01 3.2003145E+00
  4.318E-02  1.271E+00  3.738E-02 6.7860313E+00 -8.9063757E-01 3.1597242E+00
  0.000E+00  1.342E+00  6.031E-02 6.9022131E+00 -1.1429087E+00 3.1454149E+00
  4.318E-02  1.318E+00  5.207E-02 6.8629053E+00 -1.0433081E+00 3.1089653E+00
  0.000E+00  1.388E+00  7.852E-02 7.0603226E+00 -1.3002444E+00 3.0860854E+00
  4.318E-02  1.365E+00  6.913E-02 6.9687521E+00 -1.1966658E+00 3.0530629E+00
  0.000E+00  1.434E+00  9.903E-02 7.1927271E+00 -1.4543451E+00 3.0186266E+00
  4.318E-02  1.411E+00  8.849E-02 7.1406130E+00 -1.3501264E+00 2.9916107E+00
  0.000E+00  1.478E+00  1.218E-01 7.2468718E+00 -1.6017323E+00 2.9412326E+00
  4.318E-02  1.456E+00  1.101E-01 7.2299600E+00 -1.4976257E+00 2.9203631E+00
  0.000E+00  1.521E+00  1.467E-01 7.4062558E+00 -1.7461146E+00 2.8576916E+00
  4.318E-02  1.500E+00  1.340E-01 7.3073059E+00 -1.6401141E+00 2.8411505E+00
  0.000E+00  1.563E+00  1.738E-01 7.4514711E+00 -1.8869417E+00 2.7675401E+00
  4.318E-02  1.543E+00  1.600E-01 7.4531031E+00 -1.7802627E+00 2.7564225E+00
  0.000E+00  1.604E+00  2.029E-01 7.5395464E+00 -2.0222894E+00 2.6697968E+00
  4.318E-02  1.584E+00  1.881E-01 7.4765567E+00 -1.9155113E+00 2.6642465E+00
  0.000E+00  1.643E+00  2.340E-01 7.5937329E+00 -2.1528970E+00 2.5657305E+00
  4.318E-02  1.623E+00  2.182E-01 7.5705977E+00 -2.0457544E+00 2.5653199E+00
  0.000E+00  1.680E+00  2.669E-01 7.5959217E+00 -2.2781213E+00 2.4552239E+00
  4.318E-02  1.662E+00  2.502E-01 7.5829534E+00 -2.1711888E+00 2.4602465E+00
  0.000E+00  1.716E+00  3.018E-01 7.6293406E+00 -2.3976305E+00 2.3385892E+00
  4.318E-02  1.698E+00  2.841E-01 7.6293609E+00 -2.2910566E+00 2.3489027E+00
  0.000E+00  1.750E+00  3.383E-01 7.5829298E+00 -2.5112836E+00 2.2162329E+00
  4.318E-02  1.733E+00  3.198E-01 7.5959384E+00 -2.4053228E+00 2.2318230E+00
  0.000E+00  1.782E+00  3.765E-01 7.5705708E+00 -2.6185359E+00 2.0881972E+00
  4.318E-02  1.766E+00  3.572E-01 7.5937456E+00 -2.5135795E+00 2.1091427E+00
  0.000E+00  1.812E+00  4.163E-01 7.4765263E+00 -2.7195191E+00 1.9552525E+00
  4.318E-02  1.797E+00  3.962E-01 7.5395554E+00 -2.6155345E+00 1.9811908E+00
  0.000E+00  1.840E+00  4.575E-01 7.4530685E+00 -2.8136001E+00 1.8171982E+00
  4.318E-02  1.826E+00  4.367E-01 7.4514763E+00 -2.7112887E+00 1.8485948E+00
  0.000E+00  1.866E+00  5.000E-01 7.3072663E+00 -2.9000941E+00 1.6741410E+00
  4.318E-02  1.853E+00  4.786E-01 7.4062565E+00 -2.7996061E+00 1.7106306E+00
  0.000E+00  1.890E+00  5.438E-01 7.2299174E+00 -2.9809499E+00 1.5286974E+00
  4.318E-02  1.878E+00  5.217E-01 7.2468689E+00 -2.8814587E+00 1.5691820E+00
  0.000E+00  1.912E+00  5.887E-01 7.1405679E+00 -3.0536678E+00 1.3781390E+00
  4.318E-02  1.901E+00  5.661E-01 7.1927204E+00 -2.9572689E+00 1.4247894E+00
  0.000E+00  1.931E+00  6.347E-01 6.9687043E+00 -3.1164043E+00 1.2214942E+00
  4.318E-02  1.921E+00  6.116E-01 7.0603111E+00 -3.0233576E+00 1.2738195E+00
  0.000E+00  1.948E+00  6.815E-01 6.8628551E+00 -3.1734672E+00 1.0649531E+00
  4.318E-02  1.940E+00  6.580E-01 6.9021966E+00 -3.0814898E+00 1.1196819E+00
  0.000E+00  1.963E+00  7.292E-01 6.7859799E+00 -3.2252733E+00 9.0911477E-01
  4.318E-02  1.956E+00  7.052E-01 6.8260961E+00 -3.1352677E+00 9.6724283E-01
  0.000E+00  1.975E+00  7.775E-01 6.6830799E+00 -3.2673587E+00 7.4845373E-01
  4.318E-02  1.969E+00  7.532E-01 6.7373807E+00 -3.1817167E+00 8.1273831E-01
  0.000E+00  1.985E+00  8.264E-01 6.5768006E+00 -3.2990781E+00 5.8264008E-01
  4.318E-02  1.980E+00  8.019E-01 6.6293943E+00 -3.2176067E+00 6.5243196E-01
  0.000E+00  1.992E+00  8.757E-01 6.4939576E+00 -3.3226458E+00 4.1530593E-01
  4.318E-02  1.989E+00  8.510E-01 6.5306873E+00 -3.2444797E+00 4.8882137E-01
  0.000E+00  1.997E+00  9.253E-01 6.4414976E+00 -3.3389921E+00 2.4874325E-01
  4.318E-02  1.995E+00  9.004E-01 6.4624483E+00 -3.2640269E+00 3.2516191E-01
  0.000E+00  2.000E+00  9.751E-01 6.4169499E+00 -3.3475005E+00 8.2853548E-02
  4.318E-02  1.999E+00  9.502E-01 6.4265249E+00 -3.2763027E+00 1.6237650E-01
  0.000E+00  2.000E+00  1.025E+00 6.4169493E+00 -3.3474996E+00 -8.2850840E-02
  4.318E-02  2.000E+00  1.000E+00 6.4158099E+00 -3.2805367E+00 1.4962366E-06
  0.000E+00  1.997E+00  1.075E+00 6.4414960E+00 -3.3389892E+00 -2.4874055E-01
  4.318E-02  1.999E+00  1.050E+00 6.4265239E+00 -3.2763009E+00 -1.6237352E-01
  0.000E+00  1.992E+00  1.124E+00 6.4939549E+00 -3.3226413E+00 -4.1530328E-01
  4.318E-02  1.995E+00  1.100E+00 6.4624462E+00 -3.2640230E+00 -3.2515896E-01
  0.000E+00  1.985E+00  1.174E+00 6.5767969E+00 -3.2990764E+00 -5.8263749E-01
  4.318E-02  1.989E+00  1.149E+00 6.5306842E+00 -3.2444760E+00 -4.8881847E-01
  0.000E+00  1.975E+00  1.223E+00 6.6830752E+00 -3.2673653E+00 -7.4845121E-01
  4.318E-02  1.980E+00  1.198E+00 6.6293902E+00 -3.2176091E+00 -6.5242915E-01
  0.000E+00  1.963E+00  1.271E+00 6.7859742E+00 -3.2252801E+00 -9.0911228E-01
  4.318E-02  1.969E+00  1.247E+00 6.7373756E+00 -3.1817255E+00 -8.1273557E-01
  0.000E+00  1.948E+00  1.318E+00 6.8628486E+00 -3.1734577E+00 -1.0649506E+00
  4.318E-02  1.956E+00  1.295E+00 6.8260901E+00 -3.1352676E+00 -9.6724017E-01
  0.000E+00  1.931E+00  1.365E+00 6.9686970E+00 -3.1163971E+00 -1.2214919E+00
  4.318E-02  1.940E+00  1.342E+00 6.9021897E+00 -3.0814767E+00 -1.1196793E+00
  0.000E+00  1.912E+00  1.411E+00 7.1405592E+00 -3.0536819E+00 -1.3781367E+00
  4.318E-02  1.921E+00  1.388E+00 7.0603037E+00 -3.0233638E+00 -1.2738172E+00
  0.000E+00  1.890E+00  1.456E+00 7.2299087E+00 -2.9809470E+00 -1.5286954E+00
  4.318E-02  1.901E+00  1.434E+00 7.1927120E+00 -2.9572791E+00 -1.4247871E+00
  0.000E+00  1.866E+00  1.500E+00 7.3072569E+00 -2.9000873E+00 -1.6741390E+00
  4.318E-02  1.878E+00  1.478E+00 7.2468597E+00 -2.8814469E+00 -1.5691797E+00
  0.000E+00  1.840E+00  1.543E+00 7.4530584E+00 -2.8136112E+00 -1.8171967E+00
  4.318E-02  1.853E+00  1.521E+00 7.4062467E+00 -2.7996125E+00 -1.7106288E+00
  0.000E+00  1.812E+00  1.584E+00 7.4765156E+00 -2.7195156E+00 -1.9552508E+00
  4.318E-02  1.826E+00  1.563E+00 7.4514659E+00 -2.7112926E+00 -1.8485929E+00
  0.000E+00  1.782E+00  1.623E+00 7.5705595E+00 -2.6185405E+00 -2.0881959E+00
  4.318E-02  1.797E+00  1.604E+00 7.5395445E+00 -2.6155333E+00 -1.9811893E+00
  0.000E+00  1.750E+00  1.662E+00 7.5829181E+00 -2.5112861E+00 -2.2162316E+00
  4.318E-02  1.766E+00  1.643E+00 7.5937342E+00 -2.5135859E+00 -2.1091414E+00
  0.000E+00  1.716E+00  1.698E+00 7.6293287E+00 -2.3976326E+00 -2.3385882E+00
  4.318E-02  1.733E+00  1.680E+00 7.5959266E+00 -2.4053225E+00 -2.2318217E+00
  0.000E+00  1.680E+00  1.733E+00 7.5959093E+00 -2.2781243E+00 -2.4552230E+00
  4.318E-02  1.698E+00  1.716E+00 7.6293486E+00 -2.2910610E+00 -2.3489018E+00
  0.000E+00  1.643E+00  1.766E+00 7.5937199E+00 -2.1528980E+00 -2.5657297E+00
  4.318E-02  1.662E+00  1.750E+00 7.5829410E+00 -2.1711901E+00 -2.4602456E+00
  0.000E+00  1.604E+00  1.797E+00 7.5395329E+00 -2.0222913E+00 -2.6697961E+00
  4.318E-02  1.623E+00  1.782E+00 7.5705853E+00 -2.0457573E+00 -2.5653194E+00
  0.000E+00  1.563E+00  1.826E+00 7.4514578E+00 -1.8869433E+00 -2.7675398E+00
  4.318E-02  1.584E+00  1.812E+00 7.4765442E+00 -1.9155129E+00 -2.6642460E+00
  0.000E+00  1.521E+00  1.853E+00 7.4062433E+00 -1.7461182E+00 -2.8576919E+00
  4.318E-02  1.543E+00  1.840E+00 7.4530900E+00 -1.7802640E+00 -2.7564219E+00
  0.000E+00  1.478E+00  1.878E+00 7.2468601E+00 -1.6017346E+00 -2.9412330E+00
  4.318E-02  1.500E+00  1.866E+00 7.3072917E+00 -1.6401143E+00 -2.8411499E+00
  0.000E+00  1.434E+00  1.901E+00 7.1927150E+00 -1.4543457E+00 -3.0186263E+00
  4.318E-02  1.456E+00  1.890E+00 7.2299453E+00 -1.4976276E+00 -2.9203629E+00
  0.000E+00  1.388E+00  1.921E+00 7.0603086E+00 -1.3002418E+00 -3.0860844E+00
  4.318E-02  1.411E+00  1.912E+00 7.1405990E+00 -1.3501294E+00 -2.9916113E+00
  0.000E+00  1.342E+00  1.940E+00 6.9021967E+00 -1.1429083E+00 -3.1454141E+00
  4.318E-02  1.365E+00  1.931E+00 6.9687401E+00 -1.1966685E+00 -3.0530639E+00
  0.000E+00  1.295E+00  1.956E+00 6.8260989E+00 -9.8730909E-01 -3.2003147E+00
  4.318E-02  1.318E+00  1.948E+00 6.8628948E+00 -1.0433090E+00 -3.1089659E+00
  0.000E+00  1.247E+00  1.969E+00 6.7373861E+00 -8.2959963E-01 -3.2477308E+00
  4.318E-02  1.271E+00  1.963E+00 6.7860204E+00 -8.9063648E-01 -3.1597241E+00
  0.000E+00  1.198E+00  1.980E+00 6.6294040E+00 -6.6596552E-01 -3.2843629E+00
  4.318E-02  1.223E+00  1.975E+00 6.6831213E+00 -7.3323983E-01 -3.2009529E+00
  0.000E+00  1.149E+00  1.989E+00 6.5307015E+00 -4.9895986E-01 -3.3117925E+00
  4.318E-02  1.174E+00  1.985E+00 6.5768443E+00 -5.7079646E-01 -3.2320256E+00
  0.000E+00  1.100E+00  1.995E+00 6.4624649E+00 -3.3190536E-01 -3.3317453E+00
  4.318E-02  1.124E+00  1.992E+00 6.4940046E+00 -4.0686496E-01 -3.2551153E+00
  0.000E+00  1.050E+00  1.999E+00 6.4265411E+00 -1.6574322E-01 -3.3442740E+00
  4.318E-02  1.075E+00  1.997E+00 6.4415458E+00 -2.4368821E-01 -3.2711289E+00
  0.000E+00  1.000E+00  2.000E+00 6.4158270E+00 4.4271340E-07 -3.3485955E+00
  4.318E-02  1.025E+00  2.000E+00 6.4169986E+00 -8.1169267E-02 -3.2794630E+00
  0.000E+00  9.502E-01  1.999E+00 6.4265426E+00 1.6574457E-01 -3.3442740E+00
  4.318E-02  9.751E-01  2.000E+00 6.4169993E+00 8.1168773E-02 -3.2794631E+00
  0.000E+00  9.004E-01  1.995E+00 6.4624678E+00 3.3190645E-01 -3.3317453E+00
  4.318E-02  9.253E-01  1.997E+00 6.4415479E+00 2.4368800E-01 -3.2711290E+00
  0.000E+00  8.510E-01  1.989E+00 6.5307058E+00 4.9896097E-01 -3.3117925E+00
  4.318E-02  8.757E-01  1.992E+00 6.4940081E+00 4.0686435E-01 -3.2551154E+00
  0.000E+00  8.019E-01  1.980E+00 6.6294096E+00 6.6596688E-01 -3.2843630E+00
  4.318E-02  8.264E-01  1.985E+00 6.5768493E+00 5.7079629E-01 -3.2320258E+00
  0.000E+00  7.532E-01  1.969E+00 6.7373931E+00 8.2960076E-01 -3.2477308E+00
  4.318E-02  7.775E-01  1.975E+00 6.6831276E+00 7.3323947E-01 -3.2009531E+00
  0.000E+00  7.052E-01  1.956E+00 6.8261072E+00 9.8731043E-01 -3.2003148E+00
  4.318E-02  7.292E-01  1.963E+00 6.7860281E+00 8.9063627E-01 -3.1597244E+00
  0.000E+00  6.580E-01  1.940E+00 6.9022062E+00 1.1429095E+00 -3.1454141E+00
  4.318E-02  6.815E-01  1.948E+00 6.8629037E+00 1.0433088E+00 -3.1089662E+00
  0.000E+00  6.116E-01  1.921E+00 7.0603193E+00 1.3002437E+00 -3.0860846E+00
  4.318E-02  6.347E-01  1.931E+00 6.9687502E+00 1.1966687E+00 -3.0530642E+00
  0.000E+00  5.661E-01  1.901E+00 7.1927266E+00 1.4543465E+00 -3.0186264E+00
  4.318E-02  5.887E-01  1.912E+00 7.1406099E+00 1.3501292E+00 -2.9916114E+00
  0.000E+00  5.217E-01  1.878E+00 7.2468727E+00 1.6017365E+00 -2.9412330E+00
  4.318E-02  5.438E-01  1.890E+00 7.2299575E+00 1.4976273E+00 -2.9203633E+00
  0.000E+00  4.786E-01  1.853E+00 7.4062568E+00 1.7461196E+00 -2.8576919E+00
  4.318E-02  5.000E-01  1.866E+00 7.3073049E+00 1.6401149E+00 -2.8411503E+00
  0.000E+00  4.367E-01  1.826E+00 7.4514722E+00 1.8869454E+00 -2.7675398E+00
  4.318E-02  4.575E-01  1.840E+00 7.4531040E+00 1.7802641E+00 -2.7564223E+00
  0.000E+00  3.962E-01  1.797E+00 7.5395480E+00 2.0222926E+00 -2.6697961E+00
  4.318E-02  4.163E-01  1.812E+00 7.4765590E+00 1.9155137E+00 -2.6642464E+00
  0.000E+00  3.572E-01  1.766E+00 7.5937356E+00 2.1529003E+00 -2.5657297E+00
  4.318E-02  3.765E-01  1.782E+00 7.5706009E+00 2.0457572E+00 -2.5653197E+00
  0.000E+00  3.198E-01  1.733E+00 7.5959257E+00 2.2781251E+00 -2.4552229E+00
  4.318E-02  3.383E-01  1.750E+00 7.5829572E+00 2.1711915E+00 -2.4602460E+00
  0.000E+00  2.841E-01  1.698E+00 7.6293456E+00 2.3976346E+00 -2.3385881E+00
  4.318E-02  3.018E-01  1.716E+00 7.6293654E+00 2.2910593E+00 -2.3489020E+00
  0.000E+00  2.502E-01  1.662E+00 7.5829354E+00 2.5112877E+00 -2.2162316E+00
  4.318E-02  2.669E-01  1.680E+00 7.5959438E+00 2.4053257E+00 -2.2318221E+00
  0.000E+00  2.182E-01  1.623E+00 7.5705772E+00 2.6185400E+00 -2.0881957E+00
  4.318E-02  2.340E-01  1.643E+00 7.5937519E+00 2.5135825E+00 -2.1091416E+00
  0.000E+00  1.881E-01  1.584E+00 7.4765336E+00 2.7195233E+00 -1.9552509E+00
  4.318E-02  2.029E-01  1.604E+00 7.5395625E+00 2.6155377E+00 -1.9811895E+00
  0.000E+00  1.600E-01  1.543E+00 7.4530767E+00 2.8136043E+00 -1.8171963E+00
  4.318E-02  1.738E-01  1.563E+00 7.4514842E+00 2.7112920E+00 -1.8485932E+00
  0.000E+00  1.340E-01  1.500E+00 7.3072753E+00 2.9000984E+00 -1.6741390E+00
  4.318E-02  1.467E-01  1.521E+00 7.4062652E+00 2.7996094E+00 -1.7106289E+00
  0.000E+00  1.101E-01  1.456E+00 7.2299273E+00 2.9809542E+00 -1.5286953E+00
  4.318E-02  1.218E-01  1.478E+00 7.2468783E+00 2.8814620E+00 -1.5691801E+00
  0.000E+00  8.849E-02  1.411E+00 7.1405784E+00 3.0536719E+00 -1.3781366E+00
  4.318E-02  9.903E-02  1.434E+00 7.1927308E+00 2.9572723E+00 -1.4247873E+00
  0.000E+00  6.913E-02  1.365E+00 6.9687158E+00 3.1164085E+00 -1.2214918E+00
  4.318E-02  7.852E-02  1.388E+00 7.0603224E+00 3.0233609E+00 -1.2738172E+00
  0.000E+00  5.207E-02  1.318E+00 6.8628675E+00 3.1734712E+00 -1.0649505E+00
  4.318E-02  6.031E-02  1.342E+00 6.9022087E+00 3.0814931E+00 -1.1196795E+00
  0.000E+00  3.738E-02  1.271E+00 6.7859931E+00 3.2252773E+00 -9.0911213E-01
  4.318E-02  4.443E-02  1.295E+00 6.8261091E+00 3.1352709E+00 -9.6724025E-01
  0.000E+00  2.507E-02  1.223E+00 6.6830941E+00 3.2673625E+00 -7.4845104E-01
  4.318E-02  3.092E-02  1.247E+00 6.7373947E+00 3.1817198E+00 -8.1273561E-01
  0.000E+00  1.519E-02  1.174E+00 6.5768158E+00 3.2990818E+00 -5.8263734E-01
  4.318E-02  1.983E-02  1.198E+00 6.6294093E+00 3.2176096E+00 -6.5242913E-01
  0.000E+00  7.761E-03  1.124E+00 6.4939738E+00 3.3226493E+00 -4.1530314E-01
  4.318E-02  1.117E-02  1.149E+00 6.5307033E+00 3.2444824E+00 -4.8881845E-01
  0.000E+00  2.796E-03  1.075E+00 6.4415149E+00 3.3389954E+00 -2.4874044E-01
  4.318E-02  4.969E-03  1.100E+00 6.4624653E+00 3.2640294E+00 -3.2515892E-01
  0.000E+00  3.108E-04  1.025E+00 6.4169682E+00 3.3475036E+00 -8.2850752E-02
  4.318E-02  1.243E-03  1.050E+00 6.4265429E+00 3.2763050E+00 -1.6237346E-01
  0.000E+00  3.108E-04  9.751E-01 6.4169688E+00 3.3475025E+00 8.2853611E-02
  4.318E-02  0.000E+00  1.000E+00 6.4158290E+00 3.2805388E+00 1.5715024E-06
  0.000E+00  2.796E-03  9.253E-01 6.4415165E+00 3.3389919E+00 2.4874328E-01
  4.318E-02  1.243E-03  9.502E-01 6.4265439E+00 3.2763027E+00 1.6237659E-01
  0.000E+00  7.761E-03  8.757E-01 6.4939765E+00 3.3226438E+00 4.1530594E-01
  4.318E-02  4.969E-03  9.004E-01 6.4624673E+00 3.2640245E+00 3.2516201E-01
  0.000E+00  1.519E-02  8.264E-01 6.5768195E+00 3.2990787E+00 5.8264007E-01
  4.318E-02  1.117E-02  8.510E-01 6.5307064E+00 3.2444773E+00 4.8882148E-01
  0.000E+00  2.507E-02  7.775E-01 6.6830988E+00 3.2673674E+00 7.4845371E-01
  4.318E-02  1.983E-02  8.019E-01 6.6294133E+00 3.2176102E+00 6.5243210E-01
  0.000E+00  3.738E-02  7.292E-01 6.7859987E+00 3.2252819E+00 9.0911468E-01
  4.318E-02  3.092E-02  7.532E-01 6.7373997E+00 3.1817263E+00 8.1273843E-01
  0.000E+00  5.207E-02  6.815E-01 6.8628739E+00 3.1734593E+00 1.0649529E+00
  4.318E-02  4.443E-02  7.052E-01 6.8261151E+00 3.1352681E+00 9.6724295E-01
  0.000E+00  6.913E-02  6.347E-01 6.9687231E+00 3.1163984E+00 1.2214941E+00
  4.318E-02  6.031E-02  6.580E-01 6.9022155E+00 3.0814770E+00 1.1196820E+00
  0.000E+00  8.849E-02  5.887E-01 7.1405862E+00 3.0536833E+00 1.3781389E+00
  4.318E-02  7.852E-02  6.116E-01 7.0603302E+00 3.0233639E+00 1.2738198E+00
  0.000E+00  1.101E-01  5.438E-01 7.2299361E+00 2.9809479E+00 1.5286972E+00
  4.318E-02  9.903E-02  5.661E-01 7.1927393E+00 2.9572789E+00 1.4247896E+00
  0.000E+00  1.340E-01  5.000E-01 7.3072848E+00 2.9000881E+00 1.6741407E+00
  4.318E-02  1.218E-01  5.217E-01 7.2468875E+00 2.8814466E+00 1.5691820E+00
  0.000E+00  1.600E-01  4.575E-01 7.4530868E+00 2.8136119E+00 1.8171982E+00
  4.318E-02  1.467E-01  4.786E-01 7.4062751E+00 2.7996120E+00 1.7106310E+00
  0.000E+00  1.881E-01  4.163E-01 7.4765444E+00 2.7195161E+00 1.9552522E+00
  4.318E-02  1.738E-01  4.367E-01 7.4514946E+00 2.7112919E+00 1.8485949E+00
  0.000E+00  2.182E-01  3.765E-01 7.5705885E+00 2.6185409E+00 2.0881972E+00
  4.318E-02  2.029E-01  3.962E-01 7.5395734E+00 2.6155324E+00 1.9811911E+00
  0.000E+00  2.502E-01  3.383E-01 7.5829471E+00 2.5112863E+00 2.2162327E+00
  4.318E-02  2.340E-01  3.572E-01 7.5937633E+00 2.5135849E+00 2.1091431E+00
  0.000E+00  2.841E-01  3.018E-01 7.6293576E+00 2.3976327E+00 2.3385891E+00
  4.318E-02  2.669E-01  3.198E-01 7.5959557E+00 2.4053215E+00 2.2318232E+00
  0.000E+00  3.198E-01  2.669E-01 7.5959380E+00 2.2781245E+00 2.4552238E+00
  4.318E-02  3.018E-01  2.841E-01 7.6293777E+00 2.2910599E+00 2.3489031E+00
  0.000E+00  3.572E-01  2.340E-01 7.5937486E+00 2.1528985E+00 2.5657305E+00
  4.318E-02  3.383E-01  2.502E-01 7.5829696E+00 2.1711888E+00 2.4602467E+00
  0.000E+00  3.962E-01  2.029E-01 7.5395615E+00 2.0222918E+00 2.6697968E+00
  4.318E-02  3.765E-01  2.182E-01 7.5706133E+00 2.0457557E+00 2.5653203E+00
  0.000E+00  4.367E-01  1.738E-01 7.4514855E+00 1.8869429E+00 2.7675400E+00
  4.318E-02  4.163E-01  1.881E-01 7.4765716E+00 1.9155114E+00 2.6642468E+00
  0.000E+00  4.786E-01  1.467E-01 7.4062693E+00 1.7461166E+00 2.8576916E+00
  4.318E-02  4.575E-01  1.600E-01 7.4531172E+00 1.7802633E+00 2.7564229E+00
  0.000E+00  5.217E-01  1.218E-01 7.2468845E+00 1.6017335E+00 2.9412326E+00
  4.318E-02  5.000E-01  1.340E-01 7.3073191E+00 1.6401140E+00 2.8411508E+00
  0.000E+00  5.661E-01  9.903E-02 7.1927387E+00 1.4543473E+00 3.0186266E+00
  4.318E-02  5.438E-01  1.101E-01 7.2299723E+00 1.4976262E+00 2.9203634E+00
  0.000E+00  6.116E-01  7.852E-02 7.0603332E+00 1.3002454E+00 3.0860855E+00
  4.318E-02  5.887E-01  8.849E-02 7.1406240E+00 1.3501264E+00 2.9916108E+00
  0.000E+00  6.580E-01  6.031E-02 6.9022226E+00 1.1429101E+00 3.1454149E+00
  4.318E-02  6.347E-01  6.913E-02 6.9687622E+00 1.1966655E+00 3.0530632E+00
  0.000E+00  7.052E-01  4.443E-02 6.8261246E+00 9.8730739E-01 3.2003145E+00
  4.318E-02  6.815E-01  5.207E-02 6.8629141E+00 1.0433081E+00 3.1089655E+00
  0.000E+00  7.532E-01  3.092E-02 6.7374091E+00 8.2959628E-01 3.2477295E+00
  4.318E-02  7.292E-01  3.738E-02 6.7860390E+00 8.9063730E-01 3.1597244E+00
  0.000E+00  8.019E-01  1.983E-02 6.6294230E+00 6.6596386E-01 3.2843612E+00
  4.318E-02  7.775E-01  2.507E-02 6.6831405E+00 7.3324060E-01 3.2009535E+00
  0.000E+00  8.510E-01  1.117E-02 6.5307175E+00 4.9896076E-01 3.3117909E+00
  4.318E-02  8.264E-01  1.519E-02 6.5768640E+00 5.7079593E-01 3.2320261E+00
  0.000E+00  9.004E-01  4.969E-03 6.4624793E+00 3.3190770E-01 3.3317440E+00
  4.318E-02  8.757E-01  7.761E-03 6.4940232E+00 4.0686340E-01 3.2551155E+00
  4.318E-02  9.253E-01  2.796E-03 6.4415625E+00 2.4368660E-01 3.2711289E+00
  1.000E+01  1.050E+00  1.243E-03 6.4265532E+00 -1.6574448E-01 3.3442729E+00
  1.000E+01  1.000E+00  5.551E-16 6.4158394E+00 6.8115152E-07 3.3485945E+00
  9.957E+00  1.025E+00  3.108E-04 6.4170110E+00 -8.4540205E-02 3.4157932E+00
  1.000E+01  9.502E-01  1.243E-03 6.4265547E+00 1.6574539E-01 3.3442729E+00
  9.957E+00  9.751E-01  3.108E-04 6.4170117E+00 8.4542938E-02 3.4157932E+00
  1.000E+01  9.004E-01  4.969E-03 6.4624793E+00 3.3190770E-01 3.3317440E+00
  9.957E+00  9.253E-01  2.796E-03 6.4415607E+00 2.5381616E-01 3.4071127E+00
  1.000E+01  8.510E-01  1.117E-02 6.5307175E+00 4.9896076E-01 3.3117909E+00
  9.957E+00  8.757E-01  7.761E-03 6.4940209E+00 4.2377813E-01 3.3904333E+00
  1.000E+01  8.019E-01  1.983E-02 6.6294230E+00 6.6596386E-01 3.2843612E+00
  9.957E+00  8.264E-01  1.519E-02 6.5768615E+00 5.9452678E-01 3.3663838E+00
  1.000E+01  7.532E-01  3.092E-02 6.7374091E+00 8.2959628E-01 3.2477295E+00
  9.957E+00  7.775E-01  2.507E-02 6.6831382E+00 7.6372283E-01 3.3340192E+00
  1.000E+01  7.052E-01  4.443E-02 6.8261246E+00 9.8730739E-01 3.2003145E+00
  9.957E+00  7.292E-01  3.738E-02 6.7860370E+00 9.2766072E-01 3.2910760E+00
  1.000E+01  6.580E-01  6.031E-02 6.9022226E+00 1.1429101E+00 3.1454149E+00
  9.957E+00  6.815E-01  5.207E-02 6.8629125E+00 1.0866780E+00 3.2382067E+00
  1.000E+01  6.116E-01  7.852E-02 7.0603332E+00 1.3002454E+00 3.0860855E+00
  9.957E+00  6.347E-01  6.913E-02 6.9687604E+00 1.2464120E+00 3.1799801E+00
  1.000E+01  5.661E-01  9.903E-02 7.1927387E+00 1.4543473E+00 3.0186266E+00
  9.957E+00  5.887E-01  8.849E-02 7.1406212E+00 1.4062518E+00 3.1159727E+00
  1.000E+01  5.217E-01  1.218E-01 7.2468845E+00 1.6017335E+00 2.9412326E+00
  9.957E+00  5.438E-01  1.101E-01 7.2299697E+00 1.5598829E+00 3.0417632E+00
  1.000E+01  4.786E-01  1.467E-01 7.4062693E+00 1.7461166E+00 2.8576916E+00
  9.957E+00  5.000E-01  1.340E-01 7.3073167E+00 1.7082948E+00 2.9592567E+00
  1.000E+01  4.367E-01  1.738E-01 7.4514855E+00 1.8869429E+00 2.7675400E+00
  9.957E+00  4.575E-01  1.600E-01 7.4531151E+00 1.8542707E+00 2.8710063E+00
  1.000E+01  3.962E-01  2.029E-01 7.5395615E+00 2.0222918E+00 2.6697968E+00
  9.957E+00  4.163E-01  1.881E-01 7.4765694E+00 1.9951403E+00 2.7749985E+00
  1.000E+01  3.572E-01  2.340E-01 7.5937486E+00 2.1528985E+00 2.5657305E+00
  9.957E+00  3.765E-01  2.182E-01 7.5706110E+00 2.1307975E+00 2.6719599E+00
  1.000E+01  3.198E-01  2.669E-01 7.5959380E+00 2.2781245E+00 2.4552238E+00
  9.957E+00  3.383E-01  2.502E-01 7.5829673E+00 2.2614447E+00 2.5625189E+00
  1.000E+01  2.841E-01  3.018E-01 7.6293576E+00 2.3976327E+00 2.3385891E+00
  9.957E+00  3.018E-01  2.841E-01 7.6293753E+00 2.3862987E+00 2.4465467E+00
  1.000E+01  2.502E-01  3.383E-01 7.5829471E+00 2.5112863E+00 2.2162327E+00
  9.957E+00  2.669E-01  3.198E-01 7.5959532E+00 2.5053103E+00 2.3245994E+00
  1.000E+01  2.182E-01  3.765E-01 7.5705885E+00 2.6185409E+00 2.0881972E+00
  9.957E+00  2.340E-01  3.572E-01 7.5937609E+00 2.6180748E+00 2.1968192E+00
  1.000E+01  1.881E-01  4.163E-01 7.4765444E+00 2.7195161E+00 1.9552522E+00
  9.957E+00  2.029E-01  3.962E-01 7.5395710E+00 2.7242611E+00 2.0635474E+00
  1.000E+01  1.600E-01  4.575E-01 7.4530868E+00 2.8136119E+00 1.8171982E+00
  9.957E+00  1.738E-01  4.367E-01 7.4514922E+00 2.8240022E+00 1.9254381E+00
  1.000E+01  1.340E-01  5.000E-01 7.3072848E+00 2.9000881E+00 1.6741407E+00
  9.957E+00  1.467E-01  4.786E-01 7.4062725E+00 2.9159940E+00 1.7817388E+00
  1.000E+01  1.101E-01  5.438E-01 7.2299361E+00 2.9809479E+00 1.5286972E+00
  9.957E+00  1.218E-01  5.217E-01 7.2468852E+00 3.0012305E+00 1.6344108E+00
  1.000E+01  8.849E-02  5.887E-01 7.1405862E+00 3.0536833E+00 1.3781389E+00
  9.957E+00  9.903E-02  5.661E-01 7.1927370E+00 3.0802150E+00 1.4840166E+00
  1.000E+01  6.913E-02  6.347E-01 6.9687231E+00 3.1163984E+00 1.2214941E+00
  9.957E+00  7.852E-02  6.116E-01 7.0603277E+00 3.1490474E+00 1.3267697E+00
  1.000E+01  5.207E-02  6.815E-01 6.8628739E+00 3.1734593E+00 1.0649529E+00
  9.957E+00  6.031E-02  6.580E-01 6.9022132E+00 3.2095767E+00 1.1662257E+00
  1.000E+01  3.738E-02  7.292E-01 6.7859987E+00 3.2252819E+00 9.0911468E-01
  9.957E+00  4.443E-02  7.052E-01 6.8261129E+00 3.2656042E+00 1.0074512E+00
  1.000E+01  2.507E-02  7.775E-01 6.6830988E+00 3.2673674E+00 7.4845371E-01
  9.957E+00  3.092E-02  7.532E-01 6.7373974E+00 3.3139938E+00 8.4652354E-01
  1.000E+01  1.519E-02  8.264E-01 6.5768195E+00 3.2990787E+00 5.8264007E-01
  9.957E+00  1.983E-02  8.019E-01 6.6294108E+00 3.3513696E+00 6.7955114E-01
  1.000E+01  7.761E-03  8.757E-01 6.4939765E+00 3.3226438E+00 4.1530594E-01
  9.957E+00  1.117E-02  8.510E-01 6.5307039E+00 3.3793539E+00 5.0913975E-01
  1.000E+01  2.796E-03  9.253E-01 6.4415165E+00 3.3389919E+00 2.4874328E-01
  9.957E+00  4.969E-03  9.004E-01 6.4624650E+00 3.3997141E+00 3.3867903E-01
  1.000E+01  3.108E-04  9.751E-01 6.4169688E+00 3.3475025E+00 8.2853611E-02
  9.957E+00  1.243E-03  9.502E-01 6.4265405E+00 3.4125019E+00 1.6912794E-01
  1.000E+01  3.108E-04  1.025E+00 6.4169682E+00 3.3475036E+00 -8.2850752E-02
  9.957E+00  0.000E+00  1.000E+00 6.4158267E+00 3.4169151E+00 1.2783186E-06
  1.000E+01  2.796E-03  1.075E+00 6.4415149E+00 3.3389954E+00 -2.4874044E-01
  9.957E+00  1.243E-03  1.050E+00 6.4265395E+00 3.4125042E+00 -1.6912540E-01
  1.000E+01  7.761E-03  1.124E+00 6.4939738E+00 3.3226493E+00 -4.1530314E-01
  9.957E+00  4.969E-03  1.100E+00 6.4624629E+00 3.3997191E+00 -3.3867652E-01
  1.000E+01  1.519E-02  1.174E+00 6.5768158E+00 3.2990818E+00 -5.8263734E-01
  9.957E+00  1.117E-02  1.149E+00 6.5307007E+00 3.3793591E+00 -5.0913729E-01
  1.000E+01  2.507E-02  1.223E+00 6.6830941E+00 3.2673625E+00 -7.4845104E-01
  9.957E+00  1.983E-02  1.198E+00 6.6294066E+00 3.3513689E+00 -6.7954873E-01
  1.000E+01  3.738E-02  1.271E+00 6.7859931E+00 3.2252773E+00 -9.0911213E-01
  9.957E+00  3.092E-02  1.247E+00 6.7373922E+00 3.3139869E+00 -8.4652127E-01
  1.000E+01  5.207E-02  1.318E+00 6.8628675E+00 3.1734712E+00 -1.0649505E+00
  9.957E+00  4.443E-02  1.295E+00 6.8261068E+00 3.2656070E+00 -1.0074490E+00
  1.000E+01  6.913E-02  1.365E+00 6.9687158E+00 3.1164085E+00 -1.2214918E+00
  9.957E+00  6.031E-02  1.342E+00 6.9022062E+00 3.2095933E+00 -1.1662237E+00
  1.000E+01  8.849E-02  1.411E+00 7.1405784E+00 3.0536719E+00 -1.3781366E+00
  9.957E+00  7.852E-02  1.388E+00 7.0603200E+00 3.1490443E+00 -1.3267679E+00
  1.000E+01  1.101E-01  1.456E+00 7.2299273E+00 2.9809542E+00 -1.5286953E+00
  9.957E+00  9.903E-02  1.434E+00 7.1927285E+00 3.0802081E+00 -1.4840146E+00
  1.000E+01  1.340E-01  1.500E+00 7.3072753E+00 2.9000984E+00 -1.6741390E+00
  9.957E+00  1.218E-01  1.478E+00 7.2468758E+00 3.0012464E+00 -1.6344093E+00
  1.000E+01  1.600E-01  1.543E+00 7.4530767E+00 2.8136043E+00 -1.8171963E+00
  9.957E+00  1.467E-01  1.521E+00 7.4062624E+00 2.9159910E+00 -1.7817371E+00
  1.000E+01  1.881E-01  1.584E+00 7.4765336E+00 2.7195233E+00 -1.9552509E+00
  9.957E+00  1.738E-01  1.563E+00 7.4514816E+00 2.8240020E+00 -1.9254368E+00
  1.000E+01  2.182E-01  1.623E+00 7.5705772E+00 2.6185400E+00 -2.0881957E+00
  9.957E+00  2.029E-01  1.604E+00 7.5395599E+00 2.7242663E+00 -2.0635462E+00
  1.000E+01  2.502E-01  1.662E+00 7.5829354E+00 2.5112877E+00 -2.2162316E+00
  9.957E+00  2.340E-01  1.643E+00 7.5937493E+00 2.6180721E+00 -2.1968181E+00
  1.000E+01  2.841E-01  1.698E+00 7.6293456E+00 2.3976346E+00 -2.3385881E+00
  9.957E+00  2.669E-01  1.680E+00 7.5959411E+00 2.5053143E+00 -2.3245987E+00
  1.000E+01  3.198E-01  1.733E+00 7.5959257E+00 2.2781251E+00 -2.4552229E+00
  9.957E+00  3.018E-01  1.716E+00 7.6293628E+00 2.3862979E+00 -2.4465459E+00
  1.000E+01  3.572E-01  1.766E+00 7.5937356E+00 2.1529003E+00 -2.5657297E+00
  9.957E+00  3.383E-01  1.750E+00 7.5829547E+00 2.2614474E+00 -2.5625185E+00
  1.000E+01  3.962E-01  1.797E+00 7.5395480E+00 2.0222926E+00 -2.6697961E+00
  9.957E+00  3.765E-01  1.782E+00 7.5705982E+00 2.1307989E+00 -2.6719596E+00
  1.000E+01  4.367E-01  1.826E+00 7.4514722E+00 1.8869454E+00 -2.7675398E+00
  9.957E+00  4.163E-01  1.812E+00 7.4765564E+00 1.9951424E+00 -2.7749983E+00
  1.000E+01  4.786E-01  1.853E+00 7.4062568E+00 1.7461196E+00 -2.8576919E+00
  9.957E+00  4.575E-01  1.840E+00 7.4531015E+00 1.8542712E+00 -2.8710059E+00
  1.000E+01  5.217E-01  1.878E+00 7.2468727E+00 1.6017365E+00 -2.9412330E+00
  9.957E+00  5.000E-01  1.866E+00 7.3073025E+00 1.7082954E+00 -2.9592564E+00
  1.000E+01  5.661E-01  1.901E+00 7.1927266E+00 1.4543465E+00 -3.0186264E+00
  9.957E+00  5.438E-01  1.890E+00 7.2299554E+00 1.5598840E+00 -3.0417632E+00
  1.000E+01  6.116E-01  1.921E+00 7.0603193E+00 1.3002437E+00 -3.0860846E+00
  9.957E+00  5.887E-01  1.912E+00 7.1406072E+00 1.4062548E+00 -3.1159731E+00
  1.000E+01  6.580E-01  1.940E+00 6.9022062E+00 1.1429095E+00 -3.1454141E+00
  9.957E+00  6.347E-01  1.931E+00 6.9687474E+00 1.2464156E+00 -3.1799810E+00
  1.000E+01  7.052E-01  1.956E+00 6.8261072E+00 9.8731043E-01 -3.2003148E+00
  9.957E+00  6.815E-01  1.948E+00 6.8629005E+00 1.0866788E+00 -3.2382074E+00
  1.000E+01  7.532E-01  1.969E+00 6.7373931E+00 8.2960076E-01 -3.2477308E+00
  9.957E+00  7.292E-01  1.963E+00 6.7860252E+00 9.2765936E-01 -3.2910761E+00
  1.000E+01  8.019E-01  1.980E+00 6.6294096E+00 6.6596688E-01 -3.2843630E+00
  9.957E+00  7.775E-01  1.975E+00 6.6831254E+00 7.6372112E-01 -3.3340190E+00
  1.000E+01  8.510E-01  1.989E+00 6.5307058E+00 4.9896097E-01 -3.3117925E+00
  9.957E+00  8.264E-01  1.985E+00 6.5768475E+00 5.9452672E-01 -3.3663836E+00
  1.000E+01  9.004E-01  1.995E+00 6.4624678E+00 3.3190645E-01 -3.3317453E+00
  9.957E+00  8.757E-01  1.992E+00 6.4940061E+00 4.2377898E-01 -3.3904332E+00
  1.000E+01  9.502E-01  1.999E+00 6.4265426E+00 1.6574457E-01 -3.3442740E+00
  9.957E+00  9.253E-01  1.997E+00 6.4415458E+00 2.5381765E-01 -3.4071129E+00
  1.000E+01  1.000E+00  2.000E+00 6.4158270E+00 4.4271340E-07 -3.3485955E+00
  9.957E+00  9.751E-01  2.000E+00 6.4169970E+00 8.4543416E-02 -3.4157935E+00
  1.000E+01  1.050E+00  1.999E+00 6.4265411E+00 -1.6574322E-01 -3.3442740E+00
  9.957E+00  1.025E+00  2.000E+00 6.4169963E+00 -8.4540803E-02 -3.4157935E+00
  1.000E+01  1.100E+00  1.995E+00 6.4624649E+00 -3.3190536E-01 -3.3317453E+00
  9.957E+00  1.075E+00  1.997E+00 6.4415437E+00 -2.5381475E-01 -3.4071129E+00
  1.000E+01  1.149E+00  1.989E+00 6.5307015E+00 -4.9895986E-01 -3.3117925E+00
  9.957E+00  1.124E+00  1.992E+00 6.4940026E+00 -4.2377652E-01 -3.3904333E+00
  1.000E+01  1.198E+00  1.980E+00 6.6294040E+00 -6.6596552E-01 -3.2843629E+00
  9.957E+00  1.174E+00  1.985E+00 6.5768426E+00 -5.9452383E-01 -3.3663837E+00