# TIME = 11.000000
VARIABLES = X, Y, Z, FX, FY, FZ
ZONE N=29232 E=58212 F=FEPOINT ET=TRIANGLE
  0.000E+00  9.502E-01  1.243E-03 1.0699179E+01 3.0227147E-01 6.1187351E+00
  0.000E+00  1.000E+00  0.000E+00 1.0688678E+01 1.6421517E-05 6.1261066E+00
  4.318E-02  9.751E-01  3.108E-04 1.0770267E+01 1.9125192E-01 7.7691730E+00
  0.000E+00  1.050E+00  1.243E-03 1.0699179E+01 -3.0227417E-01 6.1187432E+00
  4.318E-02  1.025E+00  3.108E-04 1.0770261E+01 -1.9123957E-01 7.7691769E+00
  0.000E+00  1.100E+00  4.969E-03 1.0735976E+01 -6.0634908E-01 6.0967741E+00
  4.318E-02  1.075E+00  2.796E-03 1.0796553E+01 -5.7488314E-01 7.7524852E+00
  0.000E+00  1.149E+00  1.117E-02 1.0810076E+01 -9.1288878E-01 6.0600030E+00
  4.318E-02  1.124E+00  7.761E-03 1.0855277E+01 -9.6238509E-01 7.7190059E+00
  0.000E+00  1.198E+00  1.983E-02 1.0920206E+01 -1.2188654E+00 6.0075592E+00
  4.318E-02  1.174E+00  1.519E-02 1.0949938E+01 -1.3534419E+00 7.6665536E+00
  0.000E+00  1.247E+00  3.092E-02 1.1035776E+01 -1.5172705E+00 5.9378969E+00
  4.318E-02  1.223E+00  2.507E-02 1.1068837E+01 -1.7402618E+00 7.5907724E+00
  0.000E+00  1.295E+00  4.443E-02 1.1112834E+01 -1.8049671E+00 5.8512758E+00
  4.318E-02  1.271E+00  3.738E-02 1.1171179E+01 -2.1120745E+00 7.4874887E+00
  0.000E+00  1.342E+00  6.031E-02 1.1160147E+01 -2.0905369E+00 5.7514187E+00
  4.318E-02  1.318E+00  5.207E-02 1.1223280E+01 -2.4718955E+00 7.3628839E+00
  0.000E+00  1.388E+00  7.852E-02 1.1338870E+01 -2.3784570E+00 5.6392022E+00
  4.318E-02  1.365E+00  6.913E-02 1.1314318E+01 -2.8356037E+00 7.2283758E+00
  0.000E+00  1.434E+00  9.903E-02 1.1487598E+01 -2.6588004E+00 5.5143871E+00
  4.318E-02  1.411E+00  8.849E-02 1.1520210E+01 -3.1991427E+00 7.0816185E+00
  0.000E+00  1.478E+00  1.218E-01 1.1503488E+01 -2.9272818E+00 5.3727488E+00
  4.318E-02  1.456E+00  1.101E-01 1.1599894E+01 -3.5465885E+00 6.9110848E+00
  0.000E+00  1.521E+00  1.467E-01 1.1691909E+01 -3.1890433E+00 5.2160322E+00
  4.318E-02  1.500E+00  1.340E-01 1.1651989E+01 -3.8820066E+00 6.7199437E+00
  0.000E+00  1.563E+00  1.738E-01 1.1724651E+01 -3.4463377E+00 5.0532364E+00
  4.318E-02  1.543E+00  1.600E-01 1.1830618E+01 -4.2121025E+00 6.5184351E+00
  0.000E+00  1.604E+00  2.029E-01 1.1809612E+01 -3.6910805E+00 4.8719134E+00
  4.318E-02  1.584E+00  1.881E-01 1.1821377E+01 -4.5305729E+00 6.2990891E+00
  0.000E+00  1.643E+00  2.340E-01 1.1877780E+01 -3.9296397E+00 4.6837773E+00
  4.318E-02  1.623E+00  2.182E-01 1.1936490E+01 -4.8369497E+00 6.0645643E+00
  0.000E+00  1.680E+00  2.669E-01 1.1857325E+01 -4.1576081E+00 4.4816597E+00
  4.318E-02  1.662E+00  2.502E-01 1.1931144E+01 -5.1326855E+00 5.8167450E+00
  0.000E+00  1.716E+00  3.018E-01 1.1912626E+01 -4.3757329E+00 4.2703379E+00
  4.318E-02  1.698E+00  2.841E-01 1.1998467E+01 -5.4161461E+00 5.5543346E+00
  0.000E+00  1.750E+00  3.383E-01 1.1846355E+01 -4.5841737E+00 4.0479524E+00
  4.318E-02  1.733E+00  3.198E-01 1.1943061E+01 -5.6856119E+00 5.2784793E+00
  0.000E+00  1.782E+00  3.765E-01 1.1851510E+01 -4.7800617E+00 3.8156789E+00
  4.318E-02  1.766E+00  3.572E-01 1.1964866E+01 -5.9440716E+00 4.9912380E+00
  0.000E+00  1.812E+00  4.163E-01 1.1737743E+01 -4.9675865E+00 3.5751666E+00
  4.318E-02  1.797E+00  3.962E-01 1.1897033E+01 -6.1850458E+00 4.6897948E+00
  0.000E+00  1.840E+00  4.575E-01 1.1745929E+01 -5.1399212E+00 3.3239946E+00
  4.318E-02  1.826E+00  4.367E-01 1.1812630E+01 -6.4164285E+00 4.3795407E+00
  0.000E+00  1.866E+00  5.000E-01 1.1568814E+01 -5.3011369E+00 3.0645072E+00
  4.318E-02  1.853E+00  4.786E-01 1.1781102E+01 -6.6264368E+00 4.0544900E+00
  0.000E+00  1.890E+00  5.438E-01 1.1516145E+01 -5.4523896E+00 2.7998994E+00
  4.318E-02  1.878E+00  5.217E-01 1.1592160E+01 -6.8247378E+00 3.7217320E+00
  0.000E+00  1.912E+00  5.887E-01 1.1436471E+01 -5.5864838E+00 2.5259552E+00
  4.318E-02  1.901E+00  5.661E-01 1.1578848E+01 -7.0095052E+00 3.3825347E+00
  0.000E+00  1.931E+00  6.347E-01 1.1233160E+01 -5.7061525E+00 2.2401448E+00
  4.318E-02  1.921E+00  6.116E-01 1.1429520E+01 -7.1687034E+00 3.0255639E+00
  0.000E+00  1.948E+00  6.815E-01 1.1141278E+01 -5.8131652E+00 1.9523411E+00
  4.318E-02  1.940E+00  6.580E-01 1.1250139E+01 -7.3094269E+00 2.6592272E+00
  0.000E+00  1.963E+00  7.292E-01 1.1086465E+01 -5.9079337E+00 1.6664997E+00
  4.318E-02  1.956E+00  7.052E-01 1.1206465E+01 -7.4410703E+00 2.2982365E+00
  0.000E+00  1.975E+00  7.775E-01 1.0983525E+01 -5.9868260E+00 1.3728491E+00
  4.318E-02  1.969E+00  7.532E-01 1.1132369E+01 -7.5574521E+00 1.9330385E+00
  0.000E+00  1.985E+00  8.264E-01 1.0867025E+01 -6.0475419E+00 1.0687382E+00
  4.318E-02  1.980E+00  8.019E-01 1.1016179E+01 -7.6466474E+00 1.5511529E+00
  0.000E+00  1.992E+00  8.757E-01 1.0775813E+01 -6.0916888E+00 7.6093327E-01
  4.318E-02  1.989E+00  8.510E-01 1.0902926E+01 -7.7093501E+00 1.1597313E+00
  0.000E+00  1.997E+00  9.253E-01 1.0719577E+01 -6.1206140E+00 4.5496222E-01
  4.318E-02  1.995E+00  9.004E-01 1.0825794E+01 -7.7506141E+00 7.6909529E-01
  0.000E+00  2.000E+00  9.751E-01 1.0694361E+01 -6.1350877E+00 1.5138414E-01
  4.318E-02  1.999E+00  9.502E-01 1.0787216E+01 -7.7747189E+00 3.8316454E-01
  0.000E+00  2.000E+00  1.025E+00 1.0694355E+01 -6.1350631E+00 -1.5142192E-01
  4.318E-02  2.000E+00  1.000E+00 1.0776140E+01 -7.7827601E+00 -2.2624333E-05
  0.000E+00  1.997E+00  1.075E+00 1.0719557E+01 -6.1205448E+00 -4.5499546E-01
  4.318E-02  1.999E+00  1.050E+00 1.0787203E+01 -7.7746170E+00 -3.8320598E-01
  0.000E+00  1.992E+00  1.124E+00 1.0775777E+01 -6.0915940E+00 -7.6095818E-01
  4.318E-02  1.995E+00  1.100E+00 1.0825768E+01 -7.7504143E+00 -7.6912602E-01
  0.000E+00  1.985E+00  1.174E+00 1.0866973E+01 -6.0474501E+00 -1.0687509E+00
  4.318E-02  1.989E+00  1.149E+00 1.0902887E+01 -7.7090914E+00 -1.1597466E+00
  0.000E+00  1.975E+00  1.223E+00 1.0983456E+01 -5.9867345E+00 -1.3728432E+00
  4.318E-02  1.980E+00  1.198E+00 1.1016121E+01 -7.6464135E+00 -1.5511496E+00
  0.000E+00  1.963E+00  1.271E+00 1.1086389E+01 -5.9077598E+00 -1.6664672E+00
  4.318E-02  1.969E+00  1.247E+00 1.1132293E+01 -7.5572821E+00 -1.9330116E+00
  0.000E+00  1.948E+00  1.318E+00 1.1141202E+01 -5.8128461E+00 -1.9522821E+00
  4.318E-02  1.956E+00  1.295E+00 1.1206382E+01 -7.4408448E+00 -2.2981783E+00
  0.000E+00  1.931E+00  1.365E+00 1.1233080E+01 -5.7058503E+00 -2.2400703E+00
  4.318E-02  1.940E+00  1.342E+00 1.1250065E+01 -7.3090417E+00 -2.6591380E+00
  0.000E+00  1.912E+00  1.411E+00 1.1436382E+01 -5.5863163E+00 -2.5258708E+00
  4.318E-02  1.921E+00  1.388E+00 1.1429446E+01 -7.1683820E+00 -3.0254570E+00
  0.000E+00  1.890E+00  1.456E+00 1.1516058E+01 -5.4521890E+00 -2.7998019E+00
  4.318E-02  1.901E+00  1.434E+00 1.1578766E+01 -7.0092872E+00 -3.3824146E+00
  0.000E+00  1.866E+00  1.500E+00 1.1568721E+01 -5.3009146E+00 -3.0643929E+00
  4.318E-02  1.878E+00  1.478E+00 1.1592078E+01 -6.8244125E+00 -3.7215893E+00
  0.000E+00  1.840E+00  1.543E+00 1.1745827E+01 -5.1397114E+00 -3.3238585E+00
  4.318E-02  1.853E+00  1.521E+00 1.1781005E+01 -6.6261404E+00 -4.0543267E+00
  0.000E+00  1.812E+00  1.584E+00 1.1737642E+01 -4.9673039E+00 -3.5750046E+00
  4.318E-02  1.826E+00  1.563E+00 1.1812528E+01 -6.4161461E+00 -4.3793507E+00
  0.000E+00  1.782E+00  1.623E+00 1.1851407E+01 -4.7798315E+00 -3.8155016E+00
  4.318E-02  1.797E+00  1.604E+00 1.1896940E+01 -6.1847314E+00 -4.6895799E+00
  0.000E+00  1.750E+00  1.662E+00 1.1846248E+01 -4.5839696E+00 -4.0477580E+00
  4.318E-02  1.766E+00  1.643E+00 1.1964768E+01 -5.9437877E+00 -4.9910039E+00
  0.000E+00  1.716E+00  1.698E+00 1.1912510E+01 -4.3754897E+00 -4.2701187E+00
  4.318E-02  1.733E+00  1.680E+00 1.1942949E+01 -5.6853088E+00 -5.2782197E+00
  0.000E+00  1.680E+00  1.733E+00 1.1857211E+01 -4.1573503E+00 -4.4814164E+00
  4.318E-02  1.698E+00  1.716E+00 1.1998352E+01 -5.4158595E+00 -5.5540487E+00
  0.000E+00  1.643E+00  1.766E+00 1.1877662E+01 -3.9294250E+00 -4.6835165E+00
  4.318E-02  1.662E+00  1.750E+00 1.1931035E+01 -5.1323939E+00 -5.8164305E+00
  0.000E+00  1.604E+00  1.797E+00 1.1809486E+01 -3.6908685E+00 -4.8716301E+00
  4.318E-02  1.623E+00  1.782E+00 1.1936369E+01 -4.8366652E+00 -6.0642278E+00
  0.000E+00  1.563E+00  1.826E+00 1.1724521E+01 -3.4460930E+00 -5.0529284E+00
  4.318E-02  1.584E+00  1.812E+00 1.1821247E+01 -4.5303009E+00 -6.2987271E+00
  0.000E+00  1.521E+00  1.853E+00 1.1691778E+01 -3.1888460E+00 -5.2157056E+00
  4.318E-02  1.543E+00  1.840E+00 1.1830500E+01 -4.2118487E+00 -6.5180548E+00
  0.000E+00  1.478E+00  1.878E+00 1.1503350E+01 -2.9270951E+00 -5.3724034E+00
  4.318E-02  1.500E+00  1.866E+00 1.1651858E+01 -3.8817609E+00 -6.7195406E+00
  0.000E+00  1.434E+00  1.901E+00 1.1487459E+01 -2.6586006E+00 -5.5140226E+00
  4.318E-02  1.456E+00  1.890E+00 1.1599752E+01 -3.5463642E+00 -6.9106598E+00
  0.000E+00  1.388E+00  1.921E+00 1.1338732E+01 -2.3783141E+00 -5.6388246E+00
  4.318E-02  1.411E+00  1.912E+00 1.1520079E+01 -3.1989327E+00 -7.0811722E+00
  0.000E+00  1.342E+00  1.940E+00 1.1160004E+01 -2.0903908E+00 -5.7510258E+00
  4.318E-02  1.365E+00  1.931E+00 1.1314172E+01 -2.8354096E+00 -7.2279110E+00
  0.000E+00  1.295E+00  1.956E+00 1.1112693E+01 -1.8048222E+00 -5.8508675E+00
  4.318E-02  1.318E+00  1.948E+00 1.1223131E+01 -2.4717312E+00 -7.3624018E+00
  0.000E+00  1.247E+00  1.969E+00 1.1035629E+01 -1.5171733E+00 -5.9374753E+00
  4.318E-02  1.271E+00  1.963E+00 1.1171035E+01 -2.1119302E+00 -7.4869914E+00
  0.000E+00  1.198E+00  1.980E+00 1.0920055E+01 -1.2187524E+00 -6.0071252E+00
  4.318E-02  1.223E+00  1.975E+00 1.1068679E+01 -1.7401451E+00 -7.5902628E+00
  0.000E+00  1.149E+00  1.989E+00 1.0809926E+01 -9.1282558E-01 -6.0595618E+00
  4.318E-02  1.174E+00  1.985E+00 1.0949793E+01 -1.3533538E+00 -7.6660355E+00
  0.000E+00  1.100E+00  1.995E+00 1.0735821E+01 -6.0631001E-01 -6.0963287E+00
  4.318E-02  1.124E+00  1.992E+00 1.0855128E+01 -9.6231758E-01 -7.7184819E+00
  0.000E+00  1.050E+00  1.999E+00 1.0699028E+01 -3.0223789E-01 -6.1182956E+00
  4.318E-02  1.075E+00  1.997E+00 1.0796401E+01 -5.7484705E-01 -7.7519576E+00
  0.000E+00  1.000E+00  2.000E+00 1.0688525E+01 -4.9342999E-06 -6.1256595E+00
  4.318E-02  1.025E+00  2.000E+00 1.0770118E+01 -1.9122700E-01 -7.7686477E+00
  0.000E+00  9.502E-01  1.999E+00 1.0699025E+01 3.0226291E-01 -6.1182902E+00
  4.318E-02  9.751E-01  2.000E+00 1.0770111E+01 1.9123737E-01 -7.7686444E+00
  0.000E+00  9.004E-01  1.995E+00 1.0735821E+01 6.0631314E-01 -6.0963176E+00
  4.318E-02  9.253E-01  1.997E+00 1.0796403E+01 5.7485347E-01 -7.7519483E+00
  0.000E+00  8.510E-01  1.989E+00 1.0809919E+01 9.1282572E-01 -6.0595454E+00
  4.318E-02  8.757E-01  1.992E+00 1.0855124E+01 9.6232809E-01 -7.7184663E+00
  0.000E+00  8.019E-01  1.980E+00 1.0920051E+01 1.2187749E+00 -6.0071042E+00
  4.318E-02  8.264E-01  1.985E+00 1.0949783E+01 1.3533572E+00 -7.6660139E+00
  0.000E+00  7.532E-01  1.969E+00 1.1035622E+01 1.5171559E+00 -5.9374484E+00
  4.318E-02  7.775E-01  1.975E+00 1.1068680E+01 1.7401485E+00 -7.5902356E+00
  0.000E+00  7.052E-01  1.956E+00 1.1112682E+01 1.8048347E+00 -5.8508374E+00
  4.318E-02  7.292E-01  1.963E+00 1.1171021E+01 2.1119320E+00 -7.4869587E+00
  0.000E+00  6.580E-01  1.940E+00 1.1159997E+01 2.0903893E+00 -5.7509911E+00
  4.318E-02  6.815E-01  1.948E+00 1.1223125E+01 2.4717241E+00 -7.3623646E+00
  0.000E+00  6.116E-01  1.921E+00 1.1338720E+01 2.3782904E+00 -5.6387855E+00
  4.318E-02  6.347E-01  1.931E+00 1.1314166E+01 2.8354051E+00 -7.2278692E+00
  0.000E+00  5.661E-01  1.901E+00 1.1487447E+01 2.6586105E+00 -5.5139823E+00
  4.318E-02  5.887E-01  1.912E+00 1.1520060E+01 3.1989200E+00 -7.0811266E+00
  0.000E+00  5.217E-01  1.878E+00 1.1503340E+01 2.9270699E+00 -5.3723585E+00
  4.318E-02  5.438E-01  1.890E+00 1.1599747E+01 3.5463452E+00 -6.9106113E+00
  0.000E+00  4.786E-01  1.853E+00 1.1691762E+01 3.1888136E+00 -5.2156588E+00
  4.318E-02  5.000E-01  1.866E+00 1.1651846E+01 3.8817431E+00 -6.7194899E+00
  0.000E+00  4.367E-01  1.826E+00 1.1724507E+01 3.4460945E+00 -5.0528826E+00
  4.318E-02  4.575E-01  1.840E+00 1.1830480E+01 4.2118229E+00 -6.5180045E+00
  0.000E+00  3.962E-01  1.797E+00 1.1809474E+01 3.6908264E+00 -4.8715799E+00
  4.318E-02  4.163E-01  1.812E+00 1.1821239E+01 4.5302730E+00 -6.2986778E+00
  0.000E+00  3.572E-01  1.766E+00 1.1877644E+01 3.9293751E+00 -4.6834657E+00
  4.318E-02  3.765E-01  1.782E+00 1.1936355E+01 4.8366346E+00 -6.0641771E+00
  0.000E+00  3.198E-01  1.733E+00 1.1857194E+01 4.1573340E+00 -4.4813699E+00
  4.318E-02  3.383E-01  1.750E+00 1.1931012E+01 5.1323576E+00 -5.8163811E+00
  0.000E+00  2.841E-01  1.698E+00 1.1912498E+01 4.3754513E+00 -4.2700706E+00
  4.318E-02  3.018E-01  1.716E+00 1.1998341E+01 5.4158098E+00 -5.5540009E+00
  0.000E+00  2.502E-01  1.662E+00 1.1846233E+01 4.5838906E+00 -4.0477084E+00
  4.318E-02  2.669E-01  1.680E+00 1.1942939E+01 5.6852706E+00 -5.2781732E+00
  0.000E+00  2.182E-01  1.623E+00 1.1851391E+01 4.7797738E+00 -3.8154580E+00
  4.318E-02  2.340E-01  1.643E+00 1.1964748E+01 5.9437274E+00 -4.9909613E+00
  0.000E+00  1.881E-01  1.584E+00 1.1737629E+01 4.9672991E+00 -3.5749688E+00
  4.318E-02  2.029E-01  1.604E+00 1.1896920E+01 6.1847018E+00 -4.6895465E+00
  0.000E+00  1.600E-01  1.543E+00 1.1745820E+01 5.1396360E+00 -3.3238202E+00
  4.318E-02  1.738E-01  1.563E+00 1.1812522E+01 6.4160855E+00 -4.3793200E+00
  0.000E+00  1.340E-01  1.500E+00 1.1568712E+01 5.3008565E+00 -3.0643554E+00
  4.318E-02  1.467E-01  1.521E+00 1.1781000E+01 6.6260983E+00 -4.0542971E+00
  0.000E+00  1.101E-01  1.456E+00 1.1516047E+01 5.4521159E+00 -2.7997701E+00
  4.318E-02  1.218E-01  1.478E+00 1.1592064E+01 6.8244064E+00 -3.7215656E+00
  0.000E+00  8.849E-02  1.411E+00 1.1436379E+01 5.5862186E+00 -2.5258468E+00
  4.318E-02  9.903E-02  1.434E+00 1.1578756E+01 7.0091822E+00 -3.3823949E+00
  0.000E+00  6.913E-02  1.365E+00 1.1233075E+01 5.7058985E+00 -2.2400570E+00
  4.318E-02  7.852E-02  1.388E+00 1.1429435E+01 7.1683939E+00 -3.0254487E+00
  0.000E+00  5.207E-02  1.318E+00 1.1141198E+01 5.8129241E+00 -1.9522727E+00
  4.318E-02  6.031E-02  1.342E+00 1.1250060E+01 7.3091322E+00 -2.6591357E+00
  0.000E+00  3.738E-02  1.271E+00 1.1086392E+01 5.9077067E+00 -1.6664490E+00
  4.318E-02  4.443E-02  1.295E+00 1.1206392E+01 7.4407916E+00 -2.2981670E+00
  0.000E+00  2.507E-02  1.223E+00 1.0983458E+01 5.9866150E+00 -1.3728145E+00
  4.318E-02  3.092E-02  1.247E+00 1.1132302E+01 7.5571919E+00 -1.9329893E+00
  0.000E+00  1.519E-02  1.174E+00 1.0866965E+01 6.0473487E+00 -1.0687183E+00
  4.318E-02  1.983E-02  1.198E+00 1.1016119E+01 7.6464081E+00 -1.5511220E+00
  0.000E+00  7.761E-03  1.124E+00 1.0775760E+01 6.0915149E+00 -7.6092625E-01
  4.318E-02  1.117E-02  1.149E+00 1.0902873E+01 7.7091339E+00 -1.1597170E+00
  0.000E+00  2.796E-03  1.075E+00 1.0719532E+01 6.1204606E+00 -4.5496604E-01
  4.318E-02  4.969E-03  1.100E+00 1.0825748E+01 7.7504223E+00 -7.6909484E-01
  0.000E+00  3.108E-04  1.025E+00 1.0694323E+01 6.1349556E+00 -1.5139665E-01
  4.318E-02  1.243E-03  1.050E+00 1.0787177E+01 7.7745523E+00 -3.8317541E-01
  0.000E+00  3.108E-04  9.751E-01 1.0694323E+01 6.1349529E+00 1.5140288E-01
  4.318E-02  0.000E+00  1.000E+00 1.0776108E+01 7.7826196E+00 2.9858009E-06
  0.000E+00  2.796E-03  9.253E-01 1.0719533E+01 6.1204572E+00 4.5497200E-01
  4.318E-02  1.243E-03  9.502E-01 1.0787178E+01 7.7745033E+00 3.8318018E-01
  0.000E+00  7.761E-03  8.757E-01 1.0775760E+01 6.0915293E+00 7.6093249E-01
  4.318E-02  4.969E-03  9.004E-01 1.0825750E+01 7.7503285E+00 7.6909675E-01
  0.000E+00  1.519E-02  8.264E-01 1.0866963E+01 6.0474085E+00 1.0687252E+00
  4.318E-02  1.117E-02  8.510E-01 1.0902876E+01 7.7090339E+00 1.1597167E+00
  0.000E+00  2.507E-02  7.775E-01 1.0983454E+01 5.9867160E+00 1.3728196E+00
  4.318E-02  1.983E-02  8.019E-01 1.1016117E+01 7.6463861E+00 1.5511222E+00
  0.000E+00  3.738E-02  7.292E-01 1.1086394E+01 5.9077640E+00 1.6664481E+00
  4.318E-02  3.092E-02  7.532E-01 1.1132295E+01 7.5572858E+00 1.9329898E+00
  0.000E+00  5.207E-02  6.815E-01 1.1141216E+01 5.8128729E+00 1.9522703E+00
  4.318E-02  4.443E-02  7.052E-01 1.1206391E+01 7.4408781E+00 2.2981649E+00
  0.000E+00  6.913E-02  6.347E-01 1.1233101E+01 5.7058988E+00 2.2400681E+00
  4.318E-02  6.031E-02  6.580E-01 1.1250080E+01 7.3091039E+00 2.6591365E+00
  0.000E+00  8.849E-02  5.887E-01 1.1436411E+01 5.5863850E+00 2.5258801E+00
  4.318E-02  7.852E-02  6.116E-01 1.1429468E+01 7.1684725E+00 3.0254706E+00
  0.000E+00  1.101E-01  5.438E-01 1.1516095E+01 5.4522772E+00 2.7998242E+00
  4.318E-02  9.903E-02  5.661E-01 1.1578797E+01 7.0094050E+00 3.3824439E+00
  0.000E+00  1.340E-01  5.000E-01 1.1568764E+01 5.3010205E+00 3.0644311E+00
  4.318E-02  1.218E-01  5.217E-01 1.1592114E+01 6.8245504E+00 3.7216386E+00
  0.000E+00  1.600E-01  4.575E-01 1.1745877E+01 5.1398339E+00 3.3239130E+00
  4.318E-02  1.467E-01  4.786E-01 1.1781049E+01 6.6262983E+00 4.0543953E+00
  0.000E+00  1.881E-01  4.163E-01 1.1737700E+01 4.9674409E+00 3.5750780E+00
  4.318E-02  1.738E-01  4.367E-01 1.1812579E+01 6.4163211E+00 4.3794408E+00
  0.000E+00  2.182E-01  3.765E-01 1.1851472E+01 4.7799818E+00 3.8155948E+00
  4.318E-02  2.029E-01  3.962E-01 1.1896998E+01 6.1849206E+00 4.6896930E+00
  0.000E+00  2.502E-01  3.383E-01 1.1846319E+01 4.5841288E+00 4.0478724E+00
  4.318E-02  2.340E-01  3.572E-01 1.1964834E+01 5.9439887E+00 4.9911409E+00
  0.000E+00  2.841E-01  3.018E-01 1.1912589E+01 4.3756595E+00 4.2702553E+00
  4.318E-02  2.669E-01  3.198E-01 1.1943022E+01 5.6855191E+00 5.2783834E+00
  0.000E+00  3.198E-01  2.669E-01 1.1857295E+01 4.1575257E+00 4.4815760E+00
  4.318E-02  3.018E-01  2.841E-01 1.1998431E+01 5.4160774E+00 5.5542389E+00
  0.000E+00  3.572E-01  2.340E-01 1.1877753E+01 3.9296044E+00 4.6836991E+00
  4.318E-02  3.383E-01  2.502E-01 1.1931122E+01 5.1326171E+00 5.8166482E+00
  0.000E+00  3.962E-01  2.029E-01 1.1809583E+01 3.6910499E+00 4.8718370E+00
  4.318E-02  3.765E-01  2.182E-01 1.1936463E+01 4.8368919E+00 6.0644741E+00
  0.000E+00  4.367E-01  1.738E-01 1.1724625E+01 3.4462754E+00 5.0531598E+00
  4.318E-02  4.163E-01  1.881E-01 1.1821346E+01 4.5305261E+00 6.2990010E+00
  0.000E+00  4.786E-01  1.467E-01 1.1691889E+01 3.1890272E+00 5.2159614E+00
  4.318E-02  4.575E-01  1.600E-01 1.1830607E+01 4.2120677E+00 6.5183530E+00
  0.000E+00  5.217E-01  1.218E-01 1.1503466E+01 2.9272698E+00 5.3726827E+00
  4.318E-02  5.000E-01  1.340E-01 1.1651970E+01 3.8819720E+00 6.7198652E+00
  0.000E+00  5.661E-01  9.903E-02 1.1487581E+01 2.6587642E+00 5.5143238E+00
  4.318E-02  5.438E-01  1.101E-01 1.1599870E+01 3.5465691E+00 6.9110118E+00
  0.000E+00  6.116E-01  7.852E-02 1.1338857E+01 2.3784643E+00 5.6391469E+00
  4.318E-02  5.887E-01  8.849E-02 1.1520203E+01 3.1991286E+00 7.0815517E+00
  0.000E+00  6.580E-01  6.031E-02 1.1160131E+01 2.0905309E+00 5.7513692E+00
  4.318E-02  6.347E-01  6.913E-02 1.1314302E+01 2.8355919E+00 7.2283169E+00
  0.000E+00  7.052E-01  4.443E-02 1.1112825E+01 1.8049548E+00 5.8512322E+00
  4.318E-02  6.815E-01  5.207E-02 1.1223268E+01 2.4718950E+00 7.3628322E+00
  0.000E+00  7.532E-01  3.092E-02 1.1035766E+01 1.5172948E+00 5.9378608E+00
  4.318E-02  7.292E-01  3.738E-02 1.1171177E+01 2.1120732E+00 7.4874445E+00
  0.000E+00  8.019E-01  1.983E-02 1.0920197E+01 1.2188554E+00 6.0075285E+00
  4.318E-02  7.775E-01  2.507E-02 1.1068823E+01 1.7402659E+00 7.5907360E+00
  0.000E+00  8.510E-01  1.117E-02 1.0810072E+01 9.1290563E-01 6.0599798E+00
  4.318E-02  8.264E-01  1.519E-02 1.0949936E+01 1.3534521E+00 7.6665252E+00
  0.000E+00  9.004E-01  4.969E-03 1.0735970E+01 6.0636627E-01 6.0967584E+00
  4.318E-02  8.757E-01  7.761E-03 1.0855272E+01 9.6239297E-01 7.7189857E+00
  4.318E-02  9.253E-01  2.796E-03 1.0796546E+01 5.7489798E-01 7.7524731E+00
  1.000E+01  1.050E+00  1.243E-03 1.0699179E+01 -3.0227417E-01 6.1187432E+00
  1.000E+01  1.000E+00  5.551E-16 1.0688678E+01 1.6421517E-05 6.1261066E+00
  9.957E+00  1.025E+00  3.108E-04 1.0485363E+01 -1.1330082E-01 4.5878906E+00
  1.000E+01  9.502E-01  1.243E-03 1.0699179E+01 3.0227147E-01 6.1187351E+00
  9.957E+00  9.751E-01  3.108E-04 1.0485360E+01 1.1331927E-01 4.5878879E+00
  1.000E+01  9.004E-01  4.969E-03 1.0735970E+01 6.0636627E-01 6.0967584E+00
  9.957E+00  9.253E-01  2.796E-03 1.0509870E+01 3.4037702E-01 4.5764143E+00
  1.000E+01  8.510E-01  1.117E-02 1.0810072E+01 9.1290563E-01 6.0599798E+00
  9.957E+00  8.757E-01  7.761E-03 1.0564803E+01 5.6891610E-01 4.5535036E+00
  1.000E+01  8.019E-01  1.983E-02 1.0920197E+01 1.2188554E+00 6.0075285E+00
  9.957E+00  8.264E-01  1.519E-02 1.0654989E+01 7.9847481E-01 4.5197058E+00
  1.000E+01  7.532E-01  3.092E-02 1.1035766E+01 1.5172948E+00 5.9378608E+00
  9.957E+00  7.775E-01  2.507E-02 1.0771670E+01 1.0254264E+00 4.4750286E+00
  1.000E+01  7.052E-01  4.443E-02 1.1112825E+01 1.8049548E+00 5.8512322E+00
  9.957E+00  7.292E-01  3.738E-02 1.0876226E+01 1.2450608E+00 4.4183270E+00
  1.000E+01  6.580E-01  6.031E-02 1.1160131E+01 2.0905309E+00 5.7513692E+00
  9.957E+00  6.815E-01  5.207E-02 1.0933448E+01 1.4591858E+00 4.3496326E+00
  1.000E+01  6.116E-01  7.852E-02 1.1338857E+01 2.3784643E+00 5.6391469E+00
  9.957E+00  6.347E-01  6.913E-02 1.1026396E+01 1.6744657E+00 4.2689294E+00
  1.000E+01  5.661E-01  9.903E-02 1.1487581E+01 2.6587642E+00 5.5143238E+00
  9.957E+00  5.887E-01  8.849E-02 1.1228381E+01 1.8876715E+00 4.1787690E+00
  1.000E+01  5.217E-01  1.218E-01 1.1503466E+01 2.9272698E+00 5.3726827E+00
  9.957E+00  5.438E-01  1.101E-01 1.1309331E+01 2.0936177E+00 4.0813717E+00
  1.000E+01  4.786E-01  1.467E-01 1.1691889E+01 3.1890272E+00 5.2159614E+00
  9.957E+00  5.000E-01  1.340E-01 1.1364240E+01 2.2921678E+00 3.9686358E+00
  1.000E+01  4.367E-01  1.738E-01 1.1724625E+01 3.4462754E+00 5.0531598E+00
  9.957E+00  4.575E-01  1.600E-01 1.1540211E+01 2.4863624E+00 3.8480906E+00
  1.000E+01  3.962E-01  2.029E-01 1.1809583E+01 3.6910499E+00 4.8718370E+00
  9.957E+00  4.163E-01  1.881E-01 1.1534152E+01 2.6756309E+00 3.7215007E+00
  1.000E+01  3.572E-01  2.340E-01 1.1877753E+01 3.9296044E+00 4.6836991E+00
  9.957E+00  3.765E-01  2.182E-01 1.1647571E+01 2.8562269E+00 3.5812959E+00
  1.000E+01  3.198E-01  2.669E-01 1.1857295E+01 4.1575257E+00 4.4815760E+00
  9.957E+00  3.383E-01  2.502E-01 1.1643954E+01 3.0313138E+00 3.4363038E+00
  1.000E+01  2.841E-01  3.018E-01 1.1912589E+01 4.3756595E+00 4.2702553E+00
  9.957E+00  3.018E-01  2.841E-01 1.1709592E+01 3.1985747E+00 3.2804026E+00
  1.000E+01  2.502E-01  3.383E-01 1.1846319E+01 4.5841288E+00 4.0478724E+00
  9.957E+00  2.669E-01  3.198E-01 1.1655998E+01 3.3579357E+00 3.1181505E+00
  1.000E+01  2.182E-01  3.765E-01 1.1851472E+01 4.7799818E+00 3.8155948E+00
  9.957E+00  2.340E-01  3.572E-01 1.1675571E+01 3.5106553E+00 2.9481614E+00
  1.000E+01  1.881E-01  4.163E-01 1.1737700E+01 4.9674409E+00 3.5750780E+00
  9.957E+00  2.029E-01  3.962E-01 1.1608708E+01 3.6521260E+00 2.7695498E+00
  1.000E+01  1.600E-01  4.575E-01 1.1745877E+01 5.1398339E+00 3.3239130E+00
  9.957E+00  1.738E-01  4.367E-01 1.1523595E+01 3.7903732E+00 2.5872545E+00
  1.000E+01  1.340E-01  5.000E-01 1.1568764E+01 5.3010205E+00 3.0644311E+00
  9.957E+00  1.467E-01  4.786E-01 1.1490687E+01 3.9115244E+00 2.3938478E+00
  1.000E+01  1.101E-01  5.438E-01 1.1516095E+01 5.4522772E+00 2.7998242E+00
  9.957E+00  1.218E-01  5.217E-01 1.1303883E+01 4.0320429E+00 2.1984491E+00
  1.000E+01  8.849E-02  5.887E-01 1.1436411E+01 5.5863850E+00 2.5258801E+00
  9.957E+00  9.903E-02  5.661E-01 1.1285967E+01 4.1373818E+00 1.9965859E+00
  1.000E+01  6.913E-02  6.347E-01 1.1233101E+01 5.7058988E+00 2.2400681E+00
  9.957E+00  7.852E-02  6.116E-01 1.1138408E+01 4.2308849E+00 1.7861196E+00
  1.000E+01  5.207E-02  6.815E-01 1.1141216E+01 5.8128729E+00 1.9522703E+00
  9.957E+00  6.031E-02  6.580E-01 1.0961484E+01 4.3181658E+00 1.5708446E+00
  1.000E+01  3.738E-02  7.292E-01 1.1086394E+01 5.9077640E+00 1.6664481E+00
  9.957E+00  4.443E-02  7.052E-01 1.0912901E+01 4.3936364E+00 1.3562137E+00
  1.000E+01  2.507E-02  7.775E-01 1.0983454E+01 5.9867160E+00 1.3728196E+00
  9.957E+00  3.092E-02  7.532E-01 1.0834368E+01 4.4572032E+00 1.1395675E+00
  1.000E+01  1.519E-02  8.264E-01 1.0866963E+01 6.0474085E+00 1.0687252E+00
  9.957E+00  1.983E-02  8.019E-01 1.0718184E+01 4.5079606E+00 9.1511775E-01
  1.000E+01  7.761E-03  8.757E-01 1.0775760E+01 6.0915293E+00 7.6093249E-01
  9.957E+00  1.117E-02  8.510E-01 1.0608628E+01 4.5471414E+00 6.8559195E-01
  1.000E+01  2.796E-03  9.253E-01 1.0719533E+01 6.1204572E+00 4.5497200E-01
  9.957E+00  4.969E-03  9.004E-01 1.0535661E+01 4.5756581E+00 4.5569363E-01
  1.000E+01  3.108E-04  9.751E-01 1.0694323E+01 6.1349529E+00 1.5140288E-01
  9.957E+00  1.243E-03  9.502E-01 1.0499737E+01 4.5928383E+00 2.2727030E-01
  1.000E+01  3.108E-04  1.025E+00 1.0694323E+01 6.1349556E+00 -1.5139665E-01
  9.957E+00  0.000E+00  1.000E+00 1.0489553E+01 4.5985097E+00 2.9140936E-06
  1.000E+01  2.796E-03  1.075E+00 1.0719532E+01 6.1204606E+00 -4.5496604E-01
  9.957E+00  1.243E-03  1.050E+00 1.0499737E+01 4.5928105E+00 -2.2726401E-01
  1.000E+01  7.761E-03  1.124E+00 1.0775760E+01 6.0915149E+00 -7.6092625E-01
  9.957E+00  4.969E-03  1.100E+00 1.0535660E+01 4.5756000E+00 -4.5568600E-01
  1.000E+01  1.519E-02  1.174E+00 1.0866965E+01 6.0473487E+00 -1.0687183E+00
  9.957E+00  1.117E-02  1.149E+00 1.0608628E+01 4.5470530E+00 -6.8558296E-01
  1.000E+01  2.507E-02  1.223E+00 1.0983458E+01 5.9866150E+00 -1.3728145E+00
  9.957E+00  1.983E-02  1.198E+00 1.0718183E+01 4.5078592E+00 -9.1510934E-01
  1.000E+01  3.738E-02  1.271E+00 1.1086392E+01 5.9077067E+00 -1.6664490E+00
  9.957E+00  3.092E-02  1.247E+00 1.0834360E+01 4.4571310E+00 -1.1395620E+00
  1.000E+01  5.207E-02  1.318E+00 1.1141198E+01 5.8129241E+00 -1.9522727E+00
  9.957E+00  4.443E-02  1.295E+00 1.0912884E+01 4.3936214E+00 -1.3562078E+00
  1.000E+01  6.913E-02  1.365E+00 1.1233075E+01 5.7058985E+00 -2.2400570E+00
  9.957E+00  6.031E-02  1.342E+00 1.0961461E+01 4.3181483E+00 -1.5708305E+00
  1.000E+01  8.849E-02  1.411E+00 1.1436379E+01 5.5862186E+00 -2.5258468E+00
  9.957E+00  7.852E-02  1.388E+00 1.1138383E+01 4.2307692E+00 -1.7860931E+00
  1.000E+01  1.101E-01  1.456E+00 1.1516047E+01 5.4521159E+00 -2.7997701E+00
  9.957E+00  9.903E-02  1.434E+00 1.1285928E+01 4.1372425E+00 -1.9965465E+00
  1.000E+01  1.340E-01  1.500E+00 1.1568712E+01 5.3008565E+00 -3.0643554E+00
  9.957E+00  1.218E-01  1.478E+00 1.1303835E+01 4.0319170E+00 -2.1983929E+00
  1.000E+01  1.600E-01  1.543E+00 1.1745820E+01 5.1396360E+00 -3.3238202E+00
  9.957E+00  1.467E-01  1.521E+00 1.1490631E+01 3.9113571E+00 -2.3937756E+00
  1.000E+01  1.881E-01  1.584E+00 1.1737629E+01 4.9672991E+00 -3.5749688E+00
  9.957E+00  1.738E-01  1.563E+00 1.1523529E+01 3.7902384E+00 -2.5871686E+00
  1.000E+01  2.182E-01  1.623E+00 1.1851391E+01 4.7797738E+00 -3.8154580E+00
  9.957E+00  2.029E-01  1.604E+00 1.1608638E+01 3.6519854E+00 -2.7694457E+00
  1.000E+01  2.502E-01  1.662E+00 1.1846233E+01 4.5838906E+00 -4.0477084E+00
  9.957E+00  2.340E-01  1.643E+00 1.1675493E+01 3.5104620E+00 -2.9480365E+00
  1.000E+01  2.841E-01  1.698E+00 1.1912498E+01 4.3754513E+00 -4.2700706E+00
  9.957E+00  2.669E-01  1.680E+00 1.1655911E+01 3.3577528E+00 -3.1180064E+00
  1.000E+01  3.198E-01  1.733E+00 1.1857194E+01 4.1573340E+00 -4.4813699E+00
  9.957E+00  3.018E-01  1.716E+00 1.1709498E+01 3.1984144E+00 -3.2802412E+00
  1.000E+01  3.572E-01  1.766E+00 1.1877644E+01 3.9293751E+00 -4.6834657E+00
  9.957E+00  3.383E-01  1.750E+00 1.1643857E+01 3.0311441E+00 -3.4361224E+00
  1.000E+01  3.962E-01  1.797E+00 1.1809474E+01 3.6908264E+00 -4.8715799E+00
  9.957E+00  3.765E-01  1.782E+00 1.1647466E+01 2.8560290E+00 -3.5810938E+00
  1.000E+01  4.367E-01  1.826E+00 1.1724507E+01 3.4460945E+00 -5.0528826E+00
  9.957E+00  4.163E-01  1.812E+00 1.1534041E+01 2.6754709E+00 -3.7212806E+00
  1.000E+01  4.786E-01  1.853E+00 1.1691762E+01 3.1888136E+00 -5.2156588E+00
  9.957E+00  4.575E-01  1.840E+00 1.1540099E+01 2.4862073E+00 -3.8478522E+00
  1.000E+01  5.217E-01  1.878E+00 1.1503340E+01 2.9270699E+00 -5.3723585E+00
  9.957E+00  5.000E-01  1.866E+00 1.1364122E+01 2.2919900E+00 -3.9683774E+00
  1.000E+01  5.661E-01  1.901E+00 1.1487447E+01 2.6586105E+00 -5.5139823E+00
  9.957E+00  5.438E-01  1.890E+00 1.1309206E+01 2.0934774E+00 -4.0810965E+00
  1.000E+01  6.116E-01  1.921E+00 1.1338720E+01 2.3782904E+00 -5.6387855E+00
  9.957E+00  5.887E-01  1.912E+00 1.1228255E+01 1.8875313E+00 -4.1784761E+00
  1.000E+01  6.580E-01  1.940E+00 1.1159997E+01 2.0903893E+00 -5.7509911E+00
  9.957E+00  6.347E-01  1.931E+00 1.1026265E+01 1.6743182E+00 -4.2686212E+00
  1.000E+01  7.052E-01  1.956E+00 1.1112682E+01 1.8048347E+00 -5.8508374E+00
  9.957E+00  6.815E-01  1.948E+00 1.0933313E+01 1.4590887E+00 -4.3493127E+00
  1.000E+01  7.532E-01  1.969E+00 1.1035622E+01 1.5171559E+00 -5.9374484E+00
  9.957E+00  7.292E-01  1.963E+00 1.0876090E+01 1.2449557E+00 -4.4179957E+00
  1.000E+01  8.019E-01  1.980E+00 1.0920051E+01 1.2187749E+00 -6.0071042E+00
  9.957E+00  7.775E-01  1.975E+00 1.0771528E+01 1.0253446E+00 -4.4746871E+00
  1.000E+01  8.510E-01  1.989E+00 1.0809919E+01 9.1282572E-01 -6.0595454E+00
  9.957E+00  8.264E-01  1.985E+00 1.0654849E+01 7.9842540E-01 -4.5193562E+00
  1.000E+01  9.004E-01  1.995E+00 1.0735821E+01 6.0631314E-01 -6.0963176E+00
  9.957E+00  8.757E-01  1.992E+00 1.0564661E+01 5.6885176E-01 -4.5531469E+00
  1.000E+01  9.502E-01  1.999E+00 1.0699025E+01 3.0226291E-01 -6.1182902E+00
  9.957E+00  9.253E-01  1.997E+00 1.0509727E+01 3.4036157E-01 -4.5760532E+00
  1.000E+01  1.000E+00  2.000E+00 1.0688525E+01 -4.9342999E-06 -6.1256595E+00
  9.957E+00  9.751E-01  2.000E+00 1.0485220E+01 1.1330277E-01 -4.5875244E+00
  1.000E+01  1.050E+00  1.999E+00 1.0699028E+01 -3.0223789E-01 -6.1182956E+00
  9.957E+00  1.025E+00  2.000E+00 1.0485219E+01 -1.1329841E-01 -4.5875267E+00
  1.000E+01  1.100E+00  1.995E+00 1.0735821E+01 -6.0631001E-01 -6.0963287E+00
  9.957E+00  1.075E+00  1.997E+00 1.0509731E+01 -3.4033829E-01 -4.5760602E+00
  1.000E+01  1.149E+00  1.989E+00 1.0809926E+01 -9.1282558E-01 -6.0595618E+00
  9.957E+00  1.124E+00  1.992E+00 1.0564665E+01 -5.6886115E-01 -4.5531588E+00
  1.000E+01  1.198E+00  1.980E+00 1.0920055E+01 -1.2187524E+00 -6.0071252E+00
  9.957E+00  1.174E+00  1.985E+00 1.0654853E+01 -7.9840535E-01 -4.5193722E+00