# TIME = 13.000000
VARIABLES = X, Y, Z, FX, FY, FZ
ZONE N=29232 E=58212 F=FEPOINT ET=TRIANGLE
  0.000E+00  9.502E-01  1.243E-03 6.5086126E+00 -1.1461456E-01 -2.3131852E+00
  0.000E+00  1.000E+00  0.000E+00 6.4978739E+00 -4.3467163E-08 -2.3161778E+00
  4.318E-02  9.751E-01  3.108E-04 6.5236850E+00 -5.8961701E-02 -2.3829466E+00
  0.000E+00  1.050E+00  1.243E-03 6.5086126E+00 1.1461446E-01 -2.3131853E+00
  4.318E-02  1.025E+00  3.108E-04 6.5236850E+00 5.8960659E-02 -2.3829467E+00
  0.000E+00  1.100E+00  4.969E-03 6.5446664E+00 2.2951377E-01 -2.3045345E+00
  4.318E-02  1.075E+00  2.796E-03 6.5483192E+00 1.7701763E-01 -2.3769131E+00
  0.000E+00  1.149E+00  1.117E-02 6.6132599E+00 3.4505090E-01 -2.2907859E+00
  4.318E-02  1.124E+00  7.761E-03 6.6010353E+00 2.9556273E-01 -2.3653171E+00
  0.000E+00  1.198E+00  1.983E-02 6.7125603E+00 4.6060015E-01 -2.2718487E+00
  4.318E-02  1.174E+00  1.519E-02 6.6843838E+00 4.1468836E-01 -2.3485896E+00
  0.000E+00  1.247E+00  3.092E-02 6.8211331E+00 5.7385760E-01 -2.2464526E+00
  4.318E-02  1.223E+00  2.507E-02 6.7913521E+00 5.3279131E-01 -2.3260201E+00
  0.000E+00  1.295E+00  4.443E-02 6.9100657E+00 6.8300714E-01 -2.2135431E+00
  4.318E-02  1.271E+00  3.738E-02 6.8947161E+00 6.4725651E-01 -2.2959470E+00
  0.000E+00  1.342E+00  6.031E-02 6.9861148E+00 7.9065506E-01 -2.1756323E+00
  4.318E-02  1.318E+00  5.207E-02 6.9714730E+00 7.5823241E-01 -2.2589430E+00
  0.000E+00  1.388E+00  7.852E-02 7.1453166E+00 8.9946848E-01 -2.1347930E+00
  4.318E-02  1.365E+00  6.913E-02 7.0776101E+00 8.6964315E-01 -2.2185613E+00
  0.000E+00  1.434E+00  9.903E-02 7.2784924E+00 1.0060360E+00 -2.0879218E+00
  4.318E-02  1.411E+00  8.849E-02 7.2509536E+00 9.8117242E-01 -2.1739887E+00
  0.000E+00  1.478E+00  1.218E-01 7.3323453E+00 1.1080345E+00 -2.0343754E+00
  4.318E-02  1.456E+00  1.101E-01 7.3404218E+00 1.0883490E+00 -2.1218974E+00
  0.000E+00  1.521E+00  1.467E-01 7.4929966E+00 1.2079192E+00 -1.9768453E+00
  4.318E-02  1.500E+00  1.340E-01 7.4177327E+00 1.1918864E+00 -2.0645828E+00
  0.000E+00  1.563E+00  1.738E-01 7.5380972E+00 1.3052130E+00 -1.9141519E+00
  4.318E-02  1.543E+00  1.600E-01 7.5648784E+00 1.2937470E+00 -2.0030130E+00
  0.000E+00  1.604E+00  2.029E-01 7.6267073E+00 1.3989943E+00 -1.8468918E+00
  4.318E-02  1.584E+00  1.881E-01 7.5877548E+00 1.3920141E+00 -1.9359190E+00
  0.000E+00  1.643E+00  2.340E-01 7.6812255E+00 1.4891836E+00 -1.7746562E+00
  4.318E-02  1.623E+00  2.182E-01 7.6826927E+00 1.4865822E+00 -1.8641769E+00
  0.000E+00  1.680E+00  2.669E-01 7.6831807E+00 1.5758738E+00 -1.6984299E+00
  4.318E-02  1.662E+00  2.502E-01 7.6947632E+00 1.5778393E+00 -1.7877412E+00
  0.000E+00  1.716E+00  3.018E-01 7.7170167E+00 1.6585059E+00 -1.6176001E+00
  4.318E-02  1.698E+00  2.841E-01 7.7417788E+00 1.6647733E+00 -1.7068973E+00
  0.000E+00  1.750E+00  3.383E-01 7.6701197E+00 1.7370678E+00 -1.5331081E+00
  4.318E-02  1.733E+00  3.198E-01 7.7078319E+00 1.7479876E+00 -1.6218588E+00
  0.000E+00  1.782E+00  3.765E-01 7.6579525E+00 1.8113226E+00 -1.4444521E+00
  4.318E-02  1.766E+00  3.572E-01 7.7059898E+00 1.8264018E+00 -1.5326272E+00
  0.000E+00  1.812E+00  4.163E-01 7.5631501E+00 1.8810560E+00 -1.3525562E+00
  4.318E-02  1.797E+00  3.962E-01 7.6514266E+00 1.9007911E+00 -1.4398334E+00
  0.000E+00  1.840E+00  4.575E-01 7.5400793E+00 1.9462235E+00 -1.2570711E+00
  4.318E-02  1.826E+00  4.367E-01 7.5627801E+00 1.9699526E+00 -1.3432887E+00
  0.000E+00  1.866E+00  5.000E-01 7.3931345E+00 2.0060562E+00 -1.1581019E+00
  4.318E-02  1.853E+00  4.786E-01 7.5177971E+00 2.0345345E+00 -1.2431793E+00
  0.000E+00  1.890E+00  5.438E-01 7.3157064E+00 2.0617777E+00 -1.0575015E+00
  4.318E-02  1.878E+00  5.217E-01 7.3569375E+00 2.0937013E+00 -1.1403756E+00
  0.000E+00  1.912E+00  5.887E-01 7.2261643E+00 2.1123407E+00 -9.5336286E-01
  4.318E-02  1.901E+00  5.661E-01 7.3033071E+00 2.1488092E+00 -1.0353942E+00
  0.000E+00  1.931E+00  6.347E-01 7.0530264E+00 2.1556706E+00 -8.4499698E-01
  4.318E-02  1.921E+00  6.116E-01 7.1700519E+00 2.1970832E+00 -9.2572112E-01
  0.000E+00  1.948E+00  6.815E-01 6.9468300E+00 2.1949396E+00 -7.3673965E-01
  4.318E-02  1.940E+00  6.580E-01 7.0107046E+00 2.2390830E+00 -8.1373951E-01
  0.000E+00  1.963E+00  7.292E-01 6.8699403E+00 2.2308716E+00 -6.2891360E-01
  4.318E-02  1.956E+00  7.052E-01 6.9348209E+00 2.2780892E+00 -7.0295437E-01
  0.000E+00  1.975E+00  7.775E-01 6.7665809E+00 2.2600769E+00 -5.1770469E-01
  4.318E-02  1.969E+00  7.532E-01 6.8459626E+00 2.3119794E+00 -5.9061462E-01
  0.000E+00  1.985E+00  8.264E-01 6.6596787E+00 2.2820102E+00 -4.0295698E-01
  4.318E-02  1.980E+00  8.019E-01 6.7373425E+00 2.3381292E+00 -4.7404242E-01
  0.000E+00  1.992E+00  8.757E-01 6.5763742E+00 2.2982706E+00 -2.8720915E-01
  4.318E-02  1.989E+00  8.510E-01 6.6379710E+00 2.3576136E+00 -3.5511757E-01
  0.000E+00  1.997E+00  9.253E-01 6.5236698E+00 2.3095442E+00 -1.7202218E-01
  4.318E-02  1.995E+00  9.004E-01 6.5693494E+00 2.3717543E+00 -2.3621294E-01
  0.000E+00  2.000E+00  9.751E-01 6.4990324E+00 2.3154110E+00 -5.7306759E-02
  4.318E-02  1.999E+00  9.502E-01 6.5333045E+00 2.3806566E+00 -1.1796770E-01
  0.000E+00  2.000E+00  1.025E+00 6.4990320E+00 2.3154108E+00 5.7278599E-02
  4.318E-02  2.000E+00  1.000E+00 6.5225735E+00 2.3837377E+00 -1.3816382E-05
  0.000E+00  1.997E+00  1.075E+00 6.5236684E+00 2.3095432E+00 1.7199411E-01
  4.318E-02  1.999E+00  1.050E+00 6.5333035E+00 2.3806560E+00 1.1794012E-01
  0.000E+00  1.992E+00  1.124E+00 6.5763720E+00 2.2982691E+00 2.8718128E-01
  4.318E-02  1.995E+00  1.100E+00 6.5693475E+00 2.3717527E+00 2.3618553E-01
  0.000E+00  1.985E+00  1.174E+00 6.6596757E+00 2.2820113E+00 4.0292939E-01
  4.318E-02  1.989E+00  1.149E+00 6.6379682E+00 2.3576126E+00 3.5509041E-01
  0.000E+00  1.975E+00  1.223E+00 6.7665771E+00 2.2600847E+00 5.1767747E-01
  4.318E-02  1.980E+00  1.198E+00 6.7373388E+00 2.3381335E+00 4.7401560E-01
  0.000E+00  1.963E+00  1.271E+00 6.8699357E+00 2.2308808E+00 6.2888682E-01
  4.318E-02  1.969E+00  1.247E+00 6.8459580E+00 2.3119897E+00 5.9058820E-01
  0.000E+00  1.948E+00  1.318E+00 6.9468245E+00 2.1949384E+00 7.3671342E-01
  4.318E-02  1.956E+00  1.295E+00 6.9348153E+00 2.2780944E+00 7.0292848E-01
  0.000E+00  1.931E+00  1.365E+00 7.0530202E+00 2.1556710E+00 8.4497134E-01
  4.318E-02  1.940E+00  1.342E+00 7.0106982E+00 2.2390790E+00 8.1371421E-01
  0.000E+00  1.912E+00  1.411E+00 7.2261567E+00 2.1123563E+00 9.5333795E-01
  4.318E-02  1.921E+00  1.388E+00 7.1700449E+00 2.1970933E+00 9.2569652E-01
  0.000E+00  1.890E+00  1.456E+00 7.3156988E+00 2.0617822E+00 1.0574772E+00
  4.318E-02  1.901E+00  1.434E+00 7.3032992E+00 2.1488228E+00 1.0353704E+00
  0.000E+00  1.866E+00  1.500E+00 7.3931264E+00 2.0060581E+00 1.1580784E+00
  4.318E-02  1.878E+00  1.478E+00 7.3569288E+00 2.0936995E+00 1.1403524E+00
  0.000E+00  1.840E+00  1.543E+00 7.5400705E+00 1.9462385E+00 1.2570486E+00
  4.318E-02  1.853E+00  1.521E+00 7.5177877E+00 2.0345463E+00 1.2431571E+00
  0.000E+00  1.812E+00  1.584E+00 7.5631406E+00 1.8810615E+00 1.3525343E+00
  4.318E-02  1.826E+00  1.563E+00 7.5627702E+00 1.9699633E+00 1.3432673E+00
  0.000E+00  1.782E+00  1.623E+00 7.6579423E+00 1.8113337E+00 1.4444312E+00
  4.318E-02  1.797E+00  1.604E+00 7.6514161E+00 1.9007982E+00 1.4398129E+00
  0.000E+00  1.750E+00  1.662E+00 7.6701090E+00 1.7370774E+00 1.5330881E+00
  4.318E-02  1.766E+00  1.643E+00 7.7059787E+00 1.8264143E+00 1.5326077E+00
  0.000E+00  1.716E+00  1.698E+00 7.7170057E+00 1.6585153E+00 1.6175808E+00
  4.318E-02  1.733E+00  1.680E+00 7.7078203E+00 1.7479955E+00 1.6218400E+00
  0.000E+00  1.680E+00  1.733E+00 7.6831697E+00 1.5758838E+00 1.6984114E+00
  4.318E-02  1.698E+00  1.716E+00 7.7417666E+00 1.6647852E+00 1.7068797E+00
  0.000E+00  1.643E+00  1.766E+00 7.6812142E+00 1.4891919E+00 1.7746385E+00
  4.318E-02  1.662E+00  1.750E+00 7.6947503E+00 1.5778488E+00 1.7877244E+00
  0.000E+00  1.604E+00  1.797E+00 7.6266952E+00 1.3990038E+00 1.8468752E+00
  4.318E-02  1.623E+00  1.782E+00 7.6826794E+00 1.4865922E+00 1.8641609E+00
  0.000E+00  1.563E+00  1.826E+00 7.5380839E+00 1.3052232E+00 1.9141364E+00
  4.318E-02  1.584E+00  1.812E+00 7.5877418E+00 1.3920228E+00 1.9359035E+00
  0.000E+00  1.521E+00  1.853E+00 7.4929829E+00 1.2079299E+00 1.9768308E+00
  4.318E-02  1.543E+00  1.840E+00 7.5648654E+00 1.2937549E+00 2.0029981E+00
  0.000E+00  1.478E+00  1.878E+00 7.3323326E+00 1.1080422E+00 2.0343611E+00
  4.318E-02  1.500E+00  1.866E+00 7.4177194E+00 1.1918931E+00 2.0645688E+00
  0.000E+00  1.434E+00  1.901E+00 7.2784806E+00 1.0060400E+00 2.0879068E+00
  4.318E-02  1.456E+00  1.890E+00 7.3404075E+00 1.0883584E+00 2.1218847E+00
  0.000E+00  1.388E+00  1.921E+00 7.1453041E+00 8.9946801E-01 2.1347772E+00
  4.318E-02  1.411E+00  1.912E+00 7.2509386E+00 9.8118368E-01 2.1739775E+00
  0.000E+00  1.342E+00  1.940E+00 6.9861013E+00 7.9065717E-01 2.1756170E+00
  4.318E-02  1.365E+00  1.931E+00 7.0775948E+00 8.6965355E-01 2.2185512E+00
  0.000E+00  1.295E+00  1.956E+00 6.9100521E+00 6.8301557E-01 2.2135298E+00
  4.318E-02  1.318E+00  1.948E+00 6.9714574E+00 7.5823922E-01 2.2589329E+00
  0.000E+00  1.247E+00  1.969E+00 6.8211202E+00 5.7387164E-01 2.2464421E+00
  4.318E-02  1.271E+00  1.963E+00 6.8946999E+00 6.4725709E-01 2.2959360E+00
  0.000E+00  1.198E+00  1.980E+00 6.7125476E+00 4.6061506E-01 2.2718406E+00
  4.318E-02  1.223E+00  1.975E+00 6.7913362E+00 5.3278852E-01 2.3260079E+00
  0.000E+00  1.149E+00  1.989E+00 6.6132464E+00 3.4506209E-01 2.2907795E+00
  4.318E-02  1.174E+00  1.985E+00 6.6843687E+00 4.1468538E-01 2.3485766E+00
  0.000E+00  1.100E+00  1.995E+00 6.5446520E+00 2.2952013E-01 2.3045290E+00
  4.318E-02  1.124E+00  1.992E+00 6.6010211E+00 2.9556117E-01 2.3653036E+00
  0.000E+00  1.050E+00  1.999E+00 6.5085977E+00 1.1461707E-01 2.3131803E+00
  4.318E-02  1.075E+00  1.997E+00 6.5483054E+00 1.7701746E-01 2.3768995E+00
  0.000E+00  1.000E+00  2.000E+00 6.4978589E+00 5.3650399E-08 2.3161730E+00
  4.318E-02  1.025E+00  2.000E+00 6.5236711E+00 5.8960782E-02 2.3829330E+00
  0.000E+00  9.502E-01  1.999E+00 6.5085977E+00 -1.1461694E-01 2.3131803E+00
  4.318E-02  9.751E-01  2.000E+00 6.5236712E+00 -5.8961660E-02 2.3829330E+00
  0.000E+00  9.004E-01  1.995E+00 6.5446520E+00 -2.2952000E-01 2.3045290E+00
  4.318E-02  9.253E-01  1.997E+00 6.5483054E+00 -1.7701827E-01 2.3768994E+00
  0.000E+00  8.510E-01  1.989E+00 6.6132465E+00 -3.4506197E-01 2.2907794E+00
  4.318E-02  8.757E-01  1.992E+00 6.6010212E+00 -2.9556208E-01 2.3653035E+00
  0.000E+00  8.019E-01  1.980E+00 6.7125477E+00 -4.6061483E-01 2.2718405E+00
  4.318E-02  8.264E-01  1.985E+00 6.6843689E+00 -4.1468613E-01 2.3485764E+00
  0.000E+00  7.532E-01  1.969E+00 6.8211204E+00 -5.7387156E-01 2.2464419E+00
  4.318E-02  7.775E-01  1.975E+00 6.7913363E+00 -5.3278930E-01 2.3260076E+00
  0.000E+00  7.052E-01  1.956E+00 6.9100524E+00 -6.8301526E-01 2.2135296E+00
  4.318E-02  7.292E-01  1.963E+00 6.8947002E+00 -6.4725798E-01 2.2959357E+00
  0.000E+00  6.580E-01  1.940E+00 6.9861016E+00 -7.9065681E-01 2.1756167E+00
  4.318E-02  6.815E-01  1.948E+00 6.9714576E+00 -7.5823959E-01 2.2589326E+00
  0.000E+00  6.116E-01  1.921E+00 7.1453045E+00 -8.9946816E-01 2.1347770E+00
  4.318E-02  6.347E-01  1.931E+00 7.0775951E+00 -8.6965458E-01 2.2185508E+00
  0.000E+00  5.661E-01  1.901E+00 7.2784810E+00 -1.0060390E+00 2.0879065E+00
  4.318E-02  5.887E-01  1.912E+00 7.2509387E+00 -9.8118422E-01 2.1739770E+00
  0.000E+00  5.217E-01  1.878E+00 7.3323330E+00 -1.1080422E+00 2.0343609E+00
  4.318E-02  5.438E-01  1.890E+00 7.3404079E+00 -1.0883586E+00 2.1218843E+00
  0.000E+00  4.786E-01  1.853E+00 7.4929833E+00 -1.2079294E+00 1.9768305E+00
  4.318E-02  5.000E-01  1.866E+00 7.4177198E+00 -1.1918942E+00 2.0645683E+00
  0.000E+00  4.367E-01  1.826E+00 7.5380843E+00 -1.3052228E+00 1.9141362E+00
  4.318E-02  4.575E-01  1.840E+00 7.5648659E+00 -1.2937551E+00 2.0029976E+00
  0.000E+00  3.962E-01  1.797E+00 7.6266956E+00 -1.3990031E+00 1.8468749E+00
  4.318E-02  4.163E-01  1.812E+00 7.5877422E+00 -1.3920233E+00 1.9359030E+00
  0.000E+00  3.572E-01  1.766E+00 7.6812147E+00 -1.4891918E+00 1.7746382E+00
  4.318E-02  3.765E-01  1.782E+00 7.6826799E+00 -1.4865923E+00 1.8641603E+00
  0.000E+00  3.198E-01  1.733E+00 7.6831701E+00 -1.5758823E+00 1.6984111E+00
  4.318E-02  3.383E-01  1.750E+00 7.6947508E+00 -1.5778496E+00 1.7877239E+00
  0.000E+00  2.841E-01  1.698E+00 7.7170062E+00 -1.6585147E+00 1.6175805E+00
  4.318E-02  3.018E-01  1.716E+00 7.7417670E+00 -1.6647834E+00 1.7068791E+00
  0.000E+00  2.502E-01  1.662E+00 7.6701095E+00 -1.7370766E+00 1.5330878E+00
  4.318E-02  2.669E-01  1.680E+00 7.7078208E+00 -1.7479975E+00 1.6218396E+00
  0.000E+00  2.182E-01  1.623E+00 7.6579428E+00 -1.8113313E+00 1.4444309E+00
  4.318E-02  2.340E-01  1.643E+00 7.7059792E+00 -1.8264115E+00 1.5326071E+00
  0.000E+00  1.881E-01  1.584E+00 7.5631411E+00 -1.8810643E+00 1.3525343E+00
  4.318E-02  2.029E-01  1.604E+00 7.6514166E+00 -1.9008005E+00 1.4398124E+00
  0.000E+00  1.600E-01  1.543E+00 7.5400710E+00 -1.9462314E+00 1.2570483E+00
  4.318E-02  1.738E-01  1.563E+00 7.5627707E+00 -1.9699617E+00 1.3432669E+00
  0.000E+00  1.340E-01  1.500E+00 7.3931269E+00 -2.0060636E+00 1.1580783E+00
  4.318E-02  1.467E-01  1.521E+00 7.5177882E+00 -2.0345432E+00 1.2431566E+00
  0.000E+00  1.101E-01  1.456E+00 7.3156994E+00 -2.0617846E+00 1.0574771E+00
  4.318E-02  1.218E-01  1.478E+00 7.3569293E+00 -2.0937095E+00 1.1403522E+00
  0.000E+00  8.849E-02  1.411E+00 7.2261577E+00 -2.1123469E+00 9.5333781E-01
  4.318E-02  9.903E-02  1.434E+00 7.3032997E+00 -2.1488168E+00 1.0353701E+00
  0.000E+00  6.913E-02  1.365E+00 7.0530207E+00 -2.1556763E+00 8.4497130E-01
  4.318E-02  7.852E-02  1.388E+00 7.1700452E+00 -2.1970901E+00 9.2569625E-01
  0.000E+00  5.207E-02  1.318E+00 6.9468251E+00 -2.1949445E+00 7.3671339E-01
  4.318E-02  6.031E-02  1.342E+00 7.0106987E+00 -2.2390892E+00 8.1371406E-01
  0.000E+00  3.738E-02  1.271E+00 6.8699362E+00 -2.2308757E+00 6.2888681E-01
  4.318E-02  4.443E-02  1.295E+00 6.9348158E+00 -2.2780946E+00 7.0292834E-01
  0.000E+00  2.507E-02  1.223E+00 6.7665775E+00 -2.2600803E+00 5.1767747E-01
  4.318E-02  3.092E-02  1.247E+00 6.8459585E+00 -2.3119839E+00 5.9058810E-01
  0.000E+00  1.519E-02  1.174E+00 6.6596761E+00 -2.2820127E+00 4.0292942E-01
  4.318E-02  1.983E-02  1.198E+00 6.7373392E+00 -2.3381329E+00 4.7401554E-01
  0.000E+00  7.761E-03  1.124E+00 6.5763724E+00 -2.2982722E+00 2.8718135E-01
  4.318E-02  1.117E-02  1.149E+00 6.6379687E+00 -2.3576163E+00 3.5509040E-01
  0.000E+00  2.796E-03  1.075E+00 6.5236689E+00 -2.3095449E+00 1.7199422E-01
  4.318E-02  4.969E-03  1.100E+00 6.5693479E+00 -2.3717561E+00 2.3618559E-01
  0.000E+00  3.108E-04  1.025E+00 6.4990324E+00 -2.3154108E+00 5.7278752E-02
  4.318E-02  1.243E-03  1.050E+00 6.5333040E+00 -2.3806575E+00 1.1794024E-01
  0.000E+00  3.108E-04  9.751E-01 6.4990329E+00 -2.3154096E+00 -5.7306568E-02
  4.318E-02  0.000E+00  1.000E+00 6.5225739E+00 -2.3837376E+00 -1.3632899E-05
  0.000E+00  2.796E-03  9.253E-01 6.5236702E+00 -2.3095411E+00 -1.7202194E-01
  4.318E-02  1.243E-03  9.502E-01 6.5333049E+00 -2.3806550E+00 -1.1796745E-01
  0.000E+00  7.761E-03  8.757E-01 6.5763746E+00 -2.2982661E+00 -2.8720888E-01
  4.318E-02  4.969E-03  9.004E-01 6.5693497E+00 -2.3717507E+00 -2.3621264E-01
  0.000E+00  1.519E-02  8.264E-01 6.6596791E+00 -2.2820074E+00 -4.0295667E-01
  4.318E-02  1.117E-02  8.510E-01 6.6379714E+00 -2.3576097E+00 -3.5511720E-01
  0.000E+00  2.507E-02  7.775E-01 6.7665813E+00 -2.2600800E+00 -5.1770435E-01
  4.318E-02  1.983E-02  8.019E-01 6.7373429E+00 -2.3381298E+00 -4.7404201E-01
  0.000E+00  3.738E-02  7.292E-01 6.8699407E+00 -2.2308753E+00 -6.2891320E-01
  4.318E-02  3.092E-02  7.532E-01 6.8459630E+00 -2.3119850E+00 -5.9061412E-01
  0.000E+00  5.207E-02  6.815E-01 6.9468303E+00 -2.1949321E+00 -7.3673919E-01
  4.318E-02  4.443E-02  7.052E-01 6.9348212E+00 -2.2780889E+00 -7.0295381E-01
  0.000E+00  6.913E-02  6.347E-01 7.0530268E+00 -2.1556640E+00 -8.4499647E-01
  4.318E-02  6.031E-02  6.580E-01 7.0107049E+00 -2.2390728E+00 -8.1373884E-01
  0.000E+00  8.849E-02  5.887E-01 7.2261642E+00 -2.1123488E+00 -9.5336238E-01
  4.318E-02  7.852E-02  6.116E-01 7.1700524E+00 -2.1970864E+00 -9.2572049E-01
  0.000E+00  1.101E-01  5.438E-01 7.3157068E+00 -2.0617741E+00 -1.0575009E+00
  4.318E-02  9.903E-02  5.661E-01 7.3033075E+00 -2.1488153E+00 -1.0353936E+00
  0.000E+00  1.340E-01  5.000E-01 7.3931349E+00 -2.0060495E+00 -1.1581012E+00
  4.318E-02  1.218E-01  5.217E-01 7.3569378E+00 -2.0936915E+00 -1.1403747E+00
  0.000E+00  1.600E-01  4.575E-01 7.5400797E+00 -1.9462295E+00 -1.2570706E+00
  4.318E-02  1.467E-01  4.786E-01 7.5177974E+00 -2.0345378E+00 -1.2431786E+00
  0.000E+00  1.881E-01  4.163E-01 7.5631504E+00 -1.8810522E+00 -1.3525555E+00
  4.318E-02  1.738E-01  4.367E-01 7.5627804E+00 -1.9699545E+00 -1.3432879E+00
  0.000E+00  2.182E-01  3.765E-01 7.6579528E+00 -1.8113240E+00 -1.4444516E+00
  4.318E-02  2.029E-01  3.962E-01 7.6514270E+00 -1.9007892E+00 -1.4398326E+00
  0.000E+00  2.502E-01  3.383E-01 7.6701200E+00 -1.7370676E+00 -1.5331075E+00
  4.318E-02  2.340E-01  3.572E-01 7.7059901E+00 -1.8264051E+00 -1.5326265E+00
  0.000E+00  2.841E-01  3.018E-01 7.7170170E+00 -1.6585057E+00 -1.6175995E+00
  4.318E-02  2.669E-01  3.198E-01 7.7078321E+00 -1.7479862E+00 -1.6218579E+00
  0.000E+00  3.198E-01  2.669E-01 7.6831810E+00 -1.5758746E+00 -1.6984293E+00
  4.318E-02  3.018E-01  2.841E-01 7.7417791E+00 -1.6647757E+00 -1.7068966E+00
  0.000E+00  3.572E-01  2.340E-01 7.6812257E+00 -1.4891829E+00 -1.7746556E+00
  4.318E-02  3.383E-01  2.502E-01 7.6947635E+00 -1.5778394E+00 -1.7877404E+00
  0.000E+00  3.962E-01  2.029E-01 7.6267076E+00 -1.3989944E+00 -1.8468913E+00
  4.318E-02  3.765E-01  2.182E-01 7.6826930E+00 -1.4865830E+00 -1.8641761E+00
  0.000E+00  4.367E-01  1.738E-01 7.5380975E+00 -1.3052128E+00 -1.9141514E+00
  4.318E-02  4.163E-01  1.881E-01 7.5877551E+00 -1.3920146E+00 -1.9359182E+00
  0.000E+00  4.786E-01  1.467E-01 7.4929968E+00 -1.2079192E+00 -1.9768448E+00
  4.318E-02  4.575E-01  1.600E-01 7.5648786E+00 -1.2937480E+00 -2.0030122E+00
  0.000E+00  5.217E-01  1.218E-01 7.3323455E+00 -1.1080340E+00 -2.0343749E+00
  4.318E-02  5.000E-01  1.340E-01 7.4177329E+00 -1.1918866E+00 -2.0645821E+00
  0.000E+00  5.661E-01  9.903E-02 7.2784926E+00 -1.0060365E+00 -2.0879213E+00
  4.318E-02  5.438E-01  1.101E-01 7.3404220E+00 -1.0883502E+00 -2.1218968E+00
  0.000E+00  6.116E-01  7.852E-02 7.1453168E+00 -8.9946805E-01 -2.1347926E+00
  4.318E-02  5.887E-01  8.849E-02 7.2509535E+00 -9.8117338E-01 -2.1739880E+00
  0.000E+00  6.580E-01  6.031E-02 6.9861150E+00 -7.9065518E-01 -2.1756319E+00
  4.318E-02  6.347E-01  6.913E-02 7.0776102E+00 -8.6964364E-01 -2.2185608E+00
  0.000E+00  7.052E-01  4.443E-02 6.9100659E+00 -6.8300727E-01 -2.2135428E+00
  4.318E-02  6.815E-01  5.207E-02 6.9714732E+00 -7.5823368E-01 -2.2589425E+00
  0.000E+00  7.532E-01  3.092E-02 6.8211332E+00 -5.7385754E-01 -2.2464524E+00
  4.318E-02  7.292E-01  3.738E-02 6.8947163E+00 -6.4725733E-01 -2.2959466E+00
  0.000E+00  8.019E-01  1.983E-02 6.7125604E+00 -4.6060028E-01 -2.2718484E+00
  4.318E-02  7.775E-01  2.507E-02 6.7913522E+00 -5.3279230E-01 -2.3260197E+00
  0.000E+00  8.510E-01  1.117E-02 6.6132600E+00 -3.4505096E-01 -2.2907857E+00
  4.318E-02  8.264E-01  1.519E-02 6.6843838E+00 -4.1468944E-01 -2.3485893E+00
  0.000E+00  9.004E-01  4.969E-03 6.5446664E+00 -2.2951386E-01 -2.3045343E+00
  4.318E-02  8.757E-01  7.761E-03 6.6010353E+00 -2.9556370E-01 -2.3653169E+00
  4.318E-02  9.253E-01  2.796E-03 6.5483193E+00 -1.7701873E-01 -2.3769130E+00
  1.000E+01  1.050E+00  1.243E-03 6.5086126E+00 1.1461446E-01 -2.3131853E+00
  1.000E+01  1.000E+00  5.551E-16 6.4978739E+00 -4.3467163E-08 -2.3161778E+00
  9.957E+00  1.025E+00  3.108E-04 6.4786893E+00 5.5572375E-02 -2.2457563E+00
  1.000E+01  9.502E-01  1.243E-03 6.5086126E+00 -1.1461456E-01 -2.3131852E+00
  9.957E+00  9.751E-01  3.108E-04 6.4786893E+00 -5.5571506E-02 -2.2457563E+00
  1.000E+01  9.004E-01  4.969E-03 6.5446664E+00 -2.2951386E-01 -2.3045343E+00
  9.957E+00  9.253E-01  2.796E-03 6.5033318E+00 -1.6684102E-01 -2.2400647E+00
  1.000E+01  8.510E-01  1.117E-02 6.6132600E+00 -3.4505096E-01 -2.2907857E+00
  9.957E+00  8.757E-01  7.761E-03 6.5560285E+00 -2.7856663E-01 -2.2291257E+00
  1.000E+01  8.019E-01  1.983E-02 6.7125604E+00 -4.6060028E-01 -2.2718484E+00
  9.957E+00  8.264E-01  1.519E-02 6.6392954E+00 -3.9083300E-01 -2.2133473E+00
  1.000E+01  7.532E-01  3.092E-02 6.8211332E+00 -5.7385754E-01 -2.2464524E+00
  9.957E+00  7.775E-01  2.507E-02 6.7461419E+00 -5.0212246E-01 -2.1920733E+00
  1.000E+01  7.052E-01  4.443E-02 6.9100659E+00 -6.8300727E-01 -2.2135428E+00
  9.957E+00  7.292E-01  3.738E-02 6.8494997E+00 -6.0997404E-01 -2.1637605E+00
  1.000E+01  6.580E-01  6.031E-02 6.9861150E+00 -7.9065518E-01 -2.1756319E+00
  9.957E+00  6.815E-01  5.207E-02 6.9265039E+00 -7.1454945E-01 -2.1289213E+00
  1.000E+01  6.116E-01  7.852E-02 7.1453168E+00 -8.9946805E-01 -2.1347926E+00
  9.957E+00  6.347E-01  6.913E-02 7.0327506E+00 -8.1955081E-01 -2.0908069E+00
  1.000E+01  5.661E-01  9.903E-02 7.2784926E+00 -1.0060365E+00 -2.0879213E+00
  9.957E+00  5.887E-01  8.849E-02 7.2057187E+00 -9.2465511E-01 -2.0487755E+00
  1.000E+01  5.217E-01  1.218E-01 7.3323455E+00 -1.1080340E+00 -2.0343749E+00
  9.957E+00  5.438E-01  1.101E-01 7.2953270E+00 -1.0256637E+00 -1.9997684E+00
  1.000E+01  4.786E-01  1.467E-01 7.4929968E+00 -1.2079192E+00 -1.9768448E+00
  9.957E+00  5.000E-01  1.340E-01 7.3728547E+00 -1.1232388E+00 -1.9456961E+00
  1.000E+01  4.367E-01  1.738E-01 7.5380975E+00 -1.3052128E+00 -1.9141514E+00
  9.957E+00  4.575E-01  1.600E-01 7.5196338E+00 -1.2192278E+00 -1.8876679E+00
  1.000E+01  3.962E-01  2.029E-01 7.6267076E+00 -1.3989944E+00 -1.8468913E+00
  9.957E+00  4.163E-01  1.881E-01 7.5428692E+00 -1.3118425E+00 -1.8244728E+00
  1.000E+01  3.572E-01  2.340E-01 7.6812257E+00 -1.4891829E+00 -1.7746556E+00
  9.957E+00  3.765E-01  2.182E-01 7.6375636E+00 -1.4009816E+00 -1.7568221E+00
  1.000E+01  3.198E-01  2.669E-01 7.6831810E+00 -1.5758746E+00 -1.6984293E+00
  9.957E+00  3.383E-01  2.502E-01 7.6498154E+00 -1.4869583E+00 -1.6848123E+00
  1.000E+01  2.841E-01  3.018E-01 7.7170170E+00 -1.6585057E+00 -1.6175995E+00
  9.957E+00  3.018E-01  2.841E-01 7.6966189E+00 -1.5689275E+00 -1.6086059E+00
  1.000E+01  2.502E-01  3.383E-01 7.6701200E+00 -1.7370676E+00 -1.5331075E+00
  9.957E+00  2.669E-01  3.198E-01 7.6628787E+00 -1.6473033E+00 -1.5284574E+00
  1.000E+01  2.182E-01  3.765E-01 7.6579528E+00 -1.8113240E+00 -1.4444516E+00
  9.957E+00  2.340E-01  3.572E-01 7.6608351E+00 -1.7212659E+00 -1.4443847E+00
  1.000E+01  1.881E-01  4.163E-01 7.5631504E+00 -1.8810522E+00 -1.3525555E+00
  9.957E+00  2.029E-01  3.962E-01 7.6063562E+00 -1.7912906E+00 -1.3568898E+00
  1.000E+01  1.600E-01  4.575E-01 7.5400797E+00 -1.9462295E+00 -1.2570706E+00
  9.957E+00  1.738E-01  4.367E-01 7.5177807E+00 -1.8565778E+00 -1.2659550E+00
  1.000E+01  1.340E-01  5.000E-01 7.3931349E+00 -2.0060495E+00 -1.1581012E+00
  9.957E+00  1.467E-01  4.786E-01 7.4725818E+00 -1.9173361E+00 -1.1715716E+00
  1.000E+01  1.101E-01  5.438E-01 7.3157068E+00 -2.0617741E+00 -1.0575009E+00
  9.957E+00  1.218E-01  5.217E-01 7.3121074E+00 -1.9731680E+00 -1.0746952E+00
  1.000E+01  8.849E-02  5.887E-01 7.2261642E+00 -2.1123488E+00 -9.5336238E-01
  9.957E+00  9.903E-02  5.661E-01 7.2580742E+00 -2.0251054E+00 -9.7577017E-01
  1.000E+01  6.913E-02  6.347E-01 7.0530268E+00 -2.1556640E+00 -8.4499647E-01
  9.957E+00  7.852E-02  6.116E-01 7.1249638E+00 -2.0705352E+00 -8.7240451E-01
  1.000E+01  5.207E-02  6.815E-01 6.9468303E+00 -2.1949321E+00 -7.3673919E-01
  9.957E+00  6.031E-02  6.580E-01 6.9658831E+00 -2.1101687E+00 -7.6686385E-01
  1.000E+01  3.738E-02  7.292E-01 6.8699407E+00 -2.2308753E+00 -6.2891320E-01
  9.957E+00  4.443E-02  7.052E-01 6.8896989E+00 -2.1469508E+00 -6.6245979E-01
  1.000E+01  2.507E-02  7.775E-01 6.7665813E+00 -2.2600800E+00 -5.1770435E-01
  9.957E+00  3.092E-02  7.532E-01 6.8007078E+00 -2.1788589E+00 -5.5660671E-01
  1.000E+01  1.519E-02  8.264E-01 6.6596791E+00 -2.2820074E+00 -4.0295667E-01
  9.957E+00  1.983E-02  8.019E-01 6.6921740E+00 -2.2034819E+00 -4.4676875E-01
  1.000E+01  7.761E-03  8.757E-01 6.5763746E+00 -2.2982661E+00 -2.8720888E-01
  9.957E+00  1.117E-02  8.510E-01 6.5929294E+00 -2.2218528E+00 -3.3469852E-01
  1.000E+01  2.796E-03  9.253E-01 6.5236702E+00 -2.3095411E+00 -1.7202194E-01
  9.957E+00  4.969E-03  9.004E-01 6.5243578E+00 -2.2351962E+00 -2.2263272E-01
  1.000E+01  3.108E-04  9.751E-01 6.4990329E+00 -2.3154096E+00 -5.7306568E-02
  9.957E+00  1.243E-03  9.502E-01 6.4882978E+00 -2.2435918E+00 -1.1118404E-01
  1.000E+01  3.108E-04  1.025E+00 6.4990324E+00 -2.3154108E+00 5.7278752E-02
  9.957E+00  0.000E+00  1.000E+00 6.4775537E+00 -2.2464965E+00 -1.4158220E-05
  1.000E+01  2.796E-03  1.075E+00 6.5236689E+00 -2.3095449E+00 1.7199422E-01
  9.957E+00  1.243E-03  1.050E+00 6.4882971E+00 -2.2435941E+00 1.1115578E-01
  1.000E+01  7.761E-03  1.124E+00 6.5763724E+00 -2.2982722E+00 2.8718135E-01
  9.957E+00  4.969E-03  1.100E+00 6.5243563E+00 -2.2352012E+00 2.2260460E-01
  1.000E+01  1.519E-02  1.174E+00 6.6596761E+00 -2.2820127E+00 4.0292942E-01
  9.957E+00  1.117E-02  1.149E+00 6.5929271E+00 -2.2218587E+00 3.3467063E-01
  1.000E+01  2.507E-02  1.223E+00 6.7665775E+00 -2.2600803E+00 5.1767747E-01
  9.957E+00  1.983E-02  1.198E+00 6.6921709E+00 -2.2034846E+00 4.4674116E-01
  1.000E+01  3.738E-02  1.271E+00 6.8699362E+00 -2.2308757E+00 6.2888681E-01
  9.957E+00  3.092E-02  1.247E+00 6.8007040E+00 -2.1788578E+00 5.5657954E-01
  1.000E+01  5.207E-02  1.318E+00 6.9468251E+00 -2.1949445E+00 7.3671339E-01
  9.957E+00  4.443E-02  1.295E+00 6.8896944E+00 -2.1469563E+00 6.6243313E-01
  1.000E+01  6.913E-02  1.365E+00 7.0530207E+00 -2.1556763E+00 8.4497130E-01
  9.957E+00  6.031E-02  1.342E+00 6.9658779E+00 -2.1101841E+00 7.6683780E-01
  1.000E+01  8.849E-02  1.411E+00 7.2261577E+00 -2.1123469E+00 9.5333781E-01
  9.957E+00  7.852E-02  1.388E+00 7.1249581E+00 -2.0705387E+00 8.7237885E-01
  1.000E+01  1.101E-01  1.456E+00 7.3156994E+00 -2.0617846E+00 1.0574771E+00
  9.957E+00  9.903E-02  1.434E+00 7.2580678E+00 -2.0251065E+00 9.7574549E-01
  1.000E+01  1.340E-01  1.500E+00 7.3931269E+00 -2.0060636E+00 1.1580783E+00
  9.957E+00  1.218E-01  1.478E+00 7.3121003E+00 -1.9731848E+00 1.0746713E+00
  1.000E+01  1.600E-01  1.543E+00 7.5400710E+00 -1.9462314E+00 1.2570483E+00
  9.957E+00  1.467E-01  1.521E+00 7.4725741E+00 -1.9173409E+00 1.1715481E+00
  1.000E+01  1.881E-01  1.584E+00 7.5631411E+00 -1.8810643E+00 1.3525343E+00
  9.957E+00  1.738E-01  1.563E+00 7.5177725E+00 -1.8565844E+00 1.2659325E+00
  1.000E+01  2.182E-01  1.623E+00 7.6579428E+00 -1.8113313E+00 1.4444309E+00
  9.957E+00  2.029E-01  1.604E+00 7.6063476E+00 -1.7913010E+00 1.3568680E+00
  1.000E+01  2.502E-01  1.662E+00 7.6701095E+00 -1.7370766E+00 1.5330878E+00
  9.957E+00  2.340E-01  1.643E+00 7.6608260E+00 -1.7212716E+00 1.4443637E+00
  1.000E+01  2.841E-01  1.698E+00 7.7170062E+00 -1.6585147E+00 1.6175805E+00
  9.957E+00  2.669E-01  1.680E+00 7.6628692E+00 -1.6473136E+00 1.5284374E+00
  1.000E+01  3.198E-01  1.733E+00 7.6831701E+00 -1.5758823E+00 1.6984111E+00
  9.957E+00  3.018E-01  1.716E+00 7.6966088E+00 -1.5689346E+00 1.6085864E+00
  1.000E+01  3.572E-01  1.766E+00 7.6812147E+00 -1.4891918E+00 1.7746382E+00
  9.957E+00  3.383E-01  1.750E+00 7.6498048E+00 -1.4869678E+00 1.6847939E+00
  1.000E+01  3.962E-01  1.797E+00 7.6266956E+00 -1.3990031E+00 1.8468749E+00
  9.957E+00  3.765E-01  1.782E+00 7.6375528E+00 -1.4009900E+00 1.7568043E+00
  1.000E+01  4.367E-01  1.826E+00 7.5380843E+00 -1.3052228E+00 1.9141362E+00
  9.957E+00  4.163E-01  1.812E+00 7.5428588E+00 -1.3118503E+00 1.8244556E+00
  1.000E+01  4.786E-01  1.853E+00 7.4929833E+00 -1.2079294E+00 1.9768305E+00
  9.957E+00  4.575E-01  1.840E+00 7.5196233E+00 -1.2192342E+00 1.8876511E+00
  1.000E+01  5.217E-01  1.878E+00 7.3323330E+00 -1.1080422E+00 2.0343609E+00
  9.957E+00  5.000E-01  1.866E+00 7.3728433E+00 -1.1232458E+00 1.9456799E+00
  1.000E+01  5.661E-01  1.901E+00 7.2784810E+00 -1.0060390E+00 2.0879065E+00
  9.957E+00  5.438E-01  1.890E+00 7.2953142E+00 -1.0256717E+00 1.9997534E+00
  1.000E+01  6.116E-01  1.921E+00 7.1453045E+00 -8.9946816E-01 2.1347770E+00
  9.957E+00  5.887E-01  1.912E+00 7.2057055E+00 -9.2466530E-01 2.0487620E+00
  1.000E+01  6.580E-01  1.940E+00 6.9861016E+00 -7.9065681E-01 2.1756167E+00
  9.957E+00  6.347E-01  1.931E+00 7.0327389E+00 -8.1956090E-01 2.0907946E+00
  1.000E+01  7.052E-01  1.956E+00 6.9100524E+00 -6.8301526E-01 2.2135296E+00
  9.957E+00  6.815E-01  1.948E+00 6.9264930E+00 -7.1455496E-01 2.1289088E+00
  1.000E+01  7.532E-01  1.969E+00 6.8211204E+00 -5.7387156E-01 2.2464419E+00
  9.957E+00  7.292E-01  1.963E+00 6.8494883E+00 -6.0997442E-01 2.1637470E+00
  1.000E+01  8.019E-01  1.980E+00 6.7125477E+00 -4.6061483E-01 2.2718405E+00
  9.957E+00  7.775E-01  1.975E+00 6.7461293E+00 -5.0211916E-01 2.1920586E+00
  1.000E+01  8.510E-01  1.989E+00 6.6132465E+00 -3.4506197E-01 2.2907794E+00
  9.957E+00  8.264E-01  1.985E+00 6.6392821E+00 -3.9082933E-01 2.2133317E+00
  1.000E+01  9.004E-01  1.995E+00 6.5446520E+00 -2.2952000E-01 2.3045290E+00
  9.957E+00  8.757E-01  1.992E+00 6.5560155E+00 -2.7856453E-01 2.2291095E+00
  1.000E+01  9.502E-01  1.999E+00 6.5085977E+00 -1.1461694E-01 2.3131803E+00
  9.957E+00  9.253E-01  1.997E+00 6.5033193E+00 -1.6684036E-01 2.2400483E+00
  1.000E+01  1.000E+00  2.000E+00 6.4978589E+00 5.3650399E-08 2.3161730E+00
  9.957E+00  9.751E-01  2.000E+00 6.4786772E+00 -5.5571351E-02 2.2457399E+00
  1.000E+01  1.050E+00  1.999E+00 6.5085977E+00 1.1461707E-01 2.3131803E+00
  9.957E+00  1.025E+00  2.000E+00 6.4786772E+00 5.5572470E-02 2.2457399E+00
  1.000E+01  1.100E+00  1.995E+00 6.5446520E+00 2.2952013E-01 2.3045290E+00
  9.957E+00  1.075E+00  1.997E+00 6.5033192E+00 1.6684147E-01 2.2400484E+00
  1.000E+01  1.149E+00  1.989E+00 6.6132464E+00 3.4506209E-01 2.2907795E+00
  9.957E+00  1.124E+00  1.992E+00 6.5560154E+00 2.7856566E-01 2.2291096E+00