# TIME = 7.000000
VARIABLES = X, Y, Z, FX, FY, FZ
ZONE N=29232 E=58212 F=FEPOINT ET=TRIANGLE
  0.000E+00  9.502E-01  1.243E-03 8.3174835E+00 3.2039696E-01 6.4662579E+00
  0.000E+00  1.000E+00  0.000E+00 8.3071377E+00 6.3667509E-06 6.4746727E+00
  4.318E-02  9.751E-01  3.108E-04 8.1173750E+00 1.6913527E-01 6.8352948E+00
  0.000E+00  1.050E+00  1.243E-03 8.3174827E+00 -3.2038688E-01 6.4662586E+00
  4.318E-02  1.025E+00  3.108E-04 8.1173742E+00 -1.6912498E-01 6.8352952E+00
  0.000E+00  1.100E+00  4.969E-03 8.3533229E+00 -6.4150398E-01 6.4420686E+00
  4.318E-02  1.075E+00  2.796E-03 8.1418829E+00 -5.0774736E-01 6.8180000E+00
  0.000E+00  1.149E+00  1.117E-02 8.4240510E+00 -9.6441469E-01 6.4038379E+00
  4.318E-02  1.124E+00  7.761E-03 8.1954849E+00 -8.4772714E-01 6.7848173E+00
  0.000E+00  1.198E+00  1.983E-02 8.5283500E+00 -1.2875155E+00 6.3510962E+00
  4.318E-02  1.174E+00  1.519E-02 8.2817884E+00 -1.1893937E+00 6.7369941E+00
  0.000E+00  1.247E+00  3.092E-02 8.6405434E+00 -1.6044163E+00 6.2797768E+00
  4.318E-02  1.223E+00  2.507E-02 8.3929772E+00 -1.5283114E+00 6.6722839E+00
  0.000E+00  1.295E+00  4.443E-02 8.7248680E+00 -1.9098099E+00 6.1868320E+00
  4.318E-02  1.271E+00  3.738E-02 8.4968606E+00 -1.8569563E+00 6.5854950E+00
  0.000E+00  1.342E+00  6.031E-02 8.7893610E+00 -2.2106448E+00 6.0803868E+00
  4.318E-02  1.318E+00  5.207E-02 8.5657142E+00 -2.1753901E+00 6.4784601E+00
  0.000E+00  1.388E+00  7.852E-02 8.9577525E+00 -2.5147490E+00 5.9673702E+00
  4.318E-02  1.365E+00  6.913E-02 8.6675533E+00 -2.4947723E+00 6.3630249E+00
  0.000E+00  1.434E+00  9.903E-02 9.0975093E+00 -2.8124068E+00 5.8353234E+00
  4.318E-02  1.411E+00  8.849E-02 8.8531418E+00 -2.8147032E+00 6.2356623E+00
  0.000E+00  1.478E+00  1.218E-01 9.1362721E+00 -3.0973073E+00 5.6846404E+00
  4.318E-02  1.456E+00  1.101E-01 8.9390473E+00 -3.1218777E+00 6.0847874E+00
  0.000E+00  1.521E+00  1.467E-01 9.3101303E+00 -3.3768326E+00 5.5253987E+00
  4.318E-02  1.500E+00  1.340E-01 9.0084735E+00 -3.4186974E+00 5.9207371E+00
  0.000E+00  1.563E+00  1.738E-01 9.3490839E+00 -3.6478182E+00 5.3480881E+00
  4.318E-02  1.543E+00  1.600E-01 9.1676899E+00 -3.7109311E+00 5.7443611E+00
  0.000E+00  1.604E+00  2.029E-01 9.4383586E+00 -3.9105895E+00 5.1615380E+00
  4.318E-02  1.584E+00  1.881E-01 9.1792148E+00 -3.9923550E+00 5.5509203E+00
  0.000E+00  1.643E+00  2.340E-01 9.4976829E+00 -4.1618641E+00 4.9584467E+00
  4.318E-02  1.623E+00  2.182E-01 9.2819416E+00 -4.2634773E+00 5.3457711E+00
  0.000E+00  1.680E+00  2.669E-01 9.4911433E+00 -4.4041659E+00 4.7459772E+00
  4.318E-02  1.662E+00  2.502E-01 9.2880615E+00 -4.5251613E+00 5.1259340E+00
  0.000E+00  1.716E+00  3.018E-01 9.5334947E+00 -4.6350024E+00 4.5195504E+00
  4.318E-02  1.698E+00  2.841E-01 9.3423249E+00 -4.7741005E+00 4.8943500E+00
  0.000E+00  1.750E+00  3.383E-01 9.4785107E+00 -4.8539665E+00 4.2836886E+00
  4.318E-02  1.733E+00  3.198E-01 9.3010232E+00 -5.0129499E+00 4.6503471E+00
  0.000E+00  1.782E+00  3.765E-01 9.4732406E+00 -5.0619606E+00 4.0357424E+00
  4.318E-02  1.766E+00  3.572E-01 9.3067530E+00 -5.2371793E+00 4.3942624E+00
  0.000E+00  1.812E+00  4.163E-01 9.3697531E+00 -5.2557998E+00 3.7789006E+00
  4.318E-02  1.797E+00  3.962E-01 9.2481335E+00 -5.4512318E+00 4.1286253E+00
  0.000E+00  1.840E+00  4.575E-01 9.3596780E+00 -5.4388283E+00 3.5123970E+00
  4.318E-02  1.826E+00  4.367E-01 9.1589364E+00 -5.6481805E+00 3.8510990E+00
  0.000E+00  1.866E+00  5.000E-01 9.1991680E+00 -5.6054746E+00 3.2356119E+00
  4.318E-02  1.853E+00  4.786E-01 9.1195465E+00 -5.8348240E+00 3.5646756E+00
  0.000E+00  1.890E+00  5.438E-01 9.1308398E+00 -5.7604250E+00 2.9545618E+00
  4.318E-02  1.878E+00  5.217E-01 8.9470842E+00 -6.0029644E+00 3.2695116E+00
  0.000E+00  1.912E+00  5.887E-01 9.0453878E+00 -5.9032213E+00 2.6637689E+00
  4.318E-02  1.901E+00  5.661E-01 8.9068305E+00 -6.1616102E+00 2.9685764E+00
  0.000E+00  1.931E+00  6.347E-01 8.8584502E+00 -6.0234363E+00 2.3608920E+00
  4.318E-02  1.921E+00  6.116E-01 8.7678772E+00 -6.3006246E+00 2.6542443E+00
  0.000E+00  1.948E+00  6.815E-01 8.7572406E+00 -6.1323899E+00 2.0586020E+00
  4.318E-02  1.940E+00  6.580E-01 8.6004437E+00 -6.4199063E+00 2.3331749E+00
  0.000E+00  1.963E+00  7.292E-01 8.6893673E+00 -6.2336323E+00 1.7571887E+00
  4.318E-02  1.956E+00  7.052E-01 8.5347734E+00 -6.5319667E+00 2.0155609E+00
  0.000E+00  1.975E+00  7.775E-01 8.5854540E+00 -6.3156719E+00 1.4461068E+00
  4.318E-02  1.969E+00  7.532E-01 8.4500210E+00 -6.6297409E+00 1.6932329E+00
  0.000E+00  1.985E+00  8.264E-01 8.4737981E+00 -6.3767434E+00 1.1253571E+00
  4.318E-02  1.980E+00  8.019E-01 8.3382381E+00 -6.7048197E+00 1.3587868E+00
  0.000E+00  1.992E+00  8.757E-01 8.3871644E+00 -6.4218419E+00 8.0205943E-01
  4.318E-02  1.989E+00  8.510E-01 8.2344771E+00 -6.7603856E+00 1.0177867E+00
  0.000E+00  1.997E+00  9.253E-01 8.3334729E+00 -6.4531445E+00 4.8038654E-01
  4.318E-02  1.995E+00  9.004E-01 8.1639923E+00 -6.8006598E+00 6.7698495E-01
  0.000E+00  2.000E+00  9.751E-01 8.3089897E+00 -6.4694705E+00 1.6000844E-01
  4.318E-02  1.999E+00  9.502E-01 8.1281546E+00 -6.8261241E+00 3.3809133E-01
  0.000E+00  2.000E+00  1.025E+00 8.3089908E+00 -6.4694712E+00 -1.6002750E-01
  4.318E-02  2.000E+00  1.000E+00 8.1177784E+00 -6.8349742E+00 -9.6679656E-06
  0.000E+00  1.997E+00  1.075E+00 8.3334761E+00 -6.4531458E+00 -4.8040571E-01
  4.318E-02  1.999E+00  1.050E+00 8.1281565E+00 -6.8261191E+00 -3.3811058E-01
  0.000E+00  1.992E+00  1.124E+00 8.3871697E+00 -6.4218425E+00 -8.0207867E-01
  4.318E-02  1.995E+00  1.100E+00 8.1639961E+00 -6.8006484E+00 -6.7700394E-01
  0.000E+00  1.985E+00  1.174E+00 8.4738054E+00 -6.3767461E+00 -1.1253758E+00
  4.318E-02  1.989E+00  1.149E+00 8.2344826E+00 -6.7603719E+00 -1.0178053E+00
  0.000E+00  1.975E+00  1.223E+00 8.5854631E+00 -6.3156821E+00 -1.4461240E+00
  4.318E-02  1.980E+00  1.198E+00 8.3382450E+00 -6.7048164E+00 -1.3588046E+00
  0.000E+00  1.963E+00  1.271E+00 8.6893777E+00 -6.2336354E+00 -1.7572039E+00
  4.318E-02  1.969E+00  1.247E+00 8.4500294E+00 -6.6297516E+00 -1.6932498E+00
  0.000E+00  1.948E+00  1.318E+00 8.7572521E+00 -6.1323580E+00 -2.0586156E+00
  4.318E-02  1.956E+00  1.295E+00 8.5347834E+00 -6.5319623E+00 -2.0155770E+00
  0.000E+00  1.931E+00  1.365E+00 8.8584627E+00 -6.0234069E+00 -2.3609049E+00
  4.318E-02  1.940E+00  1.342E+00 8.6004551E+00 -6.4198734E+00 -2.3331901E+00
  0.000E+00  1.912E+00  1.411E+00 9.0454003E+00 -5.9032363E+00 -2.6637814E+00
  4.318E-02  1.921E+00  1.388E+00 8.7678900E+00 -6.3006266E+00 -2.6542591E+00
  0.000E+00  1.890E+00  1.456E+00 9.1308540E+00 -5.7604134E+00 -2.9545745E+00
  4.318E-02  1.901E+00  1.434E+00 8.9068443E+00 -6.1616207E+00 -2.9685901E+00
  0.000E+00  1.866E+00  1.500E+00 9.1991824E+00 -5.6054541E+00 -3.2356238E+00
  4.318E-02  1.878E+00  1.478E+00 8.9470983E+00 -6.0029293E+00 -3.2695240E+00
  0.000E+00  1.840E+00  1.543E+00 9.3596931E+00 -5.4388379E+00 -3.5124081E+00
  4.318E-02  1.853E+00  1.521E+00 9.1195605E+00 -5.8348251E+00 -3.5646882E+00
  0.000E+00  1.812E+00  1.584E+00 9.3697688E+00 -5.2557802E+00 -3.7789099E+00
  4.318E-02  1.826E+00  1.563E+00 9.1589513E+00 -5.6481790E+00 -3.8511106E+00
  0.000E+00  1.782E+00  1.623E+00 9.4732567E+00 -5.0619589E+00 -4.0357524E+00
  4.318E-02  1.797E+00  1.604E+00 9.2481493E+00 -5.4512193E+00 -4.1286364E+00
  0.000E+00  1.750E+00  1.662E+00 9.4785273E+00 -4.8539627E+00 -4.2836982E+00
  4.318E-02  1.766E+00  1.643E+00 9.3067692E+00 -5.2371801E+00 -4.3942729E+00
  0.000E+00  1.716E+00  1.698E+00 9.5335112E+00 -4.6349955E+00 -4.5195591E+00
  4.318E-02  1.733E+00  1.680E+00 9.3010393E+00 -5.0129374E+00 -4.6503567E+00
  0.000E+00  1.680E+00  1.733E+00 9.4911599E+00 -4.4041603E+00 -4.7459849E+00
  4.318E-02  1.698E+00  1.716E+00 9.3423417E+00 -4.7741007E+00 -4.8943597E+00
  0.000E+00  1.643E+00  1.766E+00 9.4977000E+00 -4.1618582E+00 -4.9584547E+00
  4.318E-02  1.662E+00  1.750E+00 9.2880793E+00 -4.5251540E+00 -5.1259427E+00
  0.000E+00  1.604E+00  1.797E+00 9.4383767E+00 -3.9105863E+00 -5.1615459E+00
  4.318E-02  1.623E+00  1.782E+00 9.2819588E+00 -4.2634706E+00 -5.3457793E+00
  0.000E+00  1.563E+00  1.826E+00 9.3491027E+00 -3.6478117E+00 -5.3480953E+00
  4.318E-02  1.584E+00  1.812E+00 9.1792310E+00 -3.9923486E+00 -5.5509279E+00
  0.000E+00  1.521E+00  1.853E+00 9.3101482E+00 -3.3768289E+00 -5.5254057E+00
  4.318E-02  1.543E+00  1.840E+00 9.1677070E+00 -3.7109263E+00 -5.7443687E+00
  0.000E+00  1.478E+00  1.878E+00 9.1362877E+00 -3.0973011E+00 -5.6846465E+00
  4.318E-02  1.500E+00  1.866E+00 9.0084913E+00 -3.4186903E+00 -5.9207444E+00
  0.000E+00  1.434E+00  1.901E+00 9.0975239E+00 -2.8123999E+00 -5.8353285E+00
  4.318E-02  1.456E+00  1.890E+00 8.9390662E+00 -3.1218761E+00 -6.0847949E+00
  0.000E+00  1.388E+00  1.921E+00 8.9577692E+00 -2.5147420E+00 -5.9673749E+00
  4.318E-02  1.411E+00  1.912E+00 8.8531613E+00 -2.8147018E+00 -6.2356697E+00
  0.000E+00  1.342E+00  1.940E+00 8.7893812E+00 -2.2106395E+00 -6.0803912E+00
  4.318E-02  1.365E+00  1.931E+00 8.6675702E+00 -2.4947693E+00 -6.3630322E+00
  0.000E+00  1.295E+00  1.956E+00 8.7248896E+00 -1.9098076E+00 -6.1868369E+00
  4.318E-02  1.318E+00  1.948E+00 8.5657297E+00 -2.1753890E+00 -6.4784673E+00
  0.000E+00  1.247E+00  1.969E+00 8.6405631E+00 -1.6044211E+00 -6.2797832E+00
  4.318E-02  1.271E+00  1.963E+00 8.4968769E+00 -1.8569504E+00 -6.5855013E+00
  0.000E+00  1.198E+00  1.980E+00 8.5283669E+00 -1.2875215E+00 -6.3511042E+00
  4.318E-02  1.223E+00  1.975E+00 8.3929941E+00 -1.5283038E+00 -6.6722890E+00
  0.000E+00  1.149E+00  1.989E+00 8.4240665E+00 -9.6442259E-01 -6.4038475E+00
  4.318E-02  1.174E+00  1.985E+00 8.2818068E+00 -1.1893865E+00 -6.7369980E+00
  0.000E+00  1.100E+00  1.995E+00 8.3533386E+00 -6.4150977E-01 -6.4420793E+00
  4.318E-02  1.124E+00  1.992E+00 8.1955028E+00 -8.4772049E-01 -6.7848202E+00
  0.000E+00  1.050E+00  1.999E+00 8.3174992E+00 -3.2038840E-01 -6.4662698E+00
  4.318E-02  1.075E+00  1.997E+00 8.1419000E+00 -5.0774450E-01 -6.8180023E+00
  0.000E+00  1.000E+00  2.000E+00 8.3071546E+00 4.6265999E-06 -6.4746842E+00
  4.318E-02  1.025E+00  2.000E+00 8.1173915E+00 -1.6912389E-01 -6.8352972E+00
  0.000E+00  9.502E-01  1.999E+00 8.3174999E+00 3.2040024E-01 -6.4662692E+00
  4.318E-02  9.751E-01  2.000E+00 8.1173914E+00 1.6913401E-01 -6.8352969E+00
  0.000E+00  9.004E-01  1.995E+00 8.3533401E+00 6.4151992E-01 -6.4420781E+00
  4.318E-02  9.253E-01  1.997E+00 8.1419013E+00 5.0775384E-01 -6.8180014E+00
  0.000E+00  8.510E-01  1.989E+00 8.4240687E+00 9.6443251E-01 -6.4038457E+00
  4.318E-02  8.757E-01  1.992E+00 8.1955046E+00 8.4773090E-01 -6.7848188E+00
  0.000E+00  8.019E-01  1.980E+00 8.5283698E+00 1.2875328E+00 -6.3511019E+00
  4.318E-02  8.264E-01  1.985E+00 8.2818090E+00 1.1893955E+00 -6.7369961E+00
  0.000E+00  7.532E-01  1.969E+00 8.6405667E+00 1.6044298E+00 -6.2797803E+00
  4.318E-02  7.775E-01  1.975E+00 8.3929976E+00 1.5283132E+00 -6.6722866E+00
  0.000E+00  7.052E-01  1.956E+00 8.7248938E+00 1.9098178E+00 -6.1868337E+00
  4.318E-02  7.292E-01  1.963E+00 8.4968803E+00 1.8569601E+00 -6.5854985E+00
  0.000E+00  6.580E-01  1.940E+00 8.7893861E+00 2.2106484E+00 -6.0803875E+00
  4.318E-02  6.815E-01  1.948E+00 8.5657342E+00 2.1753962E+00 -6.4784639E+00
  0.000E+00  6.116E-01  1.921E+00 8.9577749E+00 2.5147506E+00 -5.9673708E+00
  4.318E-02  6.347E-01  1.931E+00 8.6675754E+00 2.4947792E+00 -6.3630287E+00
  0.000E+00  5.661E-01  1.901E+00 9.0975300E+00 2.8124080E+00 -5.8353242E+00
  4.318E-02  5.887E-01  1.912E+00 8.8531661E+00 2.8147091E+00 -6.2356654E+00
  0.000E+00  5.217E-01  1.878E+00 9.1362944E+00 3.0973090E+00 -5.6846418E+00
  4.318E-02  5.438E-01  1.890E+00 8.9390727E+00 3.1218819E+00 -6.0847906E+00
  0.000E+00  4.786E-01  1.853E+00 9.3101553E+00 3.3768350E+00 -5.5254007E+00
  4.318E-02  5.000E-01  1.866E+00 9.0084979E+00 3.4186995E+00 -5.9207400E+00
  0.000E+00  4.367E-01  1.826E+00 9.3491103E+00 3.6478207E+00 -5.3480906E+00
  4.318E-02  4.575E-01  1.840E+00 9.1677136E+00 3.7109316E+00 -5.7443639E+00
  0.000E+00  3.962E-01  1.797E+00 9.4383846E+00 3.9105909E+00 -5.1615407E+00
  4.318E-02  4.163E-01  1.812E+00 9.1792387E+00 3.9923546E+00 -5.5509232E+00
  0.000E+00  3.572E-01  1.766E+00 9.4977082E+00 4.1618640E+00 -4.9584494E+00
  4.318E-02  3.765E-01  1.782E+00 9.2819665E+00 4.2634766E+00 -5.3457745E+00
  0.000E+00  3.198E-01  1.733E+00 9.4911684E+00 4.4041646E+00 -4.7459803E+00
  4.318E-02  3.383E-01  1.750E+00 9.2880869E+00 4.5251602E+00 -5.1259380E+00
  0.000E+00  2.841E-01  1.698E+00 9.5335201E+00 4.6350005E+00 -4.5195541E+00
  4.318E-02  3.018E-01  1.716E+00 9.3423503E+00 4.7740987E+00 -4.8943546E+00
  0.000E+00  2.502E-01  1.662E+00 9.4785362E+00 4.8539642E+00 -4.2836931E+00
  4.318E-02  2.669E-01  1.680E+00 9.3010482E+00 5.0129474E+00 -4.6503523E+00
  0.000E+00  2.182E-01  1.623E+00 9.4732659E+00 5.0619579E+00 -4.0357476E+00
  4.318E-02  2.340E-01  1.643E+00 9.3067777E+00 5.2371762E+00 -4.3942682E+00
  0.000E+00  1.881E-01  1.584E+00 9.3697779E+00 5.2557966E+00 -3.7789066E+00
  4.318E-02  2.029E-01  1.604E+00 9.2481579E+00 5.4512283E+00 -4.1286319E+00
  0.000E+00  1.600E-01  1.543E+00 9.3597024E+00 5.4388247E+00 -3.5124038E+00
  4.318E-02  1.738E-01  1.563E+00 9.1589604E+00 5.6481768E+00 -3.8511065E+00
  0.000E+00  1.340E-01  1.500E+00 9.1991917E+00 5.6054708E+00 -3.2356197E+00
  4.318E-02  1.467E-01  1.521E+00 9.1195700E+00 5.8348201E+00 -3.5646840E+00
  0.000E+00  1.101E-01  1.456E+00 9.1308629E+00 5.7604211E+00 -2.9545706E+00
  4.318E-02  1.218E-01  1.478E+00 8.9471071E+00 6.0029603E+00 -3.2695209E+00
  0.000E+00  8.849E-02  1.411E+00 9.0454098E+00 5.9032172E+00 -2.6637784E+00
  4.318E-02  9.903E-02  1.434E+00 8.9068526E+00 6.1616062E+00 -2.9685867E+00
  0.000E+00  6.913E-02  1.365E+00 8.8584715E+00 6.0234327E+00 -2.3609028E+00
  4.318E-02  7.852E-02  1.388E+00 8.7678985E+00 6.3006206E+00 -2.6542556E+00
  0.000E+00  5.207E-02  1.318E+00 8.7572610E+00 6.1323865E+00 -2.0586137E+00
  4.318E-02  6.031E-02  1.342E+00 8.6004639E+00 6.4199025E+00 -2.3331870E+00
  0.000E+00  3.738E-02  1.271E+00 8.6893866E+00 6.2336293E+00 -1.7572013E+00
  4.318E-02  4.443E-02  1.295E+00 8.5347925E+00 6.5319632E+00 -2.0155739E+00
  0.000E+00  2.507E-02  1.223E+00 8.5854722E+00 6.3156693E+00 -1.4461203E+00
  4.318E-02  3.092E-02  1.247E+00 8.4500389E+00 6.6297377E+00 -1.6932468E+00
  0.000E+00  1.519E-02  1.174E+00 8.4738150E+00 6.3767414E+00 -1.1253714E+00
  4.318E-02  1.983E-02  1.198E+00 8.3382547E+00 6.7048170E+00 -1.3588016E+00
  0.000E+00  7.761E-03  1.124E+00 8.3871800E+00 6.4218404E+00 -8.0207457E-01
  4.318E-02  1.117E-02  1.149E+00 8.2344924E+00 6.7603835E+00 -1.0178023E+00
  0.000E+00  2.796E-03  1.075E+00 8.3334871E+00 6.4531437E+00 -4.8040239E-01
  4.318E-02  4.969E-03  1.100E+00 8.1640063E+00 6.8006583E+00 -6.7700125E-01
  0.000E+00  3.108E-04  1.025E+00 8.3090023E+00 6.4694703E+00 -1.6002492E-01
  4.318E-02  1.243E-03  1.050E+00 8.1281673E+00 6.8261233E+00 -3.3810828E-01
  0.000E+00  3.108E-04  9.751E-01 8.3090019E+00 6.4694718E+00 1.6001049E-01
  4.318E-02  0.000E+00  1.000E+00 8.1177897E+00 6.8349742E+00 -7.8333362E-06
  0.000E+00  2.796E-03  9.253E-01 8.3334858E+00 6.4531472E+00 4.8038825E-01
  4.318E-02  1.243E-03  9.502E-01 8.1281665E+00 6.8261199E+00 3.3809262E-01
  0.000E+00  7.761E-03  8.757E-01 8.3871779E+00 6.4218446E+00 8.0206085E-01
  4.318E-02  4.969E-03  9.004E-01 8.1640048E+00 6.8006500E+00 6.7698560E-01
  0.000E+00  1.519E-02  8.264E-01 8.4738122E+00 6.3767490E+00 1.1253577E+00
  4.318E-02  1.117E-02  8.510E-01 8.2344899E+00 6.7603743E+00 1.0177866E+00
  0.000E+00  2.507E-02  7.775E-01 8.5854685E+00 6.3156859E+00 1.4461058E+00
  4.318E-02  1.983E-02  8.019E-01 8.3382509E+00 6.7048197E+00 1.3587858E+00
  0.000E+00  3.738E-02  7.292E-01 8.6893818E+00 6.2336401E+00 1.7571855E+00
  4.318E-02  3.092E-02  7.532E-01 8.4500339E+00 6.6297557E+00 1.6932309E+00
  0.000E+00  5.207E-02  6.815E-01 8.7572549E+00 6.1323635E+00 2.0585973E+00
  4.318E-02  4.443E-02  7.052E-01 8.5347866E+00 6.5319672E+00 2.0155581E+00
  0.000E+00  6.913E-02  6.347E-01 8.8584643E+00 6.0234131E+00 2.3608867E+00
  4.318E-02  6.031E-02  6.580E-01 8.6004569E+00 6.4198791E+00 2.3331713E+00
  0.000E+00  8.849E-02  5.887E-01 9.0454011E+00 5.9032437E+00 2.6637635E+00
  4.318E-02  7.852E-02  6.116E-01 8.7678906E+00 6.3006330E+00 2.6542403E+00
  0.000E+00  1.101E-01  5.438E-01 9.1308535E+00 5.7604212E+00 2.9545566E+00
  4.318E-02  9.903E-02  5.661E-01 8.9068437E+00 6.1616278E+00 2.9685716E+00
  0.000E+00  1.340E-01  5.000E-01 9.1991808E+00 5.6054627E+00 3.2356063E+00
  4.318E-02  1.218E-01  5.217E-01 8.9470966E+00 6.0029371E+00 3.2695057E+00
  0.000E+00  1.600E-01  4.575E-01 9.3596904E+00 5.4388471E+00 3.5123909E+00
  4.318E-02  1.467E-01  4.786E-01 9.1195578E+00 5.8348336E+00 3.5646702E+00
  0.000E+00  1.881E-01  4.163E-01 9.3697651E+00 5.2557899E+00 3.7788930E+00
  4.318E-02  1.738E-01  4.367E-01 9.1589477E+00 5.6481881E+00 3.8510931E+00
  0.000E+00  2.182E-01  3.765E-01 9.4732521E+00 5.0619691E+00 4.0357359E+00
  4.318E-02  2.029E-01  3.962E-01 9.2481449E+00 5.4512291E+00 4.1286193E+00
  0.000E+00  2.502E-01  3.383E-01 9.4785218E+00 4.8539734E+00 4.2836822E+00
  4.318E-02  2.340E-01  3.572E-01 9.3067640E+00 5.2371904E+00 4.3942563E+00
  0.000E+00  2.841E-01  3.018E-01 9.5335053E+00 4.6350069E+00 4.5195436E+00
  4.318E-02  2.669E-01  3.198E-01 9.3010331E+00 5.0129481E+00 4.6503405E+00
  0.000E+00  3.198E-01  2.669E-01 9.4911534E+00 4.4041723E+00 4.7459700E+00
  4.318E-02  3.018E-01  2.841E-01 9.3423345E+00 4.7741116E+00 4.8943440E+00
  0.000E+00  3.572E-01  2.340E-01 9.4976926E+00 4.1618701E+00 4.9584402E+00
  4.318E-02  3.383E-01  2.502E-01 9.2880713E+00 4.5251655E+00 5.1259276E+00
  0.000E+00  3.962E-01  2.029E-01 9.4383676E+00 3.9105977E+00 5.1615317E+00
  4.318E-02  3.765E-01  2.182E-01 9.2819505E+00 4.2634826E+00 5.3457649E+00
  0.000E+00  4.367E-01  1.738E-01 9.3490924E+00 3.6478232E+00 5.3480815E+00
  4.318E-02  4.163E-01  1.881E-01 9.1792227E+00 3.9923614E+00 5.5509143E+00
  0.000E+00  4.786E-01  1.467E-01 9.3101383E+00 3.3768415E+00 5.5253928E+00
  4.318E-02  4.575E-01  1.600E-01 9.1676982E+00 3.7109393E+00 5.7443555E+00
  0.000E+00  5.217E-01  1.218E-01 9.1362793E+00 3.0973155E+00 5.6846348E+00
  4.318E-02  5.000E-01  1.340E-01 9.0084807E+00 3.4187026E+00 5.9207315E+00
  0.000E+00  5.661E-01  9.903E-02 9.0975159E+00 2.8124157E+00 5.8353179E+00
  4.318E-02  5.438E-01  1.101E-01 8.9390536E+00 3.1218873E+00 6.0847824E+00
  0.000E+00  6.116E-01  7.852E-02 8.9577585E+00 2.5147584E+00 5.9673655E+00
  4.318E-02  5.887E-01  8.849E-02 8.8531481E+00 2.8147120E+00 6.2356573E+00
  0.000E+00  6.580E-01  6.031E-02 8.7893662E+00 2.2106547E+00 6.0803825E+00
  4.318E-02  6.347E-01  6.913E-02 8.6675585E+00 2.4947796E+00 6.3630207E+00
  0.000E+00  7.052E-01  4.443E-02 8.7248726E+00 1.9098193E+00 6.1868281E+00
  4.318E-02  6.815E-01  5.207E-02 8.5657188E+00 2.1754008E+00 6.4784564E+00
  0.000E+00  7.532E-01  3.092E-02 8.6405473E+00 1.6044280E+00 6.2797737E+00
  4.318E-02  7.292E-01  3.738E-02 8.4968650E+00 1.8569653E+00 6.5854917E+00
  0.000E+00  8.019E-01  1.983E-02 8.5283531E+00 1.2875251E+00 6.3510935E+00
  4.318E-02  7.775E-01  2.507E-02 8.3929801E+00 1.5283212E+00 6.6722811E+00
  0.000E+00  8.510E-01  1.117E-02 8.4240534E+00 9.6442616E-01 6.4038359E+00
  4.318E-02  8.264E-01  1.519E-02 8.2817912E+00 1.1894044E+00 6.7369920E+00
  0.000E+00  9.004E-01  4.969E-03 8.3533244E+00 6.4151555E-01 6.4420673E+00
  4.318E-02  8.757E-01  7.761E-03 8.1954867E+00 8.4773677E-01 6.7848157E+00
  4.318E-02  9.253E-01  2.796E-03 8.1418838E+00 5.0775831E-01 6.8179990E+00
  1.000E+01  1.050E+00  1.243E-03 8.3174827E+00 -3.2038688E-01 6.4662586E+00
  1.000E+01  1.000E+00  5.551E-16 8.3071377E+00 6.3667509E-06 6.4746727E+00
  9.957E+00  1.025E+00  3.108E-04 8.5054611E+00 -1.4954795E-01 6.0442392E+00
  1.000E+01  9.502E-01  1.243E-03 8.3174835E+00 3.2039696E-01 6.4662579E+00
  9.957E+00  9.751E-01  3.108E-04 8.5054603E+00 1.4955976E-01 6.0442389E+00
  1.000E+01  9.004E-01  4.969E-03 8.3533244E+00 6.4151555E-01 6.4420673E+00
  9.957E+00  9.253E-01  2.796E-03 8.5299286E+00 4.4900896E-01 6.0289385E+00
  1.000E+01  8.510E-01  1.117E-02 8.4240534E+00 9.6442616E-01 6.4038359E+00
  9.957E+00  8.757E-01  7.761E-03 8.5837415E+00 7.4963980E-01 5.9996142E+00
  1.000E+01  8.019E-01  1.983E-02 8.5283531E+00 1.2875251E+00 6.3510935E+00
  9.957E+00  8.264E-01  1.519E-02 8.6707338E+00 1.0517482E+00 5.9573711E+00
  1.000E+01  7.532E-01  3.092E-02 8.6405473E+00 1.6044280E+00 6.2797737E+00
  9.957E+00  7.775E-01  2.507E-02 8.7829217E+00 1.3515010E+00 5.9001576E+00
  1.000E+01  7.052E-01  4.443E-02 8.7248726E+00 1.9098193E+00 6.1868281E+00
  9.957E+00  7.292E-01  3.738E-02 8.8869325E+00 1.6422207E+00 5.8232183E+00
  1.000E+01  6.580E-01  6.031E-02 8.7893662E+00 2.2106547E+00 6.0803825E+00
  9.957E+00  6.815E-01  5.207E-02 8.9538784E+00 1.9238243E+00 5.7282387E+00
  1.000E+01  6.116E-01  7.852E-02 8.9577585E+00 2.5147584E+00 5.9673655E+00
  9.957E+00  6.347E-01  6.913E-02 9.0545206E+00 2.2061803E+00 5.6263141E+00
  1.000E+01  5.661E-01  9.903E-02 9.0975159E+00 2.8124157E+00 5.8353179E+00
  9.957E+00  5.887E-01  8.849E-02 9.2429591E+00 2.4891244E+00 5.5138775E+00
  1.000E+01  5.217E-01  1.218E-01 9.1362793E+00 3.0973155E+00 5.6846348E+00
  9.957E+00  5.438E-01  1.101E-01 9.3281241E+00 2.7606363E+00 5.3799253E+00
  1.000E+01  4.786E-01  1.467E-01 9.3101383E+00 3.3768415E+00 5.5253928E+00
  9.957E+00  5.000E-01  1.340E-01 9.3955129E+00 3.0230419E+00 5.2349783E+00
  1.000E+01  4.367E-01  1.738E-01 9.3490924E+00 3.6478232E+00 5.3480815E+00
  9.957E+00  4.575E-01  1.600E-01 9.5575808E+00 3.2814801E+00 5.0791104E+00
  1.000E+01  3.962E-01  2.029E-01 9.4383676E+00 3.9105977E+00 5.1615317E+00
  9.957E+00  4.163E-01  1.881E-01 9.5664173E+00 3.5301339E+00 4.9076759E+00
  1.000E+01  3.572E-01  2.340E-01 9.4976926E+00 4.1618701E+00 4.9584402E+00
  9.957E+00  3.765E-01  2.182E-01 9.6709508E+00 3.7698355E+00 4.7265092E+00
  1.000E+01  3.198E-01  2.669E-01 9.4911534E+00 4.4041723E+00 4.7459700E+00
  9.957E+00  3.383E-01  2.502E-01 9.6756151E+00 4.0011514E+00 4.5319109E+00
  1.000E+01  2.841E-01  3.018E-01 9.5335053E+00 4.6350069E+00 4.5195436E+00
  9.957E+00  3.018E-01  2.841E-01 9.7316438E+00 4.2211378E+00 4.3272450E+00
  1.000E+01  2.502E-01  3.383E-01 9.4785218E+00 4.8539734E+00 4.2836822E+00
  9.957E+00  2.669E-01  3.198E-01 9.6884768E+00 4.4323544E+00 4.1114656E+00
  1.000E+01  2.182E-01  3.765E-01 9.4732521E+00 5.0619691E+00 4.0357359E+00
  9.957E+00  2.340E-01  3.572E-01 9.6961498E+00 4.6303857E+00 3.8849902E+00
  1.000E+01  1.881E-01  4.163E-01 9.3697651E+00 5.2557899E+00 3.7788930E+00
  9.957E+00  2.029E-01  3.962E-01 9.6363515E+00 4.8198789E+00 3.6503013E+00
  1.000E+01  1.600E-01  4.575E-01 9.3596904E+00 5.4388471E+00 3.5123909E+00
  9.957E+00  1.738E-01  4.367E-01 9.5472831E+00 4.9935128E+00 3.4046875E+00
  1.000E+01  1.340E-01  5.000E-01 9.1991808E+00 5.6054627E+00 3.2356063E+00
  9.957E+00  1.467E-01  4.786E-01 9.5090020E+00 5.1590709E+00 3.1517075E+00
  1.000E+01  1.101E-01  5.438E-01 9.1308535E+00 5.7604212E+00 2.9545566E+00
  9.957E+00  1.218E-01  5.217E-01 9.3339052E+00 5.3071137E+00 2.8905910E+00
  1.000E+01  8.849E-02  5.887E-01 9.0454011E+00 5.9032437E+00 2.6637635E+00
  9.957E+00  9.903E-02  5.661E-01 9.2968847E+00 5.4476791E+00 2.6246029E+00
  1.000E+01  6.913E-02  6.347E-01 8.8584643E+00 6.0234131E+00 2.3608867E+00
  9.957E+00  7.852E-02  6.116E-01 9.1564293E+00 5.5707946E+00 2.3467434E+00
  1.000E+01  5.207E-02  6.815E-01 8.7572549E+00 6.1323635E+00 2.0585973E+00
  9.957E+00  6.031E-02  6.580E-01 8.9871676E+00 5.6757901E+00 2.0628643E+00
  1.000E+01  3.738E-02  7.292E-01 8.6893818E+00 6.2336401E+00 1.7571855E+00
  9.957E+00  4.443E-02  7.052E-01 8.9240043E+00 5.7750026E+00 1.7820831E+00
  1.000E+01  2.507E-02  7.775E-01 8.5854685E+00 6.3156859E+00 1.4461058E+00
  9.957E+00  3.092E-02  7.532E-01 8.8401935E+00 5.8616967E+00 1.4970272E+00
  1.000E+01  1.519E-02  8.264E-01 8.4738122E+00 6.3767490E+00 1.1253577E+00
  9.957E+00  1.983E-02  8.019E-01 8.7276102E+00 5.9281117E+00 1.2012556E+00
  1.000E+01  7.761E-03  8.757E-01 8.3871779E+00 6.4218446E+00 8.0206085E-01
  9.957E+00  1.117E-02  8.510E-01 8.6227888E+00 5.9771244E+00 8.9975939E-01
  1.000E+01  2.796E-03  9.253E-01 8.3334858E+00 6.4531472E+00 4.8038825E-01
  9.957E+00  4.969E-03  9.004E-01 8.5518543E+00 6.0126496E+00 5.9847501E-01
  1.000E+01  3.108E-04  9.751E-01 8.3090019E+00 6.4694718E+00 1.6001049E-01
  9.957E+00  1.243E-03  9.502E-01 8.5160458E+00 6.0351538E+00 2.9889058E-01
  1.000E+01  3.108E-04  1.025E+00 8.3090023E+00 6.4694703E+00 -1.6002492E-01
  9.957E+00  0.000E+00  1.000E+00 8.5057499E+00 6.0429978E+00 -6.5205268E-06
  1.000E+01  2.796E-03  1.075E+00 8.3334871E+00 6.4531437E+00 -4.8040239E-01
  9.957E+00  1.243E-03  1.050E+00 8.5160465E+00 6.0351650E+00 -2.9890384E-01
  1.000E+01  7.761E-03  1.124E+00 8.3871800E+00 6.4218404E+00 -8.0207457E-01
  9.957E+00  4.969E-03  1.100E+00 8.5518557E+00 6.0126696E+00 -5.9848865E-01
  1.000E+01  1.519E-02  1.174E+00 8.4738150E+00 6.3767414E+00 -1.1253714E+00
  9.957E+00  1.117E-02  1.149E+00 8.6227908E+00 5.9771419E+00 -8.9977312E-01
  1.000E+01  2.507E-02  1.223E+00 8.5854722E+00 6.3156693E+00 -1.4461203E+00
  9.957E+00  1.983E-02  1.198E+00 8.7276122E+00 5.9281102E+00 -1.2012692E+00
  1.000E+01  3.738E-02  1.271E+00 8.6893866E+00 6.2336293E+00 -1.7572013E+00
  9.957E+00  3.092E-02  1.247E+00 8.8401957E+00 5.8616795E+00 -1.4970416E+00
  1.000E+01  5.207E-02  1.318E+00 8.7572610E+00 6.1323865E+00 -2.0586137E+00
  9.957E+00  4.443E-02  1.295E+00 8.9240080E+00 5.7750082E+00 -1.7820993E+00
  1.000E+01  6.913E-02  1.365E+00 8.8584715E+00 6.0234327E+00 -2.3609028E+00
  9.957E+00  6.031E-02  1.342E+00 8.9871740E+00 5.6758268E+00 -2.0628814E+00
  1.000E+01  8.849E-02  1.411E+00 9.0454098E+00 5.9032172E+00 -2.6637784E+00
  9.957E+00  7.852E-02  1.388E+00 9.1564380E+00 5.5707909E+00 -2.3467594E+00
  1.000E+01  1.101E-01  1.456E+00 9.1308629E+00 5.7604211E+00 -2.9545706E+00
  9.957E+00  9.903E-02  1.434E+00 9.2968943E+00 5.4476586E+00 -2.6246168E+00
  1.000E+01  1.340E-01  1.500E+00 9.1991917E+00 5.6054708E+00 -3.2356197E+00
  9.957E+00  1.218E-01  1.478E+00 9.3339154E+00 5.3071317E+00 -2.8906043E+00
  1.000E+01  1.600E-01  1.543E+00 9.3597024E+00 5.4388247E+00 -3.5124038E+00
  9.957E+00  1.467E-01  1.521E+00 9.5090123E+00 5.1590578E+00 -3.1517200E+00
  1.000E+01  1.881E-01  1.584E+00 9.3697779E+00 5.2557966E+00 -3.7789066E+00
  9.957E+00  1.738E-01  1.563E+00 9.5472945E+00 4.9935046E+00 -3.4047009E+00
  1.000E+01  2.182E-01  1.623E+00 9.4732659E+00 5.0619579E+00 -4.0357476E+00
  9.957E+00  2.029E-01  1.604E+00 9.6363657E+00 4.8198796E+00 -3.6503138E+00
  1.000E+01  2.502E-01  1.662E+00 9.4785362E+00 4.8539642E+00 -4.2836931E+00
  9.957E+00  2.340E-01  1.643E+00 9.6961648E+00 4.6303719E+00 -3.8850006E+00
  1.000E+01  2.841E-01  1.698E+00 9.5335201E+00 4.6350005E+00 -4.5195541E+00
  9.957E+00  2.669E-01  1.680E+00 9.6884905E+00 4.4323528E+00 -4.1114758E+00
  1.000E+01  3.198E-01  1.733E+00 9.4911684E+00 4.4041646E+00 -4.7459803E+00
  9.957E+00  3.018E-01  1.716E+00 9.7316586E+00 4.2211271E+00 -4.3272552E+00
  1.000E+01  3.572E-01  1.766E+00 9.4977082E+00 4.1618640E+00 -4.9584494E+00
  9.957E+00  3.383E-01  1.750E+00 9.6756324E+00 4.0011468E+00 -4.5319206E+00
  1.000E+01  3.962E-01  1.797E+00 9.4383846E+00 3.9105909E+00 -5.1615407E+00
  9.957E+00  3.765E-01  1.782E+00 9.6709663E+00 3.7698294E+00 -4.7265173E+00
  1.000E+01  4.367E-01  1.826E+00 9.3491103E+00 3.6478207E+00 -5.3480906E+00
  9.957E+00  4.163E-01  1.812E+00 9.5664320E+00 3.5301276E+00 -4.9076845E+00
  1.000E+01  4.786E-01  1.853E+00 9.3101553E+00 3.3768350E+00 -5.5254007E+00
  9.957E+00  4.575E-01  1.840E+00 9.5575982E+00 3.2814737E+00 -5.0791182E+00
  1.000E+01  5.217E-01  1.878E+00 9.1362944E+00 3.0973090E+00 -5.6846418E+00
  9.957E+00  5.000E-01  1.866E+00 9.3955305E+00 3.0230393E+00 -5.2349855E+00
  1.000E+01  5.661E-01  1.901E+00 9.0975300E+00 2.8124080E+00 -5.8353242E+00
  9.957E+00  5.438E-01  1.890E+00 9.3281421E+00 2.7606321E+00 -5.3799330E+00
  1.000E+01  6.116E-01  1.921E+00 8.9577749E+00 2.5147506E+00 -5.9673708E+00
  9.957E+00  5.887E-01  1.912E+00 9.2429786E+00 2.4891217E+00 -5.5138851E+00
  1.000E+01  6.580E-01  1.940E+00 8.7893861E+00 2.2106484E+00 -6.0803875E+00
  9.957E+00  6.347E-01  1.931E+00 9.0545363E+00 2.2061794E+00 -5.6263216E+00
  1.000E+01  7.052E-01  1.956E+00 8.7248938E+00 1.9098178E+00 -6.1868337E+00
  9.957E+00  6.815E-01  1.948E+00 8.9538921E+00 1.9238201E+00 -5.7282460E+00
  1.000E+01  7.532E-01  1.969E+00 8.6405667E+00 1.6044298E+00 -6.2797803E+00
  9.957E+00  7.292E-01  1.963E+00 8.8869479E+00 1.6422162E+00 -5.8232244E+00
  1.000E+01  8.019E-01  1.980E+00 8.5283698E+00 1.2875328E+00 -6.3511019E+00
  9.957E+00  7.775E-01  1.975E+00 8.7829366E+00 1.3514939E+00 -5.9001625E+00
  1.000E+01  8.510E-01  1.989E+00 8.4240687E+00 9.6443251E-01 -6.4038457E+00
  9.957E+00  8.264E-01  1.985E+00 8.6707526E+00 1.0517400E+00 -5.9573749E+00
  1.000E+01  9.004E-01  1.995E+00 8.3533401E+00 6.4151992E-01 -6.4420781E+00
  9.957E+00  8.757E-01  1.992E+00 8.5837602E+00 7.4963403E-01 -5.9996170E+00
  1.000E+01  9.502E-01  1.999E+00 8.3174999E+00 3.2040024E-01 -6.4662692E+00
  9.957E+00  9.253E-01  1.997E+00 8.5299463E+00 4.4900450E-01 -6.0289408E+00
  1.000E+01  1.000E+00  2.000E+00 8.3071546E+00 4.6265999E-06 -6.4746842E+00
  9.957E+00  9.751E-01  2.000E+00 8.5054795E+00 1.4955843E-01 -6.0442408E+00
  1.000E+01  1.050E+00  1.999E+00 8.3174992E+00 -3.2038840E-01 -6.4662698E+00
  9.957E+00  1.025E+00  2.000E+00 8.5054779E+00 -1.4954685E-01 -6.0442411E+00
  1.000E+01  1.100E+00  1.995E+00 8.3533386E+00 -6.4150977E-01 -6.4420793E+00
  9.957E+00  1.075E+00  1.997E+00 8.5299458E+00 -4.4899363E-01 -6.0289417E+00
  1.000E+01  1.149E+00  1.989E+00 8.4240665E+00 -9.6442259E-01 -6.4038475E+00
  9.957E+00  1.124E+00  1.992E+00 8.5837583E+00 -7.4962223E-01 -5.9996186E+00
  1.000E+01  1.198E+00  1.980E+00 8.5283669E+00 -1.2875215E+00 -6.3511042E+00
  9.957E+00  1.174E+00  1.985E+00 8.6707491E+00 -1.0517295E+00 -5.9573770E+00