# TIME = 2.000000
VARIABLES = X, Y, Z, FX, FY, FZ
ZONE N=29232 E=58212 F=FEPOINT ET=TRIANGLE
  0.000E+00  9.502E-01  1.243E-03 3.2247293E+00 -2.5836046E+00 -5.1803690E+01
  0.000E+00  1.000E+00  0.000E+00 3.2230274E+00 -2.6077480E-06 -5.1867933E+01
  4.318E-02  9.751E-01  3.108E-04 3.2233507E+00 -1.2929976E+00 -5.1891755E+01
  0.000E+00  1.050E+00  1.243E-03 3.2247297E+00 2.5835994E+00 -5.1803691E+01
  4.318E-02  1.025E+00  3.108E-04 3.2233509E+00 1.2929922E+00 -5.1891756E+01
  0.000E+00  1.100E+00  4.969E-03 3.2304211E+00 5.1636183E+00 -5.1612410E+01
  4.318E-02  1.075E+00  2.796E-03 3.2270858E+00 3.8773313E+00 -5.1763654E+01
  0.000E+00  1.149E+00  1.117E-02 3.2407681E+00 7.7335460E+00 -5.1294055E+01
  4.318E-02  1.124E+00  7.761E-03 3.2352067E+00 6.4554238E+00 -5.1508938E+01
  0.000E+00  1.198E+00  1.983E-02 3.2543988E+00 1.0282227E+01 -5.0845640E+01
  4.318E-02  1.174E+00  1.519E-02 3.2475137E+00 9.0182419E+00 -5.1125598E+01
  0.000E+00  1.247E+00  3.092E-02 3.2673142E+00 1.2800402E+01 -5.0267343E+01
  4.318E-02  1.223E+00  2.507E-02 3.2612805E+00 1.1554244E+01 -5.0611410E+01
  0.000E+00  1.295E+00  4.443E-02 3.2804445E+00 1.5287141E+01 -4.9564903E+01
  4.318E-02  1.271E+00  3.738E-02 3.2726551E+00 1.4058454E+01 -4.9969695E+01
  0.000E+00  1.342E+00  6.031E-02 3.3042105E+00 1.7739999E+01 -4.8742099E+01
  4.318E-02  1.318E+00  5.207E-02 3.2926679E+00 1.6531113E+01 -4.9206479E+01
  0.000E+00  1.388E+00  7.852E-02 3.3167453E+00 2.0148595E+01 -4.7797732E+01
  4.318E-02  1.365E+00  6.913E-02 3.3121212E+00 1.8965032E+01 -4.8322271E+01
  0.000E+00  1.434E+00  9.903E-02 3.3410542E+00 2.2505826E+01 -4.6734025E+01
  4.318E-02  1.411E+00  8.849E-02 3.3258886E+00 2.1350285E+01 -4.7316939E+01
  0.000E+00  1.478E+00  1.218E-01 3.3517259E+00 2.4807370E+01 -4.5554318E+01
  4.318E-02  1.456E+00  1.101E-01 3.3485130E+00 2.3682153E+01 -4.6194110E+01
  0.000E+00  1.521E+00  1.467E-01 3.3752654E+00 2.7047187E+01 -4.4260971E+01
  4.318E-02  1.500E+00  1.340E-01 3.3620625E+00 2.5955333E+01 -4.4956233E+01
  0.000E+00  1.563E+00  1.738E-01 3.3836934E+00 2.9219773E+01 -4.2857659E+01
  4.318E-02  1.543E+00  1.600E-01 3.3749477E+00 2.8163882E+01 -4.3606378E+01
  0.000E+00  1.604E+00  2.029E-01 3.3943426E+00 3.1319824E+01 -4.1347959E+01
  4.318E-02  1.584E+00  1.881E-01 3.3925326E+00 3.0302525E+01 -4.2148333E+01
  0.000E+00  1.643E+00  2.340E-01 3.4073088E+00 3.3341972E+01 -3.9735379E+01
  4.318E-02  1.623E+00  2.182E-01 3.3977156E+00 3.2365874E+01 -4.0585529E+01
  0.000E+00  1.680E+00  2.669E-01 3.4109958E+00 3.5281070E+01 -3.8023900E+01
  4.318E-02  1.662E+00  2.502E-01 3.4010122E+00 3.4348640E+01 -3.8921680E+01
  0.000E+00  1.716E+00  3.018E-01 3.4072524E+00 3.7132463E+01 -3.6218003E+01
  4.318E-02  1.698E+00  2.841E-01 3.4072943E+00 3.6245895E+01 -3.7161064E+01
  0.000E+00  1.750E+00  3.383E-01 3.4009705E+00 3.8891724E+01 -3.4322208E+01
  4.318E-02  1.733E+00  3.198E-01 3.4110378E+00 3.8053182E+01 -3.5308245E+01
  0.000E+00  1.782E+00  3.765E-01 3.3976744E+00 4.0554293E+01 -3.2340969E+01
  4.318E-02  1.766E+00  3.572E-01 3.4073511E+00 3.9765980E+01 -3.3367653E+01
  0.000E+00  1.812E+00  4.163E-01 3.3924915E+00 4.2115895E+01 -3.0279208E+01
  4.318E-02  1.797E+00  3.962E-01 3.3943853E+00 4.1379801E+01 -3.1343949E+01
  0.000E+00  1.840E+00  4.575E-01 3.3749068E+00 4.3572817E+01 -2.8142210E+01
  4.318E-02  1.826E+00  4.367E-01 3.3837359E+00 4.2890664E+01 -2.9242281E+01
  0.000E+00  1.866E+00  5.000E-01 3.3620226E+00 4.4921634E+01 -2.5935362E+01
  4.318E-02  1.853E+00  4.786E-01 3.3753082E+00 4.4295057E+01 -2.7068021E+01
  0.000E+00  1.890E+00  5.438E-01 3.3484730E+00 4.6158559E+01 -2.3663931E+01
  4.318E-02  1.878E+00  5.217E-01 3.3517692E+00 4.5589401E+01 -2.4826480E+01
  0.000E+00  1.912E+00  5.887E-01 3.3258495E+00 4.7280524E+01 -2.1333857E+01
  4.318E-02  1.901E+00  5.661E-01 3.3410972E+00 4.6770016E+01 -2.2523163E+01
  0.000E+00  1.931E+00  6.347E-01 3.3120819E+00 4.8285082E+01 -1.8950441E+01
  4.318E-02  1.921E+00  6.116E-01 3.3167892E+00 4.7834544E+01 -2.0164117E+01
  0.000E+00  1.948E+00  6.815E-01 3.2926296E+00 4.9168610E+01 -1.6518394E+01
  4.318E-02  1.940E+00  6.580E-01 3.3042542E+00 4.8779637E+01 -1.7753666E+01
  0.000E+00  1.963E+00  7.292E-01 3.2726165E+00 4.9931239E+01 -1.4047639E+01
  4.318E-02  1.956E+00  7.052E-01 3.2804882E+00 4.9603076E+01 -1.5298919E+01
  0.000E+00  1.975E+00  7.775E-01 3.2612423E+00 5.0572461E+01 -1.1545357E+01
  4.318E-02  1.969E+00  7.532E-01 3.2673583E+00 5.0306056E+01 -1.2810265E+01
  0.000E+00  1.985E+00  8.264E-01 3.2474763E+00 5.1086253E+01 -9.0113057E+00
  4.318E-02  1.980E+00  8.019E-01 3.2544428E+00 5.0884799E+01 -1.0290150E+01
  0.000E+00  1.992E+00  8.757E-01 3.2351697E+00 5.1469297E+01 -6.4504598E+00
  4.318E-02  1.989E+00  8.510E-01 3.2408122E+00 5.1333560E+01 -7.7395065E+00
  0.000E+00  1.997E+00  9.253E-01 3.2270490E+00 5.1723817E+01 -3.8743515E+00
  4.318E-02  1.995E+00  9.004E-01 3.2304658E+00 5.1652160E+01 -5.1675998E+00
  0.000E+00  2.000E+00  9.751E-01 3.2233143E+00 5.1851820E+01 -1.2920015E+00
  4.318E-02  1.999E+00  9.502E-01 3.2247747E+00 5.1843589E+01 -2.5855939E+00
  0.000E+00  2.000E+00  1.025E+00 3.2233144E+00 5.1851820E+01 1.2919979E+00
  4.318E-02  2.000E+00  1.000E+00 3.2230727E+00 5.1907882E+01 -1.8510630E-06
  0.000E+00  1.997E+00  1.075E+00 3.2270493E+00 5.1723817E+01 3.8743478E+00
  4.318E-02  1.999E+00  1.050E+00 3.2247749E+00 5.1843590E+01 2.5855902E+00
  0.000E+00  1.992E+00  1.124E+00 3.2351701E+00 5.1469298E+01 6.4504561E+00
  4.318E-02  1.995E+00  1.100E+00 3.2304662E+00 5.1652161E+01 5.1675962E+00
  0.000E+00  1.985E+00  1.174E+00 3.2474770E+00 5.1086253E+01 9.0113020E+00
  4.318E-02  1.989E+00  1.149E+00 3.2408128E+00 5.1333561E+01 7.7395030E+00
  0.000E+00  1.975E+00  1.223E+00 3.2612432E+00 5.0572461E+01 1.1545353E+01
  4.318E-02  1.980E+00  1.198E+00 3.2544436E+00 5.0884801E+01 1.0290147E+01
  0.000E+00  1.963E+00  1.271E+00 3.2726176E+00 4.9931239E+01 1.4047635E+01
  4.318E-02  1.969E+00  1.247E+00 3.2673593E+00 5.0306058E+01 1.2810261E+01
  0.000E+00  1.948E+00  1.318E+00 3.2926309E+00 4.9168611E+01 1.6518391E+01
  4.318E-02  1.956E+00  1.295E+00 3.2804893E+00 4.9603078E+01 1.5298916E+01
  0.000E+00  1.931E+00  1.365E+00 3.3120834E+00 4.8285083E+01 1.8950437E+01
  4.318E-02  1.940E+00  1.342E+00 3.3042555E+00 4.8779639E+01 1.7753663E+01
  0.000E+00  1.912E+00  1.411E+00 3.3258511E+00 4.7280525E+01 2.1333854E+01
  4.318E-02  1.921E+00  1.388E+00 3.3167907E+00 4.7834546E+01 2.0164114E+01
  0.000E+00  1.890E+00  1.456E+00 3.3484747E+00 4.6158560E+01 2.3663928E+01
  4.318E-02  1.901E+00  1.434E+00 3.3410989E+00 4.6770019E+01 2.2523160E+01
  0.000E+00  1.866E+00  1.500E+00 3.3620245E+00 4.4921635E+01 2.5935358E+01
  4.318E-02  1.878E+00  1.478E+00 3.3517710E+00 4.5589404E+01 2.4826477E+01
  0.000E+00  1.840E+00  1.543E+00 3.3749089E+00 4.3572819E+01 2.8142207E+01
  4.318E-02  1.853E+00  1.521E+00 3.3753102E+00 4.4295059E+01 2.7068019E+01
  0.000E+00  1.812E+00  1.584E+00 3.3924938E+00 4.2115897E+01 3.0279204E+01
  4.318E-02  1.826E+00  1.563E+00 3.3837380E+00 4.2890667E+01 2.9242278E+01
  0.000E+00  1.782E+00  1.623E+00 3.3976767E+00 4.0554294E+01 3.2340965E+01
  4.318E-02  1.797E+00  1.604E+00 3.3943876E+00 4.1379804E+01 3.1343947E+01
  0.000E+00  1.750E+00  1.662E+00 3.4009730E+00 3.8891726E+01 3.4322205E+01
  4.318E-02  1.766E+00  1.643E+00 3.4073535E+00 3.9765983E+01 3.3367651E+01
  0.000E+00  1.716E+00  1.698E+00 3.4072550E+00 3.7132465E+01 3.6218000E+01
  4.318E-02  1.733E+00  1.680E+00 3.4110404E+00 3.8053185E+01 3.5308243E+01
  0.000E+00  1.680E+00  1.733E+00 3.4109985E+00 3.5281072E+01 3.8023897E+01
  4.318E-02  1.698E+00  1.716E+00 3.4072970E+00 3.6245898E+01 3.7161062E+01
  0.000E+00  1.643E+00  1.766E+00 3.4073116E+00 3.3341974E+01 3.9735377E+01
  4.318E-02  1.662E+00  1.750E+00 3.4010150E+00 3.4348643E+01 3.8921679E+01
  0.000E+00  1.604E+00  1.797E+00 3.3943455E+00 3.1319827E+01 4.1347956E+01
  4.318E-02  1.623E+00  1.782E+00 3.3977185E+00 3.2365877E+01 4.0585527E+01
  0.000E+00  1.563E+00  1.826E+00 3.3836964E+00 2.9219776E+01 4.2857656E+01
  4.318E-02  1.584E+00  1.812E+00 3.3925356E+00 3.0302528E+01 4.2148332E+01
  0.000E+00  1.521E+00  1.853E+00 3.3752684E+00 2.7047190E+01 4.4260968E+01
  4.318E-02  1.543E+00  1.840E+00 3.3749508E+00 2.8163885E+01 4.3606376E+01
  0.000E+00  1.478E+00  1.878E+00 3.3517290E+00 2.4807373E+01 4.5554316E+01
  4.318E-02  1.500E+00  1.866E+00 3.3620657E+00 2.5955337E+01 4.4956231E+01
  0.000E+00  1.434E+00  1.901E+00 3.3410574E+00 2.2505829E+01 4.6734023E+01
  4.318E-02  1.456E+00  1.890E+00 3.3485163E+00 2.3682156E+01 4.6194109E+01
  0.000E+00  1.388E+00  1.921E+00 3.3167486E+00 2.0148598E+01 4.7797731E+01
  4.318E-02  1.411E+00  1.912E+00 3.3258919E+00 2.1350288E+01 4.7316938E+01
  0.000E+00  1.342E+00  1.940E+00 3.3042139E+00 1.7740002E+01 4.8742097E+01
  4.318E-02  1.365E+00  1.931E+00 3.3121245E+00 1.8965036E+01 4.8322269E+01
  0.000E+00  1.295E+00  1.956E+00 3.2804480E+00 1.5287144E+01 4.9564901E+01
  4.318E-02  1.318E+00  1.948E+00 3.2926712E+00 1.6531116E+01 4.9206477E+01
  0.000E+00  1.247E+00  1.969E+00 3.2673176E+00 1.2800405E+01 5.0267342E+01
  4.318E-02  1.271E+00  1.963E+00 3.2726584E+00 1.4058458E+01 4.9969694E+01
  0.000E+00  1.198E+00  1.980E+00 3.2544023E+00 1.0282230E+01 5.0845639E+01
  4.318E-02  1.223E+00  1.975E+00 3.2612840E+00 1.1554248E+01 5.0611409E+01
  0.000E+00  1.149E+00  1.989E+00 3.2407715E+00 7.7335493E+00 5.1294055E+01
  4.318E-02  1.174E+00  1.985E+00 3.2475172E+00 9.0182451E+00 5.1125597E+01
  0.000E+00  1.100E+00  1.995E+00 3.2304246E+00 5.1636217E+00 5.1612409E+01
  4.318E-02  1.124E+00  1.992E+00 3.2352102E+00 6.4554269E+00 5.1508937E+01
  0.000E+00  1.050E+00  1.999E+00 3.2247333E+00 2.5836027E+00 5.1803690E+01
  4.318E-02  1.075E+00  1.997E+00 3.2270893E+00 3.8773345E+00 5.1763654E+01
  0.000E+00  1.000E+00  2.000E+00 3.2230310E+00 6.0977822E-07 5.1867933E+01
  4.318E-02  1.025E+00  2.000E+00 3.2233544E+00 1.2929955E+00 5.1891755E+01
  0.000E+00  9.502E-01  1.999E+00 3.2247329E+00 -2.5836015E+00 5.1803690E+01
  4.318E-02  9.751E-01  2.000E+00 3.2233542E+00 -1.2929942E+00 5.1891755E+01
  0.000E+00  9.004E-01  1.995E+00 3.2304238E+00 -5.1636205E+00 5.1612409E+01
  4.318E-02  9.253E-01  1.997E+00 3.2270887E+00 -3.8773332E+00 5.1763654E+01
  0.000E+00  8.510E-01  1.989E+00 3.2407703E+00 -7.7335481E+00 5.1294055E+01
  4.318E-02  8.757E-01  1.992E+00 3.2352092E+00 -6.4554256E+00 5.1508938E+01
  0.000E+00  8.019E-01  1.980E+00 3.2544006E+00 -1.0282229E+01 5.0845640E+01
  4.318E-02  8.264E-01  1.985E+00 3.2475158E+00 -9.0182438E+00 5.1125598E+01
  0.000E+00  7.532E-01  1.969E+00 3.2673156E+00 -1.2800404E+01 5.0267342E+01
  4.318E-02  7.775E-01  1.975E+00 3.2612822E+00 -1.1554246E+01 5.0611410E+01
  0.000E+00  7.052E-01  1.956E+00 3.2804455E+00 -1.5287142E+01 4.9564902E+01
  4.318E-02  7.292E-01  1.963E+00 3.2726562E+00 -1.4058456E+01 4.9969695E+01
  0.000E+00  6.580E-01  1.940E+00 3.3042111E+00 -1.7740001E+01 4.8742098E+01
  4.318E-02  6.815E-01  1.948E+00 3.2926686E+00 -1.6531115E+01 4.9206478E+01
  0.000E+00  6.116E-01  1.921E+00 3.3167455E+00 -2.0148597E+01 4.7797732E+01
  4.318E-02  6.347E-01  1.931E+00 3.3121215E+00 -1.8965034E+01 4.8322270E+01
  0.000E+00  5.661E-01  1.901E+00 3.3410539E+00 -2.2505828E+01 4.6734025E+01
  4.318E-02  5.887E-01  1.912E+00 3.3258886E+00 -2.1350286E+01 4.7316939E+01
  0.000E+00  5.217E-01  1.878E+00 3.3517252E+00 -2.4807372E+01 4.5554318E+01
  4.318E-02  5.438E-01  1.890E+00 3.3485126E+00 -2.3682155E+01 4.6194110E+01
  0.000E+00  4.786E-01  1.853E+00 3.3752642E+00 -2.7047189E+01 4.4260970E+01
  4.318E-02  5.000E-01  1.866E+00 3.3620617E+00 -2.5955335E+01 4.4956233E+01
  0.000E+00  4.367E-01  1.826E+00 3.3836919E+00 -2.9219775E+01 4.2857658E+01
  4.318E-02  4.575E-01  1.840E+00 3.3749465E+00 -2.8163884E+01 4.3606377E+01
  0.000E+00  3.962E-01  1.797E+00 3.3943407E+00 -3.1319826E+01 4.1347958E+01
  4.318E-02  4.163E-01  1.812E+00 3.3925309E+00 -3.0302526E+01 4.2148333E+01
  0.000E+00  3.572E-01  1.766E+00 3.4073065E+00 -3.3341973E+01 3.9735379E+01
  4.318E-02  3.765E-01  1.782E+00 3.3977136E+00 -3.2365876E+01 4.0585528E+01
  0.000E+00  3.198E-01  1.733E+00 3.4109932E+00 -3.5281072E+01 3.8023900E+01
  4.318E-02  3.383E-01  1.750E+00 3.4010098E+00 -3.4348641E+01 3.8921680E+01
  0.000E+00  2.841E-01  1.698E+00 3.4072494E+00 -3.7132464E+01 3.6218003E+01
  4.318E-02  3.018E-01  1.716E+00 3.4072915E+00 -3.6245896E+01 3.7161063E+01
  0.000E+00  2.502E-01  1.662E+00 3.4009671E+00 -3.8891726E+01 3.4322208E+01
  4.318E-02  2.669E-01  1.680E+00 3.4110346E+00 -3.8053184E+01 3.5308245E+01
  0.000E+00  2.182E-01  1.623E+00 3.3976706E+00 -4.0554294E+01 3.2340968E+01
  4.318E-02  2.340E-01  1.643E+00 3.4073476E+00 -3.9765981E+01 3.3367653E+01
  0.000E+00  1.881E-01  1.584E+00 3.3924874E+00 -4.2115897E+01 3.0279207E+01
  4.318E-02  2.029E-01  1.604E+00 3.3943814E+00 -4.1379803E+01 3.1343949E+01
  0.000E+00  1.600E-01  1.543E+00 3.3749023E+00 -4.3572819E+01 2.8142210E+01
  4.318E-02  1.738E-01  1.563E+00 3.3837316E+00 -4.2890666E+01 2.9242280E+01
  0.000E+00  1.340E-01  1.500E+00 3.3620178E+00 -4.4921635E+01 2.5935361E+01
  4.318E-02  1.467E-01  1.521E+00 3.3753037E+00 -4.4295058E+01 2.7068021E+01
  0.000E+00  1.101E-01  1.456E+00 3.3484679E+00 -4.6158561E+01 2.3663931E+01
  4.318E-02  1.218E-01  1.478E+00 3.3517643E+00 -4.5589403E+01 2.4826480E+01
  0.000E+00  8.849E-02  1.411E+00 3.3258441E+00 -4.7280525E+01 2.1333857E+01
  4.318E-02  9.903E-02  1.434E+00 3.3410920E+00 -4.6770017E+01 2.2523163E+01
  0.000E+00  6.913E-02  1.365E+00 3.3120762E+00 -4.8285083E+01 1.8950440E+01
  4.318E-02  7.852E-02  1.388E+00 3.3167837E+00 -4.7834545E+01 2.0164117E+01
  0.000E+00  5.207E-02  1.318E+00 3.2926237E+00 -4.9168611E+01 1.6518394E+01
  4.318E-02  6.031E-02  1.342E+00 3.3042484E+00 -4.8779638E+01 1.7753665E+01
  0.000E+00  3.738E-02  1.271E+00 3.2726103E+00 -4.9931240E+01 1.4047639E+01
  4.318E-02  4.443E-02  1.295E+00 3.2804821E+00 -4.9603077E+01 1.5298918E+01
  0.000E+00  2.507E-02  1.223E+00 3.2612358E+00 -5.0572462E+01 1.1545356E+01
  4.318E-02  3.092E-02  1.247E+00 3.2673520E+00 -5.0306057E+01 1.2810264E+01
  0.000E+00  1.519E-02  1.174E+00 3.2474695E+00 -5.1086254E+01 9.0113052E+00
  4.318E-02  1.983E-02  1.198E+00 3.2544363E+00 -5.0884800E+01 1.0290150E+01
  0.000E+00  7.761E-03  1.124E+00 3.2351627E+00 -5.1469299E+01 6.4504593E+00
  4.318E-02  1.117E-02  1.149E+00 3.2408054E+00 -5.1333561E+01 7.7395061E+00
  0.000E+00  2.796E-03  1.075E+00 3.2270417E+00 -5.1723819E+01 3.8743511E+00
  4.318E-02  4.969E-03  1.100E+00 3.2304588E+00 -5.1652161E+01 5.1675994E+00
  0.000E+00  3.108E-04  1.025E+00 3.2233068E+00 -5.1851822E+01 1.2920011E+00
  4.318E-02  1.243E-03  1.050E+00 3.2247675E+00 -5.1843590E+01 2.5855935E+00
  0.000E+00  3.108E-04  9.751E-01 3.2233068E+00 -5.1851822E+01 -1.2919983E+00
  4.318E-02  0.000E+00  1.000E+00 3.2230652E+00 -5.1907883E+01 1.4508592E-06
  0.000E+00  2.796E-03  9.253E-01 3.2270415E+00 -5.1723819E+01 -3.8743483E+00
  4.318E-02  1.243E-03  9.502E-01 3.2247673E+00 -5.1843590E+01 -2.5855906E+00
  0.000E+00  7.761E-03  8.757E-01 3.2351622E+00 -5.1469299E+01 -6.4504566E+00
  4.318E-02  4.969E-03  9.004E-01 3.2304583E+00 -5.1652161E+01 -5.1675965E+00
  0.000E+00  1.519E-02  8.264E-01 3.2474688E+00 -5.1086254E+01 -9.0113025E+00
  4.318E-02  1.117E-02  8.510E-01 3.2408048E+00 -5.1333561E+01 -7.7395032E+00
  0.000E+00  2.507E-02  7.775E-01 3.2612349E+00 -5.0572462E+01 -1.1545353E+01
  4.318E-02  1.983E-02  8.019E-01 3.2544355E+00 -5.0884801E+01 -1.0290147E+01
  0.000E+00  3.738E-02  7.292E-01 3.2726092E+00 -4.9931241E+01 -1.4047636E+01
  4.318E-02  3.092E-02  7.532E-01 3.2673511E+00 -5.0306058E+01 -1.2810261E+01
  0.000E+00  5.207E-02  6.815E-01 3.2926224E+00 -4.9168612E+01 -1.6518391E+01
  4.318E-02  4.443E-02  7.052E-01 3.2804810E+00 -4.9603078E+01 -1.5298916E+01
  0.000E+00  6.913E-02  6.347E-01 3.3120748E+00 -4.8285084E+01 -1.8950438E+01
  4.318E-02  6.031E-02  6.580E-01 3.3042471E+00 -4.8779639E+01 -1.7753663E+01
  0.000E+00  8.849E-02  5.887E-01 3.3258425E+00 -4.7280526E+01 -2.1333854E+01
  4.318E-02  7.852E-02  6.116E-01 3.3167822E+00 -4.7834546E+01 -2.0164114E+01
  0.000E+00  1.101E-01  5.438E-01 3.3484661E+00 -4.6158562E+01 -2.3663928E+01
  4.318E-02  9.903E-02  5.661E-01 3.3410904E+00 -4.6770019E+01 -2.2523160E+01
  0.000E+00  1.340E-01  5.000E-01 3.3620159E+00 -4.4921637E+01 -2.5935359E+01
  4.318E-02  1.218E-01  5.217E-01 3.3517624E+00 -4.5589404E+01 -2.4826477E+01
  0.000E+00  1.600E-01  4.575E-01 3.3749003E+00 -4.3572820E+01 -2.8142208E+01
  4.318E-02  1.467E-01  4.786E-01 3.3753017E+00 -4.4295060E+01 -2.7068018E+01
  0.000E+00  1.881E-01  4.163E-01 3.3924852E+00 -4.2115899E+01 -3.0279205E+01
  4.318E-02  1.738E-01  4.367E-01 3.3837295E+00 -4.2890668E+01 -2.9242278E+01
  0.000E+00  2.182E-01  3.765E-01 3.3976682E+00 -4.0554296E+01 -3.2340966E+01
  4.318E-02  2.029E-01  3.962E-01 3.3943791E+00 -4.1379805E+01 -3.1343946E+01
  0.000E+00  2.502E-01  3.383E-01 3.4009646E+00 -3.8891728E+01 -3.4322206E+01
  4.318E-02  2.340E-01  3.572E-01 3.4073452E+00 -3.9765983E+01 -3.3367651E+01
  0.000E+00  2.841E-01  3.018E-01 3.4072468E+00 -3.7132466E+01 -3.6218001E+01
  4.318E-02  2.669E-01  3.198E-01 3.4110321E+00 -3.8053186E+01 -3.5308243E+01
  0.000E+00  3.198E-01  2.669E-01 3.4109904E+00 -3.5281074E+01 -3.8023898E+01
  4.318E-02  3.018E-01  2.841E-01 3.4072889E+00 -3.6245899E+01 -3.7161061E+01
  0.000E+00  3.572E-01  2.340E-01 3.4073037E+00 -3.3341976E+01 -3.9735377E+01
  4.318E-02  3.383E-01  2.502E-01 3.4010070E+00 -3.4348644E+01 -3.8921678E+01
  0.000E+00  3.962E-01  2.029E-01 3.3943378E+00 -3.1319828E+01 -4.1347957E+01
  4.318E-02  3.765E-01  2.182E-01 3.3977107E+00 -3.2365878E+01 -4.0585527E+01
  0.000E+00  4.367E-01  1.738E-01 3.3836889E+00 -2.9219777E+01 -4.2857657E+01
  4.318E-02  4.163E-01  1.881E-01 3.3925280E+00 -3.0302529E+01 -4.2148331E+01
  0.000E+00  4.786E-01  1.467E-01 3.3752612E+00 -2.7047192E+01 -4.4260969E+01
  4.318E-02  4.575E-01  1.600E-01 3.3749434E+00 -2.8163886E+01 -4.3606376E+01
  0.000E+00  5.217E-01  1.218E-01 3.3517221E+00 -2.4807375E+01 -4.5554317E+01
  4.318E-02  5.000E-01  1.340E-01 3.3620586E+00 -2.5955338E+01 -4.4956231E+01
  0.000E+00  5.661E-01  9.903E-02 3.3410507E+00 -2.2505831E+01 -4.6734024E+01
  4.318E-02  5.438E-01  1.101E-01 3.3485094E+00 -2.3682158E+01 -4.6194109E+01
  0.000E+00  6.116E-01  7.852E-02 3.3167422E+00 -2.0148600E+01 -4.7797731E+01
  4.318E-02  5.887E-01  8.849E-02 3.3258853E+00 -2.1350289E+01 -4.7316938E+01
  0.000E+00  6.580E-01  6.031E-02 3.3042077E+00 -1.7740004E+01 -4.8742097E+01
  4.318E-02  6.347E-01  6.913E-02 3.3121182E+00 -1.8965037E+01 -4.8322269E+01
  0.000E+00  7.052E-01  4.443E-02 3.2804421E+00 -1.5287146E+01 -4.9564902E+01
  4.318E-02  6.815E-01  5.207E-02 3.2926653E+00 -1.6531118E+01 -4.9206478E+01
  0.000E+00  7.532E-01  3.092E-02 3.2673121E+00 -1.2800407E+01 -5.0267342E+01
  4.318E-02  7.292E-01  3.738E-02 3.2726529E+00 -1.4058459E+01 -4.9969694E+01
  0.000E+00  8.019E-01  1.983E-02 3.2543972E+00 -1.0282232E+01 -5.0845640E+01
  4.318E-02  7.775E-01  2.507E-02 3.2612787E+00 -1.1554250E+01 -5.0611409E+01
  0.000E+00  8.510E-01  1.117E-02 3.2407668E+00 -7.7335511E+00 -5.1294055E+01
  4.318E-02  8.264E-01  1.519E-02 3.2475123E+00 -9.0182471E+00 -5.1125597E+01
  0.000E+00  9.004E-01  4.969E-03 3.2304203E+00 -5.1636235E+00 -5.1612409E+01
  4.318E-02  8.757E-01  7.761E-03 3.2352057E+00 -6.4554290E+00 -5.1508938E+01
  4.318E-02  9.253E-01  2.796E-03 3.2270852E+00 -3.8773366E+00 -5.1763654E+01
  1.000E+01  1.050E+00  1.243E-03 3.2247297E+00 2.5835994E+00 -5.1803691E+01
  1.000E+01  1.000E+00  5.551E-16 3.2230274E+00 -2.6077480E-06 -5.1867933E+01
  9.957E+00  1.025E+00  3.108E-04 3.2233182E+00 1.2911093E+00 -5.1816187E+01
  1.000E+01  9.502E-01  1.243E-03 3.2247293E+00 -2.5836046E+00 -5.1803690E+01
  9.957E+00  9.751E-01  3.108E-04 3.2233180E+00 -1.2911144E+00 -5.1816187E+01
  1.000E+01  9.004E-01  4.969E-03 3.2304203E+00 -5.1636235E+00 -5.1612409E+01
  9.957E+00  9.253E-01  2.796E-03 3.2270527E+00 -3.8716899E+00 -5.1688272E+01
  1.000E+01  8.510E-01  1.117E-02 3.2407668E+00 -7.7335511E+00 -5.1294055E+01
  9.957E+00  8.757E-01  7.761E-03 3.2351733E+00 -6.4460277E+00 -5.1433927E+01
  1.000E+01  8.019E-01  1.983E-02 3.2543972E+00 -1.0282232E+01 -5.0845640E+01
  9.957E+00  8.264E-01  1.519E-02 3.2474797E+00 -9.0051134E+00 -5.1051145E+01
  1.000E+01  7.532E-01  3.092E-02 3.2673121E+00 -1.2800407E+01 -5.0267342E+01
  9.957E+00  7.775E-01  2.507E-02 3.2612454E+00 -1.1537423E+01 -5.0537705E+01
  1.000E+01  7.052E-01  4.443E-02 3.2804421E+00 -1.5287146E+01 -4.9564902E+01
  9.957E+00  7.292E-01  3.738E-02 3.2726199E+00 -1.4037986E+01 -4.9896925E+01
  1.000E+01  6.580E-01  6.031E-02 3.3042077E+00 -1.7740004E+01 -4.8742097E+01
  9.957E+00  6.815E-01  5.207E-02 3.2926338E+00 -1.6507043E+01 -4.9134820E+01
  1.000E+01  6.116E-01  7.852E-02 3.3167422E+00 -2.0148600E+01 -4.7797731E+01
  9.957E+00  6.347E-01  6.913E-02 3.3120855E+00 -1.8937418E+01 -4.8251900E+01
  1.000E+01  5.661E-01  9.903E-02 3.3410507E+00 -2.2505831E+01 -4.6734024E+01
  9.957E+00  5.887E-01  8.849E-02 3.3258537E+00 -2.1319197E+01 -4.7248033E+01
  1.000E+01  5.217E-01  1.218E-01 3.3517221E+00 -2.4807375E+01 -4.5554317E+01
  9.957E+00  5.438E-01  1.101E-01 3.3484765E+00 -2.3647670E+01 -4.6126838E+01
  1.000E+01  4.786E-01  1.467E-01 3.3752612E+00 -2.7047192E+01 -4.4260969E+01
  9.957E+00  5.000E-01  1.340E-01 3.3620268E+00 -2.5917540E+01 -4.4890764E+01
  1.000E+01  4.367E-01  1.738E-01 3.3836889E+00 -2.9219777E+01 -4.2857657E+01
  9.957E+00  4.575E-01  1.600E-01 3.3749104E+00 -2.8122872E+01 -4.3542874E+01
  1.000E+01  3.962E-01  2.029E-01 3.3943378E+00 -3.1319828E+01 -4.1347957E+01
  9.957E+00  4.163E-01  1.881E-01 3.3924954E+00 -3.0258400E+01 -4.2086953E+01
  1.000E+01  3.572E-01  2.340E-01 3.4073037E+00 -3.3341976E+01 -3.9735377E+01
  9.957E+00  3.765E-01  2.182E-01 3.3976785E+00 -3.2318745E+01 -4.0526424E+01
  1.000E+01  3.198E-01  2.669E-01 3.4109904E+00 -3.5281074E+01 -3.8023898E+01
  9.957E+00  3.383E-01  2.502E-01 3.4009745E+00 -3.4298623E+01 -3.8864998E+01
  1.000E+01  2.841E-01  3.018E-01 3.4072468E+00 -3.7132466E+01 -3.6218001E+01
  9.957E+00  3.018E-01  2.841E-01 3.4072565E+00 -3.6193115E+01 -3.7106945E+01
  1.000E+01  2.502E-01  3.383E-01 3.4009646E+00 -3.8891728E+01 -3.4322206E+01
  9.957E+00  2.669E-01  3.198E-01 3.4110001E+00 -3.7997771E+01 -3.5256825E+01
  1.000E+01  2.182E-01  3.765E-01 3.3976682E+00 -4.0554296E+01 -3.2340966E+01
  9.957E+00  2.340E-01  3.572E-01 3.4073129E+00 -3.9708074E+01 -3.3319059E+01
  1.000E+01  1.881E-01  4.163E-01 3.3924852E+00 -4.2115899E+01 -3.0279205E+01
  9.957E+00  2.029E-01  3.962E-01 3.3943467E+00 -4.1319545E+01 -3.1298301E+01
  1.000E+01  1.600E-01  4.575E-01 3.3749003E+00 -4.3572820E+01 -2.8142208E+01
  9.957E+00  1.738E-01  4.367E-01 3.3836978E+00 -4.2828208E+01 -2.9199693E+01
  1.000E+01  1.340E-01  5.000E-01 3.3620159E+00 -4.4921637E+01 -2.5935359E+01
  9.957E+00  1.467E-01  4.786E-01 3.3752694E+00 -4.4230555E+01 -2.7028600E+01
  1.000E+01  1.101E-01  5.438E-01 3.3484661E+00 -4.6158562E+01 -2.3663928E+01
  9.957E+00  1.218E-01  5.217E-01 3.3517298E+00 -4.5523014E+01 -2.4790323E+01
  1.000E+01  8.849E-02  5.887E-01 3.3258425E+00 -4.7280526E+01 -2.1333854E+01
  9.957E+00  9.903E-02  5.661E-01 3.3410583E+00 -4.6701910E+01 -2.2490360E+01
  1.000E+01  6.913E-02  6.347E-01 3.3120748E+00 -4.8285084E+01 -1.8950438E+01
  9.957E+00  7.852E-02  6.116E-01 3.3167489E+00 -4.7764887E+01 -2.0134749E+01
  1.000E+01  5.207E-02  6.815E-01 3.2926224E+00 -4.9168612E+01 -1.6518391E+01
  9.957E+00  6.031E-02  6.580E-01 3.3042143E+00 -4.8708603E+01 -1.7727808E+01
  1.000E+01  3.738E-02  7.292E-01 3.2726092E+00 -4.9931241E+01 -1.4047636E+01
  9.957E+00  4.443E-02  7.052E-01 3.2804487E+00 -4.9530843E+01 -1.5276636E+01
  1.000E+01  2.507E-02  7.775E-01 3.2612349E+00 -5.0572462E+01 -1.1545353E+01
  9.957E+00  3.092E-02  7.532E-01 3.2673179E+00 -5.0232799E+01 -1.2791606E+01
  1.000E+01  1.519E-02  8.264E-01 3.2474688E+00 -5.1086254E+01 -9.0113025E+00
  9.957E+00  1.983E-02  8.019E-01 3.2544030E+00 -5.0810699E+01 -1.0275161E+01
  1.000E+01  7.761E-03  8.757E-01 3.2351622E+00 -5.1469299E+01 -6.4504566E+00
  9.957E+00  1.117E-02  8.510E-01 3.2407724E+00 -5.1258806E+01 -7.7282320E+00
  1.000E+01  2.796E-03  9.253E-01 3.2270415E+00 -5.1723819E+01 -3.8743483E+00
  9.957E+00  4.969E-03  9.004E-01 3.2304256E+00 -5.1576942E+01 -5.1600708E+00
  1.000E+01  3.108E-04  9.751E-01 3.2233068E+00 -5.1851822E+01 -1.2919983E+00
  9.957E+00  1.243E-03  9.502E-01 3.2247343E+00 -5.1768092E+01 -2.5818252E+00
  1.000E+01  3.108E-04  1.025E+00 3.2233068E+00 -5.1851822E+01 1.2920011E+00
  9.957E+00  0.000E+00  1.000E+00 3.2230323E+00 -5.1832291E+01 1.3427945E-06
  1.000E+01  2.796E-03  1.075E+00 3.2270417E+00 -5.1723819E+01 3.8743511E+00
  9.957E+00  1.243E-03  1.050E+00 3.2247346E+00 -5.1768092E+01 2.5818278E+00
  1.000E+01  7.761E-03  1.124E+00 3.2351627E+00 -5.1469299E+01 6.4504593E+00
  9.957E+00  4.969E-03  1.100E+00 3.2304260E+00 -5.1576942E+01 5.1600735E+00
  1.000E+01  1.519E-02  1.174E+00 3.2474695E+00 -5.1086254E+01 9.0113052E+00
  9.957E+00  1.117E-02  1.149E+00 3.2407730E+00 -5.1258806E+01 7.7282347E+00
  1.000E+01  2.507E-02  1.223E+00 3.2612358E+00 -5.0572462E+01 1.1545356E+01
  9.957E+00  1.983E-02  1.198E+00 3.2544037E+00 -5.0810698E+01 1.0275164E+01
  1.000E+01  3.738E-02  1.271E+00 3.2726103E+00 -4.9931240E+01 1.4047639E+01
  9.957E+00  3.092E-02  1.247E+00 3.2673189E+00 -5.0232799E+01 1.2791608E+01
  1.000E+01  5.207E-02  1.318E+00 3.2926237E+00 -4.9168611E+01 1.6518394E+01
  9.957E+00  4.443E-02  1.295E+00 3.2804498E+00 -4.9530842E+01 1.5276638E+01
  1.000E+01  6.913E-02  1.365E+00 3.3120762E+00 -4.8285083E+01 1.8950440E+01
  9.957E+00  6.031E-02  1.342E+00 3.3042157E+00 -4.8708602E+01 1.7727810E+01
  1.000E+01  8.849E-02  1.411E+00 3.3258441E+00 -4.7280525E+01 2.1333857E+01
  9.957E+00  7.852E-02  1.388E+00 3.3167504E+00 -4.7764886E+01 2.0134752E+01
  1.000E+01  1.101E-01  1.456E+00 3.3484679E+00 -4.6158561E+01 2.3663931E+01
  9.957E+00  9.903E-02  1.434E+00 3.3410600E+00 -4.6701908E+01 2.2490362E+01
  1.000E+01  1.340E-01  1.500E+00 3.3620178E+00 -4.4921635E+01 2.5935361E+01
  9.957E+00  1.218E-01  1.478E+00 3.3517316E+00 -4.5523013E+01 2.4790325E+01
  1.000E+01  1.600E-01  1.543E+00 3.3749023E+00 -4.3572819E+01 2.8142210E+01
  9.957E+00  1.467E-01  1.521E+00 3.3752714E+00 -4.4230553E+01 2.7028602E+01
  1.000E+01  1.881E-01  1.584E+00 3.3924874E+00 -4.2115897E+01 3.0279207E+01
  9.957E+00  1.738E-01  1.563E+00 3.3836999E+00 -4.2828206E+01 2.9199695E+01
  1.000E+01  2.182E-01  1.623E+00 3.3976706E+00 -4.0554294E+01 3.2340968E+01
  9.957E+00  2.029E-01  1.604E+00 3.3943490E+00 -4.1319543E+01 3.1298303E+01
  1.000E+01  2.502E-01  1.662E+00 3.4009671E+00 -3.8891726E+01 3.4322208E+01
  9.957E+00  2.340E-01  1.643E+00 3.4073153E+00 -3.9708072E+01 3.3319061E+01
  1.000E+01  2.841E-01  1.698E+00 3.4072494E+00 -3.7132464E+01 3.6218003E+01
  9.957E+00  2.669E-01  1.680E+00 3.4110027E+00 -3.7997769E+01 3.5256827E+01
  1.000E+01  3.198E-01  1.733E+00 3.4109932E+00 -3.5281072E+01 3.8023900E+01
  9.957E+00  3.018E-01  1.716E+00 3.4072592E+00 -3.6193113E+01 3.7106947E+01
  1.000E+01  3.572E-01  1.766E+00 3.4073065E+00 -3.3341973E+01 3.9735379E+01
  9.957E+00  3.383E-01  1.750E+00 3.4009773E+00 -3.4298621E+01 3.8865000E+01
  1.000E+01  3.962E-01  1.797E+00 3.3943407E+00 -3.1319826E+01 4.1347958E+01
  9.957E+00  3.765E-01  1.782E+00 3.3976814E+00 -3.2318742E+01 4.0526425E+01
  1.000E+01  4.367E-01  1.826E+00 3.3836919E+00 -2.9219775E+01 4.2857658E+01
  9.957E+00  4.163E-01  1.812E+00 3.3924984E+00 -3.0258398E+01 4.2086954E+01
  1.000E+01  4.786E-01  1.853E+00 3.3752642E+00 -2.7047189E+01 4.4260970E+01
  9.957E+00  4.575E-01  1.840E+00 3.3749135E+00 -2.8122869E+01 4.3542875E+01
  1.000E+01  5.217E-01  1.878E+00 3.3517252E+00 -2.4807372E+01 4.5554318E+01
  9.957E+00  5.000E-01  1.866E+00 3.3620300E+00 -2.5917537E+01 4.4890765E+01
  1.000E+01  5.661E-01  1.901E+00 3.3410539E+00 -2.2505828E+01 4.6734025E+01
  9.957E+00  5.438E-01  1.890E+00 3.3484798E+00 -2.3647667E+01 4.6126840E+01
  1.000E+01  6.116E-01  1.921E+00 3.3167455E+00 -2.0148597E+01 4.7797732E+01
  9.957E+00  5.887E-01  1.912E+00 3.3258570E+00 -2.1319194E+01 4.7248034E+01
  1.000E+01  6.580E-01  1.940E+00 3.3042111E+00 -1.7740001E+01 4.8742098E+01
  9.957E+00  6.347E-01  1.931E+00 3.3120888E+00 -1.8937416E+01 4.8251901E+01
  1.000E+01  7.052E-01  1.956E+00 3.2804455E+00 -1.5287142E+01 4.9564902E+01
  9.957E+00  6.815E-01  1.948E+00 3.2926371E+00 -1.6507040E+01 4.9134821E+01
  1.000E+01  7.532E-01  1.969E+00 3.2673156E+00 -1.2800404E+01 5.0267342E+01
  9.957E+00  7.292E-01  1.963E+00 3.2726233E+00 -1.4037983E+01 4.9896926E+01
  1.000E+01  8.019E-01  1.980E+00 3.2544006E+00 -1.0282229E+01 5.0845640E+01
  9.957E+00  7.775E-01  1.975E+00 3.2612489E+00 -1.1537420E+01 5.0537706E+01
  1.000E+01  8.510E-01  1.989E+00 3.2407703E+00 -7.7335481E+00 5.1294055E+01
  9.957E+00  8.264E-01  1.985E+00 3.2474833E+00 -9.0051103E+00 5.1051145E+01
  1.000E+01  9.004E-01  1.995E+00 3.2304238E+00 -5.1636205E+00 5.1612409E+01
  9.957E+00  8.757E-01  1.992E+00 3.2351769E+00 -6.4460245E+00 5.1433927E+01
  1.000E+01  9.502E-01  1.999E+00 3.2247329E+00 -2.5836015E+00 5.1803690E+01
  9.957E+00  9.253E-01  1.997E+00 3.2270562E+00 -3.8716866E+00 5.1688272E+01
  1.000E+01  1.000E+00  2.000E+00 3.2230310E+00 6.0977822E-07 5.1867933E+01
  9.957E+00  9.751E-01  2.000E+00 3.2233214E+00 -1.2911113E+00 5.1816187E+01
  1.000E+01  1.050E+00  1.999E+00 3.2247333E+00 2.5836027E+00 5.1803690E+01
  9.957E+00  1.025E+00  2.000E+00 3.2233216E+00 1.2911124E+00 5.1816187E+01
  1.000E+01  1.100E+00  1.995E+00 3.2304246E+00 5.1636217E+00 5.1612409E+01
  9.957E+00  1.075E+00  1.997E+00 3.2270568E+00 3.8716878E+00 5.1688272E+01
  1.000E+01  1.149E+00  1.989E+00 3.2407715E+00 7.7335493E+00 5.1294055E+01
  9.957E+00  1.124E+00  1.992E+00 3.2351779E+00 6.4460256E+00 5.1433927E+01