# TIME = 0.300000
variables = x, y, z
zone N=5762 E=11520 F=FEPOINT ET=TRIANGLE
 5.0520009E+00 1.4249370E+00 1.6874364E+00
 5.0520009E+00 1.4249370E+00 3.1256381E-01
 5.0520009E+00 5.7506297E-01 1.6874363E+00
 5.0520009E+00 5.7506300E-01 3.1256384E-01
 3.5645610E+00 1.0000000E+00 1.6698780E+00
 6.5387472E+00 1.0000000E+00 1.6688189E+00
 3.5645609E+00 1.0000000E+00 3.3012196E-01
 6.5387472E+00 1.0000000E+00 3.3118133E-01
 4.2282861E+00 1.8313888E+00 1.0000001E+00
 4.2282861E+00 1.6861125E-01 1.0000001E+00
 5.8756453E+00 1.8295583E+00 1.0000001E+00
 5.8756453E+00 1.7044165E-01 1.0000001E+00
 4.9990671E+00 1.4171085E+00 1.6924168E+00
 4.9425620E+00 1.4088487E+00 1.6981424E+00
 4.8835882E+00 1.4003641E+00 1.7045248E+00
 4.8223836E+00 1.3916346E+00 1.7115614E+00
 4.7589599E+00 1.3825500E+00 1.7192573E+00
 4.6935084E+00 1.3730097E+00 1.7275366E+00
 4.6262280E+00 1.3628719E+00 1.7362715E+00
 4.5573719E+00 1.3519711E+00 1.7452614E+00
 4.4872336E+00 1.3401202E+00 1.7542363E+00
 4.4161484E+00 1.3271222E+00 1.7628583E+00
 4.3444921E+00 1.3127851E+00 1.7707361E+00
 4.2726795E+00 1.2969372E+00 1.7774426E+00
 4.2011607E+00 1.2794455E+00 1.7825420E+00
 4.1304157E+00 1.2602299E+00 1.7856177E+00
 4.0609447E+00 1.2392751E+00 1.7863030E+00
 3.9932530E+00 1.2166364E+00 1.7843069E+00
 3.9278325E+00 1.1924383E+00 1.7794346E+00
 3.8651423E+00 1.1668685E+00 1.7715976E+00
 3.8055873E+00 1.1401643E+00 1.7608166E+00
 3.7495032E+00 1.1125987E+00 1.7472118E+00
 3.6971392E+00 1.0844581E+00 1.7309876E+00
 3.6486585E+00 1.0560352E+00 1.7124157E+00
 3.6041045E+00 1.0275729E+00 1.6917910E+00
 4.9963434E+00 6.1096549E-01 1.7085684E+00
 4.9386122E+00 6.2029989E-01 1.7144598E+00
 4.8784624E+00 6.2991108E-01 1.7210152E+00
 4.8160220E+00 6.3987394E-01 1.7282427E+00
 4.7514150E+00 6.5027835E-01 1.7361140E+00
 4.6848275E+00 6.6124302E-01 1.7445412E+00
 4.6164990E+00 6.7291311E-01 1.7533674E+00
 4.5467111E+00 6.8545761E-01 1.7623625E+00
 4.4757898E+00 6.9905843E-01 1.7712218E+00
 4.4041021E+00 7.1389892E-01 1.7795744E+00
 4.3320538E+00 7.3014734E-01 1.7869996E+00
 4.2600869E+00 7.4794029E-01 1.7930495E+00
 4.1886747E+00 7.6736668E-01 1.7972796E+00
 4.1183135E+00 7.8845495E-01 1.7992788E+00
 4.0495107E+00 8.1116554E-01 1.7987014E+00
 3.9827679E+00 8.3538944E-01 1.7952905E+00
 3.9185621E+00 8.6095316E-01 1.7888960E+00
 3.8573250E+00 8.8763044E-01 1.7794806E+00
 3.7994248E+00 9.1515605E-01 1.7671163E+00
 3.7451496E+00 9.4324700E-01 1.7519718E+00
 3.6947045E+00 9.7161391E-01 1.7342962E+00
 3.6481058E+00 1.0000000E+00 1.7143414E+00
 4.9951932E+00 6.4044218E-01 1.7239845E+00
 4.9361325E+00 6.5096188E-01 1.7299927E+00
 4.8747531E+00 6.6180281E-01 1.7366368E+00
 4.8110724E+00 6.7308734E-01 1.7439525E+00
 4.7452603E+00 6.8490869E-01 1.7518904E+00
 4.6775344E+00 6.9739291E-01 1.7603413E+00
 4.6081644E+00 7.1068895E-01 1.7691216E+00
 4.5374671E+00 7.2496281E-01 1.7779677E+00
 4.4658021E+00 7.4038615E-01 1.7865413E+00
 4.3935691E+00 7.5712174E-01 1.7944387E+00
 4.3212046E+00 7.7530691E-01 1.8012133E+00
 4.2491767E+00 7.9503722E-01 1.8064016E+00
 4.1779789E+00 8.1635244E-01 1.8095577E+00
 4.1081198E+00 8.3922699E-01 1.8102843E+00
 4.0401082E+00 8.6356635E-01 1.8082652E+00
 3.9744364E+00 8.8921074E-01 1.8032852E+00
 3.9115589E+00 9.1594413E-01 1.7952453E+00
 3.8518745E+00 9.4350820E-01 1.7841622E+00
 3.7957077E+00 9.7162289E-01 1.7701608E+00
 3.7432940E+00 1.0000000E+00 1.7534555E+00
 3.6947045E+00 1.0283861E+00 1.7342962E+00
 4.9939669E+00 6.7173433E-01 1.7387180E+00
 4.9337616E+00 6.8346007E-01 1.7447151E+00
 4.8712165E+00 6.9561370E-01 1.7513552E+00
 4.8064118E+00 7.0829353E-01 1.7586419E+00
 4.7395316E+00 7.2160641E-01 1.7665140E+00
 4.6708283E+00 7.3567982E-01 1.7748376E+00
 4.6006053E+00 7.5066112E-01 1.7833997E+00
 4.5292128E+00 7.6670731E-01 1.7919056E+00
 4.4570433E+00 7.8397182E-01 1.7999847E+00
 4.3845269E+00 8.0258945E-01 1.8072068E+00
 4.3121262E+00 8.2265925E-01 1.8131072E+00
 4.2403301E+00 8.4423004E-01 1.8172175E+00
 4.1696446E+00 8.6728891E-01 1.8191015E+00
 4.1005812E+00 8.9175605E-01 1.8183879E+00
 4.0336407E+00 9.1748554E-01 1.8147995E+00
 3.9692947E+00 9.4427343E-01 1.8081709E+00
 3.9079672E+00 9.7186989E-01 1.7984573E+00
 3.8500128E+00 1.0000000E+00 1.7857290E+00
 3.7957077E+00 1.0283771E+00 1.7701608E+00
 3.7451496E+00 1.0567530E+00 1.7519718E+00
 4.9928733E+00 7.0492503E-01 1.7526108E+00
 4.9315763E+00 7.1792511E-01 1.7584939E+00
 4.8679769E+00 7.3142749E-01 1.7649969E+00
 4.8021712E+00 7.4554427E-01 1.7721117E+00
 4.7343758E+00 7.6038253E-01 1.7797565E+00
 4.6648765E+00 7.7607041E-01 1.7877731E+00
 4.5940097E+00 7.9274792E-01 1.7959204E+00
 4.5221590E+00 8.1055664E-01 1.8038733E+00
 4.4497467E+00 8.2962486E-01 1.8112353E+00
 4.3772287E+00 8.5005189E-01 1.8175564E+00
 4.3050878E+00 8.7189244E-01 1.8223643E+00
 4.2338253E+00 8.9514442E-01 1.8251966E+00
 4.1639504E+00 9.1974140E-01 1.8256393E+00
 4.0959673E+00 9.4555174E-01 1.8233571E+00
 4.0303578E+00 9.7238444E-01 1.8181202E+00
 3.9675639E+00 1.0000000E+00 1.8098171E+00
 3.9079672E+00 1.0281301E+00 1.7984573E+00
 3.8518745E+00 1.0564918E+00 1.7841622E+00
 3.7994248E+00 1.0848439E+00 1.7671163E+00
 4.9918488E+00 7.3992189E-01 1.7654275E+00
 4.9295736E+00 7.5422062E-01 1.7710688E+00
 4.8650500E+00 7.6910050E-01 1.7772960E+00
 4.7984007E+00 7.8467338E-01 1.7840825E+00
 4.7298748E+00 8.0104749E-01 1.7913271E+00
 4.6597906E+00 8.1834494E-01 1.7988466E+00
 4.5885179E+00 8.3669304E-01 1.8063732E+00
 4.5164693E+00 8.5621116E-01 1.8135570E+00
 4.4440932E+00 8.7699564E-01 1.8199815E+00
 4.3718654E+00 8.9910471E-01 1.8251871E+00
 4.3002811E+00 9.2254488E-01 1.8287045E+00
 4.2298452E+00 9.4726236E-01 1.8300901E+00
 4.1610606E+00 9.7313972E-01 1.8289626E+00
 4.0944136E+00 1.0000000E+00 1.8250317E+00
 4.0303578E+00 1.0276155E+00 1.8181202E+00
 3.9692947E+00 1.0557266E+00 1.8081709E+00
 3.9115588E+00 1.0840559E+00 1.7952453E+00
 3.8573250E+00 1.1123696E+00 1.7794806E+00
 4.9909323E+00 7.7663036E-01 1.7769505E+00
 4.9278013E+00 7.9223256E-01 1.7822125E+00
 4.8625042E+00 8.0848587E-01 1.7880107E+00
 4.7951879E+00 8.2550066E-01 1.7943013E+00
 4.7261347E+00 8.4338106E-01 1.8009620E+00
 4.6556952E+00 8.6223900E-01 1.8077868E+00
 4.5842680E+00 8.8218271E-01 1.8144850E+00
 4.5122919E+00 9.0330357E-01 1.8206875E+00
 4.4402350E+00 9.2566059E-01 1.8259671E+00
 4.3685856E+00 9.4926740E-01 1.8298649E+00
 4.2978428E+00 9.7408160E-01 1.8319272E+00
 4.2285057E+00 1.0000000E+00 1.8317395E+00
 4.1610606E+00 1.0268603E+00 1.8289626E+00
 4.0959673E+00 1.0544483E+00 1.8233571E+00
 4.0336407E+00 1.0825145E+00 1.8147995E+00
 3.9744364E+00 1.1107893E+00 1.8032852E+00
 3.9185621E+00 1.1390468E+00 1.7888960E+00
 4.9901343E+00 8.1489487E-01 1.7869597E+00
 4.9262922E+00 8.3177591E-01 1.7916970E+00
 4.8603903E+00 8.4936740E-01 1.7969079E+00
 4.7926028E+00 8.6777356E-01 1.8025300E+00
 4.7232428E+00 8.8709051E-01 1.8084221E+00
 4.6526900E+00 9.0741458E-01 1.8143577E+00
 4.5813690E+00 9.2883006E-01 1.8200287E+00
 4.5097381E+00 9.5139532E-01 1.8250547E+00
 4.4382782E+00 9.7512927E-01 1.8290078E+00
 4.3674816E+00 1.0000000E+00 1.8314413E+00
 4.2978428E+00 1.0259184E+00 1.8319272E+00
 4.2298452E+00 1.0527376E+00 1.8300902E+00
 4.1639504E+00 1.0802586E+00 1.8256393E+00
 4.1005812E+00 1.1082439E+00 1.8183880E+00
 4.0401082E+00 1.1364336E+00 1.8082652E+00
 3.9827679E+00 1.1646106E+00 1.7952905E+00
 4.9894734E+00 8.5451674E-01 1.7952510E+00
 4.9250799E+00 8.7262112E-01 1.7993167E+00
 4.8587582E+00 8.9147996E-01 1.8037816E+00
 4.7907080E+00 9.1118801E-01 1.8085662E+00
 4.7212717E+00 9.3182911E-01 1.8135121E+00
 4.6508540E+00 9.5347953E-01 1.8183773E+00
 4.5798992E+00 9.7619553E-01 1.8228427E+00
 4.5088788E+00 1.0000000E+00 1.8265257E+00
 4.4382782E+00 1.0248707E+00 1.8290078E+00
 4.3685856E+00 1.0507326E+00 1.8298650E+00
 4.3002811E+00 1.0774551E+00 1.8287045E+00
 4.2338253E+00 1.1048556E+00 1.8251966E+00
 4.1696446E+00 1.1327111E+00 1.8191015E+00
 4.1081198E+00 1.1607730E+00 1.8102844E+00
 4.0495107E+00 1.1888345E+00 1.7987014E+00
 4.9889635E+00 8.9525036E-01 1.8016439E+00
 4.9241924E+00 9.1448970E-01 1.8048955E+00
 4.8576468E+00 9.3450978E-01 1.8084637E+00
 4.7895511E+00 9.5539212E-01 1.8122536E+00
 4.7202729E+00 9.7720448E-01 1.8160932E+00
 4.6502363E+00 1.0000000E+00 1.8197303E+00
 4.5798992E+00 1.0238045E+00 1.8228427E+00
 4.5097381E+00 1.0486047E+00 1.8250547E+00
 4.4402350E+00 1.0743394E+00 1.8259671E+00
 4.3718654E+00 1.1008953E+00 1.8251871E+00
 4.3050878E+00 1.1281076E+00 1.8223643E+00
 4.2403301E+00 1.1557700E+00 1.8172175E+00
 4.1779789E+00 1.1836476E+00 1.8095577E+00
 4.1183135E+00 1.2115450E+00 1.7992789E+00
 4.9886167E+00 9.3681031E-01 1.8059922E+00
 4.9236508E+00 9.5706456E-01 1.8082994E+00
 4.8570838E+00 9.7810607E-01 1.8108356E+00
 4.7891621E+00 1.0000000E+00 1.8134939E+00
 4.7202729E+00 1.0227955E+00 1.8160932E+00
 4.6508540E+00 1.0465205E+00 1.8183773E+00
 4.5813690E+00 1.0711699E+00 1.8200287E+00
 4.5122919E+00 1.0966964E+00 1.8206875E+00
 4.4440932E+00 1.1230044E+00 1.8199815E+00
 4.3772287E+00 1.1499481E+00 1.8175565E+00
 4.3121262E+00 1.1773408E+00 1.8131072E+00
 4.2491767E+00 1.2049628E+00 1.8064016E+00
 4.1886747E+00 1.2326333E+00 1.7972796E+00
 4.9884411E+00 9.7887943E-01 1.8081930E+00
 4.9234688E+00 1.0000000E+00 1.8094435E+00
 4.8570838E+00 1.0218939E+00 1.8108356E+00
 4.7895511E+00 1.0446079E+00 1.8122536E+00
 4.7212717E+00 1.0681709E+00 1.8135121E+00
 4.6526900E+00 1.0925854E+00 1.8143577E+00
 4.5842680E+00 1.1178173E+00 1.8144850E+00
 4.5164693E+00 1.1437888E+00 1.8135571E+00
 4.4497467E+00 1.1703751E+00 1.8112354E+00
 4.3845269E+00 1.1974105E+00 1.8072068E+00
 4.3212046E+00 1.2246931E+00 1.8012133E+00
 4.2600869E+00 1.2520597E+00 1.7930496E+00
 4.9884411E+00 1.0211206E+00 1.8081930E+00
 4.9236508E+00 1.0429354E+00 1.8082994E+00
 4.8576468E+00 1.0654902E+00 1.8084637E+00
 4.7907080E+00 1.0888120E+00 1.8085662E+00
 4.7232428E+00 1.1129095E+00 1.8084221E+00
 4.6556952E+00 1.1377610E+00 1.8077869E+00
 4.5885179E+00 1.1633070E+00 1.8063733E+00
 4.5221590E+00 1.1894434E+00 1.8038733E+00
 4.4570433E+00 1.2160282E+00 1.7999847E+00
 4.3935691E+00 1.2428783E+00 1.7944387E+00
 4.3320538E+00 1.2698527E+00 1.7869996E+00
 4.9886167E+00 1.0631897E+00 1.8059922E+00
 4.9241924E+00 1.0855103E+00 1.8048956E+00
 4.8587582E+00 1.1085200E+00 1.8037816E+00
 4.7926028E+00 1.1322264E+00 1.8025300E+00
 4.7261347E+00 1.1566189E+00 1.8009620E+00
 4.6597906E+00 1.1816551E+00 1.7988466E+00
 4.5940097E+00 1.2072521E+00 1.7959204E+00
 4.5292128E+00 1.2332927E+00 1.7919056E+00
 4.4658021E+00 1.2596139E+00 1.7865413E+00
 4.4041021E+00 1.2861011E+00 1.7795744E+00
 4.9889635E+00 1.1047496E+00 1.8016439E+00
 4.9250799E+00 1.1273789E+00 1.7993167E+00
 4.8603903E+00 1.1506326E+00 1.7969079E+00
 4.7951879E+00 1.1744993E+00 1.7943013E+00
 4.7298748E+00 1.1989525E+00 1.7913271E+00
 4.6648765E+00 1.2239296E+00 1.7877731E+00
 4.6006053E+00 1.2493389E+00 1.7833998E+00
 4.5374671E+00 1.2750372E+00 1.7779677E+00
 4.4757898E+00 1.3009416E+00 1.7712218E+00
 4.9894734E+00 1.1454833E+00 1.7952511E+00
 4.9262922E+00 1.1682241E+00 1.7916970E+00
 4.8625042E+00 1.1915141E+00 1.7880108E+00
 4.7984007E+00 1.2153266E+00 1.7840825E+00
 4.7343758E+00 1.2396175E+00 1.7797565E+00
 4.6708283E+00 1.2643202E+00 1.7748376E+00
 4.6081644E+00 1.2893111E+00 1.7691216E+00
 4.5467111E+00 1.3145424E+00 1.7623625E+00
 4.9901343E+00 1.1851051E+00 1.7869597E+00
 4.9278013E+00 1.2077674E+00 1.7822125E+00
 4.8650500E+00 1.2308995E+00 1.7772960E+00
 4.8021712E+00 1.2544557E+00 1.7721117E+00
 4.7395316E+00 1.2783936E+00 1.7665141E+00
 4.6775344E+00 1.3026071E+00 1.7603414E+00
 4.6164990E+00 1.3270869E+00 1.7533675E+00
 4.9909323E+00 1.2233696E+00 1.7769505E+00
 4.9295736E+00 1.2457794E+00 1.7710688E+00
 4.8679769E+00 1.2685725E+00 1.7649970E+00
 4.8064118E+00 1.2917065E+00 1.7586419E+00
 4.7452603E+00 1.3150913E+00 1.7518905E+00
 4.6848275E+00 1.3387570E+00 1.7445412E+00
 4.9918488E+00 1.2600781E+00 1.7654275E+00
 4.9315763E+00 1.2820749E+00 1.7584940E+00
 4.8712165E+00 1.3043863E+00 1.7513552E+00
 4.8110724E+00 1.3269127E+00 1.7439525E+00
 4.7514150E+00 1.3497217E+00 1.7361140E+00
 4.9928733E+00 1.2950750E+00 1.7526108E+00
 4.9337616E+00 1.3165399E+00 1.7447151E+00
 4.8747531E+00 1.3381972E+00 1.7366369E+00
 4.8160220E+00 1.3601261E+00 1.7282428E+00
 4.9939669E+00 1.3282657E+00 1.7387180E+00
 4.9361325E+00 1.3490381E+00 1.7299928E+00
 4.8784624E+00 1.3700889E+00 1.7210152E+00
 4.9951932E+00 1.3595578E+00 1.7239845E+00
 4.9386122E+00 1.3797001E+00 1.7144599E+00
 4.9963434E+00 1.3890345E+00 1.7085684E+00
 5.0520028E+00 1.3989617E+00 1.7027694E+00
 5.0520036E+00 1.3704496E+00 1.7182352E+00
 5.0520034E+00 1.3403313E+00 1.7329949E+00
 5.0520039E+00 1.3082865E+00 1.7470485E+00
 5.0520041E+00 1.2744681E+00 1.7601327E+00
 5.0520044E+00 1.2389342E+00 1.7720483E+00
 5.0520046E+00 1.2018204E+00 1.7825786E+00
 5.0520049E+00 1.1632959E+00 1.7915217E+00
 5.0520050E+00 1.1235782E+00 1.7986926E+00
 5.0520052E+00 1.0829246E+00 1.8039354E+00
 5.0520053E+00 1.0416266E+00 1.8071309E+00
 5.0520053E+00 1.0000000E+00 1.8082046E+00
 5.0520053E+00 9.5837339E-01 1.8071309E+00
 5.0520052E+00 9.1707537E-01 1.8039354E+00
 5.0520050E+00 8.7642180E-01 1.7986926E+00
 5.0520049E+00 8.3670409E-01 1.7915216E+00
 5.0520046E+00 7.9817961E-01 1.7825786E+00
 5.0520044E+00 7.6106579E-01 1.7720483E+00
 5.0520041E+00 7.2553187E-01 1.7601327E+00
 5.0520039E+00 6.9171354E-01 1.7470485E+00
 5.0520034E+00 6.5966867E-01 1.7329949E+00
 5.0520036E+00 6.2955042E-01 1.7182352E+00
 5.0520028E+00 6.0103830E-01 1.7027694E+00
 5.1049341E+00 5.8281998E-01 1.6925363E+00
 5.1614360E+00 5.9101300E-01 1.6983815E+00
 5.2204032E+00 5.9944355E-01 1.7048671E+00
 5.2816005E+00 6.0814021E-01 1.7119752E+00
 5.3450177E+00 6.1721989E-01 1.7196948E+00
 5.4104659E+00 6.2678864E-01 1.7279343E+00
 5.4777475E+00 6.3699095E-01 1.7365531E+00
 5.5466095E+00 6.4799138E-01 1.7453429E+00
 5.6167554E+00 6.5997179E-01 1.7540330E+00
 5.6878442E+00 6.7311959E-01 1.7622940E+00
 5.7594916E+00 6.8761382E-01 1.7697521E+00
 5.8312737E+00 7.0361073E-01 1.7760066E+00
 5.9027322E+00 7.2122794E-01 1.7806547E+00
 5.9733833E+00 7.4053224E-01 1.7833154E+00
 6.0427286E+00 7.6152959E-01 1.7836570E+00
 6.1102716E+00 7.8416136E-01 1.7814170E+00
 6.1755346E+00 8.0830525E-01 1.7764205E+00
 6.2380767E+00 8.3378195E-01 1.7685869E+00
 6.2975114E+00 8.6036604E-01 1.7579334E+00
 6.3535195E+00 8.8779897E-01 1.7445668E+00
 6.4058635E+00 9.1580844E-01 1.7286704E+00
 6.4543863E+00 9.4411566E-01 1.7104907E+00
 6.4990437E+00 9.7248595E-01 1.6902979E+00
 5.1076615E+00 1.3891059E+00 1.7086967E+00
 5.1653885E+00 1.3798350E+00 1.7147119E+00
 5.2255312E+00 1.3702730E+00 1.7213728E+00
 5.2879636E+00 1.3603380E+00 1.7286708E+00
 5.3525635E+00 1.3499338E+00 1.7365603E+00
 5.4191473E+00 1.3389371E+00 1.7449371E+00
 5.4874771E+00 1.3272017E+00 1.7536317E+00
 5.5572710E+00 1.3145609E+00 1.7624071E+00
 5.6281994E+00 1.3008397E+00 1.7709601E+00
 5.6998892E+00 1.2858651E+00 1.7789305E+00
 5.7719257E+00 1.2694824E+00 1.7859183E+00
 5.8438577E+00 1.2515694E+00 1.7915049E+00
 5.9152046E+00 1.2320508E+00 1.7952806E+00
 5.9854671E+00 1.2109086E+00 1.7968712E+00
 6.0541412E+00 1.1881882E+00 1.7959645E+00
 6.1207349E+00 1.1639986E+00 1.7923305E+00
 6.1847860E+00 1.1385079E+00 1.7858350E+00
 6.2458804E+00 1.1119324E+00 1.7764452E+00
 6.3036671E+00 1.0845246E+00 1.7642264E+00
 6.3578725E+00 1.0565542E+00 1.7493309E+00
 6.4083020E+00 1.0282965E+00 1.7319853E+00
 6.4549419E+00 1.0000000E+00 1.7124182E+00
 5.1088127E+00 1.3596262E+00 1.7241178E+00
 5.1678692E+00 1.3491658E+00 1.7302548E+00
 5.2292415E+00 1.3383693E+00 1.7370071E+00
 5.2929139E+00 1.3271079E+00 1.7443928E+00
 5.3587188E+00 1.3152828E+00 1.7523442E+00
 5.4264412E+00 1.3027647E+00 1.7607350E+00
 5.4958127E+00 1.2894047E+00 1.7693692E+00
 5.5665160E+00 1.2750410E+00 1.7779775E+00
 5.6381876E+00 1.2595097E+00 1.7862250E+00
 5.7104211E+00 1.2426593E+00 1.7937215E+00
 5.7827708E+00 1.2243656E+00 1.8000440E+00
 5.8547596E+00 1.2045464E+00 1.8047608E+00
 5.9258872E+00 1.1831731E+00 1.8074626E+00
 5.9956435E+00 1.1602788E+00 1.8077890E+00
 6.0635238E+00 1.1359604E+00 1.8054561E+00
 6.1290468E+00 1.1103746E+00 1.8002728E+00
 6.1917726E+00 1.0837297E+00 1.7921526E+00
 6.2513194E+00 1.0562727E+00 1.7811130E+00
 6.3073784E+00 1.0282713E+00 1.7672693E+00
 6.3597273E+00 1.0000000E+00 1.7508173E+00
 6.4083020E+00 9.7170354E-01 1.7319853E+00
 5.1100387E+00 1.3283289E+00 1.7388575E+00
 5.1702395E+00 1.3166570E+00 1.7449879E+00
 5.2327772E+00 1.3045424E+00 1.7517388E+00
 5.2975732E+00 1.2918809E+00 1.7590946E+00
 5.3644464E+00 1.2785611E+00 1.7669750E+00
 5.4331465E+00 1.2644535E+00 1.7752285E+00
 5.5033717E+00 1.2494122E+00 1.7836307E+00
 5.5747706E+00 1.2332857E+00 1.7918821E+00
 5.6469466E+00 1.2159292E+00 1.7996179E+00
 5.7194620E+00 1.1972194E+00 1.8064240E+00
 5.7918453E+00 1.1770696E+00 1.8118620E+00
 5.8635989E+00 1.1554426E+00 1.8154972E+00
 5.9342106E+00 1.1323600E+00 1.8169309E+00
 6.0031686E+00 1.1079059E+00 1.8158280E+00
 6.0699771E+00 1.0822254E+00 1.8119417E+00
 6.1341758E+00 1.0555169E+00 1.8051273E+00
 6.1953554E+00 1.0280206E+00 1.7953493E+00
 6.2531767E+00 1.0000000E+00 1.7826759E+00
 6.3073784E+00 9.7172868E-01 1.7672693E+00
 6.3578725E+00 9.4344583E-01 1.7493309E+00
 5.1111331E+00 1.2951331E+00 1.7527555E+00
 5.1724252E+00 1.2821811E+00 1.7587765E+00
 5.2360169E+00 1.2687122E+00 1.7653924E+00
 5.3018138E+00 1.2546089E+00 1.7725751E+00
 5.3696021E+00 1.2397610E+00 1.7802230E+00
 5.4390984E+00 1.2240397E+00 1.7881604E+00
 5.5099676E+00 1.2073079E+00 1.7961351E+00
 5.5818248E+00 1.1894306E+00 1.8038194E+00
 5.6542431E+00 1.1702889E+00 1.8108245E+00
 5.7267589E+00 1.1497947E+00 1.8167189E+00
 5.7988805E+00 1.1279045E+00 1.8210589E+00
 5.8700980E+00 1.1046299E+00 1.8234170E+00
 5.9398972E+00 1.0800429E+00 1.8234167E+00
 6.0077741E+00 1.0542767E+00 1.8207576E+00
 6.0732528E+00 1.0275184E+00 1.8152377E+00
 6.1359025E+00 1.0000000E+00 1.8067629E+00
 6.1953554E+00 9.7197943E-01 1.7953493E+00
 6.2513194E+00 9.4372725E-01 1.7811130E+00
 6.3036671E+00 9.1547535E-01 1.7642264E+00
 5.1121580E+00 1.2601301E+00 1.7655775E+00
 5.1744282E+00 1.2458733E+00 1.7713605E+00
 5.2389438E+00 1.2310208E+00 1.7777023E+00
 5.3055841E+00 1.2154568E+00 1.7845554E+00
 5.3741027E+00 1.1990710E+00 1.7917980E+00
 5.4441841E+00 1.1817422E+00 1.7992301E+00
 5.5154596E+00 1.1633474E+00 1.8065735E+00
 5.5875148E+00 1.1437747E+00 1.8134774E+00
 5.6598965E+00 1.1229375E+00 1.8195353E+00
 5.7321212E+00 1.1007880E+00 1.8243083E+00
 5.8036847E+00 1.0773294E+00 1.8273572E+00
 5.8740744E+00 1.0526225E+00 1.8282739E+00
 5.9427830E+00 1.0267875E+00 1.8267136E+00
 6.0093249E+00 1.0000000E+00 1.8224190E+00
 6.0732528E+00 9.7248157E-01 1.8152377E+00
 6.1341758E+00 9.4448313E-01 1.8051273E+00
 6.1917726E+00 9.1627027E-01 1.7921526E+00
 6.2458804E+00 8.8806755E-01 1.7764452E+00
 5.1130750E+00 1.2234151E+00 1.7771051E+00
 5.1762009E+00 1.2078479E+00 1.7825123E+00
 5.2414896E+00 1.1916157E+00 1.7884265E+00
 5.3087967E+00 1.1746052E+00 1.7947821E+00
 5.3778426E+00 1.1567118E+00 1.8014363E+00
 5.4482796E+00 1.1378258E+00 1.8081667E+00
 5.5197097E+00 1.1178445E+00 1.8146734E+00
 5.5916924E+00 1.0966847E+00 1.8205883E+00
 5.6637547E+00 1.0742971E+00 1.8254961E+00
 5.7354003E+00 1.0506774E+00 1.8289605E+00
 5.8061218E+00 1.0258758E+00 1.8305585E+00
 5.8754127E+00 1.0000000E+00 1.8299109E+00
 5.9427830E+00 9.7321247E-01 1.8267136E+00
 6.0077741E+00 9.4572334E-01 1.8207576E+00
 6.0699771E+00 9.1777461E-01 1.8119417E+00
 6.1290468E+00 8.8962537E-01 1.8002728E+00
 6.1847860E+00 8.6149210E-01 1.7858351E+00
 5.1138734E+00 1.1851433E+00 1.7871184E+00
 5.1777102E+00 1.1682899E+00 1.7920038E+00
 5.2436035E+00 1.1507131E+00 1.7973315E+00
 5.3113817E+00 1.1323069E+00 1.8030172E+00
 5.3807345E+00 1.1129761E+00 1.8088989E+00
 5.4512848E+00 1.0926282E+00 1.8147346E+00
 5.5226088E+00 1.0711855E+00 1.8202086E+00
 5.5942464E+00 1.0485981E+00 1.8249432E+00
 5.6657114E+00 1.0248562E+00 1.8285241E+00
 5.7365041E+00 1.0000000E+00 1.8305282E+00
 5.8061218E+00 9.7412417E-01 1.8305585E+00
 5.8740744E+00 9.4737754E-01 1.8282739E+00
 5.9398972E+00 9.1995706E-01 1.8234168E+00
 6.0031686E+00 8.9209413E-01 1.8158280E+00
 6.0635238E+00 8.6403959E-01 1.8054561E+00
 6.1207349E+00 8.3600140E-01 1.7923305E+00
 5.1145346E+00 1.1455136E+00 1.7954132E+00
 5.1789227E+00 1.1274292E+00 1.7996291E+00
 5.2452357E+00 1.1085783E+00 1.8042113E+00
 5.3132764E+00 1.0888661E+00 1.8090579E+00
 5.3827054E+00 1.0682110E+00 1.8139905E+00
 5.4531208E+00 1.0465418E+00 1.8187523E+00
 5.5240787E+00 1.0238095E+00 1.8230182E+00
 5.5951057E+00 1.0000000E+00 1.8264100E+00
 5.6657114E+00 9.7514376E-01 1.8285241E+00
 5.7354003E+00 9.4932260E-01 1.8289605E+00
 5.8036847E+00 9.2267058E-01 1.8273572E+00
 5.8700980E+00 8.9537014E-01 1.8234170E+00
 5.9342106E+00 8.6764002E-01 1.8169309E+00
 5.9956435E+00 8.3972119E-01 1.8077890E+00
 6.0541412E+00 8.1181181E-01 1.7959646E+00
 5.1150448E+00 1.1047717E+00 1.8018088E+00
 5.1798104E+00 1.0855443E+00 1.8052122E+00
 5.2463471E+00 1.0655255E+00 1.8088976E+00
 5.3144332E+00 1.0446351E+00 1.8127481E+00
 5.3837042E+00 1.0228089E+00 1.8165723E+00
 5.4537384E+00 1.0000000E+00 1.8201046E+00
 5.5240787E+00 9.7619046E-01 1.8230182E+00
 5.5942464E+00 9.5140189E-01 1.8249432E+00
 5.6637547E+00 9.2570293E-01 1.8254961E+00
 5.7321212E+00 8.9921199E-01 1.8243083E+00
 5.7988805E+00 8.7209546E-01 1.8210589E+00
 5.8635989E+00 8.4455740E-01 1.8154972E+00
 5.9258872E+00 8.1682689E-01 1.8074626E+00
 5.9854671E+00 7.8909137E-01 1.7968712E+00
 5.1153919E+00 1.0632030E+00 1.8061590E+00
 5.1803520E+00 1.0429526E+00 1.8086185E+00
 5.2469101E+00 1.0219058E+00 1.8112716E+00
 5.3148222E+00 1.0000000E+00 1.8139894E+00
 5.3837042E+00 9.7719109E-01 1.8165723E+00
 5.4531208E+00 9.5345823E-01 1.8187523E+00
 5.5226088E+00 9.2881447E-01 1.8202086E+00
 5.5916924E+00 9.0331527E-01 1.8205883E+00
 5.6598965E+00 8.7706250E-01 1.8195353E+00
 5.7267589E+00 8.5020528E-01 1.8167189E+00
 5.7918453E+00 8.2293039E-01 1.8118620E+00
 5.8547596E+00 7.9545360E-01 1.8047608E+00
 5.9152046E+00 7.6794917E-01 1.7952806E+00
 5.1155676E+00 1.0211250E+00 1.8083607E+00
 5.1805341E+00 1.0000000E+00 1.8097636E+00
 5.2469101E+00 9.7809423E-01 1.8112716E+00
 5.3144332E+00 9.5536490E-01 1.8127481E+00
 5.3827054E+00 9.3178900E-01 1.8139905E+00
 5.4512848E+00 9.0737175E-01 1.8147346E+00
 5.5197097E+00 8.8215551E-01 1.8146734E+00
 5.5875148E+00 8.5622525E-01 1.8134774E+00
 5.6542431E+00 8.2971107E-01 1.8108245E+00
 5.7194620E+00 8.0278063E-01 1.8064240E+00
 5.7827708E+00 7.7563435E-01 1.8000440E+00
 5.8438577E+00 7.4843055E-01 1.7915049E+00
 5.1155676E+00 9.7887495E-01 1.8083607E+00
 5.1803520E+00 9.5704744E-01 1.8086185E+00
 5.2463471E+00 9.3447446E-01 1.8088976E+00
 5.3132764E+00 9.1113387E-01 1.8090579E+00
 5.3807345E+00 8.8702387E-01 1.8088989E+00
 5.4482796E+00 8.6217424E-01 1.8081667E+00
 5.5154596E+00 8.3665255E-01 1.8065735E+00
 5.5818248E+00 8.1056937E-01 1.8038194E+00
 5.6469466E+00 7.8407081E-01 1.7996179E+00
 5.7104211E+00 7.5734069E-01 1.7937215E+00
 5.7719257E+00 7.3051756E-01 1.7859183E+00
 5.1153919E+00 9.3679696E-01 1.8061590E+00
 5.1798104E+00 9.1445573E-01 1.8052122E+00
 5.2452357E+00 8.9142165E-01 1.8042113E+00
 5.3113817E+00 8.6769310E-01 1.8030172E+00
 5.3778426E+00 8.4328822E-01 1.8014364E+00
 5.4441841E+00 8.1825777E-01 1.7992301E+00
 5.5099676E+00 7.9269206E-01 1.7961351E+00
 5.5747706E+00 7.6671431E-01 1.7918821E+00
 5.6381876E+00 7.4049030E-01 1.7862250E+00
 5.6998892E+00 7.1413485E-01 1.7789305E+00
 5.1150448E+00 8.9522834E-01 1.8018088E+00
 5.1789227E+00 8.7257083E-01 1.7996291E+00
 5.2436035E+00 8.4928692E-01 1.7973315E+00
 5.3087967E+00 8.2539476E-01 1.7947821E+00
 5.3741027E+00 8.0092899E-01 1.7917981E+00
 5.4390984E+00 7.7596029E-01 1.7881604E+00
 5.5033717E+00 7.5058776E-01 1.7836307E+00
 5.5665160E+00 7.2495901E-01 1.7779775E+00
 5.6281994E+00 6.9916032E-01 1.7709601E+00
 5.1145346E+00 8.5448642E-01 1.7954132E+00
 5.1777102E+00 8.3171007E-01 1.7920038E+00
 5.2414896E+00 8.0838430E-01 1.7884265E+00
 5.3055841E+00 7.8454319E-01 1.7845554E+00
 5.3696021E+00 7.6023899E-01 1.7802230E+00
 5.4331465E+00 7.3554653E-01 1.7752285E+00
 5.4958127E+00 7.1059526E-01 1.7693692E+00
 5.5572710E+00 6.8543907E-01 1.7624072E+00
 5.1138734E+00 8.1485672E-01 1.7871184E+00
 5.1762009E+00 7.9215212E-01 1.7825123E+00
 5.2389438E+00 7.6897919E-01 1.7777023E+00
 5.3018138E+00 7.4539105E-01 1.7725751E+00
 5.3644464E+00 7.2143893E-01 1.7669750E+00
 5.4264412E+00 6.9723531E-01 1.7607350E+00
 5.4874771E+00 6.7279832E-01 1.7536317E+00
 5.1130750E+00 7.7658493E-01 1.7771051E+00
 5.1744282E+00 7.5412672E-01 1.7713605E+00
 5.2360169E+00 7.3128783E-01 1.7653924E+00
 5.2975732E+00 7.0811908E-01 1.7590946E+00
 5.3587188E+00 6.8471720E-01 1.7523442E+00
 5.4191473E+00 6.6106284E-01 1.7449371E+00
 5.1121580E+00 7.3986985E-01 1.7655774E+00
 5.1724252E+00 7.1781887E-01 1.7587765E+00
 5.2327772E+00 6.9545758E-01 1.7517388E+00
 5.2929139E+00 6.7289205E-01 1.7443928E+00
 5.3525635E+00 6.5006620E-01 1.7365603E+00
 5.1111331E+00 7.0486693E-01 1.7527555E+00
 5.1702395E+00 6.8334303E-01 1.7449879E+00
 5.2292415E+00 6.6163066E-01 1.7370071E+00
 5.2879636E+00 6.3966194E-01 1.7286708E+00
 5.1100387E+00 6.7167115E-01 1.7388575E+00
 5.1678692E+00 6.5083422E-01 1.7302548E+00
 5.2255312E+00 6.2972696E-01 1.7213728E+00
 5.1088127E+00 6.4037377E-01 1.7241178E+00
 5.1653885E+00 6.2016504E-01 1.7147119E+00
 5.1076615E+00 6.1089407E-01 1.7086967E+00
 5.0192273E+00 1.4453753E+00 1.6744073E+00
 4.9842093E+00 1.4671505E+00 1.6598433E+00
 4.9479676E+00 1.4894831E+00 1.6440620E+00
 4.9103215E+00 1.5123499E+00 1.6269744E+00
 4.8714993E+00 1.5356935E+00 1.6084704E+00
 4.8316394E+00 1.5594079E+00 1.5884590E+00
 4.7909509E+00 1.5833649E+00 1.5668473E+00
 4.7496699E+00 1.6074019E+00 1.5435530E+00
 4.7080683E+00 1.6313250E+00 1.5185099E+00
 4.6664418E+00 1.6549104E+00 1.4916755E+00
 4.6251053E+00 1.6779096E+00 1.4630414E+00
 4.5843800E+00 1.7000577E+00 1.4326403E+00
 4.5445835E+00 1.7210859E+00 1.4005535E+00
 4.5060181E+00 1.7407334E+00 1.3669134E+00
 4.4689596E+00 1.7587630E+00 1.3319034E+00
 4.4336487E+00 1.7749725E+00 1.2957525E+00
 4.4002822E+00 1.7892067E+00 1.2587261E+00
 4.3690104E+00 1.8013625E+00 1.2211147E+00
 4.3399336E+00 1.8113930E+00 1.1832199E+00
 4.3131044E+00 1.8193048E+00 1.1453412E+00
 4.2885280E+00 1.8251544E+00 1.1077606E+00
 4.2661822E+00 1.8290386E+00 1.0707405E+00
 4.2459735E+00 1.8310816E+00 1.0344601E+00
 3.5934232E+00 1.0761931E+00 1.6824225E+00
 3.5845091E+00 1.1261230E+00 1.6700309E+00
 3.5788099E+00 1.1779742E+00 1.6548999E+00
 3.5768497E+00 1.2314014E+00 1.6368719E+00
 3.5790852E+00 1.2858883E+00 1.6158340E+00
 3.5859246E+00 1.3408058E+00 1.5917581E+00
 3.5976863E+00 1.3954395E+00 1.5647103E+00
 3.6145691E+00 1.4490173E+00 1.5348616E+00
 3.6366276E+00 1.5007485E+00 1.5024907E+00
 3.6637568E+00 1.5498697E+00 1.4679773E+00
 3.6956904E+00 1.5956922E+00 1.4317872E+00
 3.7320107E+00 1.6376460E+00 1.3944463E+00
 3.7721739E+00 1.6753133E+00 1.3565105E+00
 3.8155445E+00 1.7084482E+00 1.3185322E+00
 3.8614354E+00 1.7369793E+00 1.2810286E+00
 3.9091478E+00 1.7609985E+00 1.2444563E+00
 3.9580085E+00 1.7807344E+00 1.2091927E+00
 4.0073976E+00 1.7965215E+00 1.1755278E+00
 4.0567672E+00 1.8087630E+00 1.1436631E+00
 4.1056597E+00 1.8178989E+00 1.1137156E+00
 4.1536889E+00 1.8243756E+00 1.0857373E+00
 4.2006272E+00 1.8286253E+00 1.0596551E+00
 3.6401245E+00 1.1055339E+00 1.7027694E+00
 3.6335295E+00 1.1562005E+00 1.6900687E+00
 3.6303004E+00 1.2085943E+00 1.6744978E+00
 3.6309274E+00 1.2623027E+00 1.6558925E+00
 3.6358331E+00 1.3167614E+00 1.6341527E+00
 3.6453753E+00 1.3712943E+00 1.6092715E+00
 3.6598087E+00 1.4251522E+00 1.5813465E+00
 3.6792595E+00 1.4775465E+00 1.5505870E+00
 3.7037025E+00 1.5276938E+00 1.5173147E+00
 3.7329540E+00 1.5748631E+00 1.4819526E+00
 3.7666750E+00 1.6184241E+00 1.4450054E+00
 3.8043907E+00 1.6578858E+00 1.4070290E+00
 3.8455184E+00 1.6929243E+00 1.3685983E+00
 3.8894065E+00 1.7233921E+00 1.3302713E+00
 3.9353742E+00 1.7493139E+00 1.2925589E+00
 3.9827492E+00 1.7708640E+00 1.2559007E+00
 4.0309001E+00 1.7883378E+00 1.2206506E+00
 4.0792579E+00 1.8021143E+00 1.1870715E+00
 4.1273367E+00 1.8126226E+00 1.1553372E+00
 4.1747269E+00 1.8203095E+00 1.1255398E+00
 4.2211692E+00 1.8256159E+00 1.0976565E+00
 3.6909238E+00 1.1345647E+00 1.7209181E+00
 3.6868130E+00 1.1857188E+00 1.7077625E+00
 3.6861826E+00 1.2383506E+00 1.6916104E+00
 3.6894871E+00 1.2920075E+00 1.6723037E+00
 3.6971017E+00 1.3460741E+00 1.6497623E+00
 3.7093237E+00 1.3998395E+00 1.6240087E+00
 3.7263378E+00 1.4525351E+00 1.5951775E+00
 3.7481919E+00 1.5033749E+00 1.5635215E+00
 3.7747827E+00 1.5516028E+00 1.5294065E+00
 3.8058533E+00 1.5965410E+00 1.4932971E+00
 3.8410045E+00 1.6376342E+00 1.4557311E+00
 3.8797185E+00 1.6744833E+00 1.4172873E+00
 3.9213929E+00 1.7068626E+00 1.3785486E+00
 3.9653778E+00 1.7347225E+00 1.3400686E+00
 4.0110153E+00 1.7581734E+00 1.3023414E+00
 4.0576734E+00 1.7774600E+00 1.2657818E+00
 4.1047698E+00 1.7929258E+00 1.2307145E+00
 4.1517996E+00 1.8049786E+00 1.1973701E+00
 4.1983253E+00 1.8140557E+00 1.1658950E+00
 4.2440676E+00 1.8206018E+00 1.1363060E+00
 3.7457389E+00 1.1630532E+00 1.7365634E+00
 3.7442392E+00 1.2143982E+00 1.7228043E+00
 3.7463009E+00 1.2669417E+00 1.7059420E+00
 3.7523251E+00 1.3201872E+00 1.6858297E+00
 3.7626313E+00 1.3734830E+00 1.6624160E+00
 3.7774482E+00 1.4260972E+00 1.6357593E+00
 3.7968855E+00 1.4772602E+00 1.6060374E+00
 3.8209133E+00 1.5262088E+00 1.5735473E+00
 3.8493550E+00 1.5722354E+00 1.5386986E+00
 3.8818915E+00 1.6147326E+00 1.5019918E+00
 3.9180778E+00 1.6532343E+00 1.4639900E+00
 3.9573720E+00 1.6874385E+00 1.4252831E+00
 3.9991696E+00 1.7172181E+00 1.3864517E+00
 4.0428403E+00 1.7426117E+00 1.3480329E+00
 4.0877640E+00 1.7638030E+00 1.3104955E+00
 4.1333565E+00 1.7810881E+00 1.2742225E+00
 4.1791002E+00 1.7948419E+00 1.2395033E+00
 4.2245375E+00 1.8054824E+00 1.2065388E+00
 4.2693730E+00 1.8134477E+00 1.1753935E+00
 3.8043667E+00 1.1906842E+00 1.7494444E+00
 3.8055538E+00 1.2419050E+00 1.7349447E+00
 3.8103371E+00 1.2940156E+00 1.7172593E+00