# TIME = 0.000000
VARIABLES = X, Y, Z, FX, FY, FZ
ZONE N=29232 E=58212 F=FEPOINT ET=TRIANGLE
  0.000E+00  9.502E-01  1.243E-03 3.5859978E+00 4.1861038E-01 8.4195594E+00
  0.000E+00  1.000E+00  0.000E+00 3.5846334E+00 -4.2547746E-06 8.4303052E+00
  4.318E-02  9.751E-01  3.108E-04 3.5844420E+00 2.0930582E-01 8.4281616E+00
  0.000E+00  1.050E+00  1.243E-03 3.5859979E+00 -4.1861895E-01 8.4195587E+00
  4.318E-02  1.025E+00  3.108E-04 3.5844420E+00 -2.0931517E-01 8.4281612E+00
  0.000E+00  1.100E+00  4.969E-03 3.5914304E+00 -8.3762965E-01 8.3881896E+00
  4.318E-02  1.075E+00  2.796E-03 3.5877709E+00 -6.2810779E-01 8.4069326E+00
  0.000E+00  1.149E+00  1.117E-02 3.6034648E+00 -1.2571038E+00 8.3376068E+00
  4.318E-02  1.124E+00  7.761E-03 3.5966352E+00 -1.0474603E+00 8.3658386E+00
  0.000E+00  1.198E+00  1.983E-02 3.6214642E+00 -1.6742968E+00 8.2668782E+00
  4.318E-02  1.174E+00  1.519E-02 3.6123872E+00 -1.4664032E+00 8.3054920E+00
  0.000E+00  1.247E+00  3.092E-02 3.6379488E+00 -2.0836873E+00 8.1727588E+00
  4.318E-02  1.223E+00  2.507E-02 3.6308210E+00 -1.8804073E+00 8.2234865E+00
  0.000E+00  1.295E+00  4.443E-02 3.6440577E+00 -2.4839947E+00 8.0555577E+00
  4.318E-02  1.271E+00  3.738E-02 3.6423043E+00 -2.2848323E+00 8.1172574E+00
  0.000E+00  1.342E+00  6.031E-02 3.6545082E+00 -2.8810096E+00 7.9210184E+00
  4.318E-02  1.318E+00  5.207E-02 3.6442746E+00 -2.6827405E+00 7.9906804E+00
  0.000E+00  1.388E+00  7.852E-02 3.6895527E+00 -3.2752768E+00 7.7699492E+00
  4.318E-02  1.365E+00  6.913E-02 3.6734016E+00 -3.0792125E+00 7.8484761E+00
  0.000E+00  1.434E+00  9.903E-02 3.6965608E+00 -3.6589333E+00 7.5969499E+00
  4.318E-02  1.411E+00  8.849E-02 3.6996973E+00 -3.4689024E+00 7.6867649E+00
  0.000E+00  1.478E+00  1.218E-01 3.7138733E+00 -4.0319954E+00 7.4042494E+00
  4.318E-02  1.456E+00  1.101E-01 3.6955948E+00 -3.8467787E+00 7.5032419E+00
  0.000E+00  1.521E+00  1.467E-01 3.7401662E+00 -4.3964070E+00 7.1944738E+00
  4.318E-02  1.500E+00  1.340E-01 3.7311140E+00 -4.2157098E+00 7.3020789E+00
  0.000E+00  1.563E+00  1.738E-01 3.7360454E+00 -4.7496143E+00 6.9663576E+00
  4.318E-02  1.543E+00  1.600E-01 3.7289278E+00 -4.5748273E+00 7.0831834E+00
  0.000E+00  1.604E+00  2.029E-01 3.7576545E+00 -5.0908805E+00 6.7208675E+00
  4.318E-02  1.584E+00  1.881E-01 3.7608952E+00 -4.9220725E+00 6.8461506E+00
  0.000E+00  1.643E+00  2.340E-01 3.7644674E+00 -5.4196074E+00 6.4588075E+00
  4.318E-02  1.623E+00  2.182E-01 3.7508640E+00 -5.2572461E+00 6.5923514E+00
  0.000E+00  1.680E+00  2.669E-01 3.7662353E+00 -5.7348043E+00 6.1806294E+00
  4.318E-02  1.662E+00  2.502E-01 3.7678099E+00 -5.5793177E+00 6.3221079E+00
  0.000E+00  1.716E+00  3.018E-01 3.7672381E+00 -6.0357539E+00 5.8870716E+00
  4.318E-02  1.698E+00  2.841E-01 3.7672386E+00 -5.8874995E+00 6.0361330E+00
  0.000E+00  1.750E+00  3.383E-01 3.7678072E+00 -6.3217074E+00 5.5789088E+00
  4.318E-02  1.733E+00  3.198E-01 3.7662346E+00 -6.1810744E+00 5.7351604E+00
  0.000E+00  1.782E+00  3.765E-01 3.7508593E+00 -6.5919315E+00 5.2568584E+00
  4.318E-02  1.766E+00  3.572E-01 3.7644685E+00 -6.4592700E+00 5.4199409E+00
  0.000E+00  1.812E+00  4.163E-01 3.7608836E+00 -6.8457129E+00 4.9217077E+00
  4.318E-02  1.797E+00  3.962E-01 3.7576544E+00 -6.7213465E+00 5.0911916E+00
  0.000E+00  1.840E+00  4.575E-01 3.7289148E+00 -7.0827259E+00 4.5744851E+00
  4.318E-02  1.826E+00  4.367E-01 3.7360435E+00 -6.9668516E+00 4.7499021E+00
  0.000E+00  1.866E+00  5.000E-01 3.7310960E+00 -7.3016011E+00 4.2153913E+00
  4.318E-02  1.853E+00  4.786E-01 3.7401646E+00 -7.1949769E+00 4.3966698E+00
  0.000E+00  1.890E+00  5.438E-01 3.6955699E+00 -7.5027500E+00 3.8464859E+00
  4.318E-02  1.878E+00  5.217E-01 3.7138720E+00 -7.4047646E+00 4.0322336E+00
  0.000E+00  1.912E+00  5.887E-01 3.6996656E+00 -7.6862598E+00 3.4686376E+00
  4.318E-02  1.901E+00  5.661E-01 3.6965641E+00 -7.5974779E+00 3.6591480E+00
  0.000E+00  1.931E+00  6.347E-01 3.6733664E+00 -7.8479590E+00 3.0789755E+00
  4.318E-02  1.921E+00  6.116E-01 3.6895592E+00 -7.7704872E+00 3.2754677E+00
  0.000E+00  1.948E+00  6.815E-01 3.6442385E+00 -7.9901510E+00 2.6825312E+00
  4.318E-02  1.940E+00  6.580E-01 3.6545158E+00 -7.9215661E+00 2.8811754E+00
  0.000E+00  1.963E+00  7.292E-01 3.6422675E+00 -8.1167139E+00 2.2846519E+00
  4.318E-02  1.956E+00  7.052E-01 3.6440629E+00 -8.0561089E+00 2.4841342E+00
  0.000E+00  1.975E+00  7.775E-01 3.6307824E+00 -8.2229322E+00 1.8802567E+00
  4.318E-02  1.969E+00  7.532E-01 3.6379512E+00 -8.1733114E+00 2.0838007E+00
  0.000E+00  1.985E+00  8.264E-01 3.6123469E+00 -8.3049308E+00 1.4662820E+00
  4.318E-02  1.980E+00  8.019E-01 3.6214656E+00 -8.2674355E+00 1.6743852E+00
  0.000E+00  1.992E+00  8.757E-01 3.5965949E+00 -8.3652709E+00 1.0473669E+00
  4.318E-02  1.989E+00  8.510E-01 3.6034650E+00 -8.3381706E+00 1.2571704E+00
  0.000E+00  1.997E+00  9.253E-01 3.5877354E+00 -8.4063584E+00 6.2804324E-01
  4.318E-02  1.995E+00  9.004E-01 3.5914269E+00 -8.3887593E+00 8.3767649E-01
  0.000E+00  2.000E+00  9.751E-01 3.5844177E+00 -8.4275821E+00 2.0928494E-01
  4.318E-02  1.999E+00  9.502E-01 3.5859864E+00 -8.4201327E+00 4.1864178E-01
  0.000E+00  2.000E+00  1.025E+00 3.5844312E+00 -8.4275815E+00 -2.0929824E-01
  4.318E-02  2.000E+00  1.000E+00 3.5846120E+00 -8.4308804E+00 -5.4290343E-06
  0.000E+00  1.997E+00  1.075E+00 3.5877686E+00 -8.4063565E+00 -6.2805652E-01
  4.318E-02  1.999E+00  1.050E+00 3.5859702E+00 -8.4201318E+00 -4.1865331E-01
  0.000E+00  1.992E+00  1.124E+00 3.5966334E+00 -8.3652681E+00 -1.0473801E+00
  4.318E-02  1.995E+00  1.100E+00 3.5914027E+00 -8.3887572E+00 -8.3768937E-01
  0.000E+00  1.985E+00  1.174E+00 3.6123816E+00 -8.3049281E+00 -1.4662952E+00
  4.318E-02  1.989E+00  1.149E+00 3.6034409E+00 -8.3381678E+00 -1.2571841E+00
  0.000E+00  1.975E+00  1.223E+00 3.6308123E+00 -8.2229304E+00 -1.8802697E+00
  4.318E-02  1.980E+00  1.198E+00 3.6214447E+00 -8.2674334E+00 -1.6743990E+00
  0.000E+00  1.963E+00  1.271E+00 3.6422946E+00 -8.1167101E+00 -2.2846647E+00
  4.318E-02  1.969E+00  1.247E+00 3.6379328E+00 -8.1733092E+00 -2.0838141E+00
  0.000E+00  1.948E+00  1.318E+00 3.6442639E+00 -7.9901436E+00 -2.6825439E+00
  4.318E-02  1.956E+00  1.295E+00 3.6440458E+00 -8.0561031E+00 -2.4841474E+00
  0.000E+00  1.931E+00  1.365E+00 3.6733905E+00 -7.8479544E+00 -3.0789880E+00
  4.318E-02  1.940E+00  1.342E+00 3.6544995E+00 -7.9215594E+00 -2.8811884E+00
  0.000E+00  1.912E+00  1.411E+00 3.6996878E+00 -7.6862553E+00 -3.4686499E+00
  4.318E-02  1.921E+00  1.388E+00 3.6895438E+00 -7.7704838E+00 -3.2754806E+00
  0.000E+00  1.890E+00  1.456E+00 3.6955882E+00 -7.5027410E+00 -3.8464979E+00
  4.318E-02  1.901E+00  1.434E+00 3.6965505E+00 -7.5974705E+00 -3.6591608E+00
  0.000E+00  1.866E+00  1.500E+00 3.7311080E+00 -7.3015951E+00 -4.2154031E+00
  4.318E-02  1.878E+00  1.478E+00 3.7138616E+00 -7.4047565E+00 -4.0322463E+00
  0.000E+00  1.840E+00  1.543E+00 3.7289189E+00 -7.0827181E+00 -4.5744965E+00
  4.318E-02  1.853E+00  1.521E+00 3.7401589E+00 -7.1949703E+00 -4.3966822E+00
  0.000E+00  1.812E+00  1.584E+00 3.7608795E+00 -6.8457046E+00 -4.9217188E+00
  4.318E-02  1.826E+00  1.563E+00 3.7360431E+00 -6.9668422E+00 -4.7499141E+00
  0.000E+00  1.782E+00  1.623E+00 3.7508490E+00 -6.5919230E+00 -5.2568690E+00
  4.318E-02  1.797E+00  1.604E+00 3.7576589E+00 -6.7213381E+00 -5.0912031E+00
  0.000E+00  1.750E+00  1.662E+00 3.7677949E+00 -6.3216980E+00 -5.5789191E+00
  4.318E-02  1.766E+00  1.643E+00 3.7644756E+00 -6.4592604E+00 -5.4199516E+00
  0.000E+00  1.716E+00  1.698E+00 3.7672280E+00 -6.0357443E+00 -5.8870814E+00
  4.318E-02  1.733E+00  1.680E+00 3.7662415E+00 -6.1810651E+00 -5.7351704E+00
  0.000E+00  1.680E+00  1.733E+00 3.7662298E+00 -5.7347940E+00 -6.1806387E+00
  4.318E-02  1.698E+00  1.716E+00 3.7672432E+00 -5.8874895E+00 -6.0361424E+00
  0.000E+00  1.643E+00  1.766E+00 3.7644660E+00 -5.4195967E+00 -6.4588163E+00
  4.318E-02  1.662E+00  1.750E+00 3.7678113E+00 -5.5793074E+00 -6.3221169E+00
  0.000E+00  1.604E+00  1.797E+00 3.7576535E+00 -5.0908694E+00 -6.7208759E+00
  4.318E-02  1.623E+00  1.782E+00 3.7508638E+00 -5.2572350E+00 -6.5923601E+00
  0.000E+00  1.563E+00  1.826E+00 3.7360398E+00 -4.7496028E+00 -6.9663654E+00
  4.318E-02  1.584E+00  1.812E+00 3.7608965E+00 -4.9220607E+00 -6.8461590E+00
  0.000E+00  1.521E+00  1.853E+00 3.7401554E+00 -4.3963952E+00 -7.1944811E+00
  4.318E-02  1.543E+00  1.840E+00 3.7289327E+00 -4.5748150E+00 -7.0831913E+00
  0.000E+00  1.478E+00  1.878E+00 3.7138640E+00 -4.0319833E+00 -7.4042561E+00
  4.318E-02  1.500E+00  1.866E+00 3.7311206E+00 -4.2156978E+00 -7.3020859E+00
  0.000E+00  1.434E+00  1.901E+00 3.6965598E+00 -3.6589208E+00 -7.5969558E+00
  4.318E-02  1.456E+00  1.890E+00 3.6955979E+00 -3.8467668E+00 -7.5032479E+00
  0.000E+00  1.388E+00  1.921E+00 3.6895597E+00 -3.2752639E+00 -7.7699545E+00
  4.318E-02  1.411E+00  1.912E+00 3.6996944E+00 -3.4688904E+00 -7.6867705E+00
  0.000E+00  1.342E+00  1.940E+00 3.6545164E+00 -2.8809961E+00 -7.9210229E+00
  4.318E-02  1.365E+00  1.931E+00 3.6733955E+00 -3.0791999E+00 -7.8484813E+00
  0.000E+00  1.295E+00  1.956E+00 3.6440626E+00 -2.4839801E+00 -8.0555613E+00
  4.318E-02  1.318E+00  1.948E+00 3.6442695E+00 -2.6827276E+00 -7.9906853E+00
  0.000E+00  1.247E+00  1.969E+00 3.6379500E+00 -2.0836713E+00 -8.1727613E+00
  4.318E-02  1.271E+00  1.963E+00 3.6423017E+00 -2.2848198E+00 -8.1172618E+00
  0.000E+00  1.198E+00  1.980E+00 3.6214624E+00 -1.6742812E+00 -8.2668800E+00
  4.318E-02  1.223E+00  1.975E+00 3.6308208E+00 -1.8803951E+00 -8.2234903E+00
  0.000E+00  1.149E+00  1.989E+00 3.6034584E+00 -1.2570942E+00 -8.3376087E+00
  4.318E-02  1.174E+00  1.985E+00 3.6123900E+00 -1.4663890E+00 -8.3054948E+00
  0.000E+00  1.100E+00  1.995E+00 3.5914161E+00 -8.3762971E-01 -8.3881923E+00
  4.318E-02  1.124E+00  1.992E+00 3.5966423E+00 -1.0474398E+00 -8.3658398E+00
  0.000E+00  1.050E+00  1.999E+00 3.5859748E+00 -4.1862011E-01 -8.4195623E+00
  4.318E-02  1.075E+00  1.997E+00 3.5877825E+00 -6.2808255E-01 -8.4069319E+00
  0.000E+00  1.000E+00  2.000E+00 3.5846062E+00 9.3228446E-06 -8.4303087E+00
  4.318E-02  1.025E+00  2.000E+00 3.5844563E+00 -2.0929520E-01 -8.4281589E+00
  0.000E+00  9.502E-01  1.999E+00 3.5859747E+00 4.1863882E-01 -8.4195616E+00
  4.318E-02  9.751E-01  2.000E+00 3.5844563E+00 2.0931399E-01 -8.4281585E+00
  0.000E+00  9.004E-01  1.995E+00 3.5914159E+00 8.3764850E-01 -8.3881909E+00
  4.318E-02  9.253E-01  1.997E+00 3.5877824E+00 6.2810123E-01 -8.4069308E+00
  0.000E+00  8.510E-01  1.989E+00 3.6034582E+00 1.2571130E+00 -8.3376066E+00
  4.318E-02  8.757E-01  1.992E+00 3.5966421E+00 1.0474583E+00 -8.3658380E+00
  0.000E+00  8.019E-01  1.980E+00 3.6214621E+00 1.6742999E+00 -8.2668771E+00
  4.318E-02  8.264E-01  1.985E+00 3.6123897E+00 1.4664074E+00 -8.3054922E+00
  0.000E+00  7.532E-01  1.969E+00 3.6379497E+00 2.0836898E+00 -8.1727578E+00
  4.318E-02  7.775E-01  1.975E+00 3.6308205E+00 1.8804135E+00 -8.2234870E+00
  0.000E+00  7.052E-01  1.956E+00 3.6440622E+00 2.4839983E+00 -8.0555571E+00
  4.318E-02  7.292E-01  1.963E+00 3.6423014E+00 2.2848380E+00 -8.1172578E+00
  0.000E+00  6.580E-01  1.940E+00 3.6545159E+00 2.8810142E+00 -7.9210181E+00
  4.318E-02  6.815E-01  1.948E+00 3.6442690E+00 2.6827456E+00 -7.9906806E+00
  0.000E+00  6.116E-01  1.921E+00 3.6895591E+00 3.2752817E+00 -7.7699490E+00
  4.318E-02  6.347E-01  1.931E+00 3.6733949E+00 3.0792177E+00 -7.8484760E+00
  0.000E+00  5.661E-01  1.901E+00 3.6965591E+00 3.6589385E+00 -7.5969497E+00
  4.318E-02  5.887E-01  1.912E+00 3.6996938E+00 3.4689080E+00 -7.6867645E+00
  0.000E+00  5.217E-01  1.878E+00 3.7138632E+00 4.0320006E+00 -7.4042493E+00
  4.318E-02  5.438E-01  1.890E+00 3.6955972E+00 3.8467842E+00 -7.5032413E+00
  0.000E+00  4.786E-01  1.853E+00 3.7401546E+00 4.3964123E+00 -7.1944737E+00
  4.318E-02  5.000E-01  1.866E+00 3.7311198E+00 4.2157147E+00 -7.3020786E+00
  0.000E+00  4.367E-01  1.826E+00 3.7360390E+00 4.7496196E+00 -6.9663575E+00
  4.318E-02  4.575E-01  1.840E+00 3.7289318E+00 4.5748317E+00 -7.0831834E+00
  0.000E+00  3.962E-01  1.797E+00 3.7576526E+00 5.0908858E+00 -6.7208675E+00
  4.318E-02  4.163E-01  1.812E+00 3.7608955E+00 4.9220769E+00 -6.8461506E+00
  0.000E+00  3.572E-01  1.766E+00 3.7644650E+00 5.4196127E+00 -6.4588074E+00
  4.318E-02  3.765E-01  1.782E+00 3.7508627E+00 5.2572509E+00 -6.5923512E+00
  0.000E+00  3.198E-01  1.733E+00 3.7662287E+00 5.7348096E+00 -6.1806293E+00
  4.318E-02  3.383E-01  1.750E+00 3.7678102E+00 5.5793228E+00 -6.3221074E+00
  0.000E+00  2.841E-01  1.698E+00 3.7672268E+00 6.0357593E+00 -5.8870715E+00
  4.318E-02  3.018E-01  1.716E+00 3.7672420E+00 5.8875046E+00 -6.0361324E+00
  0.000E+00  2.502E-01  1.662E+00 3.7677937E+00 6.3217128E+00 -5.5789087E+00
  4.318E-02  2.669E-01  1.680E+00 3.7662403E+00 6.1810793E+00 -5.7351599E+00
  0.000E+00  2.182E-01  1.623E+00 3.7508477E+00 6.5919369E+00 -5.2568583E+00
  4.318E-02  2.340E-01  1.643E+00 3.7644742E+00 6.4592746E+00 -5.4199407E+00
  0.000E+00  1.881E-01  1.584E+00 3.7608781E+00 6.8457183E+00 -4.9217076E+00
  4.318E-02  2.029E-01  1.604E+00 3.7576574E+00 6.7213509E+00 -5.0911918E+00
  0.000E+00  1.600E-01  1.543E+00 3.7289174E+00 7.0827313E+00 -4.5744849E+00
  4.318E-02  1.738E-01  1.563E+00 3.7360416E+00 6.9668560E+00 -4.7499025E+00
  0.000E+00  1.340E-01  1.500E+00 3.7311065E+00 7.3016065E+00 -4.2153912E+00
  4.318E-02  1.467E-01  1.521E+00 3.7401573E+00 7.1949813E+00 -4.3966702E+00
  0.000E+00  1.101E-01  1.456E+00 3.6955866E+00 7.5027554E+00 -3.8464858E+00
  4.318E-02  1.218E-01  1.478E+00 3.7138599E+00 7.4047692E+00 -4.0322339E+00
  0.000E+00  8.849E-02  1.411E+00 3.6996861E+00 7.6862652E+00 -3.4686374E+00
  4.318E-02  9.903E-02  1.434E+00 3.6965488E+00 7.5974826E+00 -3.6591481E+00
  0.000E+00  6.913E-02  1.365E+00 3.6733887E+00 7.8479644E+00 -3.0789753E+00
  4.318E-02  7.852E-02  1.388E+00 3.6895421E+00 7.7704920E+00 -3.2754677E+00
  0.000E+00  5.207E-02  1.318E+00 3.6442622E+00 7.9901564E+00 -2.6825310E+00
  4.318E-02  6.031E-02  1.342E+00 3.6544976E+00 7.9215709E+00 -2.8811753E+00
  0.000E+00  3.738E-02  1.271E+00 3.6422927E+00 8.1167193E+00 -2.2846516E+00
  4.318E-02  4.443E-02  1.295E+00 3.6440439E+00 8.0561137E+00 -2.4841341E+00
  0.000E+00  2.507E-02  1.223E+00 3.6308105E+00 8.2229377E+00 -1.8802564E+00
  4.318E-02  3.092E-02  1.247E+00 3.6379308E+00 8.1733162E+00 -2.0838006E+00
  0.000E+00  1.519E-02  1.174E+00 3.6123797E+00 8.3049362E+00 -1.4662817E+00
  4.318E-02  1.983E-02  1.198E+00 3.6214427E+00 8.2674403E+00 -1.6743853E+00
  0.000E+00  7.761E-03  1.124E+00 3.5966314E+00 8.3652764E+00 -1.0473665E+00
  4.318E-02  1.117E-02  1.149E+00 3.6034389E+00 8.3381755E+00 -1.2571703E+00
  0.000E+00  2.796E-03  1.075E+00 3.5877666E+00 8.4063638E+00 -6.2804288E-01
  4.318E-02  4.969E-03  1.100E+00 3.5914006E+00 8.3887643E+00 -8.3767550E-01
  0.000E+00  3.108E-04  1.025E+00 3.5844292E+00 8.4275875E+00 -2.0928454E-01
  4.318E-02  1.243E-03  1.050E+00 3.5859681E+00 8.4201377E+00 -4.1863939E-01
  0.000E+00  3.108E-04  9.751E-01 3.5844157E+00 8.4275869E+00 2.0929866E-01
  4.318E-02  0.000E+00  1.000E+00 3.5846099E+00 8.4308851E+00 8.5199304E-06
  0.000E+00  2.796E-03  9.253E-01 3.5877334E+00 8.4063619E+00 6.2805696E-01
  4.318E-02  1.243E-03  9.502E-01 3.5859843E+00 8.4201362E+00 4.1865573E-01
  0.000E+00  7.761E-03  8.757E-01 3.5965929E+00 8.3652735E+00 1.0473805E+00
  4.318E-02  4.969E-03  9.004E-01 3.5914248E+00 8.3887616E+00 8.3769040E-01
  0.000E+00  1.519E-02  8.264E-01 3.6123449E+00 8.3049335E+00 1.4662957E+00
  4.318E-02  1.117E-02  8.510E-01 3.6034629E+00 8.3381723E+00 1.2571842E+00
  0.000E+00  2.507E-02  7.775E-01 3.6307804E+00 8.2229357E+00 1.8802702E+00
  4.318E-02  1.983E-02  8.019E-01 3.6214635E+00 8.2674379E+00 1.6743990E+00
  0.000E+00  3.738E-02  7.292E-01 3.6422656E+00 8.1167154E+00 2.2846653E+00
  4.318E-02  3.092E-02  7.532E-01 3.6379491E+00 8.1733137E+00 2.0838143E+00
  0.000E+00  5.207E-02  6.815E-01 3.6442366E+00 7.9901489E+00 2.6825445E+00
  4.318E-02  4.443E-02  7.052E-01 3.6440609E+00 8.0561075E+00 2.4841477E+00
  0.000E+00  6.913E-02  6.347E-01 3.6733645E+00 7.8479596E+00 3.0789886E+00
  4.318E-02  6.031E-02  6.580E-01 3.6545137E+00 7.9215639E+00 2.8811887E+00
  0.000E+00  8.849E-02  5.887E-01 3.6996638E+00 7.6862605E+00 3.4686505E+00
  4.318E-02  7.852E-02  6.116E-01 3.6895572E+00 7.7704883E+00 3.2754808E+00
  0.000E+00  1.101E-01  5.438E-01 3.6955681E+00 7.5027462E+00 3.8464985E+00
  4.318E-02  9.903E-02  5.661E-01 3.6965622E+00 7.5974751E+00 3.6591608E+00
  0.000E+00  1.340E-01  5.000E-01 3.7310943E+00 7.3016002E+00 4.2154037E+00
  4.318E-02  1.218E-01  5.217E-01 3.7138701E+00 7.4047612E+00 4.0322461E+00
  0.000E+00  1.600E-01  4.575E-01 3.7289132E+00 7.0827232E+00 4.5744970E+00
  4.318E-02  1.467E-01  4.786E-01 3.7401628E+00 7.1949752E+00 4.3966820E+00
  0.000E+00  1.881E-01  4.163E-01 3.7608819E+00 6.8457097E+00 4.9217193E+00
  4.318E-02  1.738E-01  4.367E-01 3.7360417E+00 6.9668471E+00 4.7499139E+00
  0.000E+00  2.182E-01  3.765E-01 3.7508578E+00 6.5919281E+00 5.2568696E+00
  4.318E-02  2.029E-01  3.962E-01 3.7576527E+00 6.7213430E+00 5.0912031E+00
  0.000E+00  2.502E-01  3.383E-01 3.7678057E+00 6.3217031E+00 5.5789196E+00
  4.318E-02  2.340E-01  3.572E-01 3.7644669E+00 6.4592650E+00 5.4199519E+00
  0.000E+00  2.841E-01  3.018E-01 3.7672367E+00 6.0357494E+00 5.8870820E+00
  4.318E-02  2.669E-01  3.198E-01 3.7662330E+00 6.1810695E+00 5.7351710E+00
  0.000E+00  3.198E-01  2.669E-01 3.7662339E+00 5.7347990E+00 6.1806393E+00
  4.318E-02  3.018E-01  2.841E-01 3.7672371E+00 5.8874937E+00 6.0361432E+00
  0.000E+00  3.572E-01  2.340E-01 3.7644661E+00 5.4196017E+00 6.4588169E+00
  4.318E-02  3.383E-01  2.502E-01 3.7678085E+00 5.5793116E+00 6.3221176E+00
  0.000E+00  3.962E-01  2.029E-01 3.7576533E+00 5.0908744E+00 6.7208764E+00
  4.318E-02  3.765E-01  2.182E-01 3.7508627E+00 5.2572394E+00 6.5923605E+00
  0.000E+00  4.367E-01  1.738E-01 3.7360443E+00 4.7496078E+00 6.9663658E+00
  4.318E-02  4.163E-01  1.881E-01 3.7608940E+00 4.9220656E+00 6.8461591E+00
  0.000E+00  4.786E-01  1.467E-01 3.7401652E+00 4.3964002E+00 7.1944815E+00
  4.318E-02  4.575E-01  1.600E-01 3.7289266E+00 4.5748199E+00 7.0831914E+00
  0.000E+00  5.217E-01  1.218E-01 3.7138725E+00 4.0319883E+00 7.4042565E+00
  4.318E-02  5.000E-01  1.340E-01 3.7311130E+00 4.2157023E+00 7.3020863E+00
  0.000E+00  5.661E-01  9.903E-02 3.6965601E+00 3.6589258E+00 7.5969563E+00
  4.318E-02  5.438E-01  1.101E-01 3.6955939E+00 3.8467707E+00 7.5032487E+00
  0.000E+00  6.116E-01  7.852E-02 3.6895520E+00 3.2752691E+00 7.7699550E+00
  4.318E-02  5.887E-01  8.849E-02 3.6996965E+00 3.4688942E+00 7.6867711E+00
  0.000E+00  6.580E-01  6.031E-02 3.6545076E+00 2.8810017E+00 7.9210235E+00
  4.318E-02  6.347E-01  6.913E-02 3.6734008E+00 3.0792041E+00 7.8484816E+00
  0.000E+00  7.052E-01  4.443E-02 3.6440572E+00 2.4839865E+00 8.0555621E+00
  4.318E-02  6.815E-01  5.207E-02 3.6442740E+00 2.6827318E+00 7.9906852E+00
  0.000E+00  7.532E-01  3.092E-02 3.6379483E+00 2.0836790E+00 8.1727625E+00
  4.318E-02  7.292E-01  3.738E-02 3.6423038E+00 2.2848234E+00 8.1172615E+00
  0.000E+00  8.019E-01  1.983E-02 3.6214638E+00 1.6742883E+00 8.2668811E+00
  4.318E-02  7.775E-01  2.507E-02 3.6308206E+00 1.8803983E+00 8.2234899E+00
  0.000E+00  8.510E-01  1.117E-02 3.6034646E+00 1.2570952E+00 8.3376090E+00
  4.318E-02  8.264E-01  1.519E-02 3.6123868E+00 1.4663942E+00 8.3054946E+00
  0.000E+00  9.004E-01  4.969E-03 3.5914302E+00 8.3762100E-01 8.3881911E+00
  4.318E-02  8.757E-01  7.761E-03 3.5966349E+00 1.0474511E+00 8.3658405E+00
  4.318E-02  9.253E-01  2.796E-03 3.5877708E+00 6.2809855E-01 8.4069337E+00
  1.000E+01  1.050E+00  1.243E-03 3.5859979E+00 -4.1861895E-01 8.4195587E+00
  1.000E+01  1.000E+00  5.551E-16 3.5846334E+00 -4.2547746E-06 8.4303052E+00
  9.957E+00  1.025E+00  3.108E-04 3.5844391E+00 -2.0930064E-01 8.4276190E+00
  1.000E+01  9.502E-01  1.243E-03 3.5859978E+00 4.1861038E-01 8.4195594E+00
  9.957E+00  9.751E-01  3.108E-04 3.5844390E+00 2.0929247E-01 8.4276194E+00
  1.000E+01  9.004E-01  4.969E-03 3.5914302E+00 8.3762100E-01 8.3881911E+00
  9.957E+00  9.253E-01  2.796E-03 3.5877696E+00 6.2805764E-01 8.4063930E+00
  1.000E+01  8.510E-01  1.117E-02 3.6034646E+00 1.2570952E+00 8.3376090E+00
  9.957E+00  8.757E-01  7.761E-03 3.5966349E+00 1.0473833E+00 8.3653024E+00
  1.000E+01  8.019E-01  1.983E-02 3.6214638E+00 1.6742883E+00 8.2668811E+00
  9.957E+00  8.264E-01  1.519E-02 3.6123864E+00 1.4662998E+00 8.3049605E+00
  1.000E+01  7.532E-01  3.092E-02 3.6379483E+00 2.0836790E+00 8.1727625E+00
  9.957E+00  7.775E-01  2.507E-02 3.6308198E+00 1.8802778E+00 8.2229611E+00
  1.000E+01  7.052E-01  4.443E-02 3.6440572E+00 2.4839865E+00 8.0555621E+00
  9.957E+00  7.292E-01  3.738E-02 3.6423043E+00 2.2846773E+00 8.1167398E+00
  1.000E+01  6.580E-01  6.031E-02 3.6545076E+00 2.8810017E+00 7.9210235E+00
  9.957E+00  6.815E-01  5.207E-02 3.6442747E+00 2.6825603E+00 7.9901716E+00
  1.000E+01  6.116E-01  7.852E-02 3.6895520E+00 3.2752691E+00 7.7699550E+00
  9.957E+00  6.347E-01  6.913E-02 3.6734006E+00 3.0790072E+00 7.8479767E+00
  1.000E+01  5.661E-01  9.903E-02 3.6965601E+00 3.6589258E+00 7.5969563E+00
  9.957E+00  5.887E-01  8.849E-02 3.6996959E+00 3.4686725E+00 7.6862761E+00
  1.000E+01  5.217E-01  1.218E-01 3.7138725E+00 4.0319883E+00 7.4042565E+00
  9.957E+00  5.438E-01  1.101E-01 3.6955950E+00 3.8465245E+00 7.5027654E+00
  1.000E+01  4.786E-01  1.467E-01 3.7401652E+00 4.3964002E+00 7.1944815E+00
  9.957E+00  5.000E-01  1.340E-01 3.7311155E+00 4.2154321E+00 7.3016165E+00
  1.000E+01  4.367E-01  1.738E-01 3.7360443E+00 4.7496078E+00 6.9663658E+00
  9.957E+00  4.575E-01  1.600E-01 3.7289300E+00 4.5745263E+00 7.0827362E+00
  1.000E+01  3.962E-01  2.029E-01 3.7576533E+00 5.0908744E+00 6.7208764E+00
  9.957E+00  4.163E-01  1.881E-01 3.7608922E+00 4.9217495E+00 6.8457191E+00
  1.000E+01  3.572E-01  2.340E-01 3.7644661E+00 5.4196017E+00 6.4588169E+00
  9.957E+00  3.765E-01  2.182E-01 3.7508672E+00 5.2569020E+00 6.5919365E+00
  1.000E+01  3.198E-01  2.669E-01 3.7662339E+00 5.7347990E+00 6.1806393E+00
  9.957E+00  3.383E-01  2.502E-01 3.7678103E+00 5.5789537E+00 6.3217106E+00
  1.000E+01  2.841E-01  3.018E-01 3.7672367E+00 6.0357494E+00 5.8870820E+00
  9.957E+00  3.018E-01  2.841E-01 3.7672390E+00 5.8871160E+00 6.0357546E+00
  1.000E+01  2.502E-01  3.383E-01 3.7678057E+00 6.3217031E+00 5.5789196E+00
  9.957E+00  2.669E-01  3.198E-01 3.7662361E+00 6.1806728E+00 5.7348020E+00
  1.000E+01  2.182E-01  3.765E-01 3.7508578E+00 6.5919281E+00 5.2568696E+00
  9.957E+00  2.340E-01  3.572E-01 3.7644671E+00 6.4588502E+00 5.4196035E+00
  1.000E+01  1.881E-01  4.163E-01 3.7608819E+00 6.8457097E+00 4.9217193E+00
  9.957E+00  2.029E-01  3.962E-01 3.7576553E+00 6.7209110E+00 5.0908762E+00
  1.000E+01  1.600E-01  4.575E-01 3.7289132E+00 7.0827232E+00 4.5744970E+00
  9.957E+00  1.738E-01  4.367E-01 3.7360451E+00 6.9663992E+00 4.7496088E+00
  1.000E+01  1.340E-01  5.000E-01 3.7310943E+00 7.3016002E+00 4.2154037E+00
  9.957E+00  1.467E-01  4.786E-01 3.7401621E+00 7.1945128E+00 4.3963997E+00
  1.000E+01  1.101E-01  5.438E-01 3.6955681E+00 7.5027462E+00 3.8464985E+00
  9.957E+00  1.218E-01  5.217E-01 3.7138722E+00 7.4042857E+00 4.0319874E+00
  1.000E+01  8.849E-02  5.887E-01 3.6996638E+00 7.6862605E+00 3.4686505E+00
  9.957E+00  9.903E-02  5.661E-01 3.6965641E+00 7.5969875E+00 3.6589261E+00
  1.000E+01  6.913E-02  6.347E-01 3.6733645E+00 7.8479596E+00 3.0789886E+00
  9.957E+00  7.852E-02  6.116E-01 3.6895601E+00 7.7699896E+00 3.2752702E+00
  1.000E+01  5.207E-02  6.815E-01 3.6442366E+00 7.9901489E+00 2.6825445E+00
  9.957E+00  6.031E-02  6.580E-01 3.6545142E+00 7.9210552E+00 2.8810030E+00
  1.000E+01  3.738E-02  7.292E-01 3.6422656E+00 8.1167154E+00 2.2846653E+00
  9.957E+00  4.443E-02  7.052E-01 3.6440610E+00 8.0555902E+00 2.4839875E+00
  1.000E+01  2.507E-02  7.775E-01 3.6307804E+00 8.2229357E+00 1.8802702E+00
  9.957E+00  3.092E-02  7.532E-01 3.6379502E+00 8.1727888E+00 2.0836802E+00
  1.000E+01  1.519E-02  8.264E-01 3.6123449E+00 8.3049335E+00 1.4662957E+00
  9.957E+00  1.983E-02  8.019E-01 3.6214646E+00 8.2669071E+00 1.6742917E+00
  1.000E+01  7.761E-03  8.757E-01 3.5965929E+00 8.3652735E+00 1.0473805E+00
  9.957E+00  1.117E-02  8.510E-01 3.6034643E+00 8.3376371E+00 1.2571038E+00
  1.000E+01  2.796E-03  9.253E-01 3.5877334E+00 8.4063619E+00 6.2805696E-01
  9.957E+00  4.969E-03  9.004E-01 3.5914253E+00 8.3882232E+00 8.3763603E-01
  1.000E+01  3.108E-04  9.751E-01 3.5844157E+00 8.4275869E+00 2.0929866E-01
  9.957E+00  1.243E-03  9.502E-01 3.5859837E+00 8.4195958E+00 4.1862678E-01
  1.000E+01  3.108E-04  1.025E+00 3.5844292E+00 8.4275875E+00 -2.0928454E-01
  9.957E+00  0.000E+00  1.000E+00 3.5846088E+00 8.4303437E+00 5.5912242E-06
  1.000E+01  2.796E-03  1.075E+00 3.5877666E+00 8.4063638E+00 -6.2804288E-01
  9.957E+00  1.243E-03  1.050E+00 3.5859675E+00 8.4195967E+00 -4.1861492E-01
  1.000E+01  7.761E-03  1.124E+00 3.5966314E+00 8.3652764E+00 -1.0473665E+00
  9.957E+00  4.969E-03  1.100E+00 3.5914011E+00 8.3882254E+00 -8.3762283E-01
  1.000E+01  1.519E-02  1.174E+00 3.6123797E+00 8.3049362E+00 -1.4662817E+00
  9.957E+00  1.117E-02  1.149E+00 3.6034402E+00 8.3376399E+00 -1.2570898E+00
  1.000E+01  2.507E-02  1.223E+00 3.6308105E+00 8.2229377E+00 -1.8802564E+00
  9.957E+00  1.983E-02  1.198E+00 3.6214438E+00 8.2669092E+00 -1.6742776E+00
  1.000E+01  3.738E-02  1.271E+00 3.6422927E+00 8.1167193E+00 -2.2846516E+00
  9.957E+00  3.092E-02  1.247E+00 3.6379319E+00 8.1727911E+00 -2.0836664E+00
  1.000E+01  5.207E-02  1.318E+00 3.6442622E+00 7.9901564E+00 -2.6825310E+00
  9.957E+00  4.443E-02  1.295E+00 3.6440440E+00 8.0555960E+00 -2.4839740E+00
  1.000E+01  6.913E-02  1.365E+00 3.6733887E+00 7.8479644E+00 -3.0789753E+00
  9.957E+00  6.031E-02  1.342E+00 3.6544981E+00 7.9210619E+00 -2.8809897E+00
  1.000E+01  8.849E-02  1.411E+00 3.6996861E+00 7.6862652E+00 -3.4686374E+00
  9.957E+00  7.852E-02  1.388E+00 3.6895449E+00 7.7699930E+00 -3.2752571E+00
  1.000E+01  1.101E-01  1.456E+00 3.6955866E+00 7.5027554E+00 -3.8464858E+00
  9.957E+00  9.903E-02  1.434E+00 3.6965507E+00 7.5969950E+00 -3.6589131E+00
  1.000E+01  1.340E-01  1.500E+00 3.7311065E+00 7.3016065E+00 -4.2153912E+00
  9.957E+00  1.218E-01  1.478E+00 3.7138620E+00 7.4042939E+00 -4.0319744E+00
  1.000E+01  1.600E-01  1.543E+00 3.7289174E+00 7.0827313E+00 -4.5744849E+00
  9.957E+00  1.467E-01  1.521E+00 3.7401567E+00 7.1945194E+00 -4.3963869E+00
  1.000E+01  1.881E-01  1.584E+00 3.7608781E+00 6.8457183E+00 -4.9217076E+00
  9.957E+00  1.738E-01  1.563E+00 3.7360450E+00 6.9664087E+00 -4.7495965E+00
  1.000E+01  2.182E-01  1.623E+00 3.7508477E+00 6.5919369E+00 -5.2568583E+00
  9.957E+00  2.029E-01  1.604E+00 3.7576600E+00 6.7209195E+00 -5.0908644E+00
  1.000E+01  2.502E-01  1.662E+00 3.7677937E+00 6.3217128E+00 -5.5789087E+00
  9.957E+00  2.340E-01  1.643E+00 3.7644744E+00 6.4588598E+00 -5.4195925E+00
  1.000E+01  2.841E-01  1.698E+00 3.7672268E+00 6.0357593E+00 -5.8870715E+00
  9.957E+00  2.669E-01  1.680E+00 3.7662433E+00 6.1806821E+00 -5.7347917E+00
  1.000E+01  3.198E-01  1.733E+00 3.7662287E+00 5.7348096E+00 -6.1806293E+00
  9.957E+00  3.018E-01  1.716E+00 3.7672439E+00 5.8871260E+00 -6.0357449E+00
  1.000E+01  3.572E-01  1.766E+00 3.7644650E+00 5.4196127E+00 -6.4588074E+00
  9.957E+00  3.383E-01  1.750E+00 3.7678120E+00 5.5789639E+00 -6.3217014E+00
  1.000E+01  3.962E-01  1.797E+00 3.7576526E+00 5.0908858E+00 -6.7208675E+00
  9.957E+00  3.765E-01  1.782E+00 3.7508672E+00 5.2569130E+00 -6.5919275E+00
  1.000E+01  4.367E-01  1.826E+00 3.7360390E+00 4.7496196E+00 -6.9663575E+00
  9.957E+00  4.163E-01  1.812E+00 3.7608937E+00 4.9217612E+00 -6.8457104E+00
  1.000E+01  4.786E-01  1.853E+00 3.7401546E+00 4.3964123E+00 -7.1944737E+00
  9.957E+00  4.575E-01  1.840E+00 3.7289351E+00 4.5745385E+00 -7.0827281E+00
  1.000E+01  5.217E-01  1.878E+00 3.7138632E+00 4.0320006E+00 -7.4042493E+00
  9.957E+00  5.000E-01  1.866E+00 3.7311224E+00 4.2154439E+00 -7.3016093E+00
  1.000E+01  5.661E-01  1.901E+00 3.6965591E+00 3.6589385E+00 -7.5969497E+00
  9.957E+00  5.438E-01  1.890E+00 3.6955983E+00 3.8465362E+00 -7.5027591E+00
  1.000E+01  6.116E-01  1.921E+00 3.6895591E+00 3.2752817E+00 -7.7699490E+00
  9.957E+00  5.887E-01  1.912E+00 3.6996932E+00 3.4686844E+00 -7.6862704E+00
  1.000E+01  6.580E-01  1.940E+00 3.6545159E+00 2.8810142E+00 -7.9210181E+00
  9.957E+00  6.347E-01  1.931E+00 3.6733948E+00 3.0790201E+00 -7.8479714E+00
  1.000E+01  7.052E-01  1.956E+00 3.6440622E+00 2.4839983E+00 -8.0555571E+00
  9.957E+00  6.815E-01  1.948E+00 3.6442699E+00 2.6825742E+00 -7.9901669E+00
  1.000E+01  7.532E-01  1.969E+00 3.6379497E+00 2.0836898E+00 -8.1727578E+00
  9.957E+00  7.292E-01  1.963E+00 3.6423020E+00 2.2846921E+00 -8.1167360E+00
  1.000E+01  8.019E-01  1.980E+00 3.6214621E+00 1.6742999E+00 -8.2668771E+00
  9.957E+00  7.775E-01  1.975E+00 3.6308192E+00 1.8802932E+00 -8.2229582E+00
  1.000E+01  8.510E-01  1.989E+00 3.6034582E+00 1.2571130E+00 -8.3376066E+00
  9.957E+00  8.264E-01  1.985E+00 3.6123874E+00 1.4663135E+00 -8.3049581E+00
  1.000E+01  9.004E-01  1.995E+00 3.5914159E+00 8.3764850E-01 -8.3881909E+00
  9.957E+00  8.757E-01  1.992E+00 3.5966397E+00 1.0473916E+00 -8.3652999E+00
  1.000E+01  9.502E-01  1.999E+00 3.5859747E+00 4.1863882E-01 -8.4195616E+00
  9.957E+00  9.253E-01  1.997E+00 3.5877814E+00 6.2806157E-01 -8.4063902E+00
  1.000E+01  1.000E+00  2.000E+00 3.5846062E+00 9.3228446E-06 -8.4303087E+00
  9.957E+00  9.751E-01  2.000E+00 3.5844574E+00 2.0930093E-01 -8.4276167E+00
  1.000E+01  1.050E+00  1.999E+00 3.5859748E+00 -4.1862011E-01 -8.4195623E+00
  9.957E+00  1.025E+00  2.000E+00 3.5844574E+00 -2.0928195E-01 -8.4276170E+00
  1.000E+01  1.100E+00  1.995E+00 3.5914161E+00 -8.3762971E-01 -8.3881923E+00
  9.957E+00  1.075E+00  1.997E+00 3.5877815E+00 -6.2804269E-01 -8.4063912E+00
  1.000E+01  1.149E+00  1.989E+00 3.6034584E+00 -1.2570942E+00 -8.3376087E+00
  9.957E+00  1.124E+00  1.992E+00 3.5966398E+00 -1.0473728E+00 -8.3653016E+00
  1.000E+01  1.198E+00  1.980E+00 3.6214624E+00 -1.6742812E+00 -8.2668800E+00
  9.957E+00  1.174E+00  1.985E+00 3.6123876E+00 -1.4662949E+00 -8.3049604E+00