# TIME = 0.000000
VARIABLES = X, Y, Z, FX, FY, FZ
ZONE N=29232 E=58212 F=FEPOINT ET=TRIANGLE
  0.000E+00  9.502E-01  1.243E-03 3.3749296E+00 1.6711753E-01 3.3718093E+00
  0.000E+00  1.000E+00  0.000E+00 3.3699779E+00 4.9825212E-06 3.3761723E+00
  4.318E-02  9.751E-01  3.108E-04 3.3705343E+00 8.3543223E-02 3.3750959E+00
  0.000E+00  1.050E+00  1.243E-03 3.3749298E+00 -1.6710805E-01 3.3718100E+00
  4.318E-02  1.025E+00  3.108E-04 3.3705344E+00 -8.3533852E-02 3.3750963E+00
  0.000E+00  1.100E+00  4.969E-03 3.3917404E+00 -3.3462932E-01 3.3591623E+00
  4.318E-02  1.075E+00  2.796E-03 3.3819255E+00 -2.5078685E-01 3.3665041E+00
  0.000E+00  1.149E+00  1.117E-02 3.4241198E+00 -5.0305276E-01 3.3390409E+00
  4.318E-02  1.124E+00  7.761E-03 3.4066482E+00 -4.1871452E-01 3.3500148E+00
  0.000E+00  1.198E+00  1.983E-02 3.4712722E+00 -6.7144213E-01 3.3114080E+00
  4.318E-02  1.174E+00  1.519E-02 3.4461580E+00 -5.8742828E-01 3.3262643E+00
  0.000E+00  1.247E+00  3.092E-02 3.5224499E+00 -8.3640389E-01 3.2744606E+00
  4.318E-02  1.223E+00  2.507E-02 3.4968442E+00 -7.5460992E-01 3.2942927E+00
  0.000E+00  1.295E+00  4.443E-02 3.5630201E+00 -9.9540734E-01 3.2266464E+00
  4.318E-02  1.271E+00  3.738E-02 3.5449847E+00 -9.1657379E-01 3.2518434E+00
  0.000E+00  1.342E+00  6.031E-02 3.5963349E+00 -1.1523060E+00 3.1713230E+00
  4.318E-02  1.318E+00  5.207E-02 3.5789567E+00 -1.0737107E+00 3.1996186E+00
  0.000E+00  1.388E+00  7.852E-02 3.6721402E+00 -1.3109303E+00 3.1114851E+00
  4.318E-02  1.365E+00  6.913E-02 3.6277900E+00 -1.2315507E+00 3.1421029E+00
  0.000E+00  1.434E+00  9.903E-02 3.7354144E+00 -1.4663005E+00 3.0434647E+00
  4.318E-02  1.411E+00  8.849E-02 3.7109675E+00 -1.3894788E+00 3.0788247E+00
  0.000E+00  1.478E+00  1.218E-01 3.7575347E+00 -1.6149158E+00 2.9654679E+00
  4.318E-02  1.456E+00  1.101E-01 3.7513133E+00 -1.5412901E+00 3.0055269E+00
  0.000E+00  1.521E+00  1.467E-01 3.8347633E+00 -1.7604663E+00 2.8811856E+00
  4.318E-02  1.500E+00  1.340E-01 3.7864646E+00 -1.6879321E+00 2.9240169E+00
  0.000E+00  1.563E+00  1.738E-01 3.8544878E+00 -1.9024423E+00 2.7903183E+00
  4.318E-02  1.543E+00  1.600E-01 3.8570752E+00 -1.8321406E+00 2.8367651E+00
  0.000E+00  1.604E+00  2.029E-01 3.8958362E+00 -2.0389420E+00 2.6917857E+00
  4.318E-02  1.584E+00  1.881E-01 3.8655069E+00 -1.9713446E+00 2.7419512E+00
  0.000E+00  1.643E+00  2.340E-01 3.9217726E+00 -2.1706137E+00 2.5868556E+00
  4.318E-02  1.623E+00  2.182E-01 3.9116534E+00 -2.1054145E+00 2.6401233E+00
  0.000E+00  1.680E+00  2.669E-01 3.9218061E+00 -2.2968712E+00 2.4754384E+00
  4.318E-02  1.662E+00  2.502E-01 3.9157048E+00 -2.2344758E+00 2.5319812E+00
  0.000E+00  1.716E+00  3.018E-01 3.9387565E+00 -2.4173721E+00 2.3578549E+00
  4.318E-02  1.698E+00  2.841E-01 3.9387672E+00 -2.3578625E+00 2.4173981E+00
  0.000E+00  1.750E+00  3.383E-01 3.9157001E+00 -2.5319541E+00 2.2344675E+00
  4.318E-02  1.733E+00  3.198E-01 3.9218166E+00 -2.4754485E+00 2.2968975E+00
  0.000E+00  1.782E+00  3.765E-01 3.9116557E+00 -2.6400938E+00 2.1054081E+00
  4.318E-02  1.766E+00  3.572E-01 3.9217786E+00 -2.5868641E+00 2.1706392E+00
  0.000E+00  1.812E+00  4.163E-01 3.8655100E+00 -2.7419230E+00 1.9713402E+00
  4.318E-02  1.797E+00  3.962E-01 3.8958424E+00 -2.6918021E+00 2.0389699E+00
  0.000E+00  1.840E+00  4.575E-01 3.8570690E+00 -2.8367277E+00 1.8321378E+00
  4.318E-02  1.826E+00  4.367E-01 3.8545081E+00 -2.7903375E+00 1.9024717E+00
  0.000E+00  1.866E+00  5.000E-01 3.7864476E+00 -2.9239876E+00 1.6879285E+00
  4.318E-02  1.853E+00  4.786E-01 3.8348070E+00 -2.8812068E+00 1.7604954E+00
  0.000E+00  1.890E+00  5.438E-01 3.7512966E+00 -3.0054999E+00 1.5412864E+00
  4.318E-02  1.878E+00  5.217E-01 3.7575893E+00 -2.9654989E+00 1.6149423E+00
  0.000E+00  1.912E+00  5.887E-01 3.7109616E+00 -3.0787915E+00 1.3894754E+00
  4.318E-02  1.901E+00  5.661E-01 3.7354560E+00 -3.0434856E+00 1.4663250E+00
  0.000E+00  1.931E+00  6.347E-01 3.6277941E+00 -3.1420781E+00 1.2315491E+00
  4.318E-02  1.921E+00  6.116E-01 3.6721543E+00 -3.1115057E+00 1.3109521E+00
  0.000E+00  1.948E+00  6.815E-01 3.5789641E+00 -3.1995937E+00 1.0737117E+00
  4.318E-02  1.940E+00  6.580E-01 3.5963300E+00 -3.1713514E+00 1.1523257E+00
  0.000E+00  1.963E+00  7.292E-01 3.5449932E+00 -3.2518133E+00 9.1657786E-01
  4.318E-02  1.956E+00  7.052E-01 3.5630126E+00 -3.2266702E+00 9.9542590E-01
  0.000E+00  1.975E+00  7.775E-01 3.4968525E+00 -3.2942648E+00 7.5461622E-01
  4.318E-02  1.969E+00  7.532E-01 3.5224489E+00 -3.2744835E+00 8.3642210E-01
  0.000E+00  1.985E+00  8.264E-01 3.4461648E+00 -3.3262391E+00 5.8743561E-01
  4.318E-02  1.980E+00  8.019E-01 3.4712748E+00 -3.3114335E+00 6.7145913E-01
  0.000E+00  1.992E+00  8.757E-01 3.4066511E+00 -3.3499895E+00 4.1872268E-01
  4.318E-02  1.989E+00  8.510E-01 3.4241229E+00 -3.3390660E+00 5.0306755E-01
  0.000E+00  1.997E+00  9.253E-01 3.3819240E+00 -3.3664814E+00 2.5079578E-01
  4.318E-02  1.995E+00  9.004E-01 3.3917467E+00 -3.3591871E+00 3.3464183E-01
  0.000E+00  2.000E+00  9.751E-01 3.3705288E+00 -3.3750775E+00 8.3544117E-02
  4.318E-02  1.999E+00  9.502E-01 3.3749429E+00 -3.3718377E+00 1.6711895E-01
  0.000E+00  2.000E+00  1.025E+00 3.3705247E+00 -3.3750769E+00 -8.3531917E-02
  4.318E-02  2.000E+00  1.000E+00 3.3699961E+00 -3.3762024E+00 5.4928291E-06
  0.000E+00  1.997E+00  1.075E+00 3.3819117E+00 -3.3664793E+00 -2.5078359E-01
  4.318E-02  1.999E+00  1.050E+00 3.3749470E+00 -3.3718363E+00 -1.6710796E-01
  0.000E+00  1.992E+00  1.124E+00 3.4066312E+00 -3.3499864E+00 -4.1871052E-01
  4.318E-02  1.995E+00  1.100E+00 3.3917550E+00 -3.3591837E+00 -3.3463072E-01
  0.000E+00  1.985E+00  1.174E+00 3.4461412E+00 -3.3262395E+00 -5.8742349E-01
  4.318E-02  1.989E+00  1.149E+00 3.4241342E+00 -3.3390633E+00 -5.0305592E-01
  0.000E+00  1.975E+00  1.223E+00 3.4968307E+00 -3.2942741E+00 -7.5460415E-01
  4.318E-02  1.980E+00  1.198E+00 3.4712865E+00 -3.3114377E+00 -6.7144682E-01
  0.000E+00  1.963E+00  1.271E+00 3.5449761E+00 -3.2518230E+00 -9.1656582E-01
  4.318E-02  1.969E+00  1.247E+00 3.5224585E+00 -3.2744948E+00 -8.3640943E-01
  0.000E+00  1.948E+00  1.318E+00 3.5789491E+00 -3.1995876E+00 -1.0736997E+00
  4.318E-02  1.956E+00  1.295E+00 3.5630201E+00 -3.2266723E+00 -9.9541359E-01
  0.000E+00  1.931E+00  1.365E+00 3.6277750E+00 -3.1420753E+00 -1.2315372E+00
  4.318E-02  1.940E+00  1.342E+00 3.5963379E+00 -3.1713409E+00 -1.1523141E+00
  0.000E+00  1.912E+00  1.411E+00 3.7109355E+00 -3.0788104E+00 -1.3894638E+00
  4.318E-02  1.921E+00  1.388E+00 3.6721653E+00 -3.1115149E+00 -1.3109410E+00
  0.000E+00  1.890E+00  1.456E+00 3.7512652E+00 -3.0055020E+00 -1.5412748E+00
  4.318E-02  1.901E+00  1.434E+00 3.7354704E+00 -3.0434989E+00 -1.4663137E+00
  0.000E+00  1.866E+00  1.500E+00 3.7864149E+00 -2.9239865E+00 -1.6879170E+00
  4.318E-02  1.878E+00  1.478E+00 3.7576054E+00 -2.9654915E+00 -1.6149305E+00
  0.000E+00  1.840E+00  1.543E+00 3.8570385E+00 -2.8367440E+00 -1.8321267E+00
  4.318E-02  1.853E+00  1.521E+00 3.8348228E+00 -2.8812173E+00 -1.7604835E+00
  0.000E+00  1.812E+00  1.584E+00 3.8654860E+00 -2.7419265E+00 -1.9713291E+00
  4.318E-02  1.826E+00  1.563E+00 3.8545217E+00 -2.7903471E+00 -1.9024594E+00
  0.000E+00  1.782E+00  1.623E+00 3.9116433E+00 -2.6401045E+00 -2.1053974E+00
  4.318E-02  1.797E+00  1.604E+00 3.8958512E+00 -2.6918072E+00 -2.0389573E+00
  0.000E+00  1.750E+00  1.662E+00 3.9157007E+00 -2.5319636E+00 -2.2344570E+00
  4.318E-02  1.766E+00  1.643E+00 3.9217807E+00 -2.5868770E+00 -2.1706269E+00
  0.000E+00  1.716E+00  1.698E+00 3.9387674E+00 -2.4173813E+00 -2.3578447E+00
  4.318E-02  1.733E+00  1.680E+00 3.9218125E+00 -2.4754558E+00 -2.2968857E+00
  0.000E+00  1.680E+00  1.733E+00 3.9218202E+00 -2.2968817E+00 -2.4754285E+00
  4.318E-02  1.698E+00  1.716E+00 3.9387593E+00 -2.3578735E+00 -2.4173874E+00
  0.000E+00  1.643E+00  1.766E+00 3.9217827E+00 -2.1706228E+00 -2.5868460E+00
  4.318E-02  1.662E+00  1.750E+00 3.9156976E+00 -2.2344838E+00 -2.5319713E+00
  0.000E+00  1.604E+00  1.797E+00 3.8958526E+00 -2.0389522E+00 -2.6917766E+00
  4.318E-02  1.623E+00  1.782E+00 3.9116470E+00 -2.1054250E+00 -2.6401129E+00
  0.000E+00  1.563E+00  1.826E+00 3.8545374E+00 -1.9024517E+00 -2.7903096E+00
  4.318E-02  1.584E+00  1.812E+00 3.8654909E+00 -1.9713573E+00 -2.7419393E+00
  0.000E+00  1.521E+00  1.853E+00 3.8348636E+00 -1.7604765E+00 -2.8811773E+00
  4.318E-02  1.543E+00  1.840E+00 3.8570357E+00 -1.8321559E+00 -2.8367531E+00
  0.000E+00  1.478E+00  1.878E+00 3.7576573E+00 -1.6149255E+00 -2.9654601E+00
  4.318E-02  1.500E+00  1.866E+00 3.7864032E+00 -1.6879441E+00 -2.9240076E+00
  0.000E+00  1.434E+00  1.901E+00 3.7355080E+00 -1.4663112E+00 -3.0434573E+00
  4.318E-02  1.456E+00  1.890E+00 3.7512538E+00 -1.5412971E+00 -3.0055211E+00
  0.000E+00  1.388E+00  1.921E+00 3.6721753E+00 -1.3109402E+00 -3.1114782E+00
  4.318E-02  1.411E+00  1.912E+00 3.7109334E+00 -1.3894818E+00 -3.0788206E+00
  0.000E+00  1.342E+00  1.940E+00 3.5963304E+00 -1.1523162E+00 -3.1713167E+00
  4.318E-02  1.365E+00  1.931E+00 3.6277839E+00 -1.2315552E+00 -3.1420978E+00
  0.000E+00  1.295E+00  1.956E+00 3.5630090E+00 -9.9541736E-01 -3.2266407E+00
  4.318E-02  1.318E+00  1.948E+00 3.5789622E+00 -1.0737194E+00 -3.1996123E+00
  0.000E+00  1.247E+00  1.969E+00 3.5224501E+00 -8.3641408E-01 -3.2744555E+00
  4.318E-02  1.271E+00  1.963E+00 3.5449877E+00 -9.1658478E-01 -3.2518370E+00
  0.000E+00  1.198E+00  1.980E+00 3.4712823E+00 -6.7145220E-01 -3.3114035E+00
  4.318E-02  1.223E+00  1.975E+00 3.4968411E+00 -7.5462088E-01 -3.2942870E+00
  0.000E+00  1.149E+00  1.989E+00 3.4241338E+00 -5.0306297E-01 -3.3390371E+00
  4.318E-02  1.174E+00  1.985E+00 3.4461516E+00 -5.8743831E-01 -3.3262594E+00
  0.000E+00  1.100E+00  1.995E+00 3.3917582E+00 -3.3463918E-01 -3.3591591E+00
  4.318E-02  1.124E+00  1.992E+00 3.4066403E+00 -4.1872492E-01 -3.3500106E+00
  0.000E+00  1.050E+00  1.999E+00 3.3749539E+00 -1.6711741E-01 -3.3718075E+00
  4.318E-02  1.075E+00  1.997E+00 3.3819150E+00 -2.5079721E-01 -3.3665006E+00
  0.000E+00  1.000E+00  2.000E+00 3.3700059E+00 -4.9679373E-06 -3.3761705E+00
  4.318E-02  1.025E+00  2.000E+00 3.3705210E+00 -8.3544051E-02 -3.3750936E+00
  0.000E+00  9.502E-01  1.999E+00 3.3749539E+00 1.6710793E-01 -3.3718080E+00
  4.318E-02  9.751E-01  2.000E+00 3.3705210E+00 8.3534131E-02 -3.3750939E+00
  0.000E+00  9.004E-01  1.995E+00 3.3917582E+00 3.3462943E-01 -3.3591602E+00
  4.318E-02  9.253E-01  1.997E+00 3.3819149E+00 2.5078751E-01 -3.3665014E+00
  0.000E+00  8.510E-01  1.989E+00 3.4241338E+00 5.0305312E-01 -3.3390388E+00
  4.318E-02  8.757E-01  1.992E+00 3.4066403E+00 4.1871477E-01 -3.3500120E+00
  0.000E+00  8.019E-01  1.980E+00 3.4712823E+00 6.7144242E-01 -3.3114057E+00
  4.318E-02  8.264E-01  1.985E+00 3.4461515E+00 5.8742851E-01 -3.3262613E+00
  0.000E+00  7.532E-01  1.969E+00 3.5224501E+00 8.3640397E-01 -3.2744583E+00
  4.318E-02  7.775E-01  1.975E+00 3.4968410E+00 7.5461081E-01 -3.2942895E+00
  0.000E+00  7.052E-01  1.956E+00 3.5630089E+00 9.9540731E-01 -3.2266440E+00
  4.318E-02  7.292E-01  1.963E+00 3.5449876E+00 9.1657466E-01 -3.2518400E+00
  0.000E+00  6.580E-01  1.940E+00 3.5963304E+00 1.1523059E+00 -3.1713205E+00
  4.318E-02  6.815E-01  1.948E+00 3.5789621E+00 1.0737091E+00 -3.1996158E+00
  0.000E+00  6.116E-01  1.921E+00 3.6721752E+00 1.3109302E+00 -3.1114825E+00
  4.318E-02  6.347E-01  1.931E+00 3.6277838E+00 1.2315451E+00 -3.1421018E+00
  0.000E+00  5.661E-01  1.901E+00 3.7355080E+00 1.4663002E+00 -3.0434620E+00
  4.318E-02  5.887E-01  1.912E+00 3.7109333E+00 1.3894713E+00 -3.0788251E+00
  0.000E+00  5.217E-01  1.878E+00 3.7576573E+00 1.6149153E+00 -2.9654652E+00
  4.318E-02  5.438E-01  1.890E+00 3.7512537E+00 1.5412861E+00 -3.0055261E+00
  0.000E+00  4.786E-01  1.853E+00 3.8348636E+00 1.7604657E+00 -2.8811829E+00
  4.318E-02  5.000E-01  1.866E+00 3.7864030E+00 1.6879338E+00 -2.9240130E+00
  0.000E+00  4.367E-01  1.826E+00 3.8545375E+00 1.9024415E+00 -2.7903156E+00
  4.318E-02  4.575E-01  1.840E+00 3.8570355E+00 1.8321450E+00 -2.8367589E+00
  0.000E+00  3.962E-01  1.797E+00 3.8958526E+00 2.0389410E+00 -2.6917829E+00
  4.318E-02  4.163E-01  1.812E+00 3.8654907E+00 1.9713468E+00 -2.7419455E+00
  0.000E+00  3.572E-01  1.766E+00 3.9217828E+00 2.1706124E+00 -2.5868528E+00
  4.318E-02  3.765E-01  1.782E+00 3.9116468E+00 2.1054136E+00 -2.6401194E+00
  0.000E+00  3.198E-01  1.733E+00 3.9218202E+00 2.2968698E+00 -2.4754356E+00
  4.318E-02  3.383E-01  1.750E+00 3.9156974E+00 2.2344735E+00 -2.5319782E+00
  0.000E+00  2.841E-01  1.698E+00 3.9387674E+00 2.4173705E+00 -2.3578521E+00
  4.318E-02  3.018E-01  1.716E+00 3.9387591E+00 2.3578605E+00 -2.4173946E+00
  0.000E+00  2.502E-01  1.662E+00 3.9157007E+00 2.5319522E+00 -2.2344647E+00
  4.318E-02  2.669E-01  1.680E+00 3.9218122E+00 2.4754469E+00 -2.2968933E+00
  0.000E+00  2.182E-01  1.623E+00 3.9116433E+00 2.6400916E+00 -2.1054052E+00
  4.318E-02  2.340E-01  1.643E+00 3.9217804E+00 2.5868623E+00 -2.1706347E+00
  0.000E+00  1.881E-01  1.584E+00 3.8654860E+00 2.7419206E+00 -1.9713373E+00
  4.318E-02  2.029E-01  1.604E+00 3.8958509E+00 2.6917998E+00 -2.0389654E+00
  0.000E+00  1.600E-01  1.543E+00 3.8570384E+00 2.8367251E+00 -1.8321349E+00
  4.318E-02  1.738E-01  1.563E+00 3.8545214E+00 2.7903345E+00 -1.9024677E+00
  0.000E+00  1.340E-01  1.500E+00 3.7864148E+00 2.9239848E+00 -1.6879256E+00
  4.318E-02  1.467E-01  1.521E+00 3.8348224E+00 2.8812031E+00 -1.7604918E+00
  0.000E+00  1.101E-01  1.456E+00 3.7512651E+00 3.0054968E+00 -1.5412835E+00
  4.318E-02  1.218E-01  1.478E+00 3.7576050E+00 2.9654948E+00 -1.6149393E+00
  0.000E+00  8.849E-02  1.411E+00 3.7109354E+00 3.0787882E+00 -1.3894725E+00
  4.318E-02  9.903E-02  1.434E+00 3.7354700E+00 3.0434811E+00 -1.4663224E+00
  0.000E+00  6.913E-02  1.365E+00 3.6277747E+00 3.1420745E+00 -1.2315462E+00
  4.318E-02  7.852E-02  1.388E+00 3.6721648E+00 3.1115009E+00 -1.3109498E+00
  0.000E+00  5.207E-02  1.318E+00 3.5789488E+00 3.1995898E+00 -1.0737087E+00
  4.318E-02  6.031E-02  1.342E+00 3.5963373E+00 3.1713466E+00 -1.1523231E+00
  0.000E+00  3.738E-02  1.271E+00 3.5449757E+00 3.2518092E+00 -9.1657490E-01
  4.318E-02  4.443E-02  1.295E+00 3.5630195E+00 3.2266655E+00 -9.9542265E-01
  0.000E+00  2.507E-02  1.223E+00 3.4968302E+00 3.2942604E+00 -7.5461326E-01
  4.318E-02  3.092E-02  1.247E+00 3.5224578E+00 3.2744787E+00 -8.3641853E-01
  0.000E+00  1.519E-02  1.174E+00 3.4461407E+00 3.3262346E+00 -5.8743265E-01
  4.318E-02  1.983E-02  1.198E+00 3.4712857E+00 3.3114285E+00 -6.7145594E-01
  0.000E+00  7.761E-03  1.124E+00 3.4066306E+00 3.3499847E+00 -4.1871972E-01
  4.318E-02  1.117E-02  1.149E+00 3.4241334E+00 3.3390607E+00 -5.0306509E-01
  0.000E+00  2.796E-03  1.075E+00 3.3819110E+00 3.3664765E+00 -2.5079283E-01
  4.318E-02  4.969E-03  1.100E+00 3.3917541E+00 3.3591817E+00 -3.3463993E-01
  0.000E+00  3.108E-04  1.025E+00 3.3705239E+00 3.3750724E+00 -8.3541185E-02
  4.318E-02  1.243E-03  1.050E+00 3.3749460E+00 3.3718324E+00 -1.6711719E-01
  0.000E+00  3.108E-04  9.751E-01 3.3705279E+00 3.3750717E+00 8.3534825E-02
  4.318E-02  0.000E+00  1.000E+00 3.3699950E+00 3.3761972E+00 -3.7570339E-06
  0.000E+00  2.796E-03  9.253E-01 3.3819231E+00 3.3664740E+00 2.5078646E-01
  4.318E-02  1.243E-03  9.502E-01 3.3749417E+00 3.3718311E+00 1.6710968E-01
  0.000E+00  7.761E-03  8.757E-01 3.4066501E+00 3.3499810E+00 4.1871335E-01
  4.318E-02  4.969E-03  9.004E-01 3.3917454E+00 3.3591787E+00 3.3463255E-01
  0.000E+00  1.519E-02  8.264E-01 3.4461637E+00 3.3262341E+00 5.8742627E-01
  4.318E-02  1.117E-02  8.510E-01 3.4241215E+00 3.3390583E+00 5.0305825E-01
  0.000E+00  2.507E-02  7.775E-01 3.4968512E+00 3.2942687E+00 7.5460686E-01
  4.318E-02  1.983E-02  8.019E-01 3.4712733E+00 3.3114326E+00 6.7144983E-01
  0.000E+00  3.738E-02  7.292E-01 3.5449918E+00 3.2518176E+00 9.1656845E-01
  4.318E-02  3.092E-02  7.532E-01 3.5224473E+00 3.2744897E+00 8.3641276E-01
  0.000E+00  5.207E-02  6.815E-01 3.5789627E+00 3.1995822E+00 1.0737022E+00
  4.318E-02  4.443E-02  7.052E-01 3.5630110E+00 3.2266673E+00 9.9541653E-01
  0.000E+00  6.913E-02  6.347E-01 3.6277926E+00 3.1420700E+00 1.2315397E+00
  4.318E-02  6.031E-02  6.580E-01 3.5963283E+00 3.1713364E+00 1.1523163E+00
  0.000E+00  8.849E-02  5.887E-01 3.7109601E+00 3.0788051E+00 1.3894661E+00
  4.318E-02  7.852E-02  6.116E-01 3.6721525E+00 3.1115107E+00 1.3109428E+00
  0.000E+00  1.101E-01  5.438E-01 3.7512950E+00 3.0054970E+00 1.5412770E+00
  4.318E-02  9.903E-02  5.661E-01 3.7354542E+00 3.0434949E+00 1.4663157E+00
  0.000E+00  1.340E-01  5.000E-01 3.7864459E+00 2.9239816E+00 1.6879191E+00
  4.318E-02  1.218E-01  5.217E-01 3.7575874E+00 2.9654874E+00 1.6149329E+00
  0.000E+00  1.600E-01  4.575E-01 3.8570673E+00 2.8367393E+00 1.8321287E+00
  4.318E-02  1.467E-01  4.786E-01 3.8348050E+00 2.8812132E+00 1.7604863E+00
  0.000E+00  1.881E-01  4.163E-01 3.8655082E+00 2.7419220E+00 1.9713310E+00
  4.318E-02  1.738E-01  4.367E-01 3.8545061E+00 2.7903428E+00 1.9024626E+00
  0.000E+00  2.182E-01  3.765E-01 3.9116539E+00 2.6401002E+00 2.1053992E+00
  4.318E-02  2.029E-01  3.962E-01 3.8958404E+00 2.6918026E+00 2.0389609E+00
  0.000E+00  2.502E-01  3.383E-01 3.9156983E+00 2.5319596E+00 2.2344587E+00
  4.318E-02  2.340E-01  3.572E-01 3.9217765E+00 2.5868723E+00 2.1706305E+00
  0.000E+00  2.841E-01  3.018E-01 3.9387547E+00 2.4173775E+00 2.3578463E+00
  4.318E-02  2.669E-01  3.198E-01 3.9218145E+00 2.4754515E+00 2.2968888E+00
  0.000E+00  3.198E-01  2.669E-01 3.9218044E+00 2.2968783E+00 2.4754301E+00
  4.318E-02  3.018E-01  2.841E-01 3.9387652E+00 2.3578700E+00 2.4173898E+00
  0.000E+00  3.572E-01  2.340E-01 3.9217708E+00 2.1706197E+00 2.5868475E+00
  4.318E-02  3.383E-01  2.502E-01 3.9157028E+00 2.2344811E+00 2.5319731E+00
  0.000E+00  3.962E-01  2.029E-01 3.8958345E+00 2.0389493E+00 2.6917780E+00
  4.318E-02  3.765E-01  2.182E-01 3.9116514E+00 2.1054214E+00 2.6401155E+00
  0.000E+00  4.367E-01  1.738E-01 3.8544862E+00 1.9024492E+00 2.7903109E+00
  4.318E-02  4.163E-01  1.881E-01 3.8655050E+00 1.9713510E+00 2.7419437E+00
  0.000E+00  4.786E-01  1.467E-01 3.8347618E+00 1.7604742E+00 2.8811786E+00
  4.318E-02  4.575E-01  1.600E-01 3.8570734E+00 1.8321480E+00 2.8367581E+00
  0.000E+00  5.217E-01  1.218E-01 3.7575333E+00 1.6149235E+00 2.9654614E+00
  4.318E-02  5.000E-01  1.340E-01 3.7864629E+00 1.6879393E+00 2.9240102E+00
  0.000E+00  5.661E-01  9.903E-02 3.7354131E+00 1.4663094E+00 3.0434586E+00
  4.318E-02  5.438E-01  1.101E-01 3.7513117E+00 1.5412983E+00 3.0055207E+00
  0.000E+00  6.116E-01  7.852E-02 3.6721390E+00 1.3109386E+00 3.1114795E+00
  4.318E-02  5.887E-01  8.849E-02 3.7109660E+00 1.3894870E+00 3.0788191E+00
  0.000E+00  6.580E-01  6.031E-02 3.5963339E+00 1.1523149E+00 3.1713181E+00
  4.318E-02  6.347E-01  6.913E-02 3.6277886E+00 1.2315588E+00 3.1420978E+00
  0.000E+00  7.052E-01  4.443E-02 3.5630191E+00 9.9541644E-01 3.2266421E+00
  4.318E-02  6.815E-01  5.207E-02 3.5789555E+00 1.0737194E+00 3.1996141E+00
  0.000E+00  7.532E-01  3.092E-02 3.5224491E+00 8.3641334E-01 3.2744570E+00
  4.318E-02  7.292E-01  3.738E-02 3.5449837E+00 9.1658259E-01 3.2518395E+00
  0.000E+00  8.019E-01  1.983E-02 3.4712715E+00 6.7145149E-01 3.3114050E+00
  4.318E-02  7.775E-01  2.507E-02 3.4968433E+00 7.5461891E-01 3.2942895E+00
  0.000E+00  8.510E-01  1.117E-02 3.4241193E+00 5.0306240E-01 3.3390387E+00
  4.318E-02  8.264E-01  1.519E-02 3.4461574E+00 5.8743721E-01 3.3262617E+00
  0.000E+00  9.004E-01  4.969E-03 3.3917401E+00 3.3463899E-01 3.3591608E+00
  4.318E-02  8.757E-01  7.761E-03 3.4066477E+00 4.1872396E-01 3.3500129E+00
  4.318E-02  9.253E-01  2.796E-03 3.3819252E+00 2.5079595E-01 3.3665029E+00
  1.000E+01  1.050E+00  1.243E-03 3.3749298E+00 -1.6710805E-01 3.3718100E+00
  1.000E+01  1.000E+00  5.551E-16 3.3699779E+00 4.9825212E-06 3.3761723E+00
  9.957E+00  1.025E+00  3.108E-04 3.3705330E+00 -8.3533591E-02 3.3751082E+00
  1.000E+01  9.502E-01  1.243E-03 3.3749296E+00 1.6711753E-01 3.3718093E+00
  9.957E+00  9.751E-01  3.108E-04 3.3705329E+00 8.3543814E-02 3.3751079E+00
  1.000E+01  9.004E-01  4.969E-03 3.3917401E+00 3.3463899E-01 3.3591608E+00
  9.957E+00  9.253E-01  2.796E-03 3.3819239E+00 2.5079703E-01 3.3665148E+00
  1.000E+01  8.510E-01  1.117E-02 3.4241193E+00 5.0306240E-01 3.3390387E+00
  9.957E+00  8.757E-01  7.761E-03 3.4066469E+00 4.1872651E-01 3.3500247E+00
  1.000E+01  8.019E-01  1.983E-02 3.4712715E+00 6.7145149E-01 3.3114050E+00
  9.957E+00  8.264E-01  1.519E-02 3.4461568E+00 5.8744122E-01 3.3262733E+00
  1.000E+01  7.532E-01  3.092E-02 3.5224491E+00 8.3641334E-01 3.2744570E+00
  9.957E+00  7.775E-01  2.507E-02 3.4968424E+00 7.5462336E-01 3.2943007E+00
  1.000E+01  7.052E-01  4.443E-02 3.5630191E+00 9.9541644E-01 3.2266421E+00
  9.957E+00  7.292E-01  3.738E-02 3.5449829E+00 9.1658670E-01 3.2518504E+00
  1.000E+01  6.580E-01  6.031E-02 3.5963339E+00 1.1523149E+00 3.1713181E+00
  9.957E+00  6.815E-01  5.207E-02 3.5789550E+00 1.0737219E+00 3.1996255E+00
  1.000E+01  6.116E-01  7.852E-02 3.6721390E+00 1.3109386E+00 3.1114795E+00
  9.957E+00  6.347E-01  6.913E-02 3.6277885E+00 1.2315591E+00 3.1421107E+00
  1.000E+01  5.661E-01  9.903E-02 3.7354131E+00 1.4663094E+00 3.0434586E+00
  9.957E+00  5.887E-01  8.849E-02 3.7109658E+00 1.3894858E+00 3.0788333E+00
  1.000E+01  5.217E-01  1.218E-01 3.7575333E+00 1.6149235E+00 2.9654614E+00
  9.957E+00  5.438E-01  1.101E-01 3.7513104E+00 1.5413011E+00 3.0055335E+00
  1.000E+01  4.786E-01  1.467E-01 3.8347618E+00 1.7604742E+00 2.8811786E+00
  9.957E+00  5.000E-01  1.340E-01 3.7864628E+00 1.6879488E+00 2.9240194E+00
  1.000E+01  4.367E-01  1.738E-01 3.8544862E+00 1.9024492E+00 2.7903109E+00
  9.957E+00  4.575E-01  1.600E-01 3.8570735E+00 1.8321611E+00 2.8367645E+00
  1.000E+01  3.962E-01  2.029E-01 3.8958345E+00 2.0389493E+00 2.6917780E+00
  9.957E+00  4.163E-01  1.881E-01 3.8655058E+00 1.9713623E+00 2.7419507E+00
  1.000E+01  3.572E-01  2.340E-01 3.9217708E+00 2.1706197E+00 2.5868475E+00
  9.957E+00  3.765E-01  2.182E-01 3.9116534E+00 2.1054296E+00 2.6401242E+00
  1.000E+01  3.198E-01  2.669E-01 3.9218044E+00 2.2968783E+00 2.4754301E+00
  9.957E+00  3.383E-01  2.502E-01 3.9157052E+00 2.2344885E+00 2.5319826E+00
  1.000E+01  2.841E-01  3.018E-01 3.9387547E+00 2.4173775E+00 2.3578463E+00
  9.957E+00  3.018E-01  2.841E-01 3.9387672E+00 2.3578783E+00 2.4173985E+00
  1.000E+01  2.502E-01  3.383E-01 3.9156983E+00 2.5319596E+00 2.2344587E+00
  9.957E+00  2.669E-01  3.198E-01 3.9218171E+00 2.4754607E+00 2.2968963E+00
  1.000E+01  2.182E-01  3.765E-01 3.9116539E+00 2.6401002E+00 2.1053992E+00
  9.957E+00  2.340E-01  3.572E-01 3.9217783E+00 2.5868823E+00 2.1706371E+00
  1.000E+01  1.881E-01  4.163E-01 3.8655082E+00 2.7419220E+00 1.9713310E+00
  9.957E+00  2.029E-01  3.962E-01 3.8958421E+00 2.6918129E+00 2.0389667E+00
  1.000E+01  1.600E-01  4.575E-01 3.8570673E+00 2.8367393E+00 1.8321287E+00
  9.957E+00  1.738E-01  4.367E-01 3.8545081E+00 2.7903533E+00 1.9024677E+00
  1.000E+01  1.340E-01  5.000E-01 3.7864459E+00 2.9239816E+00 1.6879191E+00
  9.957E+00  1.467E-01  4.786E-01 3.8348067E+00 2.8812237E+00 1.7604913E+00
  1.000E+01  1.101E-01  5.438E-01 3.7512950E+00 3.0054970E+00 1.5412770E+00
  9.957E+00  1.218E-01  5.217E-01 3.7575889E+00 2.9654978E+00 1.6149384E+00
  1.000E+01  8.849E-02  5.887E-01 3.7109601E+00 3.0788051E+00 1.3894661E+00
  9.957E+00  9.903E-02  5.661E-01 3.7354556E+00 3.0435051E+00 1.4663214E+00
  1.000E+01  6.913E-02  6.347E-01 3.6277926E+00 3.1420700E+00 1.2315397E+00
  9.957E+00  7.852E-02  6.116E-01 3.6721530E+00 3.1115212E+00 1.3109476E+00
  1.000E+01  5.207E-02  6.815E-01 3.5789627E+00 3.1995822E+00 1.0737022E+00
  9.957E+00  6.031E-02  6.580E-01 3.5963291E+00 3.1713473E+00 1.1523209E+00
  1.000E+01  3.738E-02  7.292E-01 3.5449918E+00 3.2518176E+00 9.1656845E-01
  9.957E+00  4.443E-02  7.052E-01 3.5630115E+00 3.2266786E+00 9.9542051E-01
  1.000E+01  2.507E-02  7.775E-01 3.4968512E+00 3.2942687E+00 7.5460686E-01
  9.957E+00  3.092E-02  7.532E-01 3.5224469E+00 3.2745012E+00 8.3641559E-01
  1.000E+01  1.519E-02  8.264E-01 3.4461637E+00 3.3262341E+00 5.8742627E-01
  9.957E+00  1.983E-02  8.019E-01 3.4712727E+00 3.3114441E+00 6.7145116E-01
  1.000E+01  7.761E-03  8.757E-01 3.4066501E+00 3.3499810E+00 4.1871335E-01
  9.957E+00  1.117E-02  8.510E-01 3.4241215E+00 3.3390697E+00 5.0305992E-01
  1.000E+01  2.796E-03  9.253E-01 3.3819231E+00 3.3664740E+00 2.5078646E-01
  9.957E+00  4.969E-03  9.004E-01 3.3917455E+00 3.3591902E+00 3.3463525E-01
  1.000E+01  3.108E-04  9.751E-01 3.3705279E+00 3.3750717E+00 8.3534825E-02
  9.957E+00  1.243E-03  9.502E-01 3.3749414E+00 3.3718429E+00 1.6711252E-01
  1.000E+01  3.108E-04  1.025E+00 3.3705239E+00 3.3750724E+00 -8.3541185E-02
  9.957E+00  0.000E+00  1.000E+00 3.3699946E+00 3.3762090E+00 -2.5538665E-06
  1.000E+01  2.796E-03  1.075E+00 3.3819110E+00 3.3664765E+00 -2.5079283E-01
  9.957E+00  1.243E-03  1.050E+00 3.3749458E+00 3.3718444E+00 -1.6711763E-01
  1.000E+01  7.761E-03  1.124E+00 3.4066306E+00 3.3499847E+00 -4.1871972E-01
  9.957E+00  4.969E-03  1.100E+00 3.3917542E+00 3.3591937E+00 -3.3464049E-01
  1.000E+01  1.519E-02  1.174E+00 3.4461407E+00 3.3262346E+00 -5.8743265E-01
  9.957E+00  1.117E-02  1.149E+00 3.4241334E+00 3.3390726E+00 -5.0306570E-01
  1.000E+01  2.507E-02  1.223E+00 3.4968302E+00 3.2942604E+00 -7.5461326E-01
  9.957E+00  1.983E-02  1.198E+00 3.4712852E+00 3.3114402E+00 -6.7145763E-01
  1.000E+01  3.738E-02  1.271E+00 3.5449757E+00 3.2518092E+00 -9.1657490E-01
  9.957E+00  3.092E-02  1.247E+00 3.5224574E+00 3.2744902E+00 -8.3642243E-01
  1.000E+01  5.207E-02  1.318E+00 3.5789488E+00 3.1995898E+00 -1.0737087E+00
  9.957E+00  4.443E-02  1.295E+00 3.5630200E+00 3.2266769E+00 -9.9542702E-01
  1.000E+01  6.913E-02  1.365E+00 3.6277747E+00 3.1420745E+00 -1.2315462E+00
  9.957E+00  6.031E-02  1.342E+00 3.5963382E+00 3.1713581E+00 -1.1523267E+00
  1.000E+01  8.849E-02  1.411E+00 3.7109354E+00 3.0787882E+00 -1.3894725E+00
  9.957E+00  7.852E-02  1.388E+00 3.6721654E+00 3.1115124E+00 -1.3109530E+00
  1.000E+01  1.101E-01  1.456E+00 3.7512651E+00 3.0054968E+00 -1.5412835E+00
  9.957E+00  9.903E-02  1.434E+00 3.7354713E+00 3.0434922E+00 -1.4663269E+00
  1.000E+01  1.340E-01  1.500E+00 3.7864148E+00 2.9239848E+00 -1.6879256E+00
  9.957E+00  1.218E-01  1.478E+00 3.7576065E+00 2.9655057E+00 -1.6149445E+00
  1.000E+01  1.600E-01  1.543E+00 3.8570384E+00 2.8367251E+00 -1.8321349E+00
  9.957E+00  1.467E-01  1.521E+00 3.8348241E+00 2.8812136E+00 -1.7604976E+00
  1.000E+01  1.881E-01  1.584E+00 3.8654860E+00 2.7419206E+00 -1.9713373E+00
  9.957E+00  1.738E-01  1.563E+00 3.8545234E+00 2.7903442E+00 -1.9024744E+00
  1.000E+01  2.182E-01  1.623E+00 3.9116433E+00 2.6400916E+00 -2.1054052E+00
  9.957E+00  2.029E-01  1.604E+00 3.8958526E+00 2.6918084E+00 -2.0389737E+00
  1.000E+01  2.502E-01  1.662E+00 3.9157007E+00 2.5319522E+00 -2.2344647E+00
  9.957E+00  2.340E-01  1.643E+00 3.9217822E+00 2.5868700E+00 -2.1706438E+00
  1.000E+01  2.841E-01  1.698E+00 3.9387674E+00 2.4173705E+00 -2.3578521E+00
  9.957E+00  2.669E-01  1.680E+00 3.9218147E+00 2.4754541E+00 -2.2969026E+00
  1.000E+01  3.198E-01  1.733E+00 3.9218202E+00 2.2968698E+00 -2.4754356E+00
  9.957E+00  3.018E-01  1.716E+00 3.9387610E+00 2.3578679E+00 -2.4174037E+00
  1.000E+01  3.572E-01  1.766E+00 3.9217828E+00 2.1706124E+00 -2.5868528E+00
  9.957E+00  3.383E-01  1.750E+00 3.9156997E+00 2.2344811E+00 -2.5319871E+00
  1.000E+01  3.962E-01  1.797E+00 3.8958526E+00 2.0389410E+00 -2.6917829E+00
  9.957E+00  3.765E-01  1.782E+00 3.9116488E+00 2.1054198E+00 -2.6401292E+00
  1.000E+01  4.367E-01  1.826E+00 3.8545375E+00 1.9024415E+00 -2.7903156E+00
  9.957E+00  4.163E-01  1.812E+00 3.8654914E+00 1.9713503E+00 -2.7419572E+00
  1.000E+01  4.786E-01  1.853E+00 3.8348636E+00 1.7604657E+00 -2.8811829E+00
  9.957E+00  4.575E-01  1.840E+00 3.8570355E+00 1.8321465E+00 -2.8367713E+00
  1.000E+01  5.217E-01  1.878E+00 3.7576573E+00 1.6149153E+00 -2.9654652E+00
  9.957E+00  5.000E-01  1.866E+00 3.7864028E+00 1.6879374E+00 -2.9240234E+00
  1.000E+01  5.661E-01  1.901E+00 3.7355080E+00 1.4663002E+00 -3.0434620E+00
  9.957E+00  5.438E-01  1.890E+00 3.7512523E+00 1.5412946E+00 -3.0055339E+00
  1.000E+01  6.116E-01  1.921E+00 3.6721752E+00 1.3109302E+00 -3.1114825E+00
  9.957E+00  5.887E-01  1.912E+00 3.7109330E+00 1.3894832E+00 -3.0788322E+00
  1.000E+01  6.580E-01  1.940E+00 3.5963304E+00 1.1523059E+00 -3.1713205E+00
  9.957E+00  6.347E-01  1.931E+00 3.6277836E+00 1.2315549E+00 -3.1421105E+00
  1.000E+01  7.052E-01  1.956E+00 3.5630089E+00 9.9540731E-01 -3.2266440E+00
  9.957E+00  6.815E-01  1.948E+00 3.5789616E+00 1.0737135E+00 -3.1996265E+00
  1.000E+01  7.532E-01  1.969E+00 3.5224501E+00 8.3640397E-01 -3.2744583E+00
  9.957E+00  7.292E-01  1.963E+00 3.5449868E+00 9.1657601E-01 -3.2518516E+00
  1.000E+01  8.019E-01  1.980E+00 3.4712823E+00 6.7144242E-01 -3.3114057E+00
  9.957E+00  7.775E-01  1.975E+00 3.4968400E+00 7.5461248E-01 -3.2943012E+00
  1.000E+01  8.510E-01  1.989E+00 3.4241338E+00 5.0305312E-01 -3.3390388E+00
  9.957E+00  8.264E-01  1.985E+00 3.4461509E+00 5.8743103E-01 -3.3262729E+00
  1.000E+01  9.004E-01  1.995E+00 3.3917582E+00 3.3462943E-01 -3.3591602E+00
  9.957E+00  8.757E-01  1.992E+00 3.4066395E+00 4.1871596E-01 -3.3500235E+00
  1.000E+01  9.502E-01  1.999E+00 3.3749539E+00 1.6710793E-01 -3.3718080E+00
  9.957E+00  9.253E-01  1.997E+00 3.3819137E+00 2.5078671E-01 -3.3665130E+00
  1.000E+01  1.000E+00  2.000E+00 3.3700059E+00 -4.9679373E-06 -3.3761705E+00
  9.957E+00  9.751E-01  2.000E+00 3.3705195E+00 8.3533525E-02 -3.3751053E+00
  1.000E+01  1.050E+00  1.999E+00 3.3749539E+00 -1.6711741E-01 -3.3718075E+00
  9.957E+00  1.025E+00  2.000E+00 3.3705195E+00 -8.3543139E-02 -3.3751050E+00
  1.000E+01  1.100E+00  1.995E+00 3.3917582E+00 -3.3463918E-01 -3.3591591E+00
  9.957E+00  1.075E+00  1.997E+00 3.3819137E+00 -2.5079611E-01 -3.3665121E+00
  1.000E+01  1.149E+00  1.989E+00 3.4241338E+00 -5.0306297E-01 -3.3390371E+00
  9.957E+00  1.124E+00  1.992E+00 3.4066394E+00 -4.1872580E-01 -3.3500221E+00
  1.000E+01  1.198E+00  1.980E+00 3.4712823E+00 -6.7145220E-01 -3.3114035E+00
  9.957E+00  1.174E+00  1.985E+00 3.4461508E+00 -5.8744054E-01 -3.3262709E+00