# TIME = 1.900000
variables = x, y, z
zone N=5762 E=11520 F=FEPOINT ET=TRIANGLE
 6.0542552E+00 1.4751765E+00 1.7688010E+00
 6.0542552E+00 1.4751764E+00 2.3119961E-01
 6.0542552E+00 5.2482448E-01 1.7688007E+00
 6.0542552E+00 5.2482433E-01 2.3119941E-01
 4.9248810E+00 1.0000004E+00 1.5699203E+00
 7.1915729E+00 1.0000004E+00 1.5765274E+00
 4.9248808E+00 1.0000004E+00 4.3007984E-01
 7.1915727E+00 1.0000004E+00 4.2347326E-01
 5.3953923E+00 1.8503303E+00 1.0000002E+00
 5.3953922E+00 1.4967005E-01 1.0000002E+00
 6.7028418E+00 1.8107685E+00 1.0000002E+00
 6.7028416E+00 1.8923279E-01 1.0000002E+00
 6.0132631E+00 1.4677467E+00 1.7759792E+00
 5.9680790E+00 1.4590755E+00 1.7832904E+00
 5.9206166E+00 1.4494559E+00 1.7902978E+00
 5.8711661E+00 1.4388325E+00 1.7968058E+00
 5.8198894E+00 1.4271113E+00 1.8026179E+00
 5.7669566E+00 1.4141880E+00 1.8075113E+00
 5.7125619E+00 1.3999540E+00 1.8112421E+00
 5.6569625E+00 1.3843160E+00 1.8135451E+00
 5.6004758E+00 1.3672014E+00 1.8141495E+00
 5.5434787E+00 1.3485693E+00 1.8127924E+00
 5.4863996E+00 1.3284188E+00 1.8092387E+00
 5.4297076E+00 1.3067954E+00 1.8032981E+00
 5.3738946E+00 1.2837945E+00 1.7948423E+00
 5.3194550E+00 1.2595602E+00 1.7838167E+00
 5.2668618E+00 1.2342806E+00 1.7702473E+00
 5.2165449E+00 1.2081784E+00 1.7542395E+00
 5.1688705E+00 1.1814989E+00 1.7359718E+00
 5.1241271E+00 1.1544969E+00 1.7156821E+00
 5.0825167E+00 1.1274225E+00 1.6936516E+00
 5.0441543E+00 1.1005098E+00 1.6701855E+00
 5.0090877E+00 1.0739786E+00 1.6456084E+00
 4.9773337E+00 1.0480514E+00 1.6202688E+00
 4.9489234E+00 1.0229932E+00 1.5945774E+00
 6.0089727E+00 5.6442673E-01 1.7947089E+00
 5.9623790E+00 5.7482949E-01 1.8023998E+00
 5.9139434E+00 5.8586125E-01 1.8094816E+00
 5.8637126E+00 5.9789570E-01 1.8159403E+00
 5.8117674E+00 6.1107685E-01 1.8215995E+00
 5.7582495E+00 6.2550150E-01 1.8262248E+00
 5.7033770E+00 6.4125472E-01 1.8295551E+00
 5.6474295E+00 6.5840592E-01 1.8313149E+00
 5.5907497E+00 6.7699764E-01 1.8312280E+00
 5.5337360E+00 6.9703727E-01 1.8290345E+00
 5.4768341E+00 7.1848961E-01 1.8245107E+00
 5.4205228E+00 7.4127250E-01 1.8174860E+00
 5.3652954E+00 7.6525630E-01 1.8078596E+00
 5.3116374E+00 7.9026744E-01 1.7956099E+00
 5.2600036E+00 8.1609606E-01 1.7807986E+00
 5.2107967E+00 8.4250696E-01 1.7635668E+00
 5.1643494E+00 8.6925260E-01 1.7441254E+00
 5.1209120E+00 8.9608841E-01 1.7227393E+00
 5.0806471E+00 9.2278729E-01 1.6997091E+00
 5.0436248E+00 9.4915463E-01 1.6753457E+00
 5.0097880E+00 9.7500680E-01 1.6499115E+00
 4.9787939E+00 1.0000004E+00 1.6234398E+00
 6.0074810E+00 5.9777386E-01 1.8121704E+00
 5.9596071E+00 6.0979023E-01 1.8200679E+00
 5.9101723E+00 6.2227724E-01 1.8271650E+00
 5.8590326E+00 6.3579169E-01 1.8335307E+00
 5.8062444E+00 6.5049047E-01 1.8389801E+00
 5.7519595E+00 6.6646194E-01 1.8432646E+00
 5.6964156E+00 6.8377245E-01 1.8461082E+00
 5.6399211E+00 7.0246555E-01 1.8472240E+00
 5.5828461E+00 7.2255342E-01 1.8463312E+00
 5.5256145E+00 7.4400910E-01 1.8431737E+00
 5.4686926E+00 7.6676067E-01 1.8375406E+00
 5.4125725E+00 7.9068979E-01 1.8292841E+00
 5.3577514E+00 8.1563344E-01 1.8183342E+00
 5.3047088E+00 8.4139063E-01 1.8047060E+00
 5.2538828E+00 8.6773206E-01 1.7885007E+00
 5.2056499E+00 8.9441340E-01 1.7698984E+00
 5.1603082E+00 9.2119055E-01 1.7491448E+00
 5.1180661E+00 9.4783750E-01 1.7265302E+00
 5.0790238E+00 9.7416502E-01 1.7023578E+00
 5.0431155E+00 1.0000004E+00 1.6768661E+00
 5.0097881E+00 1.0249940E+00 1.6499115E+00
 6.0064485E+00 6.3302247E-01 1.8287510E+00
 5.9575956E+00 6.4647555E-01 1.8366085E+00
 5.9072193E+00 6.6044908E-01 1.8436035E+00
 5.8552062E+00 6.7547795E-01 1.8497550E+00
 5.8016044E+00 6.9172252E-01 1.8548666E+00
 5.7465891E+00 7.0925244E-01 1.8586725E+00
 5.6904242E+00 7.2811150E-01 1.8608842E+00
 5.6334463E+00 7.4831486E-01 1.8612071E+00
 5.5760527E+00 7.6984198E-01 1.8593606E+00
 5.5186912E+00 7.9262997E-01 1.8550978E+00
 5.4618453E+00 8.1657068E-01 1.8482270E+00
 5.4060164E+00 8.4151112E-01 1.8386289E+00
 5.3517010E+00 8.6725869E-01 1.8262691E+00
 5.2993668E+00 8.9359007E-01 1.8112030E+00
 5.2494297E+00 9.2026361E-01 1.7935727E+00
 5.2022343E+00 9.4703533E-01 1.7735960E+00
 5.1580364E+00 9.7367758E-01 1.7515470E+00
 5.1169817E+00 1.0000004E+00 1.7277234E+00
 5.0790238E+00 1.0258358E+00 1.7023578E+00
 5.0436248E+00 1.0508462E+00 1.6753457E+00
 6.0055190E+00 6.7026036E-01 1.8443101E+00
 5.9557727E+00 6.8514553E-01 1.8519806E+00
 5.9045554E+00 7.0061293E-01 1.8587233E+00
 5.8517594E+00 7.1717372E-01 1.8645132E+00
 5.7974542E+00 7.3496170E-01 1.8691302E+00
 5.7418365E+00 7.5402669E-01 1.8722960E+00
 5.6851979E+00 7.7438488E-01 1.8737133E+00
 5.6279014E+00 7.9602024E-01 1.8730859E+00
 5.5703686E+00 8.1887726E-01 1.8701400E+00
 5.5130660E+00 8.4285706E-01 1.8646452E+00
 5.4564885E+00 8.6781640E-01 1.8564359E+00
 5.4011395E+00 8.9357157E-01 1.8454267E+00
 5.3475065E+00 9.1990598E-01 1.8316231E+00
 5.2960381E+00 9.4658194E-01 1.8151216E+00
 5.2471198E+00 9.7335634E-01 1.7961036E+00
 5.2010551E+00 1.0000004E+00 1.7748176E+00
 5.1580364E+00 1.0263232E+00 1.7515470E+00
 5.1180661E+00 1.0521633E+00 1.7265302E+00
 5.0806471E+00 1.0772135E+00 1.6997090E+00
 6.0046464E+00 7.0947135E-01 1.8586403E+00
 5.9540968E+00 7.2578525E-01 1.8659752E+00
 5.9021417E+00 7.4275447E-01 1.8723136E+00
 5.8486873E+00 7.6083596E-01 1.8775807E+00
 5.7938209E+00 7.8013724E-01 1.8815383E+00
 5.7377637E+00 8.0068044E-01 1.8838985E+00
 5.6808324E+00 8.2245220E-01 1.8843613E+00
 5.6234138E+00 8.4540255E-01 1.8826356E+00
 5.5659487E+00 8.6944066E-01 1.8784618E+00
 5.5089161E+00 8.9443262E-01 1.8716333E+00
 5.4528147E+00 9.2020381E-01 1.8620166E+00
 5.3981414E+00 9.4654523E-01 1.8495650E+00
 5.3453666E+00 9.7322438E-01 1.8343251E+00
 5.2949109E+00 1.0000004E+00 1.8164335E+00
 5.2471198E+00 1.0266445E+00 1.7961036E+00
 5.2022343E+00 1.0529655E+00 1.7735960E+00
 5.1603082E+00 1.0788102E+00 1.7491448E+00
 5.1209120E+00 1.1039124E+00 1.7227393E+00
 6.0038552E+00 7.5055328E-01 1.8715056E+00
 5.9526034E+00 7.6828289E-01 1.8783537E+00
 5.9000329E+00 7.8673197E-01 1.8841271E+00
 5.8460610E+00 8.0629384E-01 1.8887062E+00
 5.7907945E+00 8.2704211E-01 1.8918383E+00
 5.7344773E+00 8.4896974E-01 1.8932322E+00
 5.6774485E+00 8.7203079E-01 1.8925915E+00
 5.6201140E+00 8.9614112E-01 1.8896375E+00
 5.5629279E+00 9.2117539E-01 1.8841323E+00
 5.5063745E+00 9.4696811E-01 1.8758993E+00
 5.4509481E+00 9.7331854E-01 1.8648424E+00
 5.3971306E+00 1.0000004E+00 1.8509553E+00
 5.3453666E+00 1.0267764E+00 1.8343251E+00
 5.2960381E+00 1.0534189E+00 1.8151216E+00
 5.2494297E+00 1.0797372E+00 1.7935727E+00
 5.2056499E+00 1.1055874E+00 1.7698984E+00
 5.1643495E+00 1.1307482E+00 1.7441254E+00
 6.0031642E+00 7.9334007E-01 1.8826686E+00
 5.9513292E+00 8.1244556E-01 1.8888750E+00
 5.8982797E+00 8.3232141E-01 1.8939208E+00
 5.8439462E+00 8.5328696E-01 1.8976478E+00
 5.7884532E+00 8.7537902E-01 1.8997955E+00
 5.7320652E+00 8.9855867E-01 1.9000751E+00
 5.6751396E+00 9.2274733E-01 1.8982012E+00
 5.6180962E+00 9.4782743E-01 1.8939148E+00
 5.5613953E+00 9.7364244E-01 1.8870061E+00
 5.5055188E+00 1.0000004E+00 1.8773341E+00
 5.4509481E+00 1.0266823E+00 1.8648424E+00
 5.3981414E+00 1.0534556E+00 1.8495650E+00
 5.3475065E+00 1.0800948E+00 1.8316231E+00
 5.2993668E+00 1.1064107E+00 1.8112030E+00
 5.2538828E+00 1.1322687E+00 1.7885007E+00
 5.2107967E+00 1.1574938E+00 1.7635668E+00
 6.0025909E+00 8.3761240E-01 1.8919070E+00
 5.9503047E+00 8.5802189E-01 1.8973181E+00
 5.8969256E+00 8.7923558E-01 1.9014773E+00
 5.8423961E+00 9.0149130E-01 1.9041973E+00
 5.7868577E+00 9.2478605E-01 1.9052160E+00
 5.7305917E+00 9.4904898E-01 1.9042540E+00
 5.6739692E+00 9.7416967E-01 1.9010442E+00
 5.6174173E+00 1.0000004E+00 1.8953535E+00
 5.5613953E+00 1.0263584E+00 1.8870061E+00
 5.5063745E+00 1.0530327E+00 1.8758993E+00
 5.4528147E+00 1.0797970E+00 1.8620166E+00
 5.4011395E+00 1.1064292E+00 1.8454267E+00
 5.3517010E+00 1.1327421E+00 1.8262691E+00
 5.3047089E+00 1.1586102E+00 1.8047059E+00
 5.2600036E+00 1.1839047E+00 1.7807986E+00
 6.0021483E+00 8.8310000E-01 1.8990246E+00
 5.9495544E+00 9.0470809E-01 1.9034945E+00
 5.8960034E+00 9.2713567E-01 1.9066197E+00
 5.8414498E+00 9.5053219E-01 1.9081944E+00
 5.7860493E+00 9.7485439E-01 1.9079620E+00
 5.7300961E+00 1.0000004E+00 1.9056595E+00
 5.6739692E+00 1.0258311E+00 1.9010442E+00
 5.6180962E+00 1.0521734E+00 1.8939148E+00
 5.5629279E+00 1.0788254E+00 1.8841323E+00
 5.5089161E+00 1.1055682E+00 1.8716333E+00
 5.4564885E+00 1.1321844E+00 1.8564359E+00
 5.4060164E+00 1.1584897E+00 1.8386289E+00
 5.3577514E+00 1.1843674E+00 1.8183342E+00
 5.3116374E+00 1.2097334E+00 1.7956099E+00
 6.0018470E+00 9.2948948E-01 1.9038630E+00
 5.9490965E+00 9.5215919E-01 1.9072605E+00
 5.8955364E+00 9.7564364E-01 1.9092233E+00
 5.8411317E+00 1.0000004E+00 1.9095382E+00
 5.7860493E+00 1.0251464E+00 1.9079620E+00
 5.7305917E+00 1.0509518E+00 1.9042540E+00
 5.6751396E+00 1.0772535E+00 1.8982012E+00
 5.6201140E+00 1.1038597E+00 1.8896376E+00
 5.5659487E+00 1.1305601E+00 1.8784619E+00
 5.5130660E+00 1.1571437E+00 1.8646452E+00
 5.4618453E+00 1.1834301E+00 1.8482270E+00
 5.4125725E+00 1.2093110E+00 1.8292841E+00
 5.3652954E+00 1.2347445E+00 1.8078596E+00
 6.0016945E+00 9.7643430E-01 1.9063111E+00
 5.9489426E+00 1.0000004E+00 1.9085261E+00
 5.8955364E+00 1.0243572E+00 1.9092233E+00
 5.8414498E+00 1.0494686E+00 1.9081944E+00
 5.7868577E+00 1.0752148E+00 1.9052160E+00
 5.7320652E+00 1.1014421E+00 1.9000751E+00
 5.6774484E+00 1.1279700E+00 1.8925916E+00
 5.6234138E+00 1.1545983E+00 1.8826357E+00
 5.5703685E+00 1.1811235E+00 1.8701401E+00
 5.5186912E+00 1.2073708E+00 1.8550978E+00
 5.4686926E+00 1.2332401E+00 1.8375406E+00
 5.4205228E+00 1.2587283E+00 1.8174860E+00
 6.0016945E+00 1.0235665E+00 1.9063111E+00
 5.9490965E+00 1.0478416E+00 1.9072605E+00
 5.8960034E+00 1.0728651E+00 1.9066198E+00
 5.8423961E+00 1.0985095E+00 1.9041973E+00
 5.7884532E+00 1.1246218E+00 1.8997956E+00
 5.7344773E+00 1.1510311E+00 1.8932322E+00
 5.6808324E+00 1.1775486E+00 1.8843614E+00
 5.6279013E+00 1.2039806E+00 1.8730860E+00
 5.5760527E+00 1.2301588E+00 1.8593606E+00
 5.5256145E+00 1.2559917E+00 1.8431737E+00
 5.4768341E+00 1.2815112E+00 1.8245107E+00
 6.0018470E+00 1.0705113E+00 1.9038631E+00
 5.9495544E+00 1.0952927E+00 1.9034945E+00
 5.8969256E+00 1.1207652E+00 1.9014774E+00
 5.8439462E+00 1.1467139E+00 1.8976479E+00
 5.7907945E+00 1.1729587E+00 1.8918384E+00
 5.7377637E+00 1.1993204E+00 1.8838986E+00
 5.6851978E+00 1.2256159E+00 1.8737134E+00
 5.6334463E+00 1.2516860E+00 1.8612072E+00
 5.5828461E+00 1.2774474E+00 1.8463313E+00
 5.5337359E+00 1.3029635E+00 1.8290346E+00
 6.0021483E+00 1.1169008E+00 1.8990247E+00
 5.9503047E+00 1.1419789E+00 1.8973182E+00
 5.8982797E+00 1.1676794E+00 1.8939209E+00
 5.8460610E+00 1.1937070E+00 1.8887063E+00
 5.7938209E+00 1.2198636E+00 1.8815384E+00
 5.7418365E+00 1.2459741E+00 1.8722961E+00
 5.6904242E+00 1.2718893E+00 1.8608843E+00
 5.6399211E+00 1.2975353E+00 1.8472241E+00
 5.5907497E+00 1.3230032E+00 1.8312281E+00
 6.0025909E+00 1.1623884E+00 1.8919071E+00
 5.9513292E+00 1.1875553E+00 1.8888752E+00
 5.9000329E+00 1.2132689E+00 1.8841272E+00
 5.8486873E+00 1.2391649E+00 1.8775809E+00
 5.7974542E+00 1.2650391E+00 1.8691303E+00
 5.7465891E+00 1.2907484E+00 1.8586727E+00
 5.6964155E+00 1.3162284E+00 1.8461084E+00
 5.6474295E+00 1.3415949E+00 1.8313150E+00
 6.0031642E+00 1.2066608E+00 1.8826688E+00
 5.9526034E+00 1.2317180E+00 1.8783538E+00
 5.9021417E+00 1.2572464E+00 1.8723138E+00
 5.8517594E+00 1.2828271E+00 1.8645133E+00
 5.8016044E+00 1.3082783E+00 1.8548668E+00
 5.7519595E+00 1.3335389E+00 1.8432647E+00
 5.7033770E+00 1.3587461E+00 1.8295553E+00
 6.0038552E+00 1.2494476E+00 1.8715058E+00
 5.9540968E+00 1.2742156E+00 1.8659754E+00
 5.9045554E+00 1.2993879E+00 1.8587234E+00
 5.8552062E+00 1.3245229E+00 1.8497552E+00
 5.8062444E+00 1.3495104E+00 1.8389803E+00
 5.7582495E+00 1.3744994E+00 1.8262250E+00
 6.0046464E+00 1.2905295E+00 1.8586405E+00
 5.9557727E+00 1.3148553E+00 1.8519808E+00
 5.9072193E+00 1.3395518E+00 1.8436037E+00
 5.8590326E+00 1.3642092E+00 1.8335309E+00
 5.8117674E+00 1.3889240E+00 1.8215996E+00
 6.0055191E+00 1.3297405E+00 1.8443103E+00
 5.9575957E+00 1.3535253E+00 1.8366088E+00
 5.9101723E+00 1.3777237E+00 1.8271652E+00
 5.8637126E+00 1.4021052E+00 1.8159405E+00
 6.0064485E+00 1.3669784E+00 1.8287512E+00
 5.9596071E+00 1.3902107E+00 1.8200681E+00
 5.9139434E+00 1.4141397E+00 1.8094818E+00
 6.0074810E+00 1.4022271E+00 1.8121707E+00
 5.9623790E+00 1.4251715E+00 1.8024001E+00
 6.0089727E+00 1.4355742E+00 1.7947092E+00
 6.0541911E+00 1.4471257E+00 1.7855176E+00
 6.0541389E+00 1.4154454E+00 1.8027450E+00
 6.0541128E+00 1.3815843E+00 1.8193939E+00
 6.0540928E+00 1.3456145E+00 1.8352101E+00
 6.0540758E+00 1.3076423E+00 1.8499381E+00
 6.0540600E+00 1.2677720E+00 1.8633367E+00
 6.0540460E+00 1.2261462E+00 1.8751702E+00
 6.0540340E+00 1.1829551E+00 1.8852141E+00
 6.0540243E+00 1.1384413E+00 1.8932638E+00
 6.0540172E+00 1.0928909E+00 1.8991467E+00
 6.0540128E+00 1.0466274E+00 1.9027314E+00
 6.0540113E+00 1.0000004E+00 1.9039356E+00
 6.0540128E+00 9.5337345E-01 1.9027313E+00
 6.0540172E+00 9.0710993E-01 1.8991467E+00
 6.0540243E+00 8.6155951E-01 1.8932637E+00
 6.0540340E+00 8.1704570E-01 1.8852140E+00
 6.0540460E+00 7.7385466E-01 1.8751701E+00
 6.0540600E+00 7.3222886E-01 1.8633365E+00
 6.0540758E+00 6.9235859E-01 1.8499379E+00
 6.0540928E+00 6.5438644E-01 1.8352098E+00
 6.0541128E+00 6.1841661E-01 1.8193936E+00
 6.0541389E+00 5.8455556E-01 1.8027447E+00
 6.0541911E+00 5.5287523E-01 1.7855173E+00
 6.0951464E+00 5.3472424E-01 1.7719081E+00
 6.1401045E+00 5.4595934E-01 1.7747309E+00
 6.1872143E+00 5.5805768E-01 1.7771074E+00
 6.2361714E+00 5.7099027E-01 1.7789755E+00
 6.2868013E+00 5.8477245E-01 1.7802761E+00
 6.3389289E+00 5.9943140E-01 1.7809362E+00
 6.3923622E+00 6.1500537E-01 1.7808701E+00
 6.4468590E+00 6.3152945E-01 1.7799723E+00
 6.5021344E+00 6.4903695E-01 1.7781212E+00
 6.5578641E+00 6.6755444E-01 1.7751798E+00
 6.6136945E+00 6.8709770E-01 1.7710028E+00
 6.6692499E+00 7.0766613E-01 1.7654438E+00
 6.7241436E+00 7.2923731E-01 1.7583664E+00
 6.7779877E+00 7.5176282E-01 1.7496543E+00
 6.8304052E+00 7.7516517E-01 1.7392231E+00
 6.8810408E+00 7.9933795E-01 1.7270277E+00
 6.9295728E+00 8.2414771E-01 1.7130693E+00
 6.9757228E+00 8.4943953E-01 1.6973958E+00
 7.0192646E+00 8.7504353E-01 1.6801009E+00
 7.0600289E+00 9.0078460E-01 1.6613172E+00
 7.0978876E+00 9.2647817E-01 1.6412201E+00
 7.1327225E+00 9.5192108E-01 1.6200351E+00
 7.1643716E+00 9.7684581E-01 1.5980821E+00
 6.0993062E+00 1.4330030E+00 1.7901298E+00
 6.1456773E+00 1.4201649E+00 1.7930948E+00
 6.1937496E+00 1.4068492E+00 1.7953598E+00
 6.2434710E+00 1.3927383E+00 1.7970337E+00
 6.2947513E+00 1.3777554E+00 1.7980776E+00
 6.3474453E+00 1.3618717E+00 1.7984112E+00
 6.4013391E+00 1.3450626E+00 1.7979381E+00
 6.4561708E+00 1.3273038E+00 1.7965453E+00
 6.5116333E+00 1.3085766E+00 1.7941047E+00
 6.5673850E+00 1.2888713E+00 1.7904755E+00
 6.6230578E+00 1.2681922E+00 1.7855120E+00
 6.6782678E+00 1.2465630E+00 1.7790720E+00
 6.7326252E+00 1.2240308E+00 1.7710286E+00
 6.7857460E+00 1.2006692E+00 1.7612808E+00
 6.8372634E+00 1.1765794E+00 1.7497636E+00
 6.8868393E+00 1.1518882E+00 1.7364558E+00
 6.9341750E+00 1.1267436E+00 1.7213839E+00
 6.9790206E+00 1.1013071E+00 1.7046216E+00
 7.0211827E+00 1.0757412E+00 1.6862854E+00
 7.0605334E+00 1.0501989E+00 1.6665223E+00
 7.0970598E+00 1.0248370E+00 1.6454627E+00
 7.1310500E+00 1.0000004E+00 1.6230651E+00
 6.1007100E+00 1.3997562E+00 1.8073477E+00
 6.1483596E+00 1.3854545E+00 1.8102900E+00
 6.1974236E+00 1.3708789E+00 1.8123811E+00
 6.2480409E+00 1.3555133E+00 1.8138016E+00
 6.3001481E+00 1.3392608E+00 1.8145112E+00
 6.3535911E+00 1.3220930E+00 1.8144243E+00
 6.4081383E+00 1.3039936E+00 1.8134374E+00
 6.4635015E+00 1.2849512E+00 1.8114302E+00
 6.5193502E+00 1.2649623E+00 1.8082690E+00
 6.5753209E+00 1.2440357E+00 1.8038102E+00
 6.6310288E+00 1.2221976E+00 1.7979090E+00
 6.6860777E+00 1.1994954E+00 1.7904293E+00
 6.7400729E+00 1.1760016E+00 1.7812564E+00
 6.7926318E+00 1.1518149E+00 1.7703068E+00
 6.8433968E+00 1.1270590E+00 1.7575388E+00
 6.8920464E+00 1.1018786E+00 1.7429575E+00
 6.9383062E+00 1.0764316E+00 1.7266170E+00
 6.9819601E+00 1.0508754E+00 1.7086158E+00
 7.0228719E+00 1.0253515E+00 1.6890792E+00
 7.0610599E+00 1.0000004E+00 1.6680985E+00
 7.0970597E+00 9.7516382E-01 1.6454627E+00
 6.1016906E+00 1.3646702E+00 1.8237206E+00
 6.1503151E+00 1.3491204E+00 1.8264249E+00
 6.2003114E+00 1.3332746E+00 1.8282328E+00
 6.2517886E+00 1.3166353E+00 1.8292872E+00
 6.3046928E+00 1.2990955E+00 1.8295438E+00
 6.3588477E+00 1.2806371E+00 1.8289096E+00
 6.4139975E+00 1.2612551E+00 1.8272749E+00
 6.4698289E+00 1.2409527E+00 1.8245146E+00
 6.5259874E+00 1.2197439E+00 1.8204918E+00
 6.5820898E+00 1.1976583E+00 1.8150632E+00
 6.6377362E+00 1.1747447E+00 1.8080892E+00
 6.6925219E+00 1.1510753E+00 1.7994444E+00
 6.7460506E+00 1.1267471E+00 1.7890303E+00
 6.7979459E+00 1.1018815E+00 1.7767858E+00
 6.8478642E+00 1.0766206E+00 1.7626952E+00
 6.8955065E+00 1.0511199E+00 1.7467918E+00
 6.9406322E+00 1.0255340E+00 1.7291547E+00
 6.9830814E+00 1.0000004E+00 1.7098933E+00
 7.0228718E+00 9.7464933E-01 1.6890791E+00
 7.0605334E+00 9.4980194E-01 1.6665223E+00
 6.1025802E+00 1.3276242E+00 1.8390829E+00
 6.1520924E+00 1.3108581E+00 1.8414148E+00
 6.2029203E+00 1.2937581E+00 1.8428065E+00
 6.2551676E+00 1.2758471E+00 1.8433650E+00
 6.3087600E+00 1.2570381E+00 1.8430320E+00
 6.3635011E+00 1.2373229E+00 1.8417097E+00
 6.4191095E+00 1.2167112E+00 1.8392843E+00
 6.4752482E+00 1.1952230E+00 1.8356285E+00
 6.5315419E+00 1.1728918E+00 1.8306065E+00
 6.5875911E+00 1.1497688E+00 1.8240796E+00
 6.6429858E+00 1.1259265E+00 1.8159184E+00
 6.6973186E+00 1.1014606E+00 1.8060133E+00
 6.7501980E+00 1.0764902E+00 1.7942871E+00
 6.8012604E+00 1.0511550E+00 1.7807041E+00
 6.8501841E+00 1.0256077E+00 1.7652767E+00
 6.8967026E+00 1.0000004E+00 1.7480632E+00
 6.9406322E+00 9.7446685E-01 1.7291546E+00
 6.9819601E+00 9.4912546E-01 1.7086157E+00
 7.0211826E+00 9.2425962E-01 1.6862853E+00
 6.1034176E+00 1.2886312E+00 1.8532258E+00
 6.1537281E+00 1.2706765E+00 1.8550527E+00
 6.2052854E+00 1.2523365E+00 1.8558959E+00
 6.2581800E+00 1.2331842E+00 1.8558202E+00
 6.3123211E+00 1.2131506E+00 1.8547569E+00
 6.3674890E+00 1.1922439E+00 1.8526044E+00
 6.4233795E+00 1.1704895E+00 1.8492483E+00
 6.4796343E+00 1.1479259E+00 1.8445629E+00
 6.5358614E+00 1.1246072E+00 1.8384173E+00
 6.5916503E+00 1.1006070E+00 1.8306831E+00
 6.6465874E+00 1.0760199E+00 1.8212459E+00
 6.7002687E+00 1.0509632E+00 1.8100168E+00
 6.7523148E+00 1.0255734E+00 1.7969434E+00
 6.8023830E+00 1.0000004E+00 1.7820176E+00
 6.8501841E+00 9.7439315E-01 1.7652766E+00
 6.8955065E+00 9.4888096E-01 1.7467918E+00
 6.9383062E+00 9.2356918E-01 1.7266170E+00
 6.9790206E+00 8.9869378E-01 1.7046215E+00
 6.1041767E+00 1.2477911E+00 1.8659194E+00
 6.1551851E+00 1.2286835E+00 1.8671100E+00
 6.2073511E+00 1.2091455E+00 1.8672676E+00
 6.2607546E+00 1.1888087E+00 1.8664181E+00
 6.3152865E+00 1.1676282E+00 1.8644847E+00
 6.3707062E+00 1.1456286E+00 1.8613655E+00
 6.4266889E+00 1.1228534E+00 1.8569486E+00
 6.4828592E+00 1.0993601E+00 1.8511140E+00
 6.5388136E+00 1.0752236E+00 1.8437411E+00
 6.5941368E+00 1.0505385E+00 1.8347162E+00
 6.6484177E+00 1.0254196E+00 1.8239450E+00
 6.7012635E+00 1.0000004E+00 1.8113625E+00
 6.7523147E+00 9.7442738E-01 1.7969434E+00
 6.8012604E+00 9.4884584E-01 1.7807040E+00
 6.8478642E+00 9.2338025E-01 1.7626952E+00
 6.8920464E+00 8.9812224E-01 1.7429574E+00
 6.9341750E+00 8.7325719E-01 1.7213838E+00
 6.1048396E+00 1.2052694E+00 1.8769305E+00
 6.1564283E+00 1.1850689E+00 1.8773543E+00
 6.2090684E+00 1.1644031E+00 1.8766905E+00
 6.2628276E+00 1.1429709E+00 1.8749318E+00
 6.3175806E+00 1.1207535E+00 1.8719968E+00
 6.3730675E+00 1.0977938E+00 1.8677869E+00
 6.4289467E+00 1.0741529E+00 1.8621965E+00
 6.4848312E+00 1.0499078E+00 1.8551161E+00
 6.5403114E+00 1.0251527E+00 1.8464397E+00
 6.5949740E+00 1.0000004E+00 1.8360730E+00
 6.6484177E+00 9.7458127E-01 1.8239450E+00
 6.7002686E+00 9.4903758E-01 1.8100167E+00
 6.7501979E+00 9.2351058E-01 1.7942870E+00
 6.7979458E+00 8.9811932E-01 1.7767857E+00
 6.8433968E+00 8.7294184E-01 1.7575387E+00
 6.8868393E+00 8.4811269E-01 1.7364557E+00
 6.1053894E+00 1.1612826E+00 1.8860415E+00
 6.1574276E+00 1.1400784E+00 1.8855724E+00
 6.2103946E+00 1.1183865E+00 1.8839583E+00
 6.2643470E+00 1.0959801E+00 1.8811657E+00
 6.3191438E+00 1.0728687E+00 1.8771127E+00
 6.3745098E+00 1.0491133E+00 1.8717077E+00
 6.4300912E+00 1.0247924E+00 1.8648559E+00
 6.4854946E+00 1.0000004E+00 1.8564624E+00
 6.5403114E+00 9.7484814E-01 1.8464397E+00
 6.5941368E+00 9.4946235E-01 1.8347162E+00
 6.6465873E+00 9.2398088E-01 1.8212459E+00
 6.6973186E+00 8.9854027E-01 1.8060132E+00
 6.7460506E+00 8.7325370E-01 1.7890302E+00
 6.7926317E+00 8.4818592E-01 1.7703067E+00
 6.8372634E+00 8.2342149E-01 1.7497634E+00
 6.1058139E+00 1.1160978E+00 1.8930599E+00
 6.1581596E+00 1.0940081E+00 1.8915829E+00
 6.2112978E+00 1.0714221E+00 1.8889031E+00
 6.2652746E+00 1.0481935E+00 1.8849692E+00
 6.3199359E+00 1.0243602E+00 1.8797040E+00
 6.3749949E+00 1.0000004E+00 1.8730263E+00
 6.4300912E+00 9.7520838E-01 1.8648559E+00
 6.4848312E+00 9.5009299E-01 1.8551161E+00
 6.5388136E+00 9.2477719E-01 1.8437411E+00
 6.5916503E+00 8.9939385E-01 1.8306830E+00
 6.6429858E+00 8.7407435E-01 1.8159183E+00
 6.6925219E+00 8.4892552E-01 1.7994442E+00
 6.7400729E+00 8.2399921E-01 1.7812562E+00
 6.7857459E+00 7.9933165E-01 1.7612806E+00
 6.1061026E+00 1.0700241E+00 1.8978304E+00
 6.1586061E+00 1.0471939E+00 1.8952471E+00
 6.2117552E+00 1.0238735E+00 1.8914061E+00
 6.2655864E+00 1.0000004E+00 1.8862478E+00
 6.3199359E+00 9.7564061E-01 1.8797040E+00
 6.3745098E+00 9.5088752E-01 1.8717077E+00
 6.4289467E+00 9.2584789E-01 1.8621964E+00
 6.4828592E+00 9.0064076E-01 1.8511139E+00
 6.5358613E+00 8.7539359E-01 1.8384172E+00
 6.5875910E+00 8.5023203E-01 1.8240794E+00
 6.6377362E+00 8.2525616E-01 1.8080890E+00
 6.6860777E+00 8.0050547E-01 1.7904291E+00
 6.7326252E+00 7.7597007E-01 1.7710284E+00
 6.1062489E+00 1.0234032E+00 1.9002438E+00
 6.1587562E+00 1.0000004E+00 1.8964784E+00
 6.2117552E+00 9.7612736E-01 1.8914061E+00
 6.2652746E+00 9.5180734E-01 1.8849692E+00
 6.3191438E+00 9.2713208E-01 1.8771127E+00
 6.3730675E+00 9.0220706E-01 1.8677868E+00
 6.4266889E+00 8.7714746E-01 1.8569485E+00
 6.4796342E+00 8.5207495E-01 1.8445628E+00
 6.5315419E+00 8.2710903E-01 1.8306063E+00
 6.5820898E+00 8.0234257E-01 1.8150630E+00
 6.6310288E+00 7.7780330E-01 1.7979087E+00
 6.6782678E+00 7.5343786E-01 1.7790718E+00
 6.1062488E+00 9.7659760E-01 1.9002438E+00
 6.1586061E+00 9.5280689E-01 1.8952471E+00
 6.2112978E+00 9.2857874E-01 1.8889030E+00
 6.2643470E+00 9.0402073E-01 1.8811656E+00
 6.3175806E+00 8.7924736E-01 1.8719967E+00
 6.3707062E+00 8.5437221E-01 1.8613654E+00
 6.4233794E+00 8.2951135E-01 1.8492482E+00
 6.4752482E+00 8.0477785E-01 1.8356284E+00
 6.5259874E+00 7.8025693E-01 1.8204916E+00
 6.5753209E+00 7.5596514E-01 1.8038099E+00
 6.6230578E+00 7.3180869E-01 1.7855117E+00
 6.1061026E+00 9.2997669E-01 1.8978303E+00
 6.1581596E+00 9.0599271E-01 1.8915828E+00
 6.2103946E+00 8.8161436E-01 1.8839582E+00
 6.2628276E+00 8.5702997E-01 1.8749317E+00
 6.3152865E+00 8.3237268E-01 1.8644846E+00
 6.3674890E+00 8.0775693E-01 1.8526043E+00
 6.4191094E+00 7.8328963E-01 1.8392841E+00
 6.4698288E+00 7.5904819E-01 1.8245144E+00
 6.5193502E+00 7.3503860E-01 1.8082688E+00
 6.5673849E+00 7.1112966E-01 1.7904753E+00
 6.1058139E+00 8.8390301E-01 1.8930598E+00
 6.1574276E+00 8.5992246E-01 1.8855723E+00
 6.2090684E+00 8.3559770E-01 1.8766903E+00
 6.2607546E+00 8.1119218E-01 1.8664180E+00
 6.3123211E+00 7.8685021E-01 1.8547567E+00
 6.3635010E+00 7.6267801E-01 1.8417094E+00
 6.4139975E+00 7.3874580E-01 1.8272747E+00
 6.4635015E+00 7.1504972E-01 1.8114299E+00
 6.5116333E+00 6.9142434E-01 1.7941044E+00
 6.1053894E+00 8.3871828E-01 1.8860414E+00
 6.1564283E+00 8.1493190E-01 1.8773542E+00
 6.2073511E+00 7.9085535E-01 1.8672674E+00
 6.2581800E+00 7.6681665E-01 1.8558200E+00
 6.3087599E+00 7.4296279E-01 1.8430318E+00
 6.3588477E+00 7.1936381E-01 1.8289093E+00
 6.4081383E+00 6.9600736E-01 1.8134371E+00
 6.4561708E+00 6.7269716E-01 1.7965450E+00
 6.1048396E+00 7.9473145E-01 1.8769304E+00
 6.1551851E+00 7.7131740E-01 1.8671099E+00
 6.2052854E+00 7.4766439E-01 1.8558957E+00
 6.2551676E+00 7.2415376E-01 1.8433648E+00
 6.3046928E+00 7.0090542E-01 1.8295436E+00
 6.3535910E+00 6.7790793E-01 1.8144241E+00
 6.4013391E+00 6.5493835E-01 1.7979378E+00
 6.1041767E+00 7.5220974E-01 1.8659192E+00
 6.1537281E+00 7.2932441E-01 1.8550525E+00
 6.2029203E+00 7.0624284E-01 1.8428063E+00
 6.2517886E+00 6.8336558E-01 1.8292870E+00
 6.3001480E+00 6.6074012E-01 1.8145109E+00
 6.3474453E+00 6.3812920E-01 1.7984109E+00
 6.1034176E+00 7.1136964E-01 1.8532256E+00
 6.1520924E+00 6.8914280E-01 1.8414145E+00
 6.2003114E+00 6.6672634E-01 1.8282326E+00
 6.2480409E+00 6.4448759E-01 1.8138013E+00
 6.2947512E+00 6.2224552E-01 1.7980773E+00
 6.1025802E+00 6.7237673E-01 1.8390827E+00
 6.1503151E+00 6.5088052E-01 1.8264247E+00
 6.1974236E+00 6.2912207E-01 1.8123808E+00
 6.2434710E+00 6.0726263E-01 1.7970334E+00
 6.1016905E+00 6.3533072E-01 1.8237203E+00
 6.1483596E+00 6.1454643E-01 1.8102897E+00
 6.1937496E+00 5.9315175E-01 1.7953595E+00
 6.1007100E+00 6.0024471E-01 1.8073474E+00
 6.1456773E+00 5.7983608E-01 1.7930945E+00
 6.0993061E+00 5.6699795E-01 1.7901295E+00
 6.0288749E+00 1.4982024E+00 1.7558651E+00
 6.0009221E+00 1.5231110E+00 1.7405276E+00
 5.9717010E+00 1.5486265E+00 1.7233162E+00
 5.9413480E+00 1.5745018E+00 1.7041685E+00
 5.9100138E+00 1.6005300E+00 1.6829951E+00
 5.8778363E+00 1.6265032E+00 1.6597044E+00
 5.8449806E+00 1.6521984E+00 1.6342213E+00
 5.8116402E+00 1.6773662E+00 1.6065068E+00
 5.7780394E+00 1.7017389E+00 1.5765655E+00
 5.7444249E+00 1.7250401E+00 1.5444520E+00
 5.7110597E+00 1.7469963E+00 1.5102752E+00
 5.6782130E+00 1.7673492E+00 1.4742002E+00
 5.6461511E+00 1.7858686E+00 1.4364460E+00
 5.6151270E+00 1.8023635E+00 1.3972795E+00
 5.5853706E+00 1.8166915E+00 1.3570066E+00
 5.5570803E+00 1.8287644E+00 1.3159586E+00
 5.5304164E+00 1.8385508E+00 1.2744793E+00
 5.5054973E+00 1.8460736E+00 1.2329089E+00
 5.4823976E+00 1.8514060E+00 1.1915707E+00
 5.4611510E+00 1.8546623E+00 1.1507578E+00
 5.4417645E+00 1.8559904E+00 1.1107449E+00
 5.4242381E+00 1.8555608E+00 1.0718045E+00
 5.4086137E+00 1.8535778E+00 1.0343205E+00
 4.9432676E+00 1.0663785E+00 1.5856938E+00
 4.9379284E+00 1.1094549E+00 1.5737227E+00
 4.9344264E+00 1.1537379E+00 1.5597952E+00
 4.9332793E+00 1.1992864E+00 1.5440500E+00
 4.9347800E+00 1.2459025E+00 1.5264356E+00
 4.9391731E+00 1.2932768E+00 1.5069090E+00
 4.9466704E+00 1.3410315E+00 1.4854726E+00
 4.9574352E+00 1.3887379E+00 1.4621801E+00
 4.9715659E+00 1.4359316E+00 1.4371373E+00
 4.9890828E+00 1.4821312E+00 1.4105022E+00
 5.0099210E+00 1.5268596E+00 1.3824819E+00
 5.0339280E+00 1.5696661E+00 1.3533267E+00
 5.0608669E+00 1.6101473E+00 1.3233201E+00
 5.0904266E+00 1.6479663E+00 1.2927672E+00
 5.1222366E+00 1.6828662E+00 1.2619808E+00
 5.1558854E+00 1.7146782E+00 1.2312669E+00
 5.1909420E+00 1.7433234E+00 1.2009122E+00
 5.2269782E+00 1.7688092E+00 1.1711727E+00
 5.2635896E+00 1.7912193E+00 1.1422664E+00
 5.3004195E+00 1.8107039E+00 1.1143643E+00
 5.3371562E+00 1.8274604E+00 1.0875370E+00
 5.3734308E+00 1.8416964E+00 1.0615321E+00
 4.9732655E+00 1.0933707E+00 1.6113627E+00
 4.9695112E+00 1.1380557E+00 1.5993386E+00
 4.9676060E+00 1.1835324E+00 1.5852118E+00
 4.9681594E+00 1.2300783E+00 1.5691595E+00
 4.9714632E+00 1.2775148E+00 1.5511258E+00
 4.9777422E+00 1.3255109E+00 1.5310673E+00
 4.9871793E+00 1.3736560E+00 1.5089941E+00
 4.9999013E+00 1.4214891E+00 1.4849748E+00
 5.0159624E+00 1.4685217E+00 1.4591358E+00
 5.0353345E+00 1.5142595E+00 1.4316592E+00
 5.0579011E+00 1.5582256E+00 1.4027787E+00
 5.0834593E+00 1.5999835E+00 1.3727711E+00
 5.1117269E+00 1.6391585E+00 1.3419445E+00
 5.1423556E+00 1.6754535E+00 1.3106246E+00
 5.1749487E+00 1.7086611E+00 1.2791396E+00
 5.2090825E+00 1.7386667E+00 1.2478048E+00
 5.2443295E+00 1.7654479E+00 1.2169095E+00
 5.2802836E+00 1.7890672E+00 1.1867056E+00
 5.3165905E+00 1.8096654E+00 1.1573862E+00
 5.3529512E+00 1.8274471E+00 1.1290147E+00
 5.3890470E+00 1.8426676E+00 1.1011288E+00
 5.0065455E+00 1.1204755E+00 1.6364568E+00
 5.0043773E+00 1.1663276E+00 1.6242155E+00
 5.0041514E+00 1.2128440E+00 1.6097903E+00
 5.0064811E+00 1.2602616E+00 1.5933229E+00
 5.0116470E+00 1.3083856E+00 1.5747539E+00
 5.0198478E+00 1.3568504E+00 1.5540454E+00
 5.0312327E+00 1.4052118E+00 1.5312212E+00
 5.0458870E+00 1.4529813E+00 1.5063696E+00
 5.0638177E+00 1.4996526E+00 1.4796417E+00
 5.0849455E+00 1.5447263E+00 1.4512482E+00
 5.1091031E+00 1.5877350E+00 1.4214516E+00
 5.1360399E+00 1.6282663E+00 1.3905569E+00
 5.1654333E+00 1.6659822E+00 1.3588967E+00
 5.1969054E+00 1.7006336E+00 1.3268161E+00
 5.2300432E+00 1.7320668E+00 1.2946555E+00
 5.2644228E+00 1.7602253E+00 1.2627358E+00
 5.2996368E+00 1.7851449E+00 1.2313422E+00
 5.3353258E+00 1.8069478E+00 1.2007032E+00
 5.3711925E+00 1.8258367E+00 1.1708986E+00
 5.4069023E+00 1.8420846E+00 1.1415100E+00
 5.0431391E+00 1.1479213E+00 1.6606012E+00
 5.0426408E+00 1.1947315E+00 1.6480127E+00
 5.0441953E+00 1.2420914E+00 1.6331753E+00
 5.0483918E+00 1.2901830E+00 1.6161855E+00
 5.0554809E+00 1.3387703E+00 1.5969787E+00
 5.0656285E+00 1.3874552E+00 1.5755275E+00
 5.0789433E+00 1.4357646E+00 1.5518743E+00
 5.0954643E+00 1.4831902E+00 1.5261317E+00
 5.1151482E+00 1.5292180E+00 1.4984795E+00
 5.1378649E+00 1.5733553E+00 1.4691581E+00
 5.1633986E+00 1.6151560E+00 1.4384604E+00
 5.1914576E+00 1.6542427E+00 1.4067179E+00
 5.2216880E+00 1.6903240E+00 1.3742849E+00
 5.2536940E+00 1.7232045E+00 1.3415213E+00
 5.2870613E+00 1.7527895E+00 1.3087745E+00
 5.3213853E+00 1.7790821E+00 1.2763626E+00
 5.3563065E+00 1.8021807E+00 1.2445473E+00
 5.3915257E+00 1.8222745E+00 1.2134523E+00
 5.4267092E+00 1.8396493E+00 1.1827257E+00
 5.0830793E+00 1.1755711E+00 1.6834971E+00
 5.0843421E+00 1.2231423E+00 1.6704409E+00
 5.0877680E+00 1.2711344E+00 1.6550811E+00