# TIME = 3.000000
VARIABLES = X, Y, Z, FX, FY, FZ
ZONE N=29232 E=58212 F=FEPOINT ET=TRIANGLE
  0.000E+00  9.502E-01  1.243E-03 6.4037737E+00 1.7574871E-01 3.5461693E+00
  0.000E+00  1.000E+00  0.000E+00 6.3929983E+00 1.6047186E-06 3.5507520E+00
  4.318E-02  9.751E-01  3.108E-04 6.3942058E+00 8.6052448E-02 3.4767486E+00
  0.000E+00  1.050E+00  1.243E-03 6.4037745E+00 -1.7574599E-01 3.5461693E+00
  4.318E-02  1.025E+00  3.108E-04 6.3942062E+00 -8.6049453E-02 3.4767487E+00
  0.000E+00  1.100E+00  4.969E-03 6.4398661E+00 -3.5193640E-01 3.5328835E+00
  4.318E-02  1.075E+00  2.796E-03 6.4188690E+00 -2.5834362E-01 3.4679126E+00
  0.000E+00  1.149E+00  1.117E-02 6.5083425E+00 -5.2907311E-01 3.5117249E+00
  4.318E-02  1.124E+00  7.761E-03 6.4715379E+00 -4.3133488E-01 3.4509345E+00
  0.000E+00  1.198E+00  1.983E-02 6.6073444E+00 -7.0615844E-01 3.4826381E+00
  4.318E-02  1.174E+00  1.519E-02 6.5546566E+00 -6.0512779E-01 3.4264544E+00
  0.000E+00  1.247E+00  3.092E-02 6.7157247E+00 -8.7966932E-01 3.4437931E+00
  4.318E-02  1.223E+00  2.507E-02 6.6612760E+00 -7.7734213E-01 3.3935107E+00
  0.000E+00  1.295E+00  4.443E-02 6.8049900E+00 -1.0469009E+00 3.3935129E+00
  4.318E-02  1.271E+00  3.738E-02 6.7646322E+00 -9.4420474E-01 3.3497991E+00
  0.000E+00  1.342E+00  6.031E-02 6.8817490E+00 -1.2118964E+00 3.3352960E+00
  4.318E-02  1.318E+00  5.207E-02 6.8421206E+00 -1.1060574E+00 3.2959836E+00
  0.000E+00  1.388E+00  7.852E-02 7.0402940E+00 -1.3787304E+00 3.2723825E+00
  4.318E-02  1.365E+00  6.913E-02 6.9485554E+00 -1.2686403E+00 3.2367153E+00
  0.000E+00  1.434E+00  9.903E-02 7.1731523E+00 -1.5421336E+00 3.2008486E+00
  4.318E-02  1.411E+00  8.849E-02 7.1207989E+00 -1.4313334E+00 3.1715640E+00
  0.000E+00  1.478E+00  1.218E-01 7.2279576E+00 -1.6984176E+00 3.1187791E+00
  4.318E-02  1.456E+00  1.101E-01 7.2107110E+00 -1.5877059E+00 3.0960277E+00
  0.000E+00  1.521E+00  1.467E-01 7.3876590E+00 -1.8515161E+00 3.0301917E+00
  4.318E-02  1.500E+00  1.340E-01 7.2886338E+00 -1.7387659E+00 3.0120470E+00
  0.000E+00  1.563E+00  1.738E-01 7.4333239E+00 -2.0008457E+00 2.9345955E+00
  4.318E-02  1.543E+00  1.600E-01 7.4347075E+00 -1.8873456E+00 2.9222198E+00
  0.000E+00  1.604E+00  2.029E-01 7.5217075E+00 -2.1443648E+00 2.8309489E+00
  4.318E-02  1.584E+00  1.881E-01 7.4586476E+00 -2.0307310E+00 2.8244964E+00
  0.000E+00  1.643E+00  2.340E-01 7.5760680E+00 -2.2828579E+00 2.7205983E+00
  4.318E-02  1.623E+00  2.182E-01 7.5528660E+00 -2.1688095E+00 2.7196164E+00
  0.000E+00  1.680E+00  2.669E-01 7.5784696E+00 -2.4156429E+00 2.6034186E+00
  4.318E-02  1.662E+00  2.502E-01 7.5654665E+00 -2.3017905E+00 2.6082202E+00
  0.000E+00  1.716E+00  3.018E-01 7.6118333E+00 -2.5423678E+00 2.4797412E+00
  4.318E-02  1.698E+00  2.841E-01 7.6118714E+00 -2.4288702E+00 2.4901766E+00
  0.000E+00  1.750E+00  3.383E-01 7.5654308E+00 -2.6628833E+00 2.3499971E+00
  4.318E-02  1.733E+00  3.198E-01 7.5785098E+00 -2.5500114E+00 2.3660526E+00
  0.000E+00  1.782E+00  3.765E-01 7.5528328E+00 -2.7766115E+00 2.2142310E+00
  4.318E-02  1.766E+00  3.572E-01 7.5761101E+00 -2.6647817E+00 2.2359911E+00
  0.000E+00  1.812E+00  4.163E-01 7.4586168E+00 -2.8836927E+00 2.0732602E+00
  4.318E-02  1.797E+00  3.962E-01 7.5217512E+00 -2.7728713E+00 2.1003414E+00
  0.000E+00  1.840E+00  4.575E-01 7.4346776E+00 -2.9834548E+00 1.9268713E+00
  4.318E-02  1.826E+00  4.367E-01 7.4333695E+00 -2.8743876E+00 1.9597687E+00
  0.000E+00  1.866E+00  5.000E-01 7.2886037E+00 -3.0751720E+00 1.7751780E+00
  4.318E-02  1.853E+00  4.786E-01 7.3877066E+00 -2.9680191E+00 1.8135048E+00
  0.000E+00  1.890E+00  5.438E-01 7.2106834E+00 -3.1609113E+00 1.6209551E+00
  4.318E-02  1.878E+00  5.217E-01 7.2280070E+00 -3.0547976E+00 1.6635480E+00
  0.000E+00  1.912E+00  5.887E-01 7.1207757E+00 -3.2380209E+00 1.4613087E+00
  4.318E-02  1.901E+00  5.661E-01 7.1732013E+00 -3.1351705E+00 1.5104705E+00
  0.000E+00  1.931E+00  6.347E-01 6.9485359E+00 -3.3045461E+00 1.2952083E+00
  4.318E-02  1.921E+00  6.116E-01 7.0403398E+00 -3.2052363E+00 1.3504197E+00
  0.000E+00  1.948E+00  6.815E-01 6.8421018E+00 -3.3650557E+00 1.1292189E+00
  4.318E-02  1.940E+00  6.580E-01 6.8817941E+00 -3.2668672E+00 1.1870112E+00
  0.000E+00  1.963E+00  7.292E-01 6.7646127E+00 -3.4199917E+00 9.6397600E-01
  4.318E-02  1.956E+00  7.052E-01 6.8050398E+00 -3.3238823E+00 1.0254048E+00
  0.000E+00  1.975E+00  7.775E-01 6.6612555E+00 -3.4646194E+00 7.9361903E-01
  4.318E-02  1.969E+00  7.532E-01 6.7157819E+00 -3.3731276E+00 8.6160926E-01
  0.000E+00  1.985E+00  8.264E-01 6.5546360E+00 -3.4982547E+00 6.1779811E-01
  4.318E-02  1.980E+00  8.019E-01 6.6074043E+00 -3.4111779E+00 6.9166232E-01
  0.000E+00  1.992E+00  8.757E-01 6.4715190E+00 -3.5232460E+00 4.4036528E-01
  4.318E-02  1.989E+00  8.510E-01 6.5084000E+00 -3.4396684E+00 5.1821253E-01
  0.000E+00  1.997E+00  9.253E-01 6.4188538E+00 -3.5405800E+00 2.6375109E-01
  4.318E-02  1.995E+00  9.004E-01 6.4399203E+00 -3.4603923E+00 3.4471154E-01
  0.000E+00  2.000E+00  9.751E-01 6.3941941E+00 -3.5496024E+00 8.7850787E-02
  4.318E-02  1.999E+00  9.502E-01 6.4038282E+00 -3.4734072E+00 1.7213768E-01
  0.000E+00  2.000E+00  1.025E+00 6.3941940E+00 -3.5496013E+00 -8.7852867E-02
  4.318E-02  2.000E+00  1.000E+00 6.3930517E+00 -3.4778962E+00 -1.0078930E-06
  0.000E+00  1.997E+00  1.075E+00 6.4188535E+00 -3.5405765E+00 -2.6375313E-01
  4.318E-02  1.999E+00  1.050E+00 6.4038278E+00 -3.4734052E+00 -1.7213972E-01
  0.000E+00  1.992E+00  1.124E+00 6.4715184E+00 -3.5232408E+00 -4.4036732E-01
  4.318E-02  1.995E+00  1.100E+00 6.4399196E+00 -3.4603879E+00 -3.4471361E-01
  0.000E+00  1.985E+00  1.174E+00 6.5546350E+00 -3.4982522E+00 -6.1780017E-01
  4.318E-02  1.989E+00  1.149E+00 6.5083990E+00 -3.4396640E+00 -5.1821459E-01
  0.000E+00  1.975E+00  1.223E+00 6.6612541E+00 -3.4646256E+00 -7.9362107E-01
  4.318E-02  1.980E+00  1.198E+00 6.6074031E+00 -3.4111798E+00 -6.9166437E-01
  0.000E+00  1.963E+00  1.271E+00 6.7646110E+00 -3.4199978E+00 -9.6397792E-01
  4.318E-02  1.969E+00  1.247E+00 6.7157804E+00 -3.3731361E+00 -8.6161129E-01
  0.000E+00  1.948E+00  1.318E+00 6.8420998E+00 -3.3650446E+00 -1.1292207E+00
  4.318E-02  1.956E+00  1.295E+00 6.8050381E+00 -3.3238812E+00 -1.0254068E+00
  0.000E+00  1.931E+00  1.365E+00 6.9485337E+00 -3.3045373E+00 -1.2952102E+00
  4.318E-02  1.940E+00  1.342E+00 6.8817921E+00 -3.2668521E+00 -1.1870131E+00
  0.000E+00  1.912E+00  1.411E+00 7.1207727E+00 -3.2380345E+00 -1.4613105E+00
  4.318E-02  1.921E+00  1.388E+00 7.0403378E+00 -3.2052417E+00 -1.3504218E+00
  0.000E+00  1.890E+00  1.456E+00 7.2106809E+00 -3.1609067E+00 -1.6209570E+00
  4.318E-02  1.901E+00  1.434E+00 7.1731990E+00 -3.1351799E+00 -1.5104725E+00
  0.000E+00  1.866E+00  1.500E+00 7.2886010E+00 -3.0751633E+00 -1.7751798E+00
  4.318E-02  1.878E+00  1.478E+00 7.2280043E+00 -3.0547837E+00 -1.6635497E+00
  0.000E+00  1.840E+00  1.543E+00 7.4346747E+00 -2.9834652E+00 -1.9268734E+00
  4.318E-02  1.853E+00  1.521E+00 7.3877037E+00 -2.9680245E+00 -1.8135070E+00
  0.000E+00  1.812E+00  1.584E+00 7.4586138E+00 -2.8836875E+00 -2.0732619E+00
  4.318E-02  1.826E+00  1.563E+00 7.4333664E+00 -2.8743902E+00 -1.9597706E+00
  0.000E+00  1.782E+00  1.623E+00 7.5528296E+00 -2.7766150E+00 -2.2142330E+00
  4.318E-02  1.797E+00  1.604E+00 7.5217480E+00 -2.7728684E+00 -2.1003433E+00
  0.000E+00  1.750E+00  1.662E+00 7.5654276E+00 -2.6628846E+00 -2.3499989E+00
  4.318E-02  1.766E+00  1.643E+00 7.5761066E+00 -2.6647869E+00 -2.2359932E+00
  0.000E+00  1.716E+00  1.698E+00 7.6118300E+00 -2.5423686E+00 -2.4797431E+00
  4.318E-02  1.733E+00  1.680E+00 7.5785062E+00 -2.5500095E+00 -2.3660543E+00
  0.000E+00  1.680E+00  1.733E+00 7.5784660E+00 -2.4156447E+00 -2.6034204E+00
  4.318E-02  1.698E+00  1.716E+00 7.6118676E+00 -2.4288733E+00 -2.4901787E+00
  0.000E+00  1.643E+00  1.766E+00 7.5760640E+00 -2.2828576E+00 -2.7206001E+00
  4.318E-02  1.662E+00  1.750E+00 7.5654628E+00 -2.3017906E+00 -2.6082222E+00
  0.000E+00  1.604E+00  1.797E+00 7.5217028E+00 -2.1443655E+00 -2.8309507E+00
  4.318E-02  1.623E+00  1.782E+00 7.5528627E+00 -2.1688112E+00 -2.7196185E+00
  0.000E+00  1.563E+00  1.826E+00 7.4333197E+00 -2.0008464E+00 -2.9345975E+00
  4.318E-02  1.584E+00  1.812E+00 7.4586445E+00 -2.0307314E+00 -2.8244983E+00
  0.000E+00  1.521E+00  1.853E+00 7.3876576E+00 -1.8515194E+00 -3.0301941E+00
  4.318E-02  1.543E+00  1.840E+00 7.4347032E+00 -1.8873458E+00 -2.9222214E+00
  0.000E+00  1.478E+00  1.878E+00 7.2279576E+00 -1.6984193E+00 -3.1187812E+00
  4.318E-02  1.500E+00  1.866E+00 7.2886272E+00 -1.7387647E+00 -3.0120486E+00
  0.000E+00  1.434E+00  1.901E+00 7.1731483E+00 -1.5421322E+00 -3.2008496E+00
  4.318E-02  1.456E+00  1.890E+00 7.2107047E+00 -1.5877069E+00 -3.0960300E+00
  0.000E+00  1.388E+00  1.921E+00 7.0402817E+00 -1.3787242E+00 -3.2723823E+00
  4.318E-02  1.411E+00  1.912E+00 7.1207973E+00 -1.4313364E+00 -3.1715674E+00
  0.000E+00  1.342E+00  1.940E+00 6.8817341E+00 -1.2118926E+00 -3.3352960E+00
  4.318E-02  1.365E+00  1.931E+00 6.9485589E+00 -1.2686444E+00 -3.2367189E+00
  0.000E+00  1.295E+00  1.956E+00 6.8049822E+00 -1.0469018E+00 -3.3935139E+00
  4.318E-02  1.318E+00  1.948E+00 6.8421230E+00 -1.1060602E+00 -3.2959864E+00
  0.000E+00  1.247E+00  1.969E+00 6.7157276E+00 -8.7967430E-01 -3.4437954E+00
  4.318E-02  1.271E+00  1.963E+00 6.7646276E+00 -9.4420475E-01 -3.3498010E+00
  0.000E+00  1.198E+00  1.980E+00 6.6073515E+00 -7.0616411E-01 -3.4826412E+00
  4.318E-02  1.223E+00  1.975E+00 6.6612654E+00 -7.7734001E-01 -3.3935124E+00
  0.000E+00  1.149E+00  1.989E+00 6.5083457E+00 -5.2907848E-01 -3.5117285E+00
  4.318E-02  1.174E+00  1.985E+00 6.5546458E+00 -6.0512454E-01 -3.4264558E+00
  0.000E+00  1.100E+00  1.995E+00 6.4398621E+00 -3.5194059E-01 -3.5328876E+00
  4.318E-02  1.124E+00  1.992E+00 6.4715312E+00 -4.3133226E-01 -3.4509356E+00
  0.000E+00  1.050E+00  1.999E+00 6.4037650E+00 -1.7574829E-01 -3.5461739E+00
  4.318E-02  1.075E+00  1.997E+00 6.4188667E+00 -2.5834157E-01 -3.4679134E+00
  0.000E+00  1.000E+00  2.000E+00 6.3929869E+00 7.6878331E-07 -3.5507567E+00
  4.318E-02  1.025E+00  2.000E+00 6.3942064E+00 -8.6049246E-02 -3.4767492E+00
  0.000E+00  9.502E-01  1.999E+00 6.4037643E+00 1.7575031E-01 -3.5461739E+00
  4.318E-02  9.751E-01  2.000E+00 6.3942061E+00 8.6050962E-02 -3.4767492E+00
  0.000E+00  9.004E-01  1.995E+00 6.4398606E+00 3.5194232E-01 -3.5328876E+00
  4.318E-02  9.253E-01  1.997E+00 6.4188656E+00 2.5834358E-01 -3.4679134E+00
  0.000E+00  8.510E-01  1.989E+00 6.5083435E+00 5.2908021E-01 -3.5117286E+00
  4.318E-02  8.757E-01  1.992E+00 6.4715294E+00 4.3133380E-01 -3.4509356E+00
  0.000E+00  8.019E-01  1.980E+00 6.6073485E+00 7.0616606E-01 -3.4826412E+00
  4.318E-02  8.264E-01  1.985E+00 6.5546432E+00 6.0512650E-01 -3.4264559E+00
  0.000E+00  7.532E-01  1.969E+00 6.7157239E+00 8.7967598E-01 -3.4437954E+00
  4.318E-02  7.775E-01  1.975E+00 6.6612622E+00 7.7734173E-01 -3.3935124E+00
  0.000E+00  7.052E-01  1.956E+00 6.8049779E+00 1.0469037E+00 -3.3935140E+00
  4.318E-02  7.292E-01  1.963E+00 6.7646236E+00 9.4420655E-01 -3.3498011E+00
  0.000E+00  6.580E-01  1.940E+00 6.8817292E+00 1.2118942E+00 -3.3352960E+00
  4.318E-02  6.815E-01  1.948E+00 6.8421184E+00 1.1060618E+00 -3.2959864E+00
  0.000E+00  6.116E-01  1.921E+00 7.0402763E+00 1.3787265E+00 -3.2723825E+00
  4.318E-02  6.347E-01  1.931E+00 6.9485537E+00 1.2686464E+00 -3.2367189E+00
  0.000E+00  5.661E-01  1.901E+00 7.1731423E+00 1.5421333E+00 -3.2008497E+00
  4.318E-02  5.887E-01  1.912E+00 7.1207913E+00 1.4313380E+00 -3.1715672E+00
  0.000E+00  5.217E-01  1.878E+00 7.2279511E+00 1.6984214E+00 -3.1187814E+00
  4.318E-02  5.438E-01  1.890E+00 7.2106984E+00 1.5877083E+00 -3.0960302E+00
  0.000E+00  4.786E-01  1.853E+00 7.3876506E+00 1.8515209E+00 -3.0301942E+00
  4.318E-02  5.000E-01  1.866E+00 7.2886204E+00 1.7387669E+00 -3.0120488E+00
  0.000E+00  4.367E-01  1.826E+00 7.4333122E+00 2.0008487E+00 -2.9345977E+00
  4.318E-02  4.575E-01  1.840E+00 7.4346959E+00 1.8873473E+00 -2.9222215E+00
  0.000E+00  3.962E-01  1.797E+00 7.5216950E+00 2.1443667E+00 -2.8309508E+00
  4.318E-02  4.163E-01  1.812E+00 7.4586369E+00 2.0307336E+00 -2.8244985E+00
  0.000E+00  3.572E-01  1.766E+00 7.5760558E+00 2.2828598E+00 -2.7206002E+00
  4.318E-02  3.765E-01  1.782E+00 7.5528547E+00 2.1688123E+00 -2.7196186E+00
  0.000E+00  3.198E-01  1.733E+00 7.5784576E+00 2.4156452E+00 -2.6034206E+00
  4.318E-02  3.383E-01  1.750E+00 7.5654545E+00 2.3017931E+00 -2.6082224E+00
  0.000E+00  2.841E-01  1.698E+00 7.6118213E+00 2.5423703E+00 -2.4797433E+00
  4.318E-02  3.018E-01  1.716E+00 7.6118590E+00 2.4288725E+00 -2.4901787E+00
  0.000E+00  2.502E-01  1.662E+00 7.5654186E+00 2.6628859E+00 -2.3499992E+00
  4.318E-02  2.669E-01  1.680E+00 7.5784973E+00 2.5500136E+00 -2.3660546E+00
  0.000E+00  2.182E-01  1.623E+00 7.5528205E+00 2.7766140E+00 -2.2142331E+00
  4.318E-02  2.340E-01  1.643E+00 7.5760976E+00 2.6647841E+00 -2.2359933E+00
  0.000E+00  1.881E-01  1.584E+00 7.4586045E+00 2.8836950E+00 -2.0732623E+00
  4.318E-02  2.029E-01  1.604E+00 7.5217387E+00 2.7728737E+00 -2.1003435E+00
  0.000E+00  1.600E-01  1.543E+00 7.4346652E+00 2.9834571E+00 -1.9268734E+00
  4.318E-02  1.738E-01  1.563E+00 7.4333570E+00 2.8743900E+00 -1.9597708E+00
  0.000E+00  1.340E-01  1.500E+00 7.2885915E+00 3.0751743E+00 -1.7751801E+00
  4.318E-02  1.467E-01  1.521E+00 7.3876942E+00 2.9680215E+00 -1.8135070E+00
  0.000E+00  1.101E-01  1.456E+00 7.2106713E+00 3.1609135E+00 -1.6209573E+00
  4.318E-02  1.218E-01  1.478E+00 7.2279947E+00 3.0548001E+00 -1.6635502E+00
  0.000E+00  8.849E-02  1.411E+00 7.1207635E+00 3.2380229E+00 -1.4613108E+00
  4.318E-02  9.903E-02  1.434E+00 7.1731893E+00 3.1351730E+00 -1.5104727E+00
  0.000E+00  6.913E-02  1.365E+00 6.9485241E+00 3.3045484E+00 -1.2952105E+00
  4.318E-02  7.852E-02  1.388E+00 7.0403280E+00 3.2052388E+00 -1.3504220E+00
  0.000E+00  5.207E-02  1.318E+00 6.8420902E+00 3.3650579E+00 -1.1292210E+00
  4.318E-02  6.031E-02  1.342E+00 6.8817825E+00 3.2668696E+00 -1.1870135E+00
  0.000E+00  3.738E-02  1.271E+00 6.7646014E+00 3.4199938E+00 -9.6397821E-01
  4.318E-02  4.443E-02  1.295E+00 6.8050284E+00 3.3238847E+00 -1.0254071E+00
  0.000E+00  2.507E-02  1.223E+00 6.6612444E+00 3.4646216E+00 -7.9362133E-01
  4.318E-02  3.092E-02  1.247E+00 6.7157708E+00 3.3731300E+00 -8.6161159E-01
  0.000E+00  1.519E-02  1.174E+00 6.5546254E+00 3.4982569E+00 -6.1780046E-01
  4.318E-02  1.983E-02  1.198E+00 6.6073935E+00 3.4111802E+00 -6.9166464E-01
  0.000E+00  7.761E-03  1.124E+00 6.4715087E+00 3.5232483E+00 -4.4036762E-01
  4.318E-02  1.117E-02  1.149E+00 6.5083893E+00 3.4396707E+00 -5.1821489E-01
  0.000E+00  2.796E-03  1.075E+00 6.4188439E+00 3.5405822E+00 -2.6375346E-01
  4.318E-02  4.969E-03  1.100E+00 6.4399099E+00 3.4603946E+00 -3.4471393E-01
  0.000E+00  3.108E-04  1.025E+00 6.3941844E+00 3.5496046E+00 -8.7853209E-02
  4.318E-02  1.243E-03  1.050E+00 6.4038181E+00 3.4734095E+00 -1.7214005E-01
  0.000E+00  3.108E-04  9.751E-01 6.3941844E+00 3.5496036E+00 8.7850425E-02
  4.318E-02  0.000E+00  1.000E+00 6.3930420E+00 3.4778984E+00 -1.3610992E-06
  0.000E+00  2.796E-03  9.253E-01 6.4188441E+00 3.5405788E+00 2.6375070E-01
  4.318E-02  1.243E-03  9.502E-01 6.4038186E+00 3.4734074E+00 1.7213730E-01
  0.000E+00  7.761E-03  8.757E-01 6.4715093E+00 3.5232432E+00 4.4036488E-01
  4.318E-02  4.969E-03  9.004E-01 6.4399107E+00 3.4603900E+00 3.4471114E-01
  0.000E+00  1.519E-02  8.264E-01 6.5546264E+00 3.4982546E+00 6.1779768E-01
  4.318E-02  1.117E-02  8.510E-01 6.5083903E+00 3.4396661E+00 5.1821210E-01
  0.000E+00  2.507E-02  7.775E-01 6.6612458E+00 3.4646279E+00 7.9361859E-01
  4.318E-02  1.983E-02  8.019E-01 6.6073947E+00 3.4111818E+00 6.9166188E-01
  0.000E+00  3.738E-02  7.292E-01 6.7646031E+00 3.4200002E+00 9.6397549E-01
  4.318E-02  3.092E-02  7.532E-01 6.7157723E+00 3.3731381E+00 8.6160876E-01
  0.000E+00  5.207E-02  6.815E-01 6.8420921E+00 3.3650469E+00 1.1292183E+00
  4.318E-02  4.443E-02  7.052E-01 6.8050302E+00 3.3238832E+00 1.0254043E+00
  0.000E+00  6.913E-02  6.347E-01 6.9485263E+00 3.3045395E+00 1.2952077E+00
  4.318E-02  6.031E-02  6.580E-01 6.8817845E+00 3.2668541E+00 1.1870106E+00
  0.000E+00  8.849E-02  5.887E-01 7.1207657E+00 3.2380370E+00 1.4613082E+00
  4.318E-02  7.852E-02  6.116E-01 7.0403304E+00 3.2052437E+00 1.3504193E+00
  0.000E+00  1.101E-01  5.438E-01 7.2106739E+00 3.1609090E+00 1.6209545E+00
  4.318E-02  9.903E-02  5.661E-01 7.1731918E+00 3.1351819E+00 1.5104699E+00
  0.000E+00  1.340E-01  5.000E-01 7.2885943E+00 3.0751656E+00 1.7751773E+00
  4.318E-02  1.218E-01  5.217E-01 7.2279975E+00 3.0547858E+00 1.6635472E+00
  0.000E+00  1.600E-01  4.575E-01 7.4346682E+00 2.9834674E+00 1.9268709E+00
  4.318E-02  1.467E-01  4.786E-01 7.3876972E+00 2.9680266E+00 1.8135044E+00
  0.000E+00  1.881E-01  4.163E-01 7.4586076E+00 2.8836897E+00 2.0732594E+00
  4.318E-02  1.738E-01  4.367E-01 7.4333602E+00 2.8743923E+00 1.9597680E+00
  0.000E+00  2.182E-01  3.765E-01 7.5528237E+00 2.7766172E+00 2.2142305E+00
  4.318E-02  2.029E-01  3.962E-01 7.5217420E+00 2.7728705E+00 2.1003407E+00
  0.000E+00  2.502E-01  3.383E-01 7.5654219E+00 2.6628866E+00 2.3499964E+00
  4.318E-02  2.340E-01  3.572E-01 7.5761010E+00 2.6647891E+00 2.2359906E+00
  0.000E+00  2.841E-01  3.018E-01 7.6118246E+00 2.5423706E+00 2.4797406E+00
  4.318E-02  2.669E-01  3.198E-01 7.5785010E+00 2.5500117E+00 2.3660518E+00
  0.000E+00  3.198E-01  2.669E-01 7.5784612E+00 2.4156470E+00 2.6034179E+00
  4.318E-02  3.018E-01  2.841E-01 7.6118628E+00 2.4288755E+00 2.4901761E+00
  0.000E+00  3.572E-01  2.340E-01 7.5760599E+00 2.2828603E+00 2.7205977E+00
  4.318E-02  3.383E-01  2.502E-01 7.5654581E+00 2.3017926E+00 2.6082196E+00
  0.000E+00  3.962E-01  2.029E-01 7.5216997E+00 2.1443682E+00 2.8309483E+00
  4.318E-02  3.765E-01  2.182E-01 7.5528581E+00 2.1688131E+00 2.7196158E+00
  0.000E+00  4.367E-01  1.738E-01 7.4333164E+00 2.0008481E+00 2.9345949E+00
  4.318E-02  4.163E-01  1.881E-01 7.4586400E+00 2.0307334E+00 2.8244958E+00
  0.000E+00  4.786E-01  1.467E-01 7.3876520E+00 1.8515193E+00 3.0301911E+00
  4.318E-02  4.575E-01  1.600E-01 7.4347003E+00 1.8873487E+00 2.9222193E+00
  0.000E+00  5.217E-01  1.218E-01 7.2279511E+00 1.6984201E+00 3.1187786E+00
  4.318E-02  5.000E-01  1.340E-01 7.2886270E+00 1.7387684E+00 3.0120465E+00
  0.000E+00  5.661E-01  9.903E-02 7.1731462E+00 1.5421372E+00 3.2008481E+00
  4.318E-02  5.438E-01  1.101E-01 7.2107047E+00 1.5877092E+00 3.0960272E+00
  0.000E+00  6.116E-01  7.852E-02 7.0402885E+00 1.3787328E+00 3.2723820E+00
  4.318E-02  5.887E-01  8.849E-02 7.1207929E+00 1.4313362E+00 3.1715634E+00
  0.000E+00  6.580E-01  6.031E-02 6.8817441E+00 1.2118994E+00 3.3352956E+00
  4.318E-02  6.347E-01  6.913E-02 6.9485502E+00 1.2686429E+00 3.2367150E+00
  0.000E+00  7.052E-01  4.443E-02 6.8049857E+00 1.0469038E+00 3.3935125E+00
  4.318E-02  6.815E-01  5.207E-02 6.8421160E+00 1.1060604E+00 3.2959833E+00
  0.000E+00  7.532E-01  3.092E-02 6.7157211E+00 8.7967237E-01 3.4437929E+00
  4.318E-02  7.292E-01  3.738E-02 6.7646282E+00 9.4420762E-01 3.3497988E+00
  0.000E+00  8.019E-01  1.983E-02 6.6073415E+00 7.0616121E-01 3.4826379E+00
  4.318E-02  7.775E-01  2.507E-02 6.6612727E+00 7.7734510E-01 3.3935105E+00
  0.000E+00  8.510E-01  1.117E-02 6.5083403E+00 5.2907611E-01 3.5117247E+00
  4.318E-02  8.264E-01  1.519E-02 6.5546540E+00 6.0513052E-01 3.4264542E+00
  0.000E+00  9.004E-01  4.969E-03 6.4398646E+00 3.5193941E-01 3.5328833E+00
  4.318E-02  8.757E-01  7.761E-03 6.4715360E+00 4.3133805E-01 3.4509343E+00
  4.318E-02  9.253E-01  2.796E-03 6.4188678E+00 2.5834632E-01 3.4679125E+00
  1.000E+01  1.050E+00  1.243E-03 6.4037745E+00 -1.7574599E-01 3.5461693E+00
  1.000E+01  1.000E+00  5.551E-16 6.3929983E+00 1.6047186E-06 3.5507520E+00
  9.957E+00  1.025E+00  3.108E-04 6.3941629E+00 -8.9660931E-02 3.6227212E+00
  1.000E+01  9.502E-01  1.243E-03 6.4037737E+00 1.7574871E-01 3.5461693E+00
  9.957E+00  9.751E-01  3.108E-04 6.3941626E+00 8.9663969E-02 3.6227212E+00
  1.000E+01  9.004E-01  4.969E-03 6.4398646E+00 3.5193941E-01 3.5328833E+00
  9.957E+00  9.253E-01  2.796E-03 6.4188246E+00 2.6919029E-01 3.6135141E+00
  1.000E+01  8.510E-01  1.117E-02 6.5083403E+00 5.2907611E-01 3.5117247E+00
  9.957E+00  8.757E-01  7.761E-03 6.4714925E+00 4.4944674E-01 3.5958229E+00
  1.000E+01  8.019E-01  1.983E-02 6.6073415E+00 7.0616121E-01 3.4826379E+00
  9.957E+00  8.264E-01  1.519E-02 6.5546105E+00 6.3053759E-01 3.5703149E+00
  1.000E+01  7.532E-01  3.092E-02 6.7157211E+00 8.7967237E-01 3.4437929E+00
  9.957E+00  7.775E-01  2.507E-02 6.6612294E+00 8.0998202E-01 3.5359878E+00
  1.000E+01  7.052E-01  4.443E-02 6.8049857E+00 1.0469038E+00 3.3935125E+00
  9.957E+00  7.292E-01  3.738E-02 6.7645855E+00 9.8384931E-01 3.4904404E+00
  1.000E+01  6.580E-01  6.031E-02 6.8817441E+00 1.2118994E+00 3.3352956E+00
  9.957E+00  6.815E-01  5.207E-02 6.8420739E+00 1.1524973E+00 3.4343653E+00
  1.000E+01  6.116E-01  7.852E-02 7.0402885E+00 1.3787328E+00 3.2723820E+00
  9.957E+00  6.347E-01  6.913E-02 6.9485082E+00 1.3219065E+00 3.3726087E+00
  1.000E+01  5.661E-01  9.903E-02 7.1731462E+00 1.5421372E+00 3.2008481E+00
  9.957E+00  5.887E-01  8.849E-02 7.1207496E+00 1.4914294E+00 3.3047217E+00
  1.000E+01  5.217E-01  1.218E-01 7.2279511E+00 1.6984201E+00 3.1187786E+00
  9.957E+00  5.438E-01  1.101E-01 7.2106617E+00 1.6543676E+00 3.2260141E+00
  1.000E+01  4.786E-01  1.467E-01 7.3876520E+00 1.8515193E+00 3.0301911E+00
  9.957E+00  5.000E-01  1.340E-01 7.2885847E+00 1.8117701E+00 3.1385065E+00
  1.000E+01  4.367E-01  1.738E-01 7.4333164E+00 2.0008481E+00 2.9345949E+00
  9.957E+00  4.575E-01  1.600E-01 7.4346584E+00 1.9665892E+00 3.0449076E+00
  1.000E+01  3.962E-01  2.029E-01 7.5216997E+00 2.1443682E+00 2.8309483E+00
  9.957E+00  4.163E-01  1.881E-01 7.4585985E+00 2.1159930E+00 2.9430817E+00
  1.000E+01  3.572E-01  2.340E-01 7.5760599E+00 2.2828603E+00 2.7205977E+00
  9.957E+00  3.765E-01  2.182E-01 7.5528164E+00 2.2598684E+00 2.8337989E+00
  1.000E+01  3.198E-01  2.669E-01 7.5784612E+00 2.4156470E+00 2.6034179E+00
  9.957E+00  3.383E-01  2.502E-01 7.5654169E+00 2.3984307E+00 2.7177264E+00
  1.000E+01  2.841E-01  3.018E-01 7.6118246E+00 2.5423706E+00 2.4797406E+00
  9.957E+00  3.018E-01  2.841E-01 7.6118216E+00 2.5308489E+00 2.5947271E+00
  1.000E+01  2.502E-01  3.383E-01 7.5654219E+00 2.6628866E+00 2.3499964E+00
  9.957E+00  2.669E-01  3.198E-01 7.5784602E+00 2.6570710E+00 2.4653912E+00
  1.000E+01  2.182E-01  3.765E-01 7.5528237E+00 2.7766172E+00 2.2142305E+00
  9.957E+00  2.340E-01  3.572E-01 7.5760603E+00 2.7766677E+00 2.3298694E+00
  1.000E+01  1.881E-01  4.163E-01 7.4586076E+00 2.8836897E+00 2.0732594E+00
  9.957E+00  2.029E-01  3.962E-01 7.5217016E+00 2.8892876E+00 2.1885236E+00
  1.000E+01  1.600E-01  4.575E-01 7.4346682E+00 2.9834674E+00 1.9268709E+00
  9.957E+00  1.738E-01  4.367E-01 7.4333198E+00 2.9950724E+00 2.0420478E+00
  1.000E+01  1.340E-01  5.000E-01 7.2885943E+00 3.0751656E+00 1.7751773E+00
  9.957E+00  1.467E-01  4.786E-01 7.3876569E+00 3.0926380E+00 1.8896432E+00
  1.000E+01  1.101E-01  5.438E-01 7.2106739E+00 3.1609090E+00 1.6209545E+00
  9.957E+00  1.218E-01  5.217E-01 7.2279578E+00 3.1830397E+00 1.7333910E+00
  1.000E+01  8.849E-02  5.887E-01 7.1207657E+00 3.2380370E+00 1.4613082E+00
  9.957E+00  9.903E-02  5.661E-01 7.1731520E+00 3.2668110E+00 1.5738875E+00
  1.000E+01  6.913E-02  6.347E-01 6.9485263E+00 3.3045395E+00 1.2952077E+00
  9.957E+00  7.852E-02  6.116E-01 7.0402907E+00 3.3398145E+00 1.4071158E+00
  1.000E+01  5.207E-02  6.815E-01 6.8420921E+00 3.3650469E+00 1.1292183E+00
  9.957E+00  6.031E-02  6.580E-01 6.8817453E+00 3.4040120E+00 1.2368476E+00
  1.000E+01  3.738E-02  7.292E-01 6.7646031E+00 3.4200002E+00 9.6397549E-01
  9.957E+00  4.443E-02  7.052E-01 6.8049910E+00 3.4634356E+00 1.0684575E+00
  1.000E+01  2.507E-02  7.775E-01 6.6612458E+00 3.4646279E+00 7.9361859E-01
  9.957E+00  3.092E-02  7.532E-01 6.7157330E+00 3.5147585E+00 8.9778455E-01
  1.000E+01  1.519E-02  8.264E-01 6.5546264E+00 3.4982546E+00 6.1779768E-01
  9.957E+00  1.983E-02  8.019E-01 6.6073554E+00 3.5543996E+00 7.2070013E-01
  1.000E+01  7.761E-03  8.757E-01 6.4715093E+00 3.5232432E+00 4.4036488E-01
  9.957E+00  1.117E-02  8.510E-01 6.5083512E+00 3.5840801E+00 5.3996836E-01
  1.000E+01  2.796E-03  9.253E-01 6.4188441E+00 3.5405788E+00 2.6375070E-01
  9.957E+00  4.969E-03  9.004E-01 6.4398719E+00 3.6056744E+00 3.5918478E-01
  1.000E+01  3.108E-04  9.751E-01 6.3941844E+00 3.5496036E+00 8.7850425E-02
  9.957E+00  1.243E-03  9.502E-01 6.4037788E+00 3.6192375E+00 1.7936650E-01
  1.000E+01  3.108E-04  1.025E+00 6.3941844E+00 3.5496046E+00 -8.7853209E-02
  9.957E+00  0.000E+00  1.000E+00 6.3930034E+00 3.6239182E+00 -1.3659789E-06
  1.000E+01  2.796E-03  1.075E+00 6.4188439E+00 3.5405822E+00 -2.6375346E-01
  9.957E+00  1.243E-03  1.050E+00 6.4037783E+00 3.6192397E+00 -1.7936924E-01
  1.000E+01  7.761E-03  1.124E+00 6.4715087E+00 3.5232483E+00 -4.4036762E-01
  9.957E+00  4.969E-03  1.100E+00 6.4398712E+00 3.6056793E+00 -3.5918752E-01
  1.000E+01  1.519E-02  1.174E+00 6.5546254E+00 3.4982569E+00 -6.1780046E-01
  9.957E+00  1.117E-02  1.149E+00 6.5083503E+00 3.5840849E+00 -5.3997107E-01
  1.000E+01  2.507E-02  1.223E+00 6.6612444E+00 3.4646216E+00 -7.9362133E-01
  9.957E+00  1.983E-02  1.198E+00 6.6073541E+00 3.5543979E+00 -7.2070283E-01
  1.000E+01  3.738E-02  1.271E+00 6.7646014E+00 3.4199938E+00 -9.6397821E-01
  9.957E+00  3.092E-02  1.247E+00 6.7157315E+00 3.5147500E+00 -8.9778733E-01
  1.000E+01  5.207E-02  1.318E+00 6.8420902E+00 3.3650579E+00 -1.1292210E+00
  9.957E+00  4.443E-02  1.295E+00 6.8049893E+00 3.4634372E+00 -1.0684603E+00
  1.000E+01  6.913E-02  1.365E+00 6.9485241E+00 3.3045484E+00 -1.2952105E+00
  9.957E+00  6.031E-02  1.342E+00 6.8817433E+00 3.4040281E+00 -1.2368505E+00
  1.000E+01  8.849E-02  1.411E+00 7.1207635E+00 3.2380229E+00 -1.4613108E+00
  9.957E+00  7.852E-02  1.388E+00 7.0402886E+00 3.3398095E+00 -1.4071187E+00
  1.000E+01  1.101E-01  1.456E+00 7.2106713E+00 3.1609135E+00 -1.6209573E+00
  9.957E+00  9.903E-02  1.434E+00 7.1731497E+00 3.2668018E+00 -1.5738901E+00
  1.000E+01  1.340E-01  1.500E+00 7.2885915E+00 3.0751743E+00 -1.7751801E+00
  9.957E+00  1.218E-01  1.478E+00 7.2279550E+00 3.1830546E+00 -1.7333940E+00
  1.000E+01  1.600E-01  1.543E+00 7.4346652E+00 2.9834571E+00 -1.9268734E+00
  9.957E+00  1.467E-01  1.521E+00 7.3876539E+00 3.0926327E+00 -1.8896458E+00
  1.000E+01  1.881E-01  1.584E+00 7.4586045E+00 2.8836950E+00 -2.0732623E+00
  9.957E+00  1.738E-01  1.563E+00 7.4333167E+00 2.9950700E+00 -2.0420506E+00
  1.000E+01  2.182E-01  1.623E+00 7.5528205E+00 2.7766140E+00 -2.2142331E+00
  9.957E+00  2.029E-01  1.604E+00 7.5216983E+00 2.8892908E+00 -2.1885263E+00
  1.000E+01  2.502E-01  1.662E+00 7.5654186E+00 2.6628859E+00 -2.3499992E+00
  9.957E+00  2.340E-01  1.643E+00 7.5760568E+00 2.7766624E+00 -2.3298720E+00
  1.000E+01  2.841E-01  1.698E+00 7.6118213E+00 2.5423703E+00 -2.4797433E+00
  9.957E+00  2.669E-01  1.680E+00 7.5784565E+00 2.6570729E+00 -2.4653941E+00
  1.000E+01  3.198E-01  1.733E+00 7.5784576E+00 2.4156452E+00 -2.6034206E+00
  9.957E+00  3.018E-01  1.716E+00 7.6118179E+00 2.5308457E+00 -2.5947297E+00
  1.000E+01  3.572E-01  1.766E+00 7.5760558E+00 2.2828598E+00 -2.7206002E+00
  9.957E+00  3.383E-01  1.750E+00 7.5654133E+00 2.3984313E+00 -2.7177292E+00
  1.000E+01  3.962E-01  1.797E+00 7.5216950E+00 2.1443667E+00 -2.8309508E+00
  9.957E+00  3.765E-01  1.782E+00 7.5528131E+00 2.2598677E+00 -2.8338016E+00
  1.000E+01  4.367E-01  1.826E+00 7.4333122E+00 2.0008487E+00 -2.9345977E+00
  9.957E+00  4.163E-01  1.812E+00 7.4585951E+00 2.1159930E+00 -2.9430844E+00
  1.000E+01  4.786E-01  1.853E+00 7.3876506E+00 1.8515209E+00 -3.0301942E+00
  9.957E+00  4.575E-01  1.840E+00 7.4346538E+00 1.9665873E+00 -3.0449101E+00
  1.000E+01  5.217E-01  1.878E+00 7.2279511E+00 1.6984214E+00 -3.1187814E+00
  9.957E+00  5.000E-01  1.866E+00 7.2885787E+00 1.8117684E+00 -3.1385088E+00
  1.000E+01  5.661E-01  1.901E+00 7.1731423E+00 1.5421333E+00 -3.2008497E+00
  9.957E+00  5.438E-01  1.890E+00 7.2106566E+00 1.6543675E+00 -3.2260166E+00
  1.000E+01  6.116E-01  1.921E+00 7.0402763E+00 1.3787265E+00 -3.2723825E+00
  9.957E+00  5.887E-01  1.912E+00 7.1207485E+00 1.4914326E+00 -3.3047247E+00
  1.000E+01  6.580E-01  1.940E+00 6.8817292E+00 1.2118942E+00 -3.3352960E+00
  9.957E+00  6.347E-01  1.931E+00 6.9485107E+00 1.3219105E+00 -3.3726126E+00
  1.000E+01  7.052E-01  1.956E+00 6.8049779E+00 1.0469037E+00 -3.3935140E+00
  9.957E+00  6.815E-01  1.948E+00 6.8420745E+00 1.1524973E+00 -3.4343690E+00
  1.000E+01  7.532E-01  1.969E+00 6.7157239E+00 8.7967598E-01 -3.4437954E+00
  9.957E+00  7.292E-01  1.963E+00 6.7645797E+00 9.8384602E-01 -3.4904433E+00
  1.000E+01  8.019E-01  1.980E+00 6.6073485E+00 7.0616606E-01 -3.4826412E+00
  9.957E+00  7.775E-01  1.975E+00 6.6612190E+00 8.0997771E-01 -3.5359898E+00
  1.000E+01  8.510E-01  1.989E+00 6.5083435E+00 5.2908021E-01 -3.5117286E+00
  9.957E+00  8.264E-01  1.985E+00 6.5546005E+00 6.3053436E-01 -3.5703163E+00
  1.000E+01  9.004E-01  1.995E+00 6.4398606E+00 3.5194232E-01 -3.5328876E+00
  9.957E+00  8.757E-01  1.992E+00 6.4714865E+00 4.4944402E-01 -3.5958239E+00
  1.000E+01  9.502E-01  1.999E+00 6.4037643E+00 1.7575031E-01 -3.5461739E+00
  9.957E+00  9.253E-01  1.997E+00 6.4188229E+00 2.6918876E-01 -3.6135149E+00
  1.000E+01  1.000E+00  2.000E+00 6.3929869E+00 7.6878331E-07 -3.5507567E+00
  9.957E+00  9.751E-01  2.000E+00 6.3941632E+00 8.9662901E-02 -3.6227219E+00
  1.000E+01  1.050E+00  1.999E+00 6.4037650E+00 -1.7574829E-01 -3.5461739E+00
  9.957E+00  1.025E+00  2.000E+00 6.3941636E+00 -8.9661163E-02 -3.6227219E+00
  1.000E+01  1.100E+00  1.995E+00 6.4398621E+00 -3.5194059E-01 -3.5328876E+00
  9.957E+00  1.075E+00  1.997E+00 6.4188240E+00 -2.6918673E-01 -3.6135149E+00
  1.000E+01  1.149E+00  1.989E+00 6.5083457E+00 -5.2907848E-01 -3.5117285E+00
  9.957E+00  1.124E+00  1.992E+00 6.4714884E+00 -4.4944246E-01 -3.5958239E+00
  1.000E+01  1.198E+00  1.980E+00 6.6073515E+00 -7.0616411E-01 -3.4826412E+00
  9.957E+00  1.174E+00  1.985E+00 6.5546031E+00 -6.3053237E-01 -3.5703162E+00