# TIME = 8.400000
variables = x, y, z
zone N=5762 E=11520 F=FEPOINT ET=TRIANGLE
 8.5448940E+00 1.4839996E+00 1.7829483E+00
 8.5448940E+00 1.4839992E+00 2.1705193E-01
 8.5448940E+00 5.1600070E-01 1.7829481E+00
 8.5448941E+00 5.1600056E-01 2.1705162E-01
 7.3579918E+00 1.0000000E+00 1.6060078E+00
 9.7578638E+00 1.0000000E+00 1.6171515E+00
 7.3579916E+00 1.0000000E+00 3.9399198E-01
 9.7578638E+00 1.0000000E+00 3.8284843E-01
 7.8391453E+00 1.9254713E+00 9.9999981E-01
 7.8391454E+00 7.4528849E-02 1.0000001E+00
 9.2385221E+00 1.8630262E+00 9.9999993E-01
 9.2385221E+00 1.3697381E-01 9.9999994E-01
 8.4991156E+00 1.4764769E+00 1.7907847E+00
 8.4485284E+00 1.4681270E+00 1.7995866E+00
 8.3953628E+00 1.4593890E+00 1.8089770E+00
 8.3401559E+00 1.4501770E+00 1.8188764E+00
 8.2833318E+00 1.4403385E+00 1.8291177E+00
 8.2253897E+00 1.4296535E+00 1.8394008E+00
 8.1667776E+00 1.4178554E+00 1.8492891E+00
 8.1078534E+00 1.4046552E+00 1.8582246E+00
 8.0488533E+00 1.3897700E+00 1.8655676E+00
 7.9899236E+00 1.3729558E+00 1.8706461E+00
 7.9311965E+00 1.3540392E+00 1.8728134E+00
 7.8728789E+00 1.3329442E+00 1.8715100E+00
 7.8153118E+00 1.3097114E+00 1.8663247E+00
 7.7589737E+00 1.2845011E+00 1.8570400E+00
 7.7044264E+00 1.2575807E+00 1.8436519E+00
 7.6522394E+00 1.2292971E+00 1.8263581E+00
 7.6029201E+00 1.2000420E+00 1.8055214E+00
 7.5568680E+00 1.1702182E+00 1.7816200E+00
 7.5143529E+00 1.1402138E+00 1.7551953E+00
 7.4755118E+00 1.1103819E+00 1.7268036E+00
 7.4403797E+00 1.0810444E+00 1.6969981E+00
 7.4089163E+00 1.0524853E+00 1.6663098E+00
 7.3811244E+00 1.0250445E+00 1.6353674E+00
 8.4937460E+00 5.5733183E-01 1.8105778E+00
 8.4413118E+00 5.6777624E-01 1.8201120E+00
 8.3869047E+00 5.7816173E-01 1.8298843E+00
 8.3308431E+00 5.8889533E-01 1.8399788E+00
 8.2734694E+00 6.0031178E-01 1.8502943E+00
 8.2152230E+00 6.1268712E-01 1.8605237E+00
 8.1565241E+00 6.2629019E-01 1.8701988E+00
 8.0976910E+00 6.4137541E-01 1.8787289E+00
 8.0389281E+00 6.5816864E-01 1.8854518E+00
 7.9803644E+00 6.7684389E-01 1.8896901E+00
 7.9221330E+00 6.9749956E-01 1.8908117E+00
 7.8644550E+00 7.2013792E-01 1.8882914E+00
 7.8076860E+00 7.4465457E-01 1.8817682E+00
 7.7523073E+00 7.7084177E-01 1.8710842E+00
 7.6988664E+00 7.9840746E-01 1.8562961E+00
 7.6479035E+00 8.2700433E-01 1.8376554E+00
 7.5998848E+00 8.5626138E-01 1.8155651E+00
 7.5551577E+00 8.8580999E-01 1.7905225E+00
 7.5139255E+00 9.1529701E-01 1.7630568E+00
 7.4762281E+00 9.4438748E-01 1.7336559E+00
 7.4419250E+00 9.7275901E-01 1.7026860E+00
 7.4106698E+00 1.0000000E+00 1.6702959E+00
 8.4915304E+00 5.9229383E-01 1.8288761E+00
 8.4369963E+00 6.0478976E-01 1.8389179E+00
 8.3811819E+00 6.1687572E-01 1.8489316E+00
 8.3240767E+00 6.2925694E-01 1.8591395E+00
 8.2659960E+00 6.4235828E-01 1.8694379E+00
 8.2073161E+00 6.5650730E-01 1.8795084E+00
 8.1484060E+00 6.7196261E-01 1.8888515E+00
 8.0895420E+00 6.8894069E-01 1.8968484E+00
 8.0308975E+00 7.0761104E-01 1.9028203E+00
 7.9725865E+00 7.2808207E-01 1.9060904E+00
 7.9147441E+00 7.5038370E-01 1.9060459E+00
 7.8576032E+00 7.7445402E-01 1.9021996E+00
 7.8015303E+00 8.0013573E-01 1.8942420E+00
 7.7470045E+00 8.2718653E-01 1.8820742E+00
 7.6945540E+00 8.5530239E-01 1.8658092E+00
 7.6446810E+00 8.8414727E-01 1.8457425E+00
 7.5977934E+00 9.1337809E-01 1.8222969E+00
 7.5541472E+00 9.4265812E-01 1.7959444E+00
 7.5137988E+00 9.7165157E-01 1.7671093E+00
 7.4765647E+00 1.0000000E+00 1.7360552E+00
 7.4419250E+00 1.0272410E+00 1.7026860E+00
 8.4899932E+00 6.2895115E-01 1.8460489E+00
 8.4340725E+00 6.4315064E-01 1.8561770E+00
 8.3770196E+00 6.5694041E-01 1.8662509E+00
 8.3189687E+00 6.7101171E-01 1.8764173E+00
 8.2601927E+00 6.8586122E-01 1.8865616E+00
 8.2010577E+00 7.0182278E-01 1.8963289E+00
 8.1418969E+00 7.1913736E-01 1.9051888E+00
 8.0829557E+00 7.3797893E-01 1.9124981E+00
 8.0243841E+00 7.5846245E-01 1.9175680E+00
 7.9662859E+00 7.8063480E-01 1.9197289E+00
 7.9087995E+00 8.0446430E-01 1.9183938E+00
 7.8521671E+00 8.2983391E-01 1.9131174E+00
 7.7967600E+00 8.5654496E-01 1.9036435E+00
 7.7430470E+00 8.8433338E-01 1.8899289E+00
 7.6915247E+00 9.1289528E-01 1.8721336E+00
 7.6426375E+00 9.4191163E-01 1.8505771E+00
 7.5966963E+00 9.7105922E-01 1.8256607E+00
 7.5538054E+00 1.0000000E+00 1.7977632E+00
 7.5137988E+00 1.0283485E+00 1.7671093E+00
 7.4762281E+00 1.0556126E+00 1.7336559E+00
 8.4888030E+00 6.6732926E-01 1.8619671E+00
 8.4317957E+00 6.8308363E-01 1.8719387E+00
 8.3737555E+00 6.9850045E-01 1.8818572E+00
 8.3148871E+00 7.1426649E-01 1.8918093E+00
 8.2555057E+00 7.3087083E-01 1.9016275E+00
 8.1959705E+00 7.4863731E-01 1.9109184E+00
 8.1366003E+00 7.6777338E-01 1.9191192E+00
 8.0776182E+00 7.8840818E-01 1.9255689E+00
 8.0191578E+00 8.1060253E-01 1.9295767E+00
 7.9613164E+00 8.3434632E-01 1.9304886E+00
 7.9042346E+00 8.5955345E-01 1.9277502E+00
 7.8481590E+00 8.8606218E-01 1.9209621E+00
 7.7934557E+00 9.1364509E-01 1.9099209E+00
 7.7405694E+00 9.4202909E-01 1.8946314E+00
 7.6899437E+00 9.7091736E-01 1.8752821E+00
 7.6419309E+00 1.0000000E+00 1.8521824E+00
 7.5966963E+00 1.0289408E+00 1.8256607E+00
 7.5541472E+00 1.0573419E+00 1.7959444E+00
 7.5139255E+00 1.0847030E+00 1.7630569E+00
 8.4877972E+00 7.0745154E-01 1.8764881E+00
 8.4298829E+00 7.2463639E-01 1.8861019E+00
 8.3710250E+00 7.4161671E-01 1.8956755E+00
 8.3114894E+00 7.5904025E-01 1.9052267E+00
 8.2516259E+00 7.7736748E-01 1.9145329E+00
 8.1918020E+00 7.9688696E-01 1.9231583E+00
 8.1323254E+00 8.1776539E-01 1.9305145E+00
 8.0734039E+00 8.4008331E-01 1.9359303E+00
 8.0151582E+00 8.6384953E-01 1.9387228E+00
 7.9576797E+00 8.8900237E-01 1.9382624E+00
 7.9011076E+00 9.1541067E-01 1.9340337E+00
 7.8456840E+00 9.4288017E-01 1.9256849E+00
 7.7917560E+00 9.7116781E-01 1.9130598E+00
 7.7397227E+00 1.0000000E+00 1.8961958E+00
 7.6899436E+00 1.0290827E+00 1.8752821E+00
 7.6426375E+00 1.0580884E+00 1.8505771E+00
 7.5977934E+00 1.0866220E+00 1.8222970E+00
 7.5551576E+00 1.1141901E+00 1.7905226E+00
 8.4869083E+00 7.4924154E-01 1.8894270E+00
 8.4282217E+00 7.6775861E-01 1.8985106E+00
 8.3686955E+00 7.8623202E-01 1.9075603E+00
 8.3086465E+00 8.0525353E-01 1.9165250E+00
 8.2484517E+00 8.2523544E-01 1.9251285E+00
 8.1884842E+00 8.4641914E-01 1.9328985E+00
 8.1290430E+00 8.6892339E-01 1.9392289E+00
 8.0703219E+00 8.9278008E-01 1.9434489E+00
 8.0124294E+00 9.1794981E-01 1.9448931E+00
 7.9554492E+00 9.4432767E-01 1.9429642E+00
 7.8995128E+00 9.7174897E-01 1.9371894E+00
 7.8448455E+00 1.0000000E+00 1.9272616E+00
 7.7917560E+00 1.0288323E+00 1.9130598E+00
 7.7405694E+00 1.0579710E+00 1.8946314E+00
 7.6915247E+00 1.0871048E+00 1.8721337E+00
 7.6446810E+00 1.1158528E+00 1.8457426E+00
 7.5998848E+00 1.1437387E+00 1.8155652E+00
 8.4861276E+00 7.9255067E-01 1.9005852E+00
 8.4267966E+00 8.1231227E-01 1.9089844E+00
 8.3667554E+00 8.3219657E-01 1.9173397E+00
 8.3063567E+00 8.5273224E-01 1.9255371E+00
 8.2459967E+00 8.7426977E-01 1.9332526E+00
 8.1860489E+00 8.9699528E-01 1.9399870E+00
 8.1268018E+00 9.2097746E-01 1.9451264E+00
 8.0684343E+00 9.4620198E-01 1.9480110E+00
 8.0110419E+00 9.7258863E-01 1.9480014E+00
 7.9546964E+00 1.0000001E+00 1.9445381E+00
 7.8995128E+00 1.0282511E+00 1.9371894E+00
 7.8456840E+00 1.0571199E+00 1.9256850E+00
 7.7934557E+00 1.0863550E+00 1.9099210E+00
 7.7430470E+00 1.1156667E+00 1.8899290E+00
 7.6945539E+00 1.1446977E+00 1.8658093E+00
 7.6479035E+00 1.1729957E+00 1.8376555E+00
 8.4854690E+00 8.3718179E-01 1.9097742E+00
 8.4256354E+00 8.5809041E-01 1.9173459E+00
 8.3652423E+00 8.7928676E-01 1.9248459E+00
 8.3046671E+00 9.0122693E-01 1.9321044E+00
 8.2443156E+00 9.2419150E-01 1.9387598E+00
 8.1845559E+00 9.4830755E-01 1.9442961E+00
 8.1256624E+00 9.7359510E-01 1.9481031E+00
 8.0677978E+00 1.0000001E+00 1.9495405E+00
 8.0110419E+00 1.0274115E+00 1.9480015E+00
 7.9554492E+00 1.0556724E+00 1.9429643E+00
 7.9011076E+00 1.0845894E+00 1.9340338E+00
 7.8481590E+00 1.1139379E+00 1.9209622E+00
 7.7967600E+00 1.1434551E+00 1.9036436E+00
 7.7470045E+00 1.1728136E+00 1.8820744E+00
 7.6988664E+00 1.2015926E+00 1.8562963E+00
 8.4849530E+00 8.8289340E-01 1.9168270E+00
 8.4247747E+00 9.0483471E-01 1.9234400E+00
 8.3642029E+00 9.2722221E-01 1.9299363E+00
 8.3036294E+00 9.5043121E-01 1.9360997E+00
 8.2434603E+00 9.7466772E-01 1.9415421E+00
 8.1840525E+00 1.0000001E+00 1.9457423E+00
 8.1256624E+00 1.0264050E+00 1.9481031E+00
 8.0684343E+00 1.0537982E+00 1.9480110E+00
 8.0124294E+00 1.0820503E+00 1.9448931E+00
 7.9576797E+00 1.1109977E+00 1.9382625E+00
 7.9042346E+00 1.1404467E+00 1.9277503E+00
 7.8521671E+00 1.1701662E+00 1.9131175E+00
 7.8015303E+00 1.1998644E+00 1.8942422E+00
 7.7523072E+00 1.2291583E+00 1.8710844E+00
 8.4845981E+00 9.2940656E-01 1.9216086E+00
 8.4242453E+00 9.5224679E-01 1.9271470E+00
 8.3636736E+00 9.7568161E-01 1.9325083E+00
 8.3032793E+00 1.0000001E+00 1.9374409E+00
 8.2434603E+00 1.0253324E+00 1.9415421E+00
 8.1845559E+00 1.0516926E+00 1.9442962E+00
 8.1268018E+00 1.0790227E+00 1.9451265E+00
 8.0703219E+00 1.1072201E+00 1.9434490E+00
 8.0151583E+00 1.1361506E+00 1.9387229E+00
 7.9613164E+00 1.1656538E+00 1.9304887E+00
 7.9087995E+00 1.1955358E+00 1.9183940E+00
 7.8576032E+00 1.2255461E+00 1.9021997E+00
 7.8076860E+00 1.2553456E+00 1.8817684E+00
 8.4844173E+00 9.7641332E-01 1.9240239E+00
 8.4240667E+00 1.0000001E+00 1.9283912E+00
 8.3636736E+00 1.0243185E+00 1.9325083E+00
 8.3036294E+00 1.0495689E+00 1.9360998E+00
 8.2443156E+00 1.0758087E+00 1.9387599E+00
 8.1860490E+00 1.1030049E+00 1.9399870E+00
 8.1290431E+00 1.1310768E+00 1.9392290E+00
 8.0734040E+00 1.1599168E+00 1.9359304E+00
 8.0191578E+00 1.1893976E+00 1.9295769E+00
 7.9662860E+00 1.2193653E+00 1.9197291E+00
 7.9147441E+00 1.2496164E+00 1.9060461E+00
 7.8644550E+00 1.2798622E+00 1.8882916E+00
 8.4844173E+00 1.0235868E+00 1.9240240E+00
 8.4242453E+00 1.0477533E+00 1.9271470E+00
 8.3642029E+00 1.0727779E+00 1.9299363E+00
 8.3046671E+00 1.0987732E+00 1.9321045E+00
 8.2459967E+00 1.1257304E+00 1.9332527E+00
 8.1884842E+00 1.1535810E+00 1.9328986E+00
 8.1323254E+00 1.1822348E+00 1.9305146E+00
 8.0776182E+00 1.2115920E+00 1.9255691E+00
 8.0243842E+00 1.2415377E+00 1.9175682E+00
 7.9725866E+00 1.2719181E+00 1.9060906E+00
 7.9221331E+00 1.3025006E+00 1.8908119E+00
 8.4845981E+00 1.0705935E+00 1.9216086E+00
 8.4247747E+00 1.0951654E+00 1.9234401E+00
 8.3652423E+00 1.1207134E+00 1.9248460E+00
 8.3063567E+00 1.1472679E+00 1.9255371E+00
 8.2484517E+00 1.1747647E+00 1.9251286E+00
 8.1918020E+00 1.2031132E+00 1.9231584E+00
 8.1366004E+00 1.2322268E+00 1.9191194E+00
 8.0829558E+00 1.2620212E+00 1.9124983E+00
 8.0308976E+00 1.2923891E+00 1.9028206E+00
 7.9803645E+00 1.3231563E+00 1.8896904E+00
 8.4849530E+00 1.1171067E+00 1.9168271E+00
 8.4256354E+00 1.1419097E+00 1.9173460E+00
 8.3667554E+00 1.1678036E+00 1.9173398E+00
 8.3086465E+00 1.1947466E+00 1.9165251E+00
 8.2516259E+00 1.2226327E+00 1.9145330E+00
 8.1959705E+00 1.2513629E+00 1.9109186E+00
 8.1418970E+00 1.2808628E+00 1.9051890E+00
 8.0895421E+00 1.3110595E+00 1.8968486E+00
 8.0389282E+00 1.3418316E+00 1.8854521E+00
 8.4854690E+00 1.1628183E+00 1.9097743E+00
 8.4267966E+00 1.1876879E+00 1.9089845E+00
 8.3686955E+00 1.2137681E+00 1.9075604E+00
 8.3114893E+00 1.2409599E+00 1.9052268E+00
 8.2555057E+00 1.2691294E+00 1.9016277E+00
 8.2010577E+00 1.2981774E+00 1.8963291E+00
 8.1484060E+00 1.3280376E+00 1.8888517E+00
 8.0976911E+00 1.3586248E+00 1.8787291E+00
 8.4861276E+00 1.2074495E+00 1.9005853E+00
 8.4282217E+00 1.2322415E+00 1.8985107E+00
 8.3710250E+00 1.2583835E+00 1.8956756E+00
 8.3148871E+00 1.2857337E+00 1.8918094E+00
 8.2601927E+00 1.3141390E+00 1.8865618E+00
 8.2073162E+00 1.3434929E+00 1.8795086E+00
 8.1565242E+00 1.3737100E+00 1.8701990E+00
 8.4869083E+00 1.2507586E+00 1.8894271E+00
 8.4298829E+00 1.2753638E+00 1.8861020E+00
 8.3737555E+00 1.3014997E+00 1.8818574E+00
 8.3189687E+00 1.3289885E+00 1.8764174E+00
 8.2659960E+00 1.3576419E+00 1.8694381E+00
 8.2152230E+00 1.3873131E+00 1.8605239E+00
 8.4877972E+00 1.2925486E+00 1.8764882E+00
 8.4317957E+00 1.3169166E+00 1.8719388E+00
 8.3770195E+00 1.3430598E+00 1.8662511E+00
 8.3240767E+00 1.3707433E+00 1.8591397E+00
 8.2734694E+00 1.3996884E+00 1.8502945E+00
 8.4888030E+00 1.3326709E+00 1.8619672E+00
 8.4340725E+00 1.3568496E+00 1.8561772E+00
 8.3811819E+00 1.3831245E+00 1.8489318E+00
 8.3308431E+00 1.4111049E+00 1.8399790E+00
 8.4899932E+00 1.3710490E+00 1.8460491E+00
 8.4369962E+00 1.3952105E+00 1.8389181E+00
 8.3869047E+00 1.4218385E+00 1.8298845E+00
 8.4915303E+00 1.4077064E+00 1.8288763E+00
 8.4413118E+00 1.4322240E+00 1.8201122E+00
 8.4937460E+00 1.4426684E+00 1.8105780E+00
 8.5448483E+00 1.4548360E+00 1.8002703E+00
 8.5447836E+00 1.4217468E+00 1.8182312E+00
 8.5447105E+00 1.3866671E+00 1.8354165E+00
 8.5446387E+00 1.3496087E+00 1.8516193E+00
 8.5445740E+00 1.3106719E+00 1.8666109E+00
 8.5445186E+00 1.2699904E+00 1.8801611E+00
 8.5444725E+00 1.2277043E+00 1.8920605E+00
 8.5444354E+00 1.1839989E+00 1.9021106E+00
 8.5444068E+00 1.1391003E+00 1.9101330E+00
 8.5443865E+00 1.0932695E+00 1.9159780E+00
 8.5443743E+00 1.0467980E+00 1.9195323E+00
 8.5443702E+00 1.0000000E+00 1.9207251E+00
 8.5443743E+00 9.5320208E-01 1.9195323E+00
 8.5443865E+00 9.0673057E-01 1.9159779E+00
 8.5444068E+00 8.6089980E-01 1.9101329E+00
 8.5444354E+00 8.1600123E-01 1.9021106E+00
 8.5444725E+00 7.7229583E-01 1.8920604E+00
 8.5445186E+00 7.3000978E-01 1.8801610E+00
 8.5445740E+00 6.8932829E-01 1.8666107E+00
 8.5446387E+00 6.5039153E-01 1.8516192E+00
 8.5447105E+00 6.1333306E-01 1.8354163E+00
 8.5447836E+00 5.7825346E-01 1.8182310E+00
 8.5448483E+00 5.4516421E-01 1.8002701E+00
 8.5903899E+00 5.2618442E-01 1.7863802E+00
 8.6400918E+00 5.3737765E-01 1.7902238E+00
 8.6917840E+00 5.4901211E-01 1.7942440E+00
 8.7450613E+00 5.6114277E-01 1.7983700E+00
 8.7997512E+00 5.7386194E-01 1.8024813E+00
 8.8556618E+00 5.8728568E-01 1.8064150E+00
 8.9126156E+00 6.0154206E-01 1.8099653E+00
 8.9704071E+00 6.1676080E-01 1.8128882E+00
 9.0288017E+00 6.3306715E-01 1.8149116E+00
 9.0875297E+00 6.5057176E-01 1.8157461E+00
 9.1462862E+00 6.6936084E-01 1.8150996E+00
 9.2047350E+00 6.8948727E-01 1.8126936E+00
 9.2625156E+00 7.1096352E-01 1.8082805E+00
 9.3192534E+00 7.3375785E-01 1.8016590E+00
 9.3745725E+00 7.5779361E-01 1.7926873E+00
 9.4281081E+00 7.8295228E-01 1.7812913E+00
 9.4795192E+00 8.0907876E-01 1.7674679E+00
 9.5284991E+00 8.3598946E-01 1.7512846E+00
 9.5747827E+00 8.6348132E-01 1.7328747E+00
 9.6181552E+00 8.9134204E-01 1.7124273E+00
 9.6584380E+00 9.1934082E-01 1.6901889E+00
 9.6954911E+00 9.4722671E-01 1.6664471E+00
 9.7290968E+00 9.7460729E-01 1.6416268E+00
 8.5955807E+00 1.4398832E+00 1.8055551E+00
 8.6470027E+00 1.4267236E+00 1.8098127E+00
 8.6998086E+00 1.4136294E+00 1.8139369E+00
 8.7538491E+00 1.4002221E+00 1.8180042E+00
 8.8090616E+00 1.3862326E+00 1.8219666E+00
 8.8653214E+00 1.3714902E+00 1.8256709E+00
 8.9224613E+00 1.3558578E+00 1.8289025E+00
 8.9802832E+00 1.3392204E+00 1.8314026E+00
 9.0385504E+00 1.3214796E+00 1.8328860E+00
 9.0969882E+00 1.3025570E+00 1.8330560E+00
 9.1552864E+00 1.2824014E+00 1.8316211E+00
 9.2131061E+00 1.2609960E+00 1.8283111E+00
 9.2700890E+00 1.2383626E+00 1.8228947E+00
 9.3258684E+00 1.2145626E+00 1.8151936E+00
 9.3800817E+00 1.1896950E+00 1.8050939E+00
 9.4323828E+00 1.1638905E+00 1.7925516E+00
 9.4824559E+00 1.1373063E+00 1.7775926E+00
 9.5300321E+00 1.1101213E+00 1.7603041E+00
 9.5749075E+00 1.0825370E+00 1.7408188E+00
 9.6169788E+00 1.0547827E+00 1.7192789E+00
 9.6562951E+00 1.0271255E+00 1.6957782E+00
 9.6931410E+00 1.0000000E+00 1.6702674E+00
 8.5976159E+00 1.4050268E+00 1.8235244E+00
 8.6510359E+00 1.3899487E+00 1.8279544E+00
 8.7051385E+00 1.3753558E+00 1.8320360E+00
 8.7601441E+00 1.3605605E+00 1.8359570E+00
 8.8160440E+00 1.3452090E+00 1.8396797E+00
 8.8727801E+00 1.3290757E+00 1.8430550E+00
 8.9302200E+00 1.3120203E+00 1.8458556E+00
 8.9881782E+00 1.2939426E+00 1.8478098E+00
 9.0464200E+00 1.2747689E+00 1.8486222E+00
 9.1046672E+00 1.2544509E+00 1.8479924E+00
 9.1626056E+00 1.2329698E+00 1.8456325E+00
 9.2198953E+00 1.2103409E+00 1.8412836E+00
 9.2761817E+00 1.1866149E+00 1.8347330E+00
 9.3311082E+00 1.1618756E+00 1.8258262E+00
 9.3843305E+00 1.1362347E+00 1.8144757E+00
 9.4355314E+00 1.1098254E+00 1.8006615E+00
 9.4844446E+00 1.0827992E+00 1.7844213E+00
 9.5308910E+00 1.0553312E+00 1.7658245E+00
 9.5748344E+00 1.0276363E+00 1.7449231E+00
 9.6164516E+00 1.0000000E+00 1.7216750E+00
 9.6562951E+00 9.7287458E-01 1.6957782E+00
 8.5989754E+00 1.3685358E+00 1.8404350E+00
 8.6537064E+00 1.3519535E+00 1.8446890E+00
 8.7089580E+00 1.3358956E+00 1.8485714E+00
 8.7648464E+00 1.3197031E+00 1.8522137E+00
 8.8214278E+00 1.3029514E+00 1.8555777E+00
 8.8786584E+00 1.2854031E+00 1.8584979E+00
 8.9364257E+00 1.2669195E+00 1.8607338E+00
 8.9945495E+00 1.2474180E+00 1.8620017E+00
 9.0527939E+00 1.2268495E+00 1.8620000E+00
 9.1108767E+00 1.2051940E+00 1.8604281E+00
 9.1684812E+00 1.1824622E+00 1.8570052E+00
 9.2252682E+00 1.1586967E+00 1.8514871E+00
 9.2808906E+00 1.1339701E+00 1.8436813E+00
 9.3350082E+00 1.1083803E+00 1.8334566E+00
 9.3873060E+00 1.0820429E+00 1.8207462E+00
 9.4375197E+00 1.0550890E+00 1.8055391E+00
 9.4854796E+00 1.0276733E+00 1.7878529E+00
 9.5311743E+00 1.0000000E+00 1.7676832E+00
 9.5748344E+00 9.7236377E-01 1.7449231E+00
 9.6169788E+00 9.4521735E-01 1.7192789E+00
 8.6000028E+00 1.3303644E+00 1.8561277E+00
 8.6557615E+00 1.3124661E+00 1.8599986E+00
 8.7119305E+00 1.2950598E+00 1.8635011E+00
 8.7685870E+00 1.2774982E+00 1.8667196E+00
 8.8257663E+00 1.2593650E+00 1.8695820E+00
 8.8834331E+00 1.2404238E+00 1.8719028E+00
 8.9414753E+00 1.2205515E+00 1.8734260E+00
 8.9997125E+00 1.1996858E+00 1.8738588E+00
 9.0579052E+00 1.1778027E+00 1.8728970E+00
 9.1157684E+00 1.1549086E+00 1.8702443E+00
 9.1729854E+00 1.1310398E+00 1.8656312E+00
 9.2292228E+00 1.1062601E+00 1.8588308E+00
 9.2841474E+00 1.0806558E+00 1.8496713E+00
 9.3374470E+00 1.0543298E+00 1.8380404E+00
 9.3888576E+00 1.0273983E+00 1.8238803E+00
 9.4382064E+00 1.0000000E+00 1.8071648E+00
 9.4854796E+00 9.7232673E-01 1.7878529E+00
 9.5308910E+00 9.4466887E-01 1.7658245E+00
 9.5749075E+00 9.1746304E-01 1.7408188E+00
 8.6008660E+00 1.2904798E+00 1.8704462E+00
 8.6574849E+00 1.2714217E+00 1.8737590E+00
 8.7144161E+00 1.2527626E+00 1.8767220E+00
 8.7717026E+00 1.2338980E+00 1.8793634E+00
 8.8293619E+00 1.2144368E+00 1.8815739E+00
 8.8873511E+00 1.1941662E+00 1.8831438E+00
 8.9455557E+00 1.1729849E+00 1.8838034E+00
 9.0037913E+00 1.1508547E+00 1.8832547E+00
 9.0618162E+00 1.1277756E+00 1.8811954E+00
 9.1193454E+00 1.1037779E+00 1.8773382E+00
 9.1760675E+00 1.0789176E+00 1.8714283E+00
 9.2316621E+00 1.0532715E+00 1.8632574E+00
 9.2858215E+00 1.0269312E+00 1.8526715E+00
 9.3382801E+00 1.0000000E+00 1.8395683E+00
 9.3888576E+00 9.7260178E-01 1.8238803E+00
 9.4375197E+00 9.4491108E-01 1.8055391E+00
 9.4844446E+00 9.1720084E-01 1.7844213E+00
 9.5300321E+00 8.8987878E-01 1.7603041E+00
 8.6016340E+00 1.2489544E+00 1.8832012E+00
 8.6589872E+00 1.2288620E+00 1.8858083E+00
 8.7165427E+00 1.2090471E+00 1.8880840E+00
 8.7743161E+00 1.1889620E+00 1.8900002E+00
 8.8323104E+00 1.1682575E+00 1.8914095E+00
 8.8904756E+00 1.1467537E+00 1.8920802E+00
 8.9486930E+00 1.1243773E+00 1.8917329E+00
 9.0067763E+00 1.1011144E+00 1.8900689E+00
 9.0644847E+00 1.0769876E+00 1.8867925E+00
 9.1215384E+00 1.0520454E+00 1.8816291E+00
 9.1776386E+00 1.0263558E+00 1.8743409E+00
 9.2324883E+00 1.0000000E+00 1.8647361E+00
 9.2858215E+00 9.7306888E-01 1.8526715E+00
 9.3374470E+00 9.4567024E-01 1.8380404E+00
 9.3873060E+00 9.1795719E-01 1.8207462E+00
 9.4355314E+00 8.9017466E-01 1.8006615E+00
 9.4824559E+00 8.6269381E-01 1.7775926E+00
 8.6023149E+00 1.2059344E+00 1.8941959E+00
 8.6602820E+00 1.1849189E+00 1.8959707E+00
 8.7183196E+00 1.1640520E+00 1.8974236E+00
 8.7764264E+00 1.1428476E+00 1.8984747E+00
 8.8345955E+00 1.1210091E+00 1.8989424E+00
 8.8927726E+00 1.0983962E+00 1.8985773E+00
 8.9508374E+00 1.0749654E+00 1.8970951E+00
 9.0086054E+00 1.0507258E+00 1.8942016E+00
 9.0658416E+00 1.0257176E+00 1.8896115E+00
 9.1222785E+00 1.0000000E+00 1.8830654E+00
 9.1776386E+00 9.7364425E-01 1.8743409E+00
 9.2316621E+00 9.4672861E-01 1.8632574E+00
 9.2841474E+00 9.1934429E-01 1.8496713E+00
 9.3350082E+00 8.9161978E-01 1.8334566E+00
 9.3843305E+00 8.6376536E-01 1.8144757E+00
 9.4323828E+00 8.3610961E-01 1.7925516E+00
 8.6028941E+00 1.1616144E+00 1.9032462E+00
 8.6613409E+00 1.1397930E+00 1.9040773E+00
 8.7197086E+00 1.1179893E+00 1.9045853E+00
 8.7779862E+00 1.0957861E+00 1.9046442E+00
 8.8361624E+00 1.0729458E+00 1.9040440E+00
 8.8941822E+00 1.0493709E+00 1.9025240E+00
 8.9519281E+00 1.0250462E+00 1.8998003E+00
 9.0092223E+00 1.0000000E+00 1.8955868E+00
 9.0658416E+00 9.7428249E-01 1.8896115E+00
 9.1215384E+00 9.4795466E-01 1.8816291E+00
 9.1760675E+00 9.2108250E-01 1.8714282E+00
 9.2292227E+00 8.9374002E-01 1.8588308E+00
 9.2808906E+00 8.6602995E-01 1.8436813E+00
 9.3311082E+00 8.3812449E-01 1.8258262E+00
 9.3800817E+00 8.1030511E-01 1.8050939E+00
 8.6033505E+00 1.1162324E+00 1.9101901E+00
 8.6621277E+00 1.0937345E+00 1.9099821E+00
 8.7206641E+00 1.0711252E+00 1.9094387E+00
 8.7789451E+00 1.0480630E+00 1.9083948E+00
 8.8369601E+00 1.0243731E+00 1.9066199E+00
 8.8946577E+00 1.0000000E+00 1.9038480E+00
 8.9519281E+00 9.7495381E-01 1.8998003E+00
 9.0086054E+00 9.4927423E-01 1.8942016E+00
 9.0644847E+00 9.2301244E-01 1.8867925E+00
 9.1193454E+00 8.9622216E-01 1.8773381E+00
 9.1729854E+00 8.6896024E-01 1.8656312E+00
 9.2252682E+00 8.4130343E-01 1.8514871E+00
 9.2761817E+00 8.1338522E-01 1.8347330E+00
 9.3258684E+00 7.8543744E-01 1.8151936E+00
 8.6036655E+00 1.0700631E+00 1.9148966E+00
 8.6626124E+00 1.0470318E+00 1.9135724E+00
 8.7211510E+00 1.0237645E+00 1.9118898E+00
 8.7792688E+00 1.0000000E+00 1.9096534E+00
 8.8369601E+00 9.7562698E-01 1.9066199E+00
 8.8941822E+00 9.5062918E-01 1.9025240E+00
 8.9508374E+00 9.2503467E-01 1.8970951E+00
 9.0067763E+00 8.9888564E-01 1.8900689E+00
 9.0618162E+00 8.7222449E-01 1.8811954E+00
 9.1157684E+00 8.4509147E-01 1.8702443E+00
 9.1684811E+00 8.1753789E-01 1.8570051E+00
 9.2198953E+00 7.8965916E-01 1.8412836E+00
 9.2700890E+00 7.6163752E-01 1.8228946E+00
 8.6038262E+00 1.0234089E+00 1.9172737E+00
 8.6627760E+00 1.0000000E+00 1.9147773E+00
 8.7211510E+00 9.7623556E-01 1.9118898E+00
 8.7789451E+00 9.5193700E-01 1.9083948E+00
 8.8361624E+00 9.2705420E-01 1.9040440E+00
 8.8927726E+00 9.0160381E-01 1.8985772E+00
 8.9486929E+00 8.7562278E-01 1.8917329E+00
 9.0037913E+00 8.4914542E-01 1.8832547E+00
 9.0579052E+00 8.2219741E-01 1.8728970E+00
 9.1108767E+00 7.9480608E-01 1.8604280E+00
 9.1626056E+00 7.6703026E-01 1.8456324E+00
 9.2131061E+00 7.3900408E-01 1.8283110E+00
 8.6038262E+00 9.7659112E-01 1.9172737E+00
 8.6626124E+00 9.5296824E-01 1.9135724E+00
 8.7206641E+00 9.2887485E-01 1.9094386E+00
 8.7779861E+00 9.0421392E-01 1.9046442E+00
 8.8345955E+00 8.7899098E-01 1.8989423E+00
 8.8904756E+00 8.5324639E-01 1.8920802E+00
 8.9455556E+00 8.2701514E-01 1.8838033E+00
 8.9997124E+00 8.0031426E-01 1.8738588E+00
 9.0527938E+00 7.7315059E-01 1.8619999E+00
 9.1046671E+00 7.4554922E-01 1.8479924E+00
 9.1552863E+00 7.1759869E-01 1.8316210E+00
 8.6036655E+00 9.2993699E-01 1.9148966E+00
 8.6621277E+00 9.0626552E-01 1.9099820E+00
 8.7197086E+00 8.8201075E-01 1.9045853E+00
 8.7764263E+00 8.5715244E-01 1.8984747E+00
 8.8323104E+00 8.3174260E-01 1.8914095E+00
 8.8873511E+00 8.0583386E-01 1.8831437E+00
 8.9414752E+00 7.7944861E-01 1.8734259E+00
 8.9945495E+00 7.5258208E-01 1.8620017E+00
 9.0464200E+00 7.2523122E-01 1.8486221E+00
 9.0969882E+00 6.9744312E-01 1.8330560E+00
 8.6033505E+00 8.8376763E-01 1.9101901E+00
 8.6613409E+00 8.6020704E-01 1.9040772E+00
 8.7183196E+00 8.3594804E-01 1.8974235E+00
 8.7743161E+00 8.1103804E-01 1.8900001E+00
 8.8293618E+00 7.8556327E-01 1.8815739E+00
 8.8834330E+00 7.5957631E-01 1.8719028E+00
 8.9364257E+00 7.3308061E-01 1.8607337E+00
 8.9881781E+00 7.0605753E-01 1.8478097E+00
 9.0385504E+00 6.7852047E-01 1.8328859E+00
 8.6028941E+00 8.3838569E-01 1.9032462E+00
 8.6602820E+00 8.1508119E-01 1.8959706E+00
 8.7165427E+00 7.9095300E-01 1.8880839E+00
 8.7717026E+00 7.6610212E-01 1.8793634E+00
 8.8257662E+00 7.4063505E-01 1.8695819E+00
 8.8786584E+00 7.1459698E-01 1.8584978E+00
 8.9302200E+00 6.8797978E-01 1.8458556E+00
 8.9802832E+00 6.6077968E-01 1.8314025E+00
 8.6023149E+00 7.9406569E-01 1.8941958E+00
 8.6589872E+00 7.7113813E-01 1.8858082E+00
 8.7144161E+00 7.4723749E-01 1.8767219E+00
 8.7685870E+00 7.2250193E-01 1.8667195E+00
 8.8214278E+00 6.9704875E-01 1.8555776E+00
 8.8727800E+00 6.7092444E-01 1.8430549E+00
 8.9224612E+00 6.4414236E-01 1.8289024E+00
 8.6016340E+00 7.5104570E-01 1.8832011E+00
 8.6574848E+00 7.2857840E-01 1.8737589E+00
 8.7119304E+00 7.0494029E-01 1.8635010E+00
 8.7648463E+00 6.8029704E-01 1.8522136E+00
 8.8160440E+00 6.5479116E-01 1.8396796E+00
 8.8653213E+00 6.2850995E-01 1.8256708E+00
 8.6008660E+00 7.0952033E-01 1.8704461E+00
 8.6557615E+00 6.8753404E-01 1.8599985E+00
 8.7089579E+00 6.6410452E-01 1.8485713E+00
 8.7601441E+00 6.3943970E-01 1.8359569E+00
 8.8090615E+00 6.1376752E-01 1.8219665E+00
 8.6000028E+00 6.6963573E-01 1.8561276E+00
 8.6537064E+00 6.4804661E-01 1.8446889E+00
 8.7051385E+00 6.2464437E-01 1.8320359E+00
 8.7538490E+00 5.9977807E-01 1.8180040E+00
 8.5989754E+00 6.3146436E-01 1.8404349E+00
 8.6510359E+00 6.1005147E-01 1.8279543E+00
 8.6998085E+00 5.8637080E-01 1.8139368E+00
 8.5976159E+00 5.9497344E-01 1.8235242E+00
 8.6470026E+00 5.7327662E-01 1.8098125E+00
 8.5955807E+00 5.6011706E-01 1.8055549E+00
 8.5166297E+00 1.5079001E+00 1.7696502E+00
 8.4852862E+00 1.5341018E+00 1.7540814E+00
 8.4525057E+00 1.5610279E+00 1.7369738E+00
 8.4184993E+00 1.5885042E+00 1.7182734E+00
 8.3834580E+00 1.6164082E+00 1.6978770E+00
 8.3476438E+00 1.6445881E+00 1.6756646E+00
 8.3113236E+00 1.6728642E+00 1.6515082E+00
 8.2747899E+00 1.7010070E+00 1.6252924E+00
 8.2383461E+00 1.7287442E+00 1.5969233E+00
 8.2022889E+00 1.7557672E+00 1.5663430E+00
 8.1668942E+00 1.7817442E+00 1.5335426E+00
 8.1324081E+00 1.8063372E+00 1.4985731E+00
 8.0990411E+00 1.8292213E+00 1.4615512E+00
 8.0669697E+00 1.8501032E+00 1.4226583E+00
 8.0363378E+00 1.8687376E+00 1.3821346E+00
 8.0072620E+00 1.8849386E+00 1.3402680E+00
 7.9798358E+00 1.8985865E+00 1.2973813E+00
 7.9541349E+00 1.9096289E+00 1.2538160E+00
 7.9302204E+00 1.9180788E+00 1.2099200E+00
 7.9081410E+00 1.9240084E+00 1.1660360E+00
 7.8879348E+00 1.9275391E+00 1.1225153E+00
 7.8696051E+00 1.9288263E+00 1.0797030E+00
 7.8531912E+00 1.9280653E+00 1.0382162E+00
 7.3760992E+00 1.0728676E+00 1.6255405E+00
 7.3715924E+00 1.1202165E+00 1.6125014E+00
 7.3687678E+00 1.1683614E+00 1.5973852E+00
 7.3680732E+00 1.2174313E+00 1.5804283E+00
 7.3698175E+00 1.2673652E+00 1.5616987E+00
 7.3742507E+00 1.3179722E+00 1.5412228E+00
 7.3815716E+00 1.3689684E+00 1.5190123E+00
 7.3919346E+00 1.4200070E+00 1.4950889E+00
 7.4054500E+00 1.4706919E+00 1.4695021E+00
 7.4221791E+00 1.5205896E+00 1.4423398E+00
 7.4421263E+00 1.5692428E+00 1.4137317E+00
 7.4652316E+00 1.6161853E+00 1.3838497E+00
 7.4913675E+00 1.6609606E+00 1.3529043E+00
 7.5203382E+00 1.7031408E+00 1.3211385E+00
 7.5518851E+00 1.7423456E+00 1.2888204E+00
 7.5856958E+00 1.7782576E+00 1.2562344E+00
 7.6214152E+00 1.8106365E+00 1.2236699E+00
 7.6586584E+00 1.8393260E+00 1.1914086E+00
 7.6970226E+00 1.8642597E+00 1.1597031E+00
 7.7361016E+00 1.8854625E+00 1.1287410E+00
 7.7755081E+00 1.9030485E+00 1.0985783E+00
 7.8147876E+00 1.9171886E+00 1.0689963E+00
 7.4054892E+00 1.1031958E+00 1.6565347E+00
 7.4027234E+00 1.1530940E+00 1.6435650E+00
 7.4015677E+00 1.2030542E+00 1.6282540E+00
 7.4025730E+00 1.2534775E+00 1.6109385E+00
 7.4061088E+00 1.3044259E+00 1.5917464E+00
 7.4124373E+00 1.3557582E+00 1.5707180E+00
 7.4217412E+00 1.4071979E+00 1.5478636E+00
 7.4341433E+00 1.4583799E+00 1.5232033E+00
 7.4497137E+00 1.5088818E+00 1.4967918E+00
 7.4684678E+00 1.5582450E+00 1.4687296E+00
 7.4903592E+00 1.6059943E+00 1.4391662E+00
 7.5152759E+00 1.6516584E+00 1.4082972E+00
 7.5430386E+00 1.6947908E+00 1.3763593E+00
 7.5734064E+00 1.7349903E+00 1.3436220E+00
 7.6060850E+00 1.7719203E+00 1.3103775E+00
 7.6407418E+00 1.8053239E+00 1.2769263E+00
 7.6770184E+00 1.8350338E+00 1.2435569E+00
 7.7145453E+00 1.8609784E+00 1.2105094E+00
 7.7529541E+00 1.8831844E+00 1.1779147E+00
 7.7918839E+00 1.9017683E+00 1.1457053E+00
 7.8309660E+00 1.9169189E+00 1.1134008E+00
 7.4384596E+00 1.1335227E+00 1.6869403E+00
 7.4373896E+00 1.1851862E+00 1.6737652E+00
 7.4379693E+00 1.2366444E+00 1.6581202E+00
 7.4407660E+00 1.2882478E+00 1.6403334E+00
 7.4461796E+00 1.3400809E+00 1.6205523E+00
 7.4544705E+00 1.3920040E+00 1.5988222E+00
 7.4657976E+00 1.4437260E+00 1.5751545E+00
 7.4802474E+00 1.4948586E+00 1.5495757E+00
 7.4978459E+00 1.5449544E+00 1.5221543E+00
 7.5185586E+00 1.5935357E+00 1.4930120E+00
 7.5422870E+00 1.6401192E+00 1.4623245E+00
 7.5688674E+00 1.6842406E+00 1.4303171E+00
 7.5980744E+00 1.7254776E+00 1.3972566E+00
 7.6296308E+00 1.7634718E+00 1.3634395E+00
 7.6632217E+00 1.7979463E+00 1.3291760E+00
 7.6985108E+00 1.8287190E+00 1.2947644E+00
 7.7351512E+00 1.8557087E+00 1.2604486E+00
 7.7727927E+00 1.8789377E+00 1.2263496E+00
 7.8110795E+00 1.8985240E+00 1.1923640E+00
 7.8496342E+00 1.9146568E+00 1.1580518E+00
 7.4750931E+00 1.1640775E+00 1.7162357E+00
 7.4757212E+00 1.2170072E+00 1.7026344E+00
 7.4780832E+00 1.2695922E+00 1.6864849E+00
 7.4827435E+00 1.3221004E+00 1.6680823E+00
 7.4900984E+00 1.3745677E+00 1.6475651E+00
 7.5003890E+00 1.4268233E+00 1.6249769E+00
 7.5137398E+00 1.4785467E+00 1.6003343E+00
 7.5301943E+00 1.5293229E+00 1.5736779E+00
 7.5497294E+00 1.5786849E+00 1.5450981E+00
 7.5722590E+00 1.6261456E+00 1.5147450E+00
 7.5976336E+00 1.6712280E+00 1.4828262E+00
 7.6256437E+00 1.7134908E+00 1.4496004E+00
 7.6560287E+00 1.7525543E+00 1.4153642E+00
 7.6884913E+00 1.7881199E+00 1.3804354E+00
 7.7227137E+00 1.8199864E+00 1.3451249E+00
 7.7583676E+00 1.8480579E+00 1.3096937E+00
 7.7951157E+00 1.8723476E+00 1.2742812E+00
 7.8326007E+00 1.8929701E+00 1.2388175E+00
 7.8704305E+00 1.9101173E+00 1.2029499E+00
 7.5154553E+00 1.1947735E+00 1.7439250E+00
 7.5177860E+00 1.2485929E+00 1.7296844E+00
 7.5219644E+00 1.3019592E+00 1.7128490E+00