# TIME = 4.000000
variables = x, y, z
zone N=5762 E=11520 F=FEPOINT ET=TRIANGLE
 6.6996361E+00 1.4856973E+00 1.7857047E+00
 6.6996361E+00 1.4856970E+00 2.1429552E-01
 6.6996361E+00 5.1430291E-01 1.7857043E+00
 6.6996362E+00 5.1430270E-01 2.1429532E-01
 5.5165756E+00 9.9999994E-01 1.5990894E+00
 7.9078193E+00 9.9999996E-01 1.6145881E+00
 5.5165755E+00 9.9999995E-01 4.0091035E-01
 7.9078192E+00 9.9999996E-01 3.8541187E-01
 5.9956904E+00 1.9312420E+00 9.9999989E-01
 5.9956904E+00 6.8757775E-02 1.0000000E+00
 7.3894744E+00 1.8645044E+00 9.9999994E-01
 7.3894743E+00 1.3549561E-01 9.9999995E-01
 6.6557905E+00 1.4783265E+00 1.7934663E+00
 6.6074239E+00 1.4701274E+00 1.8022030E+00
 6.5564338E+00 1.4614986E+00 1.8115968E+00
 6.5031962E+00 1.4523719E+00 1.8215989E+00
 6.4479754E+00 1.4426282E+00 1.8320755E+00
 6.3910988E+00 1.4320726E+00 1.8427616E+00
 6.3328833E+00 1.4204378E+00 1.8532344E+00
 6.2736368E+00 1.4074053E+00 1.8628950E+00
 6.2136278E+00 1.3926337E+00 1.8709912E+00
 6.1530931E+00 1.3758047E+00 1.8766771E+00
 6.0923003E+00 1.3566769E+00 1.8791092E+00
 6.0316458E+00 1.3351399E+00 1.8775657E+00
 5.9717194E+00 1.3112510E+00 1.8715620E+00
 5.9132660E+00 1.2852397E+00 1.8609221E+00
 5.8570708E+00 1.2574738E+00 1.8457826E+00
 5.8038374E+00 1.2284063E+00 1.8265359E+00
 5.7541083E+00 1.1985179E+00 1.8037452E+00
 5.7082355E+00 1.1682701E+00 1.7780592E+00
 5.6663892E+00 1.1380756E+00 1.7501413E+00
 5.6285886E+00 1.1082875E+00 1.7206235E+00
 5.5947566E+00 1.0792164E+00 1.6900998E+00
 5.5647472E+00 1.0511333E+00 1.6591084E+00
 5.5384225E+00 1.0243346E+00 1.6282047E+00
 6.6508032E+00 5.5495482E-01 1.8129738E+00
 6.6006881E+00 5.6513739E-01 1.8224053E+00
 6.5484906E+00 5.7531938E-01 1.8321590E+00
 6.4943616E+00 5.8594004E-01 1.8423805E+00
 6.4384816E+00 5.9728465E-01 1.8529928E+00
 6.3811192E+00 6.0957938E-01 1.8637066E+00
 6.3225900E+00 6.2308216E-01 1.8740468E+00
 6.2631961E+00 6.3807903E-01 1.8833611E+00
 6.2031995E+00 6.5485557E-01 1.8908551E+00
 6.1428356E+00 6.7365306E-01 1.8956645E+00
 6.0823843E+00 6.9462102E-01 1.8969590E+00
 6.0222685E+00 7.1777537E-01 1.8940645E+00
 5.9630998E+00 7.4297562E-01 1.8865709E+00
 5.9056213E+00 7.6993429E-01 1.8743880E+00
 5.8505879E+00 7.9825656E-01 1.8577322E+00
 5.7986538E+00 8.2749424E-01 1.8370595E+00
 5.7503034E+00 8.5719842E-01 1.8129757E+00
 5.7058315E+00 8.8696025E-01 1.7861507E+00
 5.6653554E+00 9.1643048E-01 1.7572496E+00
 5.6288255E+00 9.4531202E-01 1.7268635E+00
 5.5959988E+00 9.7331034E-01 1.6954075E+00
 5.5663647E+00 9.9999994E-01 1.6629581E+00
 6.6489475E+00 5.8942467E-01 1.8310603E+00
 6.5970066E+00 6.0152431E-01 1.8409493E+00
 6.5435606E+00 6.1331708E-01 1.8509242E+00
 6.4884184E+00 6.2556410E-01 1.8612811E+00
 6.4317193E+00 6.3861900E-01 1.8719349E+00
 6.3737029E+00 6.5273811E-01 1.8825695E+00
 6.3146788E+00 6.6816569E-01 1.8926607E+00
 6.2549493E+00 6.8515229E-01 1.9015054E+00
 6.1947738E+00 7.0392543E-01 1.9082705E+00
 6.1343909E+00 7.2465041E-01 1.9120757E+00
 6.0740971E+00 7.4739007E-01 1.9121071E+00
 6.0143427E+00 7.7207429E-01 1.9077402E+00
 5.9557603E+00 7.9849010E-01 1.8986404E+00
 5.8990901E+00 8.2630238E-01 1.8848029E+00
 5.8450571E+00 8.5509929E-01 1.8665234E+00
 5.7942664E+00 8.8444726E-01 1.8443199E+00
 5.7471425E+00 9.1393913E-01 1.8188363E+00
 5.7039080E+00 9.4322626E-01 1.7907468E+00
 5.6645662E+00 9.7201582E-01 1.7606521E+00
 5.6288425E+00 9.9999994E-01 1.7289275E+00
 5.5959988E+00 1.0266895E+00 1.6954074E+00
 6.6477124E+00 6.2571342E-01 1.8481371E+00
 6.5945801E+00 6.3942471E-01 1.8580969E+00
 6.5400139E+00 6.5286482E-01 1.8681354E+00
 6.4839251E+00 6.6679988E-01 1.8784812E+00
 6.4264095E+00 6.8163788E-01 1.8890348E+00
 6.3677241E+00 6.9763122E-01 1.8994349E+00
 6.3081859E+00 7.1500502E-01 1.9091100E+00
 6.2481025E+00 7.3396712E-01 1.9173112E+00
 6.1877359E+00 7.5468379E-01 1.9231745E+00
 6.1273315E+00 7.7724426E-01 1.9258139E+00
 6.0672045E+00 8.0162872E-01 1.9244422E+00
 6.0078296E+00 8.2768837E-01 1.9184929E+00
 5.9498525E+00 8.5514859E-01 1.9077111E+00
 5.8940018E+00 8.8364001E-01 1.8921767E+00
 5.8409648E+00 9.1274901E-01 1.8722592E+00
 5.7912888E+00 9.4207215E-01 1.8485274E+00
 5.7453207E+00 9.7125566E-01 1.8216393E+00
 5.7031600E+00 9.9999994E-01 1.7922156E+00
 5.6645663E+00 1.0279841E+00 1.7606521E+00
 5.6288255E+00 1.0546879E+00 1.7268635E+00
 6.6466965E+00 6.6390369E-01 1.8640819E+00
 6.5925569E+00 6.7914375E-01 1.8739090E+00
 6.5370459E+00 6.9420803E-01 1.8838217E+00
 6.4801085E+00 7.0986693E-01 1.8939907E+00
 6.4218748E+00 7.2651340E-01 1.9042641E+00
 6.3626161E+00 7.4438817E-01 1.9142379E+00
 6.3026664E+00 7.6368341E-01 1.9232953E+00
 6.2423405E+00 7.8455837E-01 1.9306514E+00
 6.1819047E+00 8.0711399E-01 1.9354242E+00
 6.1216125E+00 8.3136327E-01 1.9367374E+00
 6.0617950E+00 8.5720749E-01 1.9338442E+00
 6.0029425E+00 8.8442840E-01 1.9262459E+00
 5.9457009E+00 9.1270377E-01 1.9137691E+00
 5.8907731E+00 9.4164789E-01 1.8965727E+00
 5.8387949E+00 9.7086567E-01 1.8750859E+00
 5.7902370E+00 9.9999994E-01 1.8499024E+00
 5.7453207E+00 1.0287442E+00 1.8216393E+00
 5.7039080E+00 1.0567736E+00 1.7907467E+00
 5.6653555E+00 1.0835694E+00 1.7572496E+00
 6.6457660E+00 7.0402647E-01 1.8787248E+00
 6.5907326E+00 7.2073672E-01 1.8882418E+00
 6.5344023E+00 7.3741867E-01 1.8978543E+00
 6.4767539E+00 7.5479909E-01 1.9076597E+00
 6.4179438E+00 7.7324401E-01 1.9174552E+00
 6.3582672E+00 7.9296394E-01 1.9267933E+00
 6.2980716E+00 8.1411182E-01 1.9350207E+00
 6.2376793E+00 8.3679129E-01 1.9413294E+00
 6.1773597E+00 8.6103538E-01 1.9448354E+00
 6.1173729E+00 8.8678191E-01 1.9446887E+00
 6.0580592E+00 9.1386013E-01 1.9401960E+00
 5.9999123E+00 9.4199494E-01 1.9309325E+00
 5.9435621E+00 9.7083476E-01 1.9168036E+00
 5.8896687E+00 9.9999994E-01 1.8980339E+00
 5.8387949E+00 1.0291342E+00 1.8750859E+00
 5.7912888E+00 1.0579277E+00 1.8485273E+00
 5.7471426E+00 1.0860607E+00 1.8188362E+00
 5.7058316E+00 1.1130396E+00 1.7861506E+00
 6.6449116E+00 7.4599372E-01 1.8918447E+00
 6.5890965E+00 7.6413144E-01 1.9008861E+00
 6.5320818E+00 7.8240666E-01 1.9100198E+00
 6.4738758E+00 8.0147939E-01 1.9192684E+00
 6.4146588E+00 8.2167351E-01 1.9283799E+00
 6.3547461E+00 8.4316182E-01 1.9368706E+00
 6.2944969E+00 8.6605017E-01 1.9440620E+00
 6.2342375E+00 8.9038308E-01 1.9491375E+00
 6.1742390E+00 9.1612496E-01 1.9512283E+00
 6.1147634E+00 9.4314350E-01 1.9495256E+00
 6.0561516E+00 9.7120671E-01 1.9433999E+00
 5.9988861E+00 9.9999994E-01 1.9325013E+00
 5.9435621E+00 1.0291651E+00 1.9168036E+00
 5.8907731E+00 1.0583520E+00 1.8965727E+00
 5.8409648E+00 1.0872509E+00 1.8722591E+00
 5.7942664E+00 1.1155526E+00 1.8443198E+00
 5.7503035E+00 1.1428014E+00 1.8129755E+00
 6.6441570E+00 7.8964220E-01 1.9032101E+00
 6.5876878E+00 8.0915771E-01 1.9116152E+00
 6.5301401E+00 8.2897599E-01 1.9200892E+00
 6.4715459E+00 8.4967756E-01 1.9285853E+00
 6.4121062E+00 8.7153325E-01 1.9368090E+00
 6.3521516E+00 8.9467102E-01 1.9442496E+00
 6.2920492E+00 9.1914559E-01 1.9502164E+00
 6.2321259E+00 9.4494103E-01 1.9539000E+00
 6.1726508E+00 9.7195687E-01 1.9544627E+00
 6.1138826E+00 9.9999995E-01 1.9511496E+00
 6.0561516E+00 1.0287932E+00 1.9433999E+00
 5.9999123E+00 1.0580049E+00 1.9309325E+00
 5.9457009E+00 1.0872961E+00 1.9137691E+00
 5.8940018E+00 1.1163599E+00 1.8921767E+00
 5.8450572E+00 1.1449006E+00 1.8665233E+00
 5.7986538E+00 1.1725056E+00 1.8370593E+00
 6.6435259E+00 8.3475668E-01 1.9126040E+00
 6.5865484E+00 8.5557406E-01 1.9202145E+00
 6.5286332E+00 8.7685384E-01 1.9278504E+00
 6.4698318E+00 8.9908320E-01 1.9354039E+00
 6.4103614E+00 9.2247211E-01 1.9425469E+00
 6.3505628E+00 9.4709911E-01 1.9487532E+00
 6.2908058E+00 9.7296620E-01 1.9533334E+00
 6.2314142E+00 9.9999997E-01 1.9555010E+00
 6.1726508E+00 1.0280430E+00 1.9544627E+00
 6.1147635E+00 1.0568564E+00 1.9495256E+00
 6.0580592E+00 1.0861398E+00 1.9401961E+00
 6.0029425E+00 1.1155715E+00 1.9262459E+00
 5.9498526E+00 1.1448513E+00 1.9077111E+00
 5.8990901E+00 1.1736975E+00 1.8848029E+00
 5.8505879E+00 1.2017433E+00 1.8577321E+00
 6.6430368E+00 8.8107115E-01 1.9198346E+00
 6.5857112E+00 9.0308439E-01 1.9264998E+00
 6.5276044E+00 9.2570908E-01 1.9331286E+00
 6.4687833E+00 9.4932701E-01 1.9395632E+00
 6.4094760E+00 9.7408159E-01 1.9454527E+00
 6.3500279E+00 9.9999999E-01 1.9502674E+00
 6.2908058E+00 1.0270338E+00 1.9533334E+00
 6.2321259E+00 1.0550589E+00 1.9539001E+00
 6.1742390E+00 1.0838750E+00 1.9512283E+00
 6.1173730E+00 1.1132180E+00 1.9446888E+00
 6.0617950E+00 1.1427924E+00 1.9338443E+00
 6.0078296E+00 1.1723115E+00 1.9184929E+00
 5.9557604E+00 1.2015098E+00 1.8986404E+00
 5.9056213E+00 1.2300656E+00 1.8743879E+00
 6.6427033E+00 9.2827646E-01 1.9247466E+00
 6.5851996E+00 9.5134956E-01 1.9303301E+00
 6.5270828E+00 9.7516825E-01 1.9357999E+00
 6.4684305E+00 1.0000000E+00 1.9409613E+00
 6.4094760E+00 1.0259184E+00 1.9454527E+00
 6.3505628E+00 1.0529009E+00 1.9487532E+00
 6.2920492E+00 1.0808544E+00 1.9502164E+00
 6.2342376E+00 1.1096169E+00 1.9491375E+00
 6.1773598E+00 1.1389646E+00 1.9448355E+00
 6.1216126E+00 1.1686366E+00 1.9367375E+00
 6.0672046E+00 1.1983712E+00 1.9244422E+00
 6.0143427E+00 1.2279256E+00 1.9077401E+00
 5.9630998E+00 1.2570243E+00 1.8865709E+00
 6.6425343E+00 9.7603037E-01 1.9272308E+00
 6.5850275E+00 9.9999997E-01 1.9316169E+00
 6.5270828E+00 1.0248317E+00 1.9357999E+00
 6.4687833E+00 1.0506730E+00 1.9395633E+00
 6.4103614E+00 1.0775279E+00 1.9425470E+00
 6.3521517E+00 1.1053290E+00 1.9442497E+00
 6.2944970E+00 1.1339498E+00 1.9440621E+00
 6.2376794E+00 1.1632087E+00 1.9413295E+00
 6.1819048E+00 1.1928859E+00 1.9354243E+00
 6.1273316E+00 1.2227557E+00 1.9258140E+00
 6.0740971E+00 1.2526098E+00 1.9121072E+00
 6.0222685E+00 1.2822245E+00 1.8940645E+00
 6.6425343E+00 1.0239695E+00 1.9272308E+00
 6.5851996E+00 1.0486504E+00 1.9303301E+00
 6.5276044E+00 1.0742909E+00 1.9331287E+00
 6.4698318E+00 1.1009168E+00 1.9354040E+00
 6.4121062E+00 1.1284668E+00 1.9368091E+00
 6.3547461E+00 1.1568382E+00 1.9368707E+00
 6.2980717E+00 1.1858882E+00 1.9350208E+00
 6.2423406E+00 1.2154416E+00 1.9306515E+00
 6.1877360E+00 1.2453162E+00 1.9231746E+00
 6.1343910E+00 1.2753495E+00 1.9120758E+00
 6.0823844E+00 1.3053789E+00 1.8969591E+00
 6.6427033E+00 1.0717235E+00 1.9247466E+00
 6.5857112E+00 1.0969156E+00 1.9264999E+00
 6.5286331E+00 1.1231462E+00 1.9278505E+00
 6.4715458E+00 1.1503225E+00 1.9285854E+00
 6.4146588E+00 1.1783265E+00 1.9283800E+00
 6.3582672E+00 1.2070361E+00 1.9267934E+00
 6.3026665E+00 1.2363166E+00 1.9232955E+00
 6.2481026E+00 1.2660329E+00 1.9173114E+00
 6.1947740E+00 1.2960745E+00 1.9082706E+00
 6.1428358E+00 1.3263469E+00 1.8956646E+00
 6.6430368E+00 1.1189288E+00 1.9198347E+00
 6.5865483E+00 1.1444259E+00 1.9202146E+00
 6.5301400E+00 1.1710240E+00 1.9200894E+00
 6.4738757E+00 1.1985206E+00 1.9192686E+00
 6.4179438E+00 1.2267560E+00 1.9174554E+00
 6.3626162E+00 1.2556119E+00 1.9142381E+00
 6.3081860E+00 1.2849950E+00 1.9091103E+00
 6.2549494E+00 1.3148477E+00 1.9015056E+00
 6.2031997E+00 1.3451444E+00 1.8908553E+00
 6.6435259E+00 1.1652433E+00 1.9126042E+00
 6.5876877E+00 1.1908423E+00 1.9116154E+00
 6.5320817E+00 1.2175934E+00 1.9100201E+00
 6.4767539E+00 1.2452009E+00 1.9076599E+00
 6.4218748E+00 1.2734866E+00 1.9042643E+00
 6.3677242E+00 1.3023688E+00 1.8994352E+00
 6.3146789E+00 1.3318343E+00 1.8926610E+00
 6.2631963E+00 1.3619210E+00 1.8833613E+00
 6.6441569E+00 1.2103578E+00 1.9032103E+00
 6.5890965E+00 1.2358686E+00 1.9008863E+00
 6.5344022E+00 1.2625814E+00 1.8978545E+00
 6.4801084E+00 1.2901331E+00 1.8939909E+00
 6.4264094E+00 1.3183622E+00 1.8890351E+00
 6.3737029E+00 1.3472619E+00 1.8825698E+00
 6.3225901E+00 1.3769179E+00 1.8740471E+00
 6.6449115E+00 1.2540063E+00 1.8918449E+00
 6.5907326E+00 1.2792633E+00 1.8882420E+00
 6.5370458E+00 1.3057920E+00 1.8838220E+00
 6.4839250E+00 1.3332002E+00 1.8784815E+00
 6.4317193E+00 1.3613811E+00 1.8719353E+00
 6.3811192E+00 1.3904207E+00 1.8637069E+00
 6.6457660E+00 1.2959736E+00 1.8787251E+00
 6.5925568E+00 1.3208563E+00 1.8739093E+00
 6.5400138E+00 1.3471353E+00 1.8681357E+00
 6.4884183E+00 1.3744360E+00 1.8612815E+00
 6.4384815E+00 1.4027154E+00 1.8529932E+00
 6.6466964E+00 1.3360964E+00 1.8640822E+00
 6.5945800E+00 1.3605754E+00 1.8580973E+00
 6.5435605E+00 1.3866830E+00 1.8509246E+00
 6.4943616E+00 1.4140601E+00 1.8423809E+00
 6.6477124E+00 1.3742867E+00 1.8481375E+00
 6.5970066E+00 1.3984758E+00 1.8409496E+00
 6.5484906E+00 1.4246808E+00 1.8321594E+00
 6.6489474E+00 1.4105755E+00 1.8310607E+00
 6.6006881E+00 1.4348628E+00 1.8224057E+00
 6.6508032E+00 1.4450453E+00 1.8129742E+00
 6.6996518E+00 1.4569677E+00 1.8027778E+00
 6.6996536E+00 1.4243198E+00 1.8205387E+00
 6.6996406E+00 1.3895917E+00 1.8376188E+00
 6.6996285E+00 1.3527355E+00 1.8538217E+00
 6.6996207E+00 1.3138465E+00 1.8688964E+00
 6.6996160E+00 1.2730634E+00 1.8825877E+00
 6.6996133E+00 1.2305327E+00 1.8946618E+00
 6.6996116E+00 1.1864479E+00 1.9048970E+00
 6.6996107E+00 1.1410508E+00 1.9130918E+00
 6.6996102E+00 1.0946257E+00 1.9190762E+00
 6.6996100E+00 1.0474931E+00 1.9227209E+00
 6.6996099E+00 9.9999994E-01 1.9239449E+00
 6.6996100E+00 9.5250680E-01 1.9227208E+00
 6.6996102E+00 9.0537423E-01 1.9190761E+00
 6.6996107E+00 8.5894908E-01 1.9130916E+00
 6.6996116E+00 8.1355205E-01 1.9048968E+00
 6.6996133E+00 7.6946730E-01 1.8946616E+00
 6.6996160E+00 7.2693664E-01 1.8825874E+00
 6.6996207E+00 6.8615351E-01 1.8688961E+00
 6.6996285E+00 6.4726454E-01 1.8538213E+00
 6.6996406E+00 6.1040840E-01 1.8376185E+00
 6.6996536E+00 5.7568033E-01 1.8205383E+00
 6.6996518E+00 5.4303247E-01 1.8027774E+00
 6.7433892E+00 5.2435345E-01 1.7890274E+00
 6.7913535E+00 5.3542108E-01 1.7927623E+00
 6.8416008E+00 5.4699329E-01 1.7967010E+00
 6.8937663E+00 5.5911812E-01 1.8007710E+00
 6.9476660E+00 5.7187309E-01 1.8048458E+00
 7.0030949E+00 5.8536606E-01 1.8087554E+00
 7.0598662E+00 5.9972820E-01 1.8122873E+00
 7.1177562E+00 6.1509564E-01 1.8151867E+00
 7.1764972E+00 6.3159994E-01 1.8171657E+00
 7.2357742E+00 6.4935590E-01 1.8179151E+00
 7.2952295E+00 6.6845077E-01 1.8171222E+00
 7.3544688E+00 6.8893399E-01 1.8144897E+00
 7.4130705E+00 7.1080877E-01 1.8097563E+00
 7.4705975E+00 7.3402705E-01 1.8027163E+00
 7.5266119E+00 7.5848841E-01 1.7932348E+00
 7.5806933E+00 7.8404399E-01 1.7812575E+00
 7.6324569E+00 8.1050470E-01 1.7668134E+00
 7.6815708E+00 8.3765289E-01 1.7500104E+00
 7.7277656E+00 8.6525479E-01 1.7310259E+00
 7.7708356E+00 8.9307070E-01 1.7100952E+00
 7.8106152E+00 9.2084659E-01 1.6875152E+00
 7.8469855E+00 9.4832492E-01 1.6636247E+00
 7.8798050E+00 9.7516605E-01 1.6388570E+00
 6.7483475E+00 1.4422577E+00 1.8079170E+00
 6.7979681E+00 1.4293351E+00 1.8120274E+00
 6.8493230E+00 1.4163933E+00 1.8160418E+00
 6.9022883E+00 1.4030110E+00 1.8200610E+00
 6.9567812E+00 1.3889533E+00 1.8240176E+00
 7.0126696E+00 1.3740871E+00 1.8277335E+00
 7.0697685E+00 1.3582923E+00 1.8309751E+00
 7.1278459E+00 1.3414534E+00 1.8334677E+00
 7.1866171E+00 1.3234655E+00 1.8349084E+00
 7.2457514E+00 1.3042452E+00 1.8349805E+00
 7.3048779E+00 1.2837407E+00 1.8333716E+00
 7.3635947E+00 1.2619416E+00 1.8297939E+00
 7.4214792E+00 1.2388840E+00 1.8240049E+00
 7.4781005E+00 1.2146531E+00 1.8158247E+00
 7.5330354E+00 1.1893804E+00 1.8051507E+00
 7.5858861E+00 1.1632361E+00 1.7919637E+00
 7.6362969E+00 1.1364175E+00 1.7763280E+00
 7.6839719E+00 1.1091340E+00 1.7583822E+00
 7.7286846E+00 1.0815960E+00 1.7383254E+00
 7.7703064E+00 1.0540209E+00 1.7163805E+00
 7.8088877E+00 1.0266715E+00 1.6927125E+00
 7.8448094E+00 9.9999996E-01 1.6672730E+00
 6.7501659E+00 1.4079046E+00 1.8256951E+00
 6.8015470E+00 1.3932086E+00 1.8299446E+00
 6.8540670E+00 1.3788618E+00 1.8339038E+00
 6.9079663E+00 1.3641109E+00 1.8377904E+00
 6.9632207E+00 1.3486600E+00 1.8415353E+00
 7.0197400E+00 1.3323502E+00 1.8449515E+00
 7.0773457E+00 1.3150707E+00 1.8477855E+00
 7.1357920E+00 1.2967247E+00 1.8497447E+00
 7.1947768E+00 1.2772326E+00 1.8505126E+00
 7.2539513E+00 1.2565423E+00 1.8497657E+00
 7.3129299E+00 1.2346376E+00 1.8471934E+00
 7.3713011E+00 1.2115460E+00 1.8425192E+00
 7.4286393E+00 1.1873412E+00 1.8355209E+00
 7.4845188E+00 1.1621422E+00 1.8260475E+00
 7.5385312E+00 1.1361060E+00 1.8140302E+00
 7.5903025E+00 1.1094157E+00 1.7994860E+00
 7.6395129E+00 1.0822646E+00 1.7825112E+00
 7.6859241E+00 1.0548406E+00 1.7632606E+00
 7.7294313E+00 1.0273335E+00 1.7418981E+00
 7.7701861E+00 9.9999996E-01 1.7184851E+00
 7.8088877E+00 9.7332840E-01 1.6927125E+00
 6.7513602E+00 1.3717871E+00 1.8425302E+00
 6.8038863E+00 1.3556839E+00 1.8466019E+00
 6.8574610E+00 1.3399323E+00 1.8503692E+00
 6.9122424E+00 1.3237873E+00 1.8539950E+00
 6.9682657E+00 1.3069029E+00 1.8574020E+00
 7.0254351E+00 1.2891252E+00 1.8603815E+00
 7.0835644E+00 1.2703536E+00 1.8626622E+00
 7.1423906E+00 1.2505123E+00 1.8639356E+00
 7.2015921E+00 1.2295491E+00 1.8638747E+00
 7.2608023E+00 1.2074441E+00 1.8621531E+00
 7.3196223E+00 1.1842171E+00 1.8584665E+00
 7.3776323E+00 1.1599323E+00 1.8525544E+00
 7.4344067E+00 1.1346976E+00 1.8442198E+00
 7.4895293E+00 1.1086596E+00 1.8333436E+00
 7.5426122E+00 1.0819910E+00 1.8198925E+00
 7.5933155E+00 1.0548744E+00 1.8039156E+00
 7.6413800E+00 1.0274856E+00 1.7855257E+00
 7.6866907E+00 9.9999996E-01 1.7648480E+00
 7.7294313E+00 9.7266638E-01 1.7418981E+00
 7.7703064E+00 9.4597906E-01 1.7163805E+00
 6.7523417E+00 1.3338024E+00 1.8582584E+00
 6.8058368E+00 1.3164093E+00 1.8619734E+00
 6.8603024E+00 1.2993137E+00 1.8653865E+00
 6.9158779E+00 1.2817743E+00 1.8686091E+00
 6.9725802E+00 1.2634643E+00 1.8715280E+00
 7.0303087E+00 1.2442377E+00 1.8739143E+00
 7.0888590E+00 1.2240137E+00 1.8754794E+00
 7.1479498E+00 1.2027401E+00 1.8759030E+00
 7.2072414E+00 1.1803945E+00 1.8748529E+00
 7.2663524E+00 1.1569907E+00 1.8720060E+00
 7.3248741E+00 1.1325837E+00 1.8670707E+00
 7.3823844E+00 1.1072715E+00 1.8598087E+00
 7.4384640E+00 1.0811901E+00 1.8500530E+00
 7.4927148E+00 1.0545030E+00 1.8377183E+00
 7.5447818E+00 1.0273841E+00 1.8228034E+00
 7.5943832E+00 9.9999996E-01 1.8053758E+00
 7.6413800E+00 9.7251436E-01 1.7855257E+00
 7.6859241E+00 9.4515927E-01 1.7632606E+00
 7.7286846E+00 9.1840396E-01 1.7383254E+00
 6.7532460E+00 1.2939139E+00 1.8726974E+00
 6.8076005E+00 1.2753197E+00 1.8758978E+00
 6.8628381E+00 1.2569186E+00 1.8788074E+00
 6.9190783E+00 1.2380191E+00 1.8814727E+00
 6.9763258E+00 1.2183220E+00 1.8837449E+00
 7.0344638E+00 1.1977046E+00 1.8853740E+00
 7.0932717E+00 1.1761084E+00 1.8860589E+00
 7.1524507E+00 1.1535087E+00 1.8854724E+00
 7.2116464E+00 1.1299147E+00 1.8832838E+00
 7.2704674E+00 1.1053736E+00 1.8791802E+00
 7.3285017E+00 1.0799736E+00 1.8728898E+00
 7.3853324E+00 1.0538403E+00 1.8642020E+00
 7.4405560E+00 1.0271273E+00 1.8529822E+00
 7.4938055E+00 9.9999996E-01 1.8391766E+00
 7.5447818E+00 9.7261585E-01 1.8228034E+00
 7.5933155E+00 9.4512549E-01 1.8039156E+00
 7.6395129E+00 9.1773535E-01 1.7825112E+00
 7.6839719E+00 8.9086592E-01 1.7583822E+00
 6.7540807E+00 1.2522082E+00 1.8856280E+00
 6.8091857E+00 1.2324833E+00 1.8881714E+00
 6.8650662E+00 1.2128294E+00 1.8904293E+00
 6.9218261E+00 1.1926257E+00 1.8923821E+00
 6.9794578E+00 1.1716134E+00 1.8938477E+00
 7.0378300E+00 1.1496976E+00 1.8945591E+00
 7.0967068E+00 1.1268463E+00 1.8942071E+00
 7.1557754E+00 1.1030643E+00 1.8924647E+00
 7.2146718E+00 1.0783924E+00 1.8890094E+00
 7.2730007E+00 1.0529095E+00 1.8835457E+00
 7.3303545E+00 1.0267308E+00 1.8758272E+00
 7.3863311E+00 9.9999996E-01 1.8656740E+00
 7.4405560E+00 9.7287259E-01 1.8529822E+00
 7.4927148E+00 9.4549694E-01 1.8377183E+00
 7.5426122E+00 9.1800891E-01 1.8198924E+00
 7.5903025E+00 8.9058424E-01 1.7994860E+00
 7.6362969E+00 8.6358237E-01 1.7763279E+00
 6.7548200E+00 1.2088466E+00 1.8968248E+00
 6.8105518E+00 1.1880657E+00 1.8985783E+00
 6.8669312E+00 1.1672330E+00 1.9000395E+00
 6.9240508E+00 1.1458097E+00 1.9011283E+00
 6.9818920E+00 1.1235859E+00 1.9016339E+00
 7.0403109E+00 1.1004983E+00 1.9012779E+00
 7.0990595E+00 1.0765436E+00 1.8997493E+00
 7.1578158E+00 1.0517562E+00 1.8967278E+00
 7.2162117E+00 1.0262066E+00 1.8919060E+00
 7.2738560E+00 9.9999996E-01 1.8850117E+00
 7.3303545E+00 9.7326908E-01 1.8758272E+00
 7.3853324E+00 9.4615966E-01 1.8642020E+00
 7.4384640E+00 9.1880987E-01 1.8500530E+00
 7.4895293E+00 8.9134036E-01 1.8333436E+00
 7.5385312E+00 8.6389394E-01 1.8140302E+00
 7.5858861E+00 8.3676383E-01 1.7919637E+00
 6.7554392E+00 1.1640418E+00 1.9060766E+00
 6.8116571E+00 1.1423017E+00 1.9069149E+00
 6.8683785E+00 1.1203904E+00 1.9074415E+00
 6.9256873E+00 1.0978631E+00 1.9075241E+00
 6.9835558E+00 1.0745640E+00 1.9069301E+00
 7.0418303E+00 1.0504639E+00 1.9053758E+00
 7.1002547E+00 1.0255885E+00 1.9025551E+00
 7.1585035E+00 9.9999995E-01 1.8981606E+00
 7.2162117E+00 9.7379331E-01 1.8919060E+00
 7.2730007E+00 9.4709045E-01 1.8835457E+00
 7.3285017E+00 9.2002633E-01 1.8728898E+00
 7.3823844E+00 8.9272845E-01 1.8598087E+00
 7.4344067E+00 8.6530232E-01 1.8442198E+00
 7.4845188E+00 8.3785772E-01 1.8260475E+00
 7.5330354E+00 8.1061955E-01 1.8051507E+00
 6.7559195E+00 1.1180560E+00 1.9131962E+00
 6.8124693E+00 1.0954788E+00 1.9130058E+00
 6.8693665E+00 1.0726177E+00 1.9124730E+00
 6.9266882E+00 1.0491322E+00 1.9114236E+00
 6.9843999E+00 1.0249244E+00 1.9096111E+00
 7.0423419E+00 9.9999994E-01 1.9067533E+00
 7.1002547E+00 9.7441135E-01 1.9025551E+00
 7.1578158E+00 9.4824369E-01 1.8967278E+00
 7.2146717E+00 9.2160749E-01 1.8890094E+00
 7.2704674E+00 8.9462628E-01 1.8791802E+00
 7.3248741E+00 8.6741621E-01 1.8670706E+00
 7.3776323E+00 8.4006765E-01 1.8525544E+00
 7.4286392E+00 8.1265871E-01 1.8355209E+00
 7.4781005E+00 7.8534686E-01 1.8158247E+00
 6.7562473E+00 1.0711938E+00 1.9180320E+00
 6.8129657E+00 1.0479257E+00 1.9167167E+00
 6.8698674E+00 1.0242706E+00 1.9150187E+00
 6.9270249E+00 9.9999993E-01 1.9127340E+00
 6.9843999E+00 9.7507547E-01 1.9096111E+00
 7.0418303E+00 9.4953595E-01 1.9053758E+00
 7.0990595E+00 9.2345629E-01 1.8997493E+00
 7.1557754E+00 8.9693557E-01 1.8924647E+00
 7.2116463E+00 8.7008523E-01 1.8832838E+00
 7.2663524E+00 8.4300928E-01 1.8720059E+00
 7.3196222E+00 8.1578281E-01 1.8584664E+00
 7.3713011E+00 7.8845394E-01 1.8425191E+00
 7.4214792E+00 7.6111598E-01 1.8240048E+00
 6.7564134E+00 1.0237920E+00 1.9204774E+00
 6.8131327E+00 9.9999993E-01 1.9179633E+00
 6.8698673E+00 9.7572927E-01 1.9150187E+00
 6.9266881E+00 9.5086766E-01 1.9114236E+00
 6.9835557E+00 9.2543590E-01 1.9069301E+00
 7.0403109E+00 8.9950155E-01 1.9012778E+00
 7.0967067E+00 8.7315360E-01 1.8942070E+00
 7.1524506E+00 8.4649117E-01 1.8854724E+00
 7.2072414E+00 8.1960542E-01 1.8748529E+00
 7.2608023E+00 7.9255586E-01 1.8621530E+00
 7.3129299E+00 7.6536231E-01 1.8471933E+00
 7.3635947E+00 7.3805839E-01 1.8297939E+00
 6.7564134E+00 9.7620791E-01 1.9204774E+00
 6.8129657E+00 9.5207419E-01 1.9167167E+00
 6.8693665E+00 9.2738220E-01 1.9124729E+00
 6.9256873E+00 9.0213677E-01 1.9075241E+00
 6.9818920E+00 8.7641397E-01 1.9016338E+00
 7.0378300E+00 8.5030235E-01 1.8945590E+00
 7.0932717E+00 8.2389155E-01 1.8860588E+00
 7.1479498E+00 7.9725983E-01 1.8759029E+00
 7.2015920E+00 7.7045086E-01 1.8638746E+00
 7.2539512E+00 7.4345766E-01 1.8497656E+00
 7.3048779E+00 7.1625925E-01 1.8333715E+00
 6.7562472E+00 9.2880608E-01 1.9180319E+00
 6.8124693E+00 9.0452105E-01 1.9130057E+00
 6.8683785E+00 8.7960953E-01 1.9074414E+00
 6.9240508E+00 8.5419015E-01 1.9011282E+00
 6.9794578E+00 8.2838653E-01 1.8938476E+00
 7.0344637E+00 8.0229530E-01 1.8853739E+00
 7.0888590E+00 7.7598624E-01 1.8754793E+00
 7.1423906E+00 7.4948766E-01 1.8639355E+00
 7.1947768E+00 7.2276731E-01 1.8505125E+00
 7.2457513E+00 6.9575480E-01 1.8349803E+00
 6.7559195E+00 8.8194389E-01 1.9131961E+00
 6.8116571E+00 8.5769819E-01 1.9069148E+00
 6.8669312E+00 8.3276694E-01 1.9000393E+00
 6.9218260E+00 8.0737423E-01 1.8923820E+00
 6.9763257E+00 7.8167797E-01 1.8837447E+00
 7.0303086E+00 7.5576224E-01 1.8739141E+00
 7.0835644E+00 7.2964638E-01 1.8626621E+00
 7.1357920E+00 7.0327530E-01 1.8497446E+00
 7.1866171E+00 6.7653443E-01 1.8349083E+00
 6.7554391E+00 8.3595813E-01 1.9060765E+00
 6.8105517E+00 8.1193424E-01 1.8985782E+00
 6.8650661E+00 7.8717056E-01 1.8904291E+00
 6.9190782E+00 7.6198081E-01 1.8814725E+00
 6.9725801E+00 7.3653570E-01 1.8715279E+00
 7.0254350E+00 7.1087480E-01 1.8603814E+00
 7.0773456E+00 6.8492925E-01 1.8477854E+00
 7.1278458E+00 6.5854661E-01 1.8334675E+00
 6.7548199E+00 7.9115333E-01 1.8968247E+00
 6.8091856E+00 7.6751668E-01 1.8881712E+00
 6.8628380E+00 7.4308131E-01 1.8788072E+00
 6.9158778E+00 7.1822566E-01 1.8686089E+00
 6.9682656E+00 6.9309712E-01 1.8574018E+00
 7.0197400E+00 6.6764981E-01 1.8449513E+00
 7.0697684E+00 6.4170776E-01 1.8309749E+00
 6.7540806E+00 7.4779180E-01 1.8856277E+00
 6.8076005E+00 7.2468032E-01 1.8758976E+00
 6.8603023E+00 7.0068629E-01 1.8653862E+00
 6.9122423E+00 6.7621270E-01 1.8539947E+00
 6.9632206E+00 6.5134000E-01 1.8415351E+00
 7.0126695E+00 6.2591298E-01 1.8277333E+00
 6.7532459E+00 7.0608608E-01 1.8726971E+00
 6.8058367E+00 6.8359073E-01 1.8619731E+00
 6.8574609E+00 6.6006772E-01 1.8503689E+00
 6.9079663E+00 6.3588910E-01 1.8377902E+00
 6.9567811E+00 6.1104677E-01 1.8240174E+00
 6.7523417E+00 6.6619761E-01 1.8582581E+00
 6.8038862E+00 6.4431616E-01 1.8466016E+00
 6.8540669E+00 6.2113824E-01 1.8339035E+00
 6.9022882E+00 5.9698906E-01 1.8200607E+00
 6.7513602E+00 6.2821300E-01 1.8425299E+00
 6.8015469E+00 6.0679154E-01 1.8299443E+00
 6.8493229E+00 5.8360678E-01 1.8160415E+00
 6.7501659E+00 5.9209554E-01 1.8256948E+00
 6.7979680E+00 5.7066499E-01 1.8120270E+00
 6.7483475E+00 5.5774241E-01 1.8079166E+00
 6.6725587E+00 1.5092739E+00 1.7726324E+00
 6.6425759E+00 1.5351776E+00 1.7573073E+00
 6.6111902E+00 1.5619239E+00 1.7404002E+00
 6.5785429E+00 1.5893664E+00 1.7218323E+00
 6.5447802E+00 1.6173658E+00 1.7015064E+00
 6.5101064E+00 1.6457569E+00 1.6793123E+00
 6.4747303E+00 1.6743587E+00 1.6551231E+00
 6.4388948E+00 1.7029416E+00 1.6288199E+00
 6.4028737E+00 1.7312265E+00 1.6003026E+00
 6.3669573E+00 1.7588877E+00 1.5695057E+00
 6.3314365E+00 1.7855650E+00 1.5364126E+00
 6.2965889E+00 1.8108828E+00 1.5010688E+00
 6.2626683E+00 1.8344708E+00 1.4635913E+00
 6.2299005E+00 1.8559888E+00 1.4241727E+00
 6.1984810E+00 1.8751490E+00 1.3830772E+00
 6.1685754E+00 1.8917329E+00 1.3406297E+00
 6.1403199E+00 1.9056035E+00 1.2971988E+00
 6.1138211E+00 1.9167094E+00 1.2531739E+00
 6.0891583E+00 1.9250804E+00 1.2089450E+00
 6.0663891E+00 1.9308178E+00 1.1648921E+00
 6.0455675E+00 1.9340810E+00 1.1214013E+00
 6.0267284E+00 1.9350733E+00 1.0788377E+00
 6.0099487E+00 1.9340444E+00 1.0377830E+00
 5.5335708E+00 1.0707227E+00 1.6184601E+00
 5.5290613E+00 1.1166525E+00 1.6054772E+00
 5.5260998E+00 1.1635722E+00 1.5904725E+00
 5.5252031E+00 1.2116946E+00 1.5737433E+00
 5.5266882E+00 1.2609509E+00 1.5553387E+00
 5.5307929E+00 1.3111298E+00 1.5352364E+00
 5.5377204E+00 1.3619406E+00 1.5134124E+00
 5.5476480E+00 1.4130348E+00 1.4898726E+00
 5.5607183E+00 1.4640118E+00 1.4646608E+00
 5.5770270E+00 1.5144285E+00 1.4378626E+00
 5.5966115E+00 1.5638110E+00 1.4096049E+00
 5.6194419E+00 1.6116697E+00 1.3800553E+00
 5.6454147E+00 1.6575159E+00 1.3494201E+00
 5.6743500E+00 1.7008805E+00 1.3179397E+00
 5.7059935E+00 1.7413339E+00 1.2858820E+00
 5.7400234E+00 1.7785051E+00 1.2535345E+00
 5.7760632E+00 1.8121006E+00 1.2211935E+00
 5.8136994E+00 1.8419175E+00 1.1891538E+00
 5.8525001E+00 1.8678531E+00 1.1576946E+00
 5.8920223E+00 1.8899035E+00 1.1270478E+00
 5.9318207E+00 1.9081641E+00 1.0972959E+00
 5.9713745E+00 1.9228075E+00 1.0681651E+00
 5.5613745E+00 1.1002618E+00 1.6494750E+00
 5.5584044E+00 1.1485601E+00 1.6365782E+00
 5.5569444E+00 1.1972243E+00 1.6214286E+00
 5.5576470E+00 1.2467710E+00 1.6044256E+00
 5.5608724E+00 1.2972324E+00 1.5856387E+00
 5.5668571E+00 1.3484128E+00 1.5650346E+00
 5.5757878E+00 1.3999981E+00 1.5425816E+00
 5.5878175E+00 1.4515977E+00 1.5182871E+00
 5.6030566E+00 1.5027663E+00 1.4922052E+00
 5.6215601E+00 1.5530190E+00 1.4644381E+00
 5.6433166E+00 1.6018478E+00 1.4351351E+00
 5.6682398E+00 1.6487406E+00 1.4044908E+00
 5.6961652E+00 1.6932007E+00 1.3727409E+00
 5.7268505E+00 1.7347688E+00 1.3401567E+00
 5.7599826E+00 1.7730449E+00 1.3070365E+00
 5.7951921E+00 1.8077092E+00 1.2736941E+00
 5.8320735E+00 1.8385393E+00 1.2404458E+00
 5.8702117E+00 1.8654231E+00 1.2075856E+00
 5.9091988E+00 1.8883637E+00 1.1753281E+00
 5.9486201E+00 1.9074727E+00 1.1436671E+00
 5.9880085E+00 1.9229605E+00 1.1120290E+00
 5.5928279E+00 1.1300580E+00 1.6802980E+00
 5.5913956E+00 1.1800597E+00 1.6672592E+00
 5.5915432E+00 1.2302460E+00 1.6518544E+00
 5.5939693E+00 1.2811055E+00 1.6344637E+00
 5.5990548E+00 1.3326785E+00 1.6151509E+00
 5.6070276E+00 1.3847454E+00 1.5938750E+00
 5.6180537E+00 1.4369518E+00 1.5706049E+00
 5.6322557E+00 1.4888612E+00 1.5453566E+00
 5.6497044E+00 1.5399826E+00 1.5182013E+00
 5.6704062E+00 1.5897919E+00 1.4892646E+00
 5.6942924E+00 1.6377532E+00 1.4587253E+00
 5.7212140E+00 1.6833412E+00 1.4268115E+00
 5.7509414E+00 1.7260650E+00 1.3937951E+00
 5.7831701E+00 1.7654929E+00 1.3599833E+00
 5.8175365E+00 1.8012755E+00 1.3257068E+00
 5.8536397E+00 1.8331672E+00 1.2913034E+00
 5.8910710E+00 1.8610404E+00 1.2570900E+00
 5.9294335E+00 1.8848943E+00 1.2232985E+00
 5.9683219E+00 1.9048527E+00 1.1899129E+00
 6.0072484E+00 1.9211511E+00 1.1563797E+00
 5.6281233E+00 1.1604248E+00 1.7104158E+00
 5.6282955E+00 1.2117893E+00 1.6970373E+00
 5.6301700E+00 1.2632446E+00 1.6812225E+00
 5.6344578E+00 1.3152070E+00 1.6632979E+00
 5.6415298E+00 1.3676641E+00 1.6433011E+00
 5.6515930E+00 1.4203520E+00 1.6211853E+00
 5.6647826E+00 1.4728689E+00 1.5969258E+00
 5.6811813E+00 1.5247314E+00 1.5705545E+00
 5.7008108E+00 1.5754076E+00 1.5421661E+00
 5.7236199E+00 1.6243430E+00 1.5119175E+00
 5.7494759E+00 1.6709869E+00 1.4800236E+00
 5.7781636E+00 1.7148185E+00 1.4467522E+00
 5.8093904E+00 1.7553749E+00 1.4124156E+00
 5.8428007E+00 1.7922767E+00 1.3773584E+00
 5.8780004E+00 1.8252525E+00 1.3419392E+00
 5.9145871E+00 1.8541553E+00 1.3065022E+00
 5.9521726E+00 1.8789749E+00 1.2713100E+00
 5.9903592E+00 1.8998391E+00 1.2363935E+00
 6.0286490E+00 1.9170074E+00 1.2012868E+00
 5.6674421E+00 1.1912644E+00 1.7393208E+00
 5.6693115E+00 1.2437288E+00 1.7254125E+00
 5.6730406E+00 1.2961932E+00 1.7090213E+00