# TIME = 1.200000
variables = x, y, z
zone N=5762 E=11520 F=FEPOINT ET=TRIANGLE
 5.5639986E+00 1.4929003E+00 1.7974583E+00
 5.5639986E+00 1.4929001E+00 2.0254182E-01
 5.5639985E+00 5.0709976E-01 1.7974583E+00
 5.5639987E+00 5.0709987E-01 2.0254176E-01
 4.3782881E+00 1.0000000E+00 1.5981761E+00
 6.7689259E+00 1.0000000E+00 1.6131542E+00
 4.3782886E+00 1.0000000E+00 4.0182404E-01
 6.7689260E+00 1.0000000E+00 3.8684552E-01
 4.8631422E+00 1.9226469E+00 9.9999989E-01
 4.8631421E+00 7.7352545E-02 9.9999992E-01
 6.2493500E+00 1.8571077E+00 9.9999990E-01
 6.2493500E+00 1.4289247E-01 9.9999990E-01
 5.5207472E+00 1.4854737E+00 1.8054475E+00
 5.4732725E+00 1.4770134E+00 1.8139946E+00
 5.4234641E+00 1.4678428E+00 1.8227304E+00
 5.3715697E+00 1.4579263E+00 1.8315387E+00
 5.3176618E+00 1.4471488E+00 1.8403033E+00
 5.2618626E+00 1.4353740E+00 1.8488264E+00
 5.2043261E+00 1.4224216E+00 1.8568165E+00
 5.1452652E+00 1.4080801E+00 1.8638545E+00
 5.0849458E+00 1.3921127E+00 1.8693913E+00
 5.0237056E+00 1.3742860E+00 1.8727726E+00
 4.9619875E+00 1.3544138E+00 1.8733086E+00
 4.9003710E+00 1.3324072E+00 1.8703784E+00
 4.8395646E+00 1.3083132E+00 1.8635363E+00
 4.7803499E+00 1.2823231E+00 1.8525823E+00
 4.7234938E+00 1.2547514E+00 1.8375786E+00
 4.6696664E+00 1.2259951E+00 1.8188164E+00
 4.6193846E+00 1.1964864E+00 1.7967556E+00
 4.5729894E+00 1.1666523E+00 1.7719554E+00
 4.5306484E+00 1.1368821E+00 1.7450109E+00
 4.4923779E+00 1.1075106E+00 1.7165028E+00
 4.4580759E+00 1.0788076E+00 1.6869673E+00
 4.4275820E+00 1.0510121E+00 1.6568995E+00
 4.4007173E+00 1.0243412E+00 1.6267659E+00
 5.5167483E+00 5.4769566E-01 1.8248186E+00
 5.4679728E+00 5.5777164E-01 1.8337612E+00
 5.4171903E+00 5.6837663E-01 1.8426871E+00
 5.3644078E+00 5.7979729E-01 1.8516227E+00
 5.3096812E+00 5.9216294E-01 1.8604380E+00
 5.2531228E+00 6.0561491E-01 1.8689128E+00
 5.1949219E+00 6.2032313E-01 1.8767161E+00
 5.1353193E+00 6.3648510E-01 1.8833873E+00
 5.0746112E+00 6.5430610E-01 1.8883356E+00
 5.0131661E+00 6.7396872E-01 1.8908776E+00
 4.9514606E+00 6.9558983E-01 1.8903202E+00
 4.8901053E+00 7.1917784E-01 1.8860720E+00
 4.8298262E+00 7.4460818E-01 1.8777469E+00
 4.7713992E+00 7.7162725E-01 1.8652218E+00
 4.7155614E+00 7.9988227E-01 1.8486377E+00
 4.6629349E+00 8.2896431E-01 1.8283545E+00
 4.6139790E+00 8.5845200E-01 1.8048843E+00
 4.5689754E+00 8.8794925E-01 1.7788196E+00
 4.5280389E+00 9.1710875E-01 1.7507722E+00
 4.4911368E+00 9.4565628E-01 1.7213213E+00
 4.4581029E+00 9.7337593E-01 1.6909606E+00
 4.4285289E+00 1.0000000E+00 1.6599160E+00
 5.5154458E+00 5.8217203E-01 1.8429033E+00
 5.4654523E+00 5.9381978E-01 1.8520811E+00
 5.4136316E+00 6.0594690E-01 1.8611228E+00
 5.3598459E+00 6.1896292E-01 1.8701081E+00
 5.3041476E+00 6.3300633E-01 1.8788896E+00
 5.2466771E+00 6.4821532E-01 1.8872178E+00
 5.1876499E+00 6.6475122E-01 1.8947254E+00
 5.1273396E+00 6.8278932E-01 1.9009081E+00
 5.0660745E+00 7.0249750E-01 1.9051342E+00
 5.0042581E+00 7.2400260E-01 1.9066932E+00
 4.9424046E+00 7.4735024E-01 1.9048925E+00
 4.8811579E+00 7.7247103E-01 1.8991751E+00
 4.8212628E+00 7.9916832E-01 1.8892194E+00
 4.7634898E+00 8.2713384E-01 1.8749823E+00
 4.7085475E+00 8.5598425E-01 1.8566870E+00
 4.6570107E+00 8.8530519E-01 1.8347645E+00
 4.6092814E+00 9.1469323E-01 1.8097799E+00
 4.5655826E+00 9.4378672E-01 1.7823593E+00
 4.5259647E+00 9.7229680E-01 1.7531213E+00
 4.4903085E+00 1.0000000E+00 1.7226043E+00
 4.4581029E+00 1.0266241E+00 1.6909606E+00
 5.5144097E+00 6.1866834E-01 1.8601142E+00
 5.4634199E+00 6.3180899E-01 1.8693142E+00
 5.4106099E+00 6.4552658E-01 1.8783487E+00
 5.3558770E+00 6.6020448E-01 1.8872470E+00
 5.2992770E+00 6.7598649E-01 1.8958444E+00
 5.2409789E+00 6.9300113E-01 1.9038614E+00
 5.1812294E+00 7.1139172E-01 1.9108939E+00
 5.1203333E+00 7.3130271E-01 1.9163989E+00
 5.0586510E+00 7.5285532E-01 1.9197116E+00
 4.9966190E+00 7.7611395E-01 1.9201075E+00
 4.9347846E+00 8.0105085E-01 1.9169094E+00
 4.8738172E+00 8.2752209E-01 1.9096090E+00
 4.8144686E+00 8.5526779E-01 1.8979569E+00
 4.7574933E+00 8.8393761E-01 1.8819934E+00
 4.7035617E+00 9.1313148E-01 1.8620198E+00
 4.6531955E+00 9.4244424E-01 1.8385306E+00
 4.6067373E+00 9.7150206E-01 1.8121339E+00
 4.5643423E+00 1.0000000E+00 1.7834704E+00
 4.5259647E+00 1.0277032E+00 1.7531213E+00
 4.4911368E+00 1.0543437E+00 1.7213213E+00
 5.5134571E+00 6.5728229E-01 1.8762915E+00
 5.4615353E+00 6.7196691E-01 1.8853799E+00
 5.4078362E+00 6.8731273E-01 1.8942502E+00
 5.3522585E+00 7.0369394E-01 1.9028979E+00
 5.2948840E+00 7.2123969E-01 1.9111312E+00
 5.2359084E+00 7.4006537E-01 1.9186433E+00
 5.1756103E+00 7.6028890E-01 1.9249977E+00
 5.1143249E+00 7.8201601E-01 1.9296205E+00
 5.0524417E+00 8.0531376E-01 1.9318266E+00
 4.9904254E+00 8.3017912E-01 1.9308936E+00
 4.9288475E+00 8.5651046E-01 1.9261766E+00
 4.8683902E+00 8.8409519E-01 1.9172276E+00
 4.8097982E+00 9.1262151E-01 1.9038756E+00
 4.7537968E+00 9.4171143E-01 1.8862411E+00
 4.7010086E+00 9.7096478E-01 1.8646951E+00
 4.6518978E+00 1.0000000E+00 1.8397829E+00
 4.6067373E+00 1.0284980E+00 1.8121339E+00
 4.5655826E+00 1.0562133E+00 1.7823593E+00
 4.5280389E+00 1.0828913E+00 1.7507722E+00
 5.5125664E+00 6.9797793E-01 1.8912049E+00
 5.4598061E+00 7.1422821E-01 1.9000268E+00
 5.4053258E+00 7.3123125E-01 1.9085687E+00
 5.3490365E+00 7.4932685E-01 1.9167853E+00
 5.2910422E+00 7.6863042E-01 1.9244621E+00
 5.2315685E+00 7.8923567E-01 1.9312669E+00
 5.1709234E+00 8.1122885E-01 1.9367377E+00
 5.1094702E+00 8.3466971E-01 1.9402802E+00
 5.0476227E+00 8.5956572E-01 1.9412042E+00
 4.9858666E+00 8.8584442E-01 1.9388064E+00
 4.9247871E+00 9.1333408E-01 1.9324890E+00
 4.8650652E+00 9.4176294E-01 1.9218735E+00
 4.8074248E+00 9.7078112E-01 1.9068675E+00
 4.7525500E+00 1.0000000E+00 1.8876654E+00
 4.7010086E+00 1.0290352E+00 1.8646951E+00
 4.6531955E+00 1.0575558E+00 1.8385307E+00
 4.6092814E+00 1.0853068E+00 1.8097799E+00
 4.5689754E+00 1.1120508E+00 1.7788196E+00
 5.5117651E+00 7.4064355E-01 1.9046027E+00
 5.4582724E+00 7.5846344E-01 1.9129945E+00
 5.4031390E+00 7.7711640E-01 1.9210298E+00
 5.3462878E+00 7.9690214E-01 1.9286253E+00
 5.2878472E+00 8.1791497E-01 1.9355459E+00
 5.2280708E+00 8.4022261E-01 1.9414400E+00
 5.1672942E+00 8.6387326E-01 1.9458283E+00
 5.1059039E+00 8.8887595E-01 1.9481092E+00
 5.0443326E+00 9.1517592E-01 1.9476034E+00
 4.9830780E+00 9.4263351E-01 1.9436424E+00
 4.9227270E+00 9.7101437E-01 1.9356878E+00
 4.8639460E+00 1.0000000E+00 1.9234353E+00
 4.8074248E+00 1.0292189E+00 1.9068676E+00
 4.7537968E+00 1.0582886E+00 1.8862412E+00
 4.7035616E+00 1.0868686E+00 1.8620199E+00
 4.6570107E+00 1.1146948E+00 1.8347645E+00
 4.6139790E+00 1.1415480E+00 1.8048843E+00
 5.5110673E+00 7.8510073E-01 1.9162333E+00
 5.4569659E+00 8.0446143E-01 1.9240239E+00
 5.4013230E+00 8.2472146E-01 1.9313684E+00
 5.3440758E+00 8.4613191E-01 1.9381502E+00
 5.2853764E+00 8.6876170E-01 1.9441178E+00
 5.2255043E+00 8.9264745E-01 1.9489068E+00
 5.1648185E+00 9.1779541E-01 1.9520313E+00
 5.1037238E+00 9.4416139E-01 1.9528963E+00
 5.0426640E+00 9.7162993E-01 1.9508487E+00
 4.9821394E+00 1.0000000E+00 1.9452695E+00
 4.9227270E+00 1.0289856E+00 1.9356879E+00
 4.8650652E+00 1.0582371E+00 1.9218736E+00
 4.8097982E+00 1.0873785E+00 1.9038758E+00
 4.7574933E+00 1.1160624E+00 1.8819936E+00
 4.7085474E+00 1.1440158E+00 1.8566871E+00
 4.6629349E+00 1.1710357E+00 1.8283546E+00
 5.5104894E+00 8.3111906E-01 1.9258624E+00
 5.4559163E+00 8.5195605E-01 1.9328791E+00
 5.3999207E+00 8.7374002E-01 1.9393502E+00
 5.3424546E+00 8.9666666E-01 1.9451315E+00
 5.2836925E+00 9.2077546E-01 1.9499613E+00
 5.2239364E+00 9.4606884E-01 1.9534702E+00
 5.1635636E+00 9.7250915E-01 1.9551770E+00
 5.1029904E+00 1.0000000E+00 1.9545074E+00
 5.0426640E+00 1.0283701E+00 1.9508488E+00
 4.9830780E+00 1.0573665E+00 1.9436426E+00
 4.9247871E+00 1.0866660E+00 1.9324892E+00
 4.8683902E+00 1.1159049E+00 1.9172279E+00
 4.8144686E+00 1.1447323E+00 1.8979571E+00
 4.7634898E+00 1.1728662E+00 1.8749825E+00
 4.7155614E+00 1.2001178E+00 1.8486378E+00
 5.5100435E+00 8.7841470E-01 1.9332833E+00
 5.4551478E+00 9.0062588E-01 1.9393594E+00
 5.3989658E+00 9.2381060E-01 1.9447843E+00
 5.3414648E+00 9.4810296E-01 1.9493941E+00
 5.2828392E+00 9.7351047E-01 1.9529229E+00
 5.2234090E+00 1.0000000E+00 1.9550056E+00
 5.1635636E+00 1.0274909E+00 1.9551772E+00
 5.1037239E+00 1.0558387E+00 1.9528966E+00
 5.0443326E+00 1.0848241E+00 1.9476037E+00
 4.9858666E+00 1.1141556E+00 1.9388069E+00
 4.9288474E+00 1.1434896E+00 1.9261770E+00
 4.8738171E+00 1.1724780E+00 1.9096093E+00
 4.8212627E+00 1.2008317E+00 1.8892196E+00
 4.7713991E+00 1.2283728E+00 1.8652219E+00
 5.5097401E+00 9.2665885E-01 1.9383291E+00
 5.4546789E+00 9.5010618E-01 1.9433117E+00
 5.3984822E+00 9.7453038E-01 1.9475362E+00
 5.3411320E+00 1.0000000E+00 1.9508275E+00
 5.2828392E+00 1.0264896E+00 1.9529230E+00
 5.2239364E+00 1.0539313E+00 1.9534705E+00
 5.1648186E+00 1.0822047E+00 1.9520318E+00
 5.1059040E+00 1.1111242E+00 1.9481098E+00
 5.0476227E+00 1.1404344E+00 1.9412049E+00
 4.9904253E+00 1.1698210E+00 1.9308942E+00
 4.9347845E+00 1.1989493E+00 1.9169099E+00
 4.8811579E+00 1.2275291E+00 1.8991754E+00
 4.8298262E+00 1.2553919E+00 1.8777470E+00
 5.5095866E+00 9.7548716E-01 1.9408824E+00
 5.4545213E+00 9.9999998E-01 1.9446402E+00
 5.3984822E+00 1.0254696E+00 1.9475363E+00
 5.3414648E+00 1.0518971E+00 1.9493944E+00
 5.2836925E+00 1.0792246E+00 1.9499617E+00
 5.2255043E+00 1.1073527E+00 1.9489075E+00
 5.1672942E+00 1.1361269E+00 1.9458291E+00
 5.1094702E+00 1.1653305E+00 1.9402810E+00
 5.0524417E+00 1.1946864E+00 1.9318273E+00
 4.9966189E+00 1.2238862E+00 1.9201081E+00
 4.9424045E+00 1.2526499E+00 1.9048929E+00
 4.8901053E+00 1.2808222E+00 1.8860721E+00
 5.5095866E+00 1.0245128E+00 1.9408824E+00
 5.4546789E+00 1.0498938E+00 1.9433119E+00
 5.3989658E+00 1.0761894E+00 1.9447846E+00
 5.3424546E+00 1.1033334E+00 1.9451321E+00
 5.2853763E+00 1.1312385E+00 1.9441186E+00
 5.2280708E+00 1.1597776E+00 1.9414409E+00
 5.1709234E+00 1.1887714E+00 1.9367387E+00
 5.1143250E+00 1.2179843E+00 1.9296215E+00
 5.0586510E+00 1.2471449E+00 1.9197124E+00
 5.0042580E+00 1.2759976E+00 1.9066937E+00
 4.9514606E+00 1.3044102E+00 1.8903204E+00
 5.5097402E+00 1.0733411E+00 1.9383293E+00
 5.4551478E+00 1.0993741E+00 1.9393597E+00
 5.3999207E+00 1.1262601E+00 1.9393507E+00
 5.3440757E+00 1.1538683E+00 1.9381510E+00
 5.2878472E+00 1.1820853E+00 1.9355469E+00
 5.2315685E+00 1.2107647E+00 1.9312681E+00
 5.1756103E+00 1.2397115E+00 1.9249990E+00
 5.1203334E+00 1.2686977E+00 1.9164000E+00
 5.0660745E+00 1.2975028E+00 1.9051349E+00
 5.0131661E+00 1.3260314E+00 1.8908779E+00
 5.5100435E+00 1.1215853E+00 1.9332836E+00
 5.4559163E+00 1.1480440E+00 1.9328796E+00
 5.4013229E+00 1.1752787E+00 1.9313692E+00
 5.3462877E+00 1.2030981E+00 1.9286263E+00
 5.2910422E+00 1.2313700E+00 1.9244633E+00
 5.2359084E+00 1.2599351E+00 1.9186447E+00
 5.1812294E+00 1.2886088E+00 1.9108952E+00
 5.1273397E+00 1.3172111E+00 1.9009092E+00
 5.0746113E+00 1.3456942E+00 1.8883363E+00
 5.5104895E+00 1.1688810E+00 1.9258628E+00
 5.4569659E+00 1.1955387E+00 1.9240245E+00
 5.4031390E+00 1.2228838E+00 1.9210307E+00
 5.3490365E+00 1.2506735E+00 1.9167865E+00
 5.2948839E+00 1.2787608E+00 1.9111326E+00
 5.2409789E+00 1.3069994E+00 1.9038629E+00
 5.1876499E+00 1.3352493E+00 1.8947267E+00
 5.1353194E+00 1.3635153E+00 1.8833883E+00
 5.5110674E+00 1.2148994E+00 1.9162338E+00
 5.4582724E+00 1.2415368E+00 1.9129953E+00
 5.4053258E+00 1.2687691E+00 1.9085697E+00
 5.3522584E+00 1.2963065E+00 1.9028991E+00
 5.2992769E+00 1.3240141E+00 1.8958459E+00
 5.2466771E+00 1.3517853E+00 1.8872193E+00
 5.1949219E+00 1.3796774E+00 1.8767174E+00
 5.5117652E+00 1.2593566E+00 1.9046032E+00
 5.4598061E+00 1.2857720E+00 1.9000275E+00
 5.4078362E+00 1.3126877E+00 1.8942512E+00
 5.3558770E+00 1.3397960E+00 1.8872482E+00
 5.3041475E+00 1.3669942E+00 1.8788910E+00
 5.2531228E+00 1.3943857E+00 1.8689142E+00
 5.5125664E+00 1.3020223E+00 1.8912054E+00
 5.4615353E+00 1.3280334E+00 1.8853806E+00
 5.4106099E+00 1.3544738E+00 1.8783496E+00
 5.3598459E+00 1.3810376E+00 1.8701093E+00
 5.3096812E+00 1.4078376E+00 1.8604393E+00
 5.5134572E+00 1.3427179E+00 1.8762920E+00
 5.4634199E+00 1.3681913E+00 1.8693149E+00
 5.4136316E+00 1.3940535E+00 1.8611237E+00
 5.3644078E+00 1.4202032E+00 1.8516237E+00
 5.5144098E+00 1.3813319E+00 1.8601146E+00
 5.4654523E+00 1.4061805E+00 1.8520817E+00
 5.4171903E+00 1.4316238E+00 1.8426878E+00
 5.5154459E+00 1.4178282E+00 1.8429036E+00
 5.4679728E+00 1.4422287E+00 1.8337617E+00
 5.5167484E+00 1.4523045E+00 1.8248189E+00
 5.5639897E+00 1.4636421E+00 1.8148562E+00
 5.5639842E+00 1.4307015E+00 1.8327631E+00
 5.5639821E+00 1.3956285E+00 1.8500001E+00
 5.5639807E+00 1.3583672E+00 1.8663786E+00
 5.5639798E+00 1.3190308E+00 1.8816312E+00
 5.5639793E+00 1.2777114E+00 1.8955131E+00
 5.5639792E+00 1.2345604E+00 1.9077773E+00
 5.5639793E+00 1.1897757E+00 1.9181897E+00
 5.5639795E+00 1.1436107E+00 1.9265364E+00
 5.5639798E+00 1.0963635E+00 1.9326374E+00
 5.5639799E+00 1.0483715E+00 1.9363554E+00
 5.5639800E+00 9.9999996E-01 1.9376044E+00
 5.5639799E+00 9.5162838E-01 1.9363553E+00
 5.5639797E+00 9.0363647E-01 1.9326373E+00
 5.5639794E+00 8.5638927E-01 1.9265362E+00
 5.5639792E+00 8.1022429E-01 1.9181894E+00
 5.5639790E+00 7.6543966E-01 1.9077770E+00
 5.5639792E+00 7.2228869E-01 1.8955128E+00
 5.5639796E+00 6.8096931E-01 1.8816309E+00
 5.5639805E+00 6.4163289E-01 1.8663784E+00
 5.5639819E+00 6.0437168E-01 1.8499999E+00
 5.5639841E+00 5.6929861E-01 1.8327630E+00
 5.5639896E+00 5.3635796E-01 1.8148562E+00
 5.6072028E+00 5.1755673E-01 1.8004285E+00
 5.6545102E+00 5.2920085E-01 1.8033993E+00
 5.7040127E+00 5.4154443E-01 1.8062256E+00
 5.7554315E+00 5.5457037E-01 1.8088408E+00
 5.8086601E+00 5.6833779E-01 1.8111823E+00
 5.8635410E+00 5.8290483E-01 1.8131551E+00
 5.9198864E+00 5.9834705E-01 1.8146389E+00
 5.9774507E+00 6.1474113E-01 1.8154785E+00
 6.0359407E+00 6.3216679E-01 1.8154860E+00
 6.0950190E+00 6.5069875E-01 1.8144437E+00
 6.1543117E+00 6.7039884E-01 1.8121144E+00
 6.2134157E+00 6.9130631E-01 1.8082547E+00
 6.2719080E+00 7.1342799E-01 1.8026341E+00
 6.3293554E+00 7.3673071E-01 1.7950543E+00
 6.3853274E+00 7.6113646E-01 1.7853680E+00
 6.4394105E+00 7.8652249E-01 1.7734926E+00
 6.4912246E+00 8.1272542E-01 1.7594192E+00
 6.5404372E+00 8.3954990E-01 1.7432128E+00
 6.5867775E+00 8.6677973E-01 1.7250066E+00
 6.6300456E+00 8.9419191E-01 1.7049898E+00
 6.6701116E+00 9.2156457E-01 1.6833961E+00
 6.7068825E+00 9.4867128E-01 1.6605044E+00
 6.7402588E+00 9.7525623E-01 1.6366572E+00
 5.6111737E+00 1.4492127E+00 1.8192114E+00
 5.6597649E+00 1.4361236E+00 1.8222878E+00
 5.7102128E+00 1.4225704E+00 1.8250489E+00
 5.7624803E+00 1.4083056E+00 1.8275469E+00
 5.8164787E+00 1.3932572E+00 1.8297115E+00
 5.8720635E+00 1.3773636E+00 1.8314373E+00
 5.9290152E+00 1.3605610E+00 1.8325878E+00
 5.9870637E+00 1.3427811E+00 1.8329940E+00
 6.0458894E+00 1.3239587E+00 1.8324545E+00
 6.1051318E+00 1.3040385E+00 1.8307410E+00
 6.1643979E+00 1.2829837E+00 1.8276102E+00
 6.2232708E+00 1.2607857E+00 1.8228202E+00
 6.2813197E+00 1.2374716E+00 1.8161501E+00
 6.3381110E+00 1.2131099E+00 1.8074205E+00
 6.3932222E+00 1.1878123E+00 1.7965104E+00
 6.4462564E+00 1.1617305E+00 1.7833697E+00
 6.4968575E+00 1.1350497E+00 1.7680243E+00
 6.5447250E+00 1.1079772E+00 1.7505738E+00
 6.5896253E+00 1.0807278E+00 1.7311823E+00
 6.6314003E+00 1.0535066E+00 1.7100623E+00
 6.6700024E+00 1.0264955E+00 1.6874332E+00
 6.7056479E+00 1.0000000E+00 1.6633801E+00
 5.6124612E+00 1.4148909E+00 1.8370170E+00
 5.6622589E+00 1.4004223E+00 1.8400534E+00
 5.7137240E+00 1.3855847E+00 1.8426734E+00
 5.7669646E+00 1.3700009E+00 1.8449694E+00
 5.8218954E+00 1.3535919E+00 1.8468614E+00
 5.8783455E+00 1.3363013E+00 1.8482313E+00
 5.9360719E+00 1.3180716E+00 1.8489294E+00
 5.9947738E+00 1.2988469E+00 1.8487719E+00
 6.0541034E+00 1.2785784E+00 1.8475439E+00
 6.1136740E+00 1.2572330E+00 1.8450069E+00
 6.1730705E+00 1.2348016E+00 1.8409133E+00
 6.2318597E+00 1.2113078E+00 1.8350246E+00
 6.2896011E+00 1.1868136E+00 1.8271329E+00
 6.3458598E+00 1.1614226E+00 1.8170809E+00
 6.4002209E+00 1.1352786E+00 1.8047784E+00
 6.4523038E+00 1.1085594E+00 1.7902112E+00
 6.5017783E+00 1.0814677E+00 1.7734434E+00
 6.5483784E+00 1.0542146E+00 1.7546103E+00
 6.5919180E+00 1.0270011E+00 1.7339023E+00
 6.6323388E+00 1.0000000E+00 1.7115176E+00
 6.6700024E+00 9.7350455E-01 1.6874332E+00
 5.6134893E+00 1.3785930E+00 1.8539799E+00
 5.6642730E+00 1.3628637E+00 1.8567927E+00
 5.7167099E+00 1.3467038E+00 1.8591593E+00
 5.7708715E+00 1.3297675E+00 1.8611306E+00
 5.8266697E+00 1.3119711E+00 1.8626183E+00
 5.8839064E+00 1.2932670E+00 1.8634916E+00
 5.9423093E+00 1.2736086E+00 1.8635877E+00
 6.0015489E+00 1.2529555E+00 1.8627102E+00
 6.0612497E+00 1.2312797E+00 1.8606338E+00
 6.1210012E+00 1.2085738E+00 1.8571142E+00
 6.1803697E+00 1.1848594E+00 1.8519050E+00
 6.2389098E+00 1.1601935E+00 1.8447778E+00
 6.2961774E+00 1.1346726E+00 1.8355445E+00
 6.3517424E+00 1.1084328E+00 1.8240761E+00
 6.4052038E+00 1.0816451E+00 1.8103174E+00
 6.4562043E+00 1.0545065E+00 1.7942930E+00
 6.5044469E+00 1.0272251E+00 1.7761040E+00
 6.5497125E+00 1.0000000E+00 1.7559144E+00
 6.5919180E+00 9.7299889E-01 1.7339023E+00
 6.6314002E+00 9.4649344E-01 1.7100623E+00
 5.6144364E+00 1.3402090E+00 1.8699216E+00
 5.6661427E+00 1.3231984E+00 1.8723900E+00
 5.7194520E+00 1.3057117E+00 1.8743668E+00
 5.7744340E+00 1.2874143E+00 1.8758740E+00
 5.8309752E+00 1.2682378E+00 1.8768083E+00
 5.8888526E+00 1.2481435E+00 1.8770285E+00
 5.9477652E+00 1.2270998E+00 1.8763607E+00
 6.0073557E+00 1.2050852E+00 1.8745993E+00
 6.0672240E+00 1.1820960E+00 1.8715133E+00
 6.1269402E+00 1.1581533E+00 1.8668589E+00
 6.1860577E+00 1.1333107E+00 1.8603982E+00
 6.2441260E+00 1.1076586E+00 1.8519201E+00
 6.3007045E+00 1.0813256E+00 1.8412630E+00
 6.3553759E+00 1.0544754E+00 1.8283314E+00
 6.4077611E+00 1.0272989E+00 1.8131083E+00
 6.4575351E+00 1.0000000E+00 1.7956556E+00
 6.5044469E+00 9.7277489E-01 1.7761040E+00
 6.5483784E+00 9.4578540E-01 1.7546103E+00
 6.5896253E+00 9.1927224E-01 1.7311822E+00
 5.6153227E+00 1.2997721E+00 1.8846123E+00
 5.6678586E+00 1.2814895E+00 1.8866012E+00
 5.7219338E+00 1.2626786E+00 1.8880487E+00
 5.7776056E+00 1.2430407E+00 1.8889428E+00
 5.8347392E+00 1.2225194E+00 1.8891689E+00
 5.8930847E+00 1.2010908E+00 1.8885763E+00
 5.9523142E+00 1.1787408E+00 1.8869837E+00
 6.0120457E+00 1.1554704E+00 1.8841806E+00
 6.0718591E+00 1.1313021E+00 1.8799364E+00
 6.1313109E+00 1.1062875E+00 1.8740145E+00
 6.1899484E+00 1.0805118E+00 1.8661927E+00
 6.2473234E+00 1.0540966E+00 1.8562847E+00
 6.3030067E+00 1.0271980E+00 1.8441604E+00
 6.3566020E+00 1.0000000E+00 1.8297616E+00
 6.4077611E+00 9.7270115E-01 1.8131083E+00
 6.4562043E+00 9.4549356E-01 1.7942930E+00
 6.5017783E+00 9.1853235E-01 1.7734434E+00
 6.5447250E+00 8.9202282E-01 1.7505738E+00
 5.6161205E+00 1.2573942E+00 1.8978067E+00
 5.6693809E+00 1.2378643E+00 1.8991773E+00
 5.7240956E+00 1.2177650E+00 1.8999481E+00
 5.7803105E+00 1.1968379E+00 1.9000764E+00
 5.8378683E+00 1.1750438E+00 1.8994377E+00
 5.8964938E+00 1.1523752E+00 1.8978756E+00
 5.9558349E+00 1.1288386E+00 1.8952051E+00
 6.0154894E+00 1.1044593E+00 1.8912165E+00
 6.0750227E+00 1.0792877E+00 1.8856858E+00
 6.1339843E+00 1.0534051E+00 1.8783909E+00
 6.1919227E+00 1.0269265E+00 1.8691321E+00
 6.2484001E+00 1.0000000E+00 1.8577534E+00
 6.3030067E+00 9.7280200E-01 1.8441604E+00
 6.3553759E+00 9.4552465E-01 1.8283314E+00
 6.4052038E+00 9.1835495E-01 1.8103174E+00
 6.4523038E+00 8.9144059E-01 1.7902111E+00
 6.4968575E+00 8.6495033E-01 1.7680243E+00
 5.6168157E+00 1.2132516E+00 1.9092581E+00
 5.6706779E+00 1.1925293E+00 1.9098691E+00
 5.7258907E+00 1.1712088E+00 1.9098155E+00
 5.7824869E+00 1.1490792E+00 1.9090275E+00
 5.8402876E+00 1.1261210E+00 1.9073743E+00
 5.8989947E+00 1.1023454E+00 1.9046973E+00
 5.9582360E+00 1.0777810E+00 1.9008131E+00
 6.0175942E+00 1.0524782E+00 1.8955182E+00
 6.0766270E+00 1.0265150E+00 1.8886022E+00
 6.1348840E+00 1.0000000E+00 1.8798639E+00
 6.1919227E+00 9.7307354E-01 1.8691321E+00
 6.2473234E+00 9.4590342E-01 1.8562847E+00
 6.3007045E+00 9.1867444E-01 1.8412630E+00
 6.3517424E+00 8.9156720E-01 1.8240761E+00
 6.4002209E+00 8.6472142E-01 1.8047783E+00
 6.4462563E+00 8.3826950E-01 1.7833697E+00
 5.6173919E+00 1.1675719E+00 1.9187371E+00
 5.6717200E+00 1.1457435E+00 1.9184506E+00
 5.7272768E+00 1.1233037E+00 1.9174303E+00
 5.7840817E+00 1.1000945E+00 1.9155853E+00
 5.8419359E+00 1.0761180E+00 1.9127824E+00
 5.9005222E+00 1.0514054E+00 1.9088650E+00
 5.9594529E+00 1.0260077E+00 1.9036564E+00
 6.0183023E+00 1.0000000E+00 1.8969658E+00
 6.0766270E+00 9.7348504E-01 1.8886022E+00
 6.1339843E+00 9.4659489E-01 1.8783909E+00
 6.1899484E+00 9.1948826E-01 1.8661927E+00
 6.2441261E+00 8.9234145E-01 1.8519201E+00
 6.2961774E+00 8.6532746E-01 1.8355445E+00
 6.3458598E+00 8.3857742E-01 1.8170809E+00
 6.3932222E+00 8.1218777E-01 1.7965104E+00
 5.6178367E+00 1.1206350E+00 1.9260413E+00
 5.6724832E+00 1.0978191E+00 1.9247291E+00
 5.7282207E+00 1.0743953E+00 1.9226131E+00
 5.7850553E+00 1.0502635E+00 1.9195881E+00
 5.8427711E+00 1.0254479E+00 1.9155226E+00
 5.9010360E+00 1.0000000E+00 1.9102670E+00
 5.9594529E+00 9.7399229E-01 1.9036564E+00
 6.0175942E+00 9.4752180E-01 1.8955183E+00
 6.0750227E+00 9.2071231E-01 1.8856859E+00
 6.1313109E+00 8.9371254E-01 1.8740146E+00
 6.1860577E+00 8.6668930E-01 1.8603982E+00
 6.2389098E+00 8.3980658E-01 1.8447779E+00
 6.2896011E+00 8.1318644E-01 1.8271329E+00
 6.3381110E+00 7.8689016E-01 1.8074205E+00
 5.6181394E+00 1.0727647E+00 1.9310072E+00
 5.6729488E+00 1.0491097E+00 1.9285577E+00
 5.7286987E+00 1.0248681E+00 1.9252373E+00
 5.7853827E+00 9.9999998E-01 1.9209339E+00
 5.8427711E+00 9.7455208E-01 1.9155226E+00
 5.9005222E+00 9.4859461E-01 1.9088651E+00
 5.9582360E+00 9.2221904E-01 1.9008131E+00
 6.0154894E+00 8.9554075E-01 1.8912166E+00
 6.0718591E+00 8.6869789E-01 1.8799365E+00
 6.1269402E+00 8.4184668E-01 1.8668590E+00
 6.1803697E+00 8.1514065E-01 1.8519050E+00
 6.2318597E+00 7.8869224E-01 1.8350246E+00
 6.2813197E+00 7.6252848E-01 1.8161501E+00
 5.6182926E+00 1.0243196E+00 1.9335198E+00
 5.6731053E+00 9.9999996E-01 1.9298444E+00
 5.7286987E+00 9.7513180E-01 1.9252373E+00
 5.7850553E+00 9.4973650E-01 1.9195881E+00
 5.8419359E+00 9.2388199E-01 1.9127825E+00
 5.8989947E+00 8.9765460E-01 1.9046974E+00
 5.9558349E+00 8.7116140E-01 1.8952052E+00
 6.0120457E+00 8.4452963E-01 1.8841807E+00
 6.0672240E+00 8.1790399E-01 1.8715134E+00
 6.1210012E+00 7.9142619E-01 1.8571143E+00
 6.1730705E+00 7.6519840E-01 1.8409134E+00
 6.2232708E+00 7.3921431E-01 1.8228202E+00
 5.6182926E+00 9.7568035E-01 1.9335198E+00
 5.6729488E+00 9.5089022E-01 1.9285577E+00
 5.7282206E+00 9.2560460E-01 1.9226131E+00
 5.7840816E+00 8.9990543E-01 1.9155854E+00
 5.8402875E+00 8.7387900E-01 1.9073744E+00
 5.8964938E+00 8.4762481E-01 1.8978757E+00
 5.9523142E+00 8.2125916E-01 1.8869838E+00
 6.0073557E+00 7.9491475E-01 1.8745994E+00
 6.0612497E+00 7.6872033E-01 1.8606339E+00
 6.1136740E+00 7.4276705E-01 1.8450070E+00
 6.1643979E+00 7.1701627E-01 1.8276103E+00
 5.6181393E+00 9.2723525E-01 1.9310071E+00
 5.6724831E+00 9.0218088E-01 1.9247291E+00
 5.7272767E+00 8.7669627E-01 1.9174303E+00
 5.7824868E+00 8.5092075E-01 1.9090275E+00
 5.8378682E+00 8.2495621E-01 1.8994378E+00
 5.8930847E+00 7.9890915E-01 1.8885764E+00
 5.9477652E+00 7.7290023E-01 1.8763608E+00
 6.0015489E+00 7.4704449E-01 1.8627104E+00
 6.0541034E+00 7.2142162E-01 1.8475440E+00
 6.1051318E+00 6.9596151E-01 1.8307411E+00
 5.6178366E+00 8.7936494E-01 1.9260412E+00
 5.6717199E+00 8.5425649E-01 1.9184506E+00
 5.7258906E+00 8.2879119E-01 1.9098155E+00
 5.7803104E+00 8.0316212E-01 1.9000765E+00
 5.8347392E+00 7.7748054E-01 1.8891690E+00
 5.8888526E+00 7.5185651E-01 1.8770286E+00
 5.9423093E+00 7.2639137E-01 1.8635879E+00
 5.9947738E+00 7.0115312E-01 1.8487720E+00
 6.0458894E+00 6.7604128E-01 1.8324547E+00
 5.6173918E+00 8.3242805E-01 1.9187370E+00
 5.6706777E+00 8.0747071E-01 1.9098691E+00
 5.7240954E+00 7.8223498E-01 1.8999482E+00
 5.7776055E+00 7.5695926E-01 1.8889430E+00
 5.8309751E+00 7.3176215E-01 1.8768085E+00
 5.8839063E+00 7.0673299E-01 1.8634918E+00
 5.9360718E+00 6.8192836E-01 1.8489296E+00
 5.9870637E+00 6.5721889E-01 1.8329942E+00
 5.6168156E+00 7.8674841E-01 1.9092579E+00
 5.6693807E+00 7.6213570E-01 1.8991772E+00
 5.7219337E+00 7.3732139E-01 1.8880488E+00
 5.7744339E+00 7.1258565E-01 1.8758742E+00
 5.8266696E+00 6.8802883E-01 1.8626185E+00
 5.8783454E+00 6.6369863E-01 1.8482315E+00
 5.9290152E+00 6.3943893E-01 1.8325880E+00
 5.6161204E+00 7.4260583E-01 1.8978065E+00
 5.6678585E+00 7.1851056E-01 1.8866012E+00
 5.7194519E+00 6.9428825E-01 1.8743669E+00
 5.7708714E+00 6.7023249E-01 1.8611308E+00
 5.8218953E+00 6.4640806E-01 1.8468616E+00
 5.8720634E+00 6.2263635E-01 1.8314375E+00
 5.6153226E+00 7.0022796E-01 1.8846122E+00
 5.6661426E+00 6.7680167E-01 1.8723900E+00
 5.7167098E+00 6.5329615E-01 1.8591595E+00
 5.7669645E+00 6.2999907E-01 1.8449696E+00
 5.8164786E+00 6.0674278E-01 1.8297118E+00
 5.6144362E+00 6.5979110E-01 1.8699215E+00
 5.6642729E+00 6.3713633E-01 1.8567927E+00
 5.7137239E+00 6.1441528E-01 1.8426735E+00
 5.7624802E+00 5.9169436E-01 1.8275471E+00
 5.6134891E+00 6.2140707E-01 1.8539798E+00
 5.6622587E+00 5.9957768E-01 1.8400535E+00
 5.7102127E+00 5.7742956E-01 1.8250491E+00
 5.6124611E+00 5.8510916E-01 1.8370170E+00
 5.6597648E+00 5.6387641E-01 1.8222879E+00
 5.6111736E+00 5.5078734E-01 1.8192114E+00
 5.5372275E+00 1.5170486E+00 1.7842327E+00
 5.5078620E+00 1.5432393E+00 1.7686986E+00
 5.4772485E+00 1.5701422E+00 1.7514103E+00
 5.4454366E+00 1.5975886E+00 1.7322864E+00
 5.4125766E+00 1.6254267E+00 1.7112131E+00
 5.3787901E+00 1.6534850E+00 1.6880785E+00
 5.3442423E+00 1.6815658E+00 1.6627786E+00
 5.3091276E+00 1.7094306E+00 1.6352359E+00
 5.2736745E+00 1.7368068E+00 1.6054020E+00
 5.2381367E+00 1.7633914E+00 1.5732690E+00
 5.2027866E+00 1.7888596E+00 1.5388776E+00
 5.1679049E+00 1.8128779E+00 1.5023263E+00
 5.1337704E+00 1.8351214E+00 1.4637770E+00
 5.1006505E+00 1.8552931E+00 1.4234564E+00
 5.0687924E+00 1.8731438E+00 1.3816526E+00
 5.0384150E+00 1.8884885E+00 1.3387043E+00
 5.0097025E+00 1.9012175E+00 1.2949860E+00
 4.9827988E+00 1.9113000E+00 1.2508883E+00
 4.9578040E+00 1.9187814E+00 1.2067977E+00
 4.9347717E+00 1.9237726E+00 1.1630754E+00
 4.9137187E+00 1.9264381E+00 1.1200497E+00
 4.8946340E+00 1.9269755E+00 1.0780205E+00
 4.8775796E+00 1.9256234E+00 1.0373910E+00
 4.3952948E+00 1.0695417E+00 1.6166936E+00
 4.3902515E+00 1.1145520E+00 1.6035048E+00
 4.3869868E+00 1.1609560E+00 1.5885303E+00
 4.3859147E+00 1.2087842E+00 1.5718897E+00
 4.3872877E+00 1.2578749E+00 1.5535134E+00
 4.3913481E+00 1.3079682E+00 1.5333558E+00
 4.3983228E+00 1.3587432E+00 1.5114012E+00
 4.4084103E+00 1.4098211E+00 1.4876701E+00
 4.4217673E+00 1.4607734E+00 1.4622199E+00
 4.4384954E+00 1.5111294E+00 1.4351490E+00
 4.4586299E+00 1.5603895E+00 1.4065989E+00
 4.4821291E+00 1.6080408E+00 1.3767545E+00
 4.5088676E+00 1.6535764E+00 1.3458420E+00
 4.5386336E+00 1.6965179E+00 1.3141239E+00
 4.5711317E+00 1.7364381E+00 1.2818913E+00
 4.6059914E+00 1.7729822E+00 1.2494533E+00
 4.6427817E+00 1.8058873E+00 1.2171243E+00
 4.6810313E+00 1.8349957E+00 1.1852114E+00
 4.7202544E+00 1.8602621E+00 1.1539993E+00
 4.7599823E+00 1.8817550E+00 1.1237393E+00
 4.7997998E+00 1.8996490E+00 1.0946048E+00
 4.8392607E+00 1.9141885E+00 1.0665074E+00
 4.4234466E+00 1.0981630E+00 1.6468661E+00
 4.4197122E+00 1.1449203E+00 1.6336962E+00
 4.4178510E+00 1.1928393E+00 1.6185972E+00
 4.4183356E+00 1.2420803E+00 1.6016972E+00
 4.4214242E+00 1.2924650E+00 1.5829161E+00
 4.4273557E+00 1.3436911E+00 1.5622029E+00
 4.4363451E+00 1.3953867E+00 1.5395440E+00
 4.4485707E+00 1.4471192E+00 1.5149681E+00
 4.4641574E+00 1.4984078E+00 1.4885474E+00
 4.4831648E+00 1.5487347E+00 1.4604019E+00
 4.5055745E+00 1.5975629E+00 1.4307005E+00
 4.5312824E+00 1.6443553E+00 1.3996605E+00
 4.5600941E+00 1.6885996E+00 1.3675438E+00
 4.5917267E+00 1.7298319E+00 1.3346493E+00
 4.6258166E+00 1.7676625E+00 1.3013030E+00
 4.6619341E+00 1.8017954E+00 1.2678441E+00
 4.6996043E+00 1.8320467E+00 1.2346102E+00
 4.7383339E+00 1.8583511E+00 1.2019219E+00
 4.7776499E+00 1.8807689E+00 1.1700618E+00
 4.8171363E+00 1.8994789E+00 1.1392284E+00
 4.8563868E+00 1.9147639E+00 1.1092122E+00
 4.4552822E+00 1.1274171E+00 1.6767941E+00
 4.4529718E+00 1.1756544E+00 1.6635033E+00
 4.4526804E+00 1.2249826E+00 1.6481752E+00
 4.4548886E+00 1.2755182E+00 1.6308946E+00
 4.4598530E+00 1.3270442E+00 1.6115728E+00
 4.4678016E+00 1.3792074E+00 1.5901572E+00
 4.4789299E+00 1.4315802E+00 1.5666407E+00
 4.4933854E+00 1.4836756E+00 1.5410652E+00
 4.5112514E+00 1.5349622E+00 1.5135240E+00
 4.5325339E+00 1.5848813E+00 1.4841652E+00
 4.5571515E+00 1.6328682E+00 1.4531920E+00
 4.5849294E+00 1.6783771E+00 1.4208608E+00
 4.6156003E+00 1.7209082E+00 1.3874743E+00
 4.6488108E+00 1.7600349E+00 1.3533715E+00
 4.6841356E+00 1.7954272E+00 1.3189139E+00
 4.7210997E+00 1.8268714E+00 1.2844689E+00
 4.7592051E+00 1.8542804E+00 1.2503923E+00
 4.7979725E+00 1.8777005E+00 1.2170056E+00
 4.8369829E+00 1.8973083E+00 1.1845389E+00
 4.8758308E+00 1.9134070E+00 1.1528343E+00
 4.4910290E+00 1.1573950E+00 1.7060164E+00
 4.4903241E+00 1.2069647E+00 1.6924858E+00
 4.4917935E+00 1.2575305E+00 1.6768056E+00
 4.4959078E+00 1.3091560E+00 1.6590129E+00
 4.5029096E+00 1.3615710E+00 1.6390103E+00
 4.5130066E+00 1.4143677E+00 1.6167482E+00
 4.5263636E+00 1.4670631E+00 1.5922312E+00
 4.5430857E+00 1.5191183E+00 1.5655209E+00
 4.5632024E+00 1.5699591E+00 1.5367392E+00
 4.5866560E+00 1.6189978E+00 1.5060693E+00
 4.6132940E+00 1.6656596E+00 1.4737562E+00
 4.6428678E+00 1.7094112E+00 1.4401004E+00
 4.6750392E+00 1.7497905E+00 1.4054491E+00
 4.7093932E+00 1.7864333E+00 1.3701818E+00
 4.7454602E+00 1.8190950E+00 1.3346930E+00
 4.7827439E+00 1.8476637E+00 1.2993721E+00
 4.8207648E+00 1.8721680E+00 1.2645782E+00
 4.8591035E+00 1.8927760E+00 1.2305845E+00
 4.8973678E+00 1.9098048E+00 1.1972975E+00
 4.5308904E+00 1.1878799E+00 1.7340677E+00
 4.5319726E+00 1.2385922E+00 1.7201583E+00
 4.5353818E+00 1.2901705E+00 1.7039818E+00