# TIME = 9.000000
VARIABLES = X, Y, Z, FX, FY, FZ
ZONE N=29232 E=58212 F=FEPOINT ET=TRIANGLE
  0.000E+00  9.502E-01  1.243E-03 8.9068013E+00 -1.6479831E-02 -3.3356157E-01
  0.000E+00  1.000E+00  0.000E+00 8.8961339E+00 7.2380146E-06 -3.3386091E-01
  4.318E-02  9.751E-01  3.108E-04 8.6312080E+00 6.7198655E-03 2.7126822E-01
  0.000E+00  1.050E+00  1.243E-03 8.9068003E+00 1.6481375E-02 -3.3356245E-01
  4.318E-02  1.025E+00  3.108E-04 8.6312068E+00 -6.7140794E-03 2.7126778E-01
  0.000E+00  1.100E+00  4.969E-03 8.9438071E+00 3.3182991E-02 -3.3238461E-01
  4.318E-02  1.075E+00  2.796E-03 8.6564147E+00 -2.0110534E-02 2.7060389E-01
  0.000E+00  1.149E+00  1.117E-02 9.0170674E+00 4.9954799E-02 -3.2998400E-01
  4.318E-02  1.124E+00  7.761E-03 8.7117693E+00 -3.3505085E-02 2.6946919E-01
  0.000E+00  1.198E+00  1.983E-02 9.1254344E+00 6.6344763E-02 -3.2682054E-01
  4.318E-02  1.174E+00  1.519E-02 8.8011453E+00 -4.7066456E-02 2.6793091E-01
  0.000E+00  1.247E+00  3.092E-02 9.2418817E+00 8.1917541E-02 -3.2388419E-01
  4.318E-02  1.223E+00  2.507E-02 8.9164196E+00 -6.0987357E-02 2.6537397E-01
  0.000E+00  1.295E+00  4.443E-02 9.3281418E+00 9.7009259E-02 -3.2131157E-01
  4.318E-02  1.271E+00  3.738E-02 9.0238278E+00 -7.4819097E-02 2.6055382E-01
  0.000E+00  1.342E+00  6.031E-02 9.3921316E+00 1.1281376E-01 -3.1692063E-01
  4.318E-02  1.318E+00  5.207E-02 9.0937829E+00 -8.7635229E-02 2.5415658E-01
  0.000E+00  1.388E+00  7.852E-02 9.5671945E+00 1.2863976E-01 -3.0827217E-01
  4.318E-02  1.365E+00  6.913E-02 9.1975315E+00 -9.9814031E-02 2.5080028E-01
  0.000E+00  1.434E+00  9.903E-02 9.7134241E+00 1.4445959E-01 -3.0375904E-01
  4.318E-02  1.411E+00  8.849E-02 9.3909257E+00 -1.1267071E-01 2.4700072E-01
  0.000E+00  1.478E+00  1.218E-01 9.7501919E+00 1.5967620E-01 -2.9823507E-01
  4.318E-02  1.456E+00  1.101E-01 9.4796695E+00 -1.2432469E-01 2.3744877E-01
  0.000E+00  1.521E+00  1.467E-01 9.9314463E+00 1.7323147E-01 -2.8626288E-01
  4.318E-02  1.500E+00  1.340E-01 9.5493477E+00 -1.3575209E-01 2.3204647E-01
  0.000E+00  1.563E+00  1.738E-01 9.9718121E+00 1.8954021E-01 -2.8198504E-01
  4.318E-02  1.543E+00  1.600E-01 9.7157426E+00 -1.4752139E-01 2.2551423E-01
  0.000E+00  1.604E+00  2.029E-01 1.0062572E+01 2.0163144E-01 -2.6881971E-01
  4.318E-02  1.584E+00  1.881E-01 9.7259321E+00 -1.5758883E-01 2.1554393E-01
  0.000E+00  1.643E+00  2.340E-01 1.0125993E+01 2.1664041E-01 -2.6108671E-01
  4.318E-02  1.623E+00  2.182E-01 9.8332627E+00 -1.6795473E-01 2.0899925E-01
  0.000E+00  1.680E+00  2.669E-01 1.0116782E+01 2.2919805E-01 -2.4855258E-01
  4.318E-02  1.662E+00  2.502E-01 9.8384729E+00 -1.7818911E-01 1.9897287E-01
  0.000E+00  1.716E+00  3.018E-01 1.0162788E+01 2.4153695E-01 -2.3788321E-01
  4.318E-02  1.698E+00  2.841E-01 9.8960437E+00 -1.8690562E-01 1.9061238E-01
  0.000E+00  1.750E+00  3.383E-01 1.0104185E+01 2.5428803E-01 -2.2483876E-01
  4.318E-02  1.733E+00  3.198E-01 9.8516379E+00 -1.9693624E-01 1.8096047E-01
  0.000E+00  1.782E+00  3.765E-01 1.0100236E+01 2.6400928E-01 -2.1212952E-01
  4.318E-02  1.766E+00  3.572E-01 9.8596447E+00 -2.0397439E-01 1.7049469E-01
  0.000E+00  1.812E+00  4.163E-01 9.9918243E+00 2.7647924E-01 -1.9873201E-01
  4.318E-02  1.797E+00  3.962E-01 9.7973741E+00 -2.1438674E-01 1.6149411E-01
  0.000E+00  1.840E+00  4.575E-01 9.9836650E+00 2.8383351E-01 -1.8381345E-01
  4.318E-02  1.826E+00  4.367E-01 9.7065750E+00 -2.1853902E-01 1.4903085E-01
  0.000E+00  1.866E+00  5.000E-01 9.8153625E+00 2.9366614E-01 -1.6976698E-01
  4.318E-02  1.853E+00  4.786E-01 9.6657031E+00 -2.2961773E-01 1.3957460E-01
  0.000E+00  1.890E+00  5.438E-01 9.7471925E+00 3.0346824E-01 -1.5479514E-01
  4.318E-02  1.878E+00  5.217E-01 9.4863002E+00 -2.3251979E-01 1.2726243E-01
  0.000E+00  1.912E+00  5.887E-01 9.6588588E+00 3.0724734E-01 -1.3897439E-01
  4.318E-02  1.901E+00  5.661E-01 9.4472347E+00 -2.4023289E-01 1.1582044E-01
  0.000E+00  1.931E+00  6.347E-01 9.4633284E+00 3.1534317E-01 -1.2327943E-01
  4.318E-02  1.921E+00  6.116E-01 9.3020914E+00 -2.4739602E-01 1.0393462E-01
  0.000E+00  1.948E+00  6.815E-01 9.3603084E+00 3.2260473E-01 -1.0685471E-01
  4.318E-02  1.940E+00  6.580E-01 9.1282437E+00 -2.4931172E-01 9.1501741E-02
  0.000E+00  1.963E+00  7.292E-01 9.2915748E+00 3.2566391E-01 -9.1355214E-02
  4.318E-02  1.956E+00  7.052E-01 9.0623555E+00 -2.5427267E-01 7.9300370E-02
  0.000E+00  1.975E+00  7.775E-01 9.1840250E+00 3.2877312E-01 -7.6003661E-02
  4.318E-02  1.969E+00  7.532E-01 8.9752654E+00 -2.5978809E-01 6.6172409E-02
  0.000E+00  1.985E+00  8.264E-01 9.0679738E+00 3.3237042E-01 -5.9675190E-02
  4.318E-02  1.980E+00  8.019E-01 8.8592337E+00 -2.6316354E-01 5.2463398E-02
  0.000E+00  1.992E+00  8.757E-01 8.9779589E+00 3.3540810E-01 -4.2604120E-02
  4.318E-02  1.989E+00  8.510E-01 8.7515496E+00 -2.6469875E-01 3.8972608E-02
  0.000E+00  1.997E+00  9.253E-01 8.9223087E+00 3.3738470E-01 -2.5460719E-02
  4.318E-02  1.995E+00  9.004E-01 8.6786300E+00 -2.6565654E-01 2.5897125E-02
  0.000E+00  2.000E+00  9.751E-01 8.8970402E+00 3.3829328E-01 -8.4706323E-03
  4.318E-02  1.999E+00  9.502E-01 8.6416632E+00 -2.6654218E-01 1.2983211E-02
  0.000E+00  2.000E+00  1.025E+00 8.8970416E+00 3.3827739E-01 8.4515771E-03
  4.318E-02  2.000E+00  1.000E+00 8.6309689E+00 -2.6695090E-01 -8.6569412E-06
  0.000E+00  1.997E+00  1.075E+00 8.9223131E+00 3.3733950E-01 2.5440789E-02
  4.318E-02  1.999E+00  1.050E+00 8.6416656E+00 -2.6654620E-01 -1.3000321E-02
  0.000E+00  1.992E+00  1.124E+00 8.9779665E+00 3.3534577E-01 4.2583519E-02
  4.318E-02  1.995E+00  1.100E+00 8.6786346E+00 -2.6565798E-01 -2.5913332E-02
  0.000E+00  1.985E+00  1.174E+00 9.0679837E+00 3.3231885E-01 5.9656239E-02
  4.318E-02  1.989E+00  1.149E+00 8.7515556E+00 -2.6468885E-01 -3.8986934E-02
  0.000E+00  1.975E+00  1.223E+00 9.1840349E+00 3.2875993E-01 7.5989476E-02
  4.318E-02  1.980E+00  1.198E+00 8.8592400E+00 -2.6314485E-01 -5.2475538E-02
  0.000E+00  1.963E+00  1.271E+00 9.2915836E+00 3.2568047E-01 9.1345691E-02
  4.318E-02  1.969E+00  1.247E+00 8.9752719E+00 -2.5978230E-01 -6.6184009E-02
  0.000E+00  1.948E+00  1.318E+00 9.3603189E+00 3.2261221E-01 1.0684645E-01
  4.318E-02  1.956E+00  1.295E+00 9.0623636E+00 -2.5429640E-01 -7.9313098E-02
  0.000E+00  1.931E+00  1.365E+00 9.4633420E+00 3.1533616E-01 1.2327172E-01
  4.318E-02  1.940E+00  1.342E+00 9.1282529E+00 -2.4934545E-01 -9.1514375E-02
  0.000E+00  1.912E+00  1.411E+00 9.6588708E+00 3.0724674E-01 1.3896861E-01
  4.318E-02  1.921E+00  1.388E+00 9.3021002E+00 -2.4740814E-01 -1.0394442E-01
  0.000E+00  1.890E+00  1.456E+00 9.7472028E+00 3.0345707E-01 1.5478914E-01
  4.318E-02  1.901E+00  1.434E+00 9.4472430E+00 -2.4023240E-01 -1.1582710E-01
  0.000E+00  1.866E+00  1.500E+00 9.8153681E+00 2.9364768E-01 1.6976002E-01
  4.318E-02  1.878E+00  1.478E+00 9.4863067E+00 -2.3251516E-01 -1.2726781E-01
  0.000E+00  1.840E+00  1.543E+00 9.9836677E+00 2.8383019E-01 1.8380687E-01
  4.318E-02  1.853E+00  1.521E+00 9.6657063E+00 -2.2961819E-01 -1.3958099E-01
  0.000E+00  1.812E+00  1.584E+00 9.9918293E+00 2.7648069E-01 1.9872551E-01
  4.318E-02  1.826E+00  1.563E+00 9.7065784E+00 -2.1855547E-01 -1.4903981E-01
  0.000E+00  1.782E+00  1.623E+00 1.0100243E+01 2.6400181E-01 2.1212221E-01
  4.318E-02  1.797E+00  1.604E+00 9.7973794E+00 -2.1440167E-01 -1.6150306E-01
  0.000E+00  1.750E+00  1.662E+00 1.0104188E+01 2.5426789E-01 2.2483104E-01
  4.318E-02  1.766E+00  1.643E+00 9.8596500E+00 -2.0397562E-01 -1.7050124E-01
  0.000E+00  1.716E+00  1.698E+00 1.0162789E+01 2.4152965E-01 2.3787493E-01
  4.318E-02  1.733E+00  1.680E+00 9.8516397E+00 -1.9693867E-01 -1.8096682E-01
  0.000E+00  1.680E+00  1.733E+00 1.0116788E+01 2.2919620E-01 2.4854628E-01
  4.318E-02  1.698E+00  1.716E+00 9.8960453E+00 -1.8692133E-01 -1.9062076E-01
  0.000E+00  1.643E+00  1.766E+00 1.0125999E+01 2.1662554E-01 2.6107866E-01
  4.318E-02  1.662E+00  1.750E+00 9.8384771E+00 -1.7819944E-01 -1.9898061E-01
  0.000E+00  1.604E+00  1.797E+00 1.0062572E+01 2.0162071E-01 2.6881286E-01
  4.318E-02  1.623E+00  1.782E+00 9.8332655E+00 -1.6795549E-01 -2.0900530E-01
  0.000E+00  1.563E+00  1.826E+00 9.9718142E+00 1.8954301E-01 2.8197927E-01
  4.318E-02  1.584E+00  1.812E+00 9.7259345E+00 -1.5760370E-01 -2.1555172E-01
  0.000E+00  1.521E+00  1.853E+00 9.9314523E+00 1.7321715E-01 2.8625599E-01
  4.318E-02  1.543E+00  1.840E+00 9.7157489E+00 -1.4753506E-01 -2.2552145E-01
  0.000E+00  1.478E+00  1.878E+00 9.7501938E+00 1.5965555E-01 2.9822617E-01
  4.318E-02  1.500E+00  1.866E+00 9.5493523E+00 -1.3575084E-01 -2.3205075E-01
  0.000E+00  1.434E+00  1.901E+00 9.7134313E+00 1.4444918E-01 3.0374982E-01
  4.318E-02  1.456E+00  1.890E+00 9.4796711E+00 -1.2433093E-01 -2.3745223E-01
  0.000E+00  1.388E+00  1.921E+00 9.5672045E+00 1.2862560E-01 3.0826532E-01
  4.318E-02  1.411E+00  1.912E+00 9.3909284E+00 -1.1267724E-01 -2.4700349E-01
  0.000E+00  1.342E+00  1.940E+00 9.3921369E+00 1.1282025E-01 3.1691915E-01
  4.318E-02  1.365E+00  1.931E+00 9.1975313E+00 -9.9821751E-02 -2.5080392E-01
  0.000E+00  1.295E+00  1.956E+00 9.3281510E+00 9.7024947E-02 3.2131493E-01
  4.318E-02  1.318E+00  1.948E+00 9.0937854E+00 -8.7660944E-02 -2.5416336E-01
  0.000E+00  1.247E+00  1.969E+00 9.2418855E+00 8.1914615E-02 3.2388965E-01
  4.318E-02  1.271E+00  1.963E+00 9.0238365E+00 -7.4834848E-02 -2.6056106E-01
  0.000E+00  1.198E+00  1.980E+00 9.1254363E+00 6.6344303E-02 3.2682637E-01
  4.318E-02  1.223E+00  1.975E+00 8.9164282E+00 -6.0998699E-02 -2.6538042E-01
  0.000E+00  1.149E+00  1.989E+00 9.0170750E+00 4.9937721E-02 3.2998910E-01
  4.318E-02  1.174E+00  1.985E+00 8.8011570E+00 -4.7076522E-02 -2.6793566E-01
  0.000E+00  1.100E+00  1.995E+00 8.9438118E+00 3.3164950E-02 3.3238910E-01
  4.318E-02  1.124E+00  1.992E+00 8.7117782E+00 -3.3502406E-02 -2.6947153E-01
  0.000E+00  1.050E+00  1.999E+00 8.9068122E+00 1.6474215E-02 3.3356705E-01
  4.318E-02  1.075E+00  1.997E+00 8.6564209E+00 -2.0118488E-02 -2.7060468E-01
  0.000E+00  1.000E+00  2.000E+00 8.8961454E+00 -7.6529311E-06 3.3386625E-01
  4.318E-02  1.025E+00  2.000E+00 8.6312148E+00 -6.7185485E-03 -2.7126734E-01
  0.000E+00  9.502E-01  1.999E+00 8.9068109E+00 -1.6476613E-02 3.3356842E-01
  4.318E-02  9.751E-01  2.000E+00 8.6312137E+00 6.7120963E-03 -2.7126714E-01
  0.000E+00  9.004E-01  1.995E+00 8.9438156E+00 -3.3175164E-02 3.3239189E-01
  4.318E-02  9.253E-01  1.997E+00 8.6564231E+00 2.0105889E-02 -2.7060400E-01
  0.000E+00  8.510E-01  1.989E+00 9.0170736E+00 -4.9948675E-02 3.2999309E-01
  4.318E-02  8.757E-01  1.992E+00 8.7117802E+00 3.3499851E-02 -2.6947053E-01
  0.000E+00  8.019E-01  1.980E+00 9.1254397E+00 -6.6346525E-02 3.2683140E-01
  4.318E-02  8.264E-01  1.985E+00 8.8011585E+00 4.7064174E-02 -2.6793376E-01
  0.000E+00  7.532E-01  1.969E+00 9.2418885E+00 -8.1930805E-02 3.2389579E-01
  4.318E-02  7.775E-01  1.975E+00 8.9164330E+00 6.0991527E-02 -2.6537797E-01
  0.000E+00  7.052E-01  1.956E+00 9.3281515E+00 -9.7029352E-02 3.2132155E-01
  4.318E-02  7.292E-01  1.963E+00 9.0238385E+00 7.4829529E-02 -2.6055771E-01
  0.000E+00  6.580E-01  1.940E+00 9.3921434E+00 -1.1282867E-01 3.1692645E-01
  4.318E-02  6.815E-01  1.948E+00 9.0937897E+00 8.7646535E-02 -2.5415845E-01
  0.000E+00  6.116E-01  1.921E+00 9.5672066E+00 -1.2864133E-01 3.0827310E-01
  4.318E-02  6.347E-01  1.931E+00 9.1975361E+00 9.9818542E-02 -2.5079900E-01
  0.000E+00  5.661E-01  1.901E+00 9.7134349E+00 -1.4445075E-01 3.0375752E-01
  4.318E-02  5.887E-01  1.912E+00 9.3909303E+00 1.1266664E-01 -2.4699663E-01
  0.000E+00  5.217E-01  1.878E+00 9.7502011E+00 -1.5966899E-01 2.9823453E-01
  4.318E-02  5.438E-01  1.890E+00 9.4796768E+00 1.2431773E-01 -2.3744486E-01
  0.000E+00  4.786E-01  1.853E+00 9.9314539E+00 -1.7323127E-01 2.8626446E-01
  4.318E-02  5.000E-01  1.866E+00 9.5493567E+00 1.3574875E-01 -2.3204444E-01
  0.000E+00  4.367E-01  1.826E+00 9.9718188E+00 -1.8954467E-01 2.8198743E-01
  4.318E-02  4.575E-01  1.840E+00 9.7157520E+00 1.4752206E-01 -2.2551386E-01
  0.000E+00  3.962E-01  1.797E+00 1.0062579E+01 -2.0163473E-01 2.6882128E-01
  4.318E-02  4.163E-01  1.812E+00 9.7259406E+00 1.5759032E-01 -2.1554403E-01
  0.000E+00  3.572E-01  1.766E+00 1.0126001E+01 -2.1664133E-01 2.6108674E-01
  4.318E-02  3.765E-01  1.782E+00 9.8332700E+00 1.6795430E-01 -2.0899899E-01
  0.000E+00  3.198E-01  1.733E+00 1.0116791E+01 -2.2919772E-01 2.4855358E-01
  4.318E-02  3.383E-01  1.750E+00 9.8384791E+00 1.7818740E-01 -1.9897244E-01
  0.000E+00  2.841E-01  1.698E+00 1.0162796E+01 -2.4153755E-01 2.3788217E-01
  4.318E-02  3.018E-01  1.716E+00 9.8960499E+00 1.8690393E-01 -1.9061203E-01
  0.000E+00  2.502E-01  1.662E+00 1.0104191E+01 -2.5428765E-01 2.2483822E-01
  4.318E-02  2.669E-01  1.680E+00 9.8516443E+00 1.9693499E-01 -1.8096043E-01
  0.000E+00  2.182E-01  1.623E+00 1.0100242E+01 -2.6401052E-01 2.1212827E-01
  4.318E-02  2.340E-01  1.643E+00 9.8596512E+00 2.0397302E-01 -1.7049529E-01
  0.000E+00  1.881E-01  1.584E+00 9.9918302E+00 -2.7648003E-01 1.9873047E-01
  4.318E-02  2.029E-01  1.604E+00 9.7973800E+00 2.1438563E-01 -1.6149516E-01
  0.000E+00  1.600E-01  1.543E+00 9.9836706E+00 -2.8383411E-01 1.8381151E-01
  4.318E-02  1.738E-01  1.563E+00 9.7065803E+00 2.1853771E-01 -1.4903216E-01
  0.000E+00  1.340E-01  1.500E+00 9.8153677E+00 -2.9366667E-01 1.6976474E-01
  4.318E-02  1.467E-01  1.521E+00 9.6657079E+00 2.2961640E-01 -1.3957626E-01
  0.000E+00  1.101E-01  1.456E+00 9.7471972E+00 -3.0346874E-01 1.5479257E-01
  4.318E-02  1.218E-01  1.478E+00 9.4863045E+00 2.3251865E-01 -1.2726450E-01
  0.000E+00  8.849E-02  1.411E+00 9.6588626E+00 -3.0724761E-01 1.3897160E-01
  4.318E-02  9.903E-02  1.434E+00 9.4472384E+00 2.4023140E-01 -1.1582269E-01
  0.000E+00  6.913E-02  1.365E+00 9.4633319E+00 -3.1534356E-01 1.2327635E-01
  4.318E-02  7.852E-02  1.388E+00 9.3020946E+00 2.4739446E-01 -1.0393721E-01
  0.000E+00  5.207E-02  1.318E+00 9.3603113E+00 -3.2260507E-01 1.0685141E-01
  4.318E-02  6.031E-02  1.342E+00 9.1282462E+00 2.4931031E-01 -9.1504563E-02
  0.000E+00  3.738E-02  1.271E+00 9.2915769E+00 -3.2566422E-01 9.1351700E-02
  4.318E-02  4.443E-02  1.295E+00 9.0623574E+00 2.5427089E-01 -7.9303368E-02
  0.000E+00  2.507E-02  1.223E+00 9.1840264E+00 -3.2877339E-01 7.5999962E-02
  4.318E-02  3.092E-02  1.247E+00 8.9752666E+00 2.5978640E-01 -6.6175630E-02
  0.000E+00  1.519E-02  1.174E+00 9.0679746E+00 -3.3237065E-01 5.9671362E-02
  4.318E-02  1.983E-02  1.198E+00 8.8592344E+00 2.6316194E-01 -5.2466816E-02
  0.000E+00  7.761E-03  1.124E+00 8.9779591E+00 -3.3540828E-01 4.2600211E-02
  4.318E-02  1.117E-02  1.149E+00 8.7515496E+00 2.6469744E-01 -3.8976262E-02
  0.000E+00  2.796E-03  1.075E+00 8.9223081E+00 -3.3738483E-01 2.5456765E-02
  4.318E-02  4.969E-03  1.100E+00 8.6786294E+00 2.6565534E-01 -2.5900932E-02
  0.000E+00  3.108E-04  1.025E+00 8.8970388E+00 -3.3829338E-01 8.4666701E-03
  4.318E-02  1.243E-03  1.050E+00 8.6416619E+00 2.6654114E-01 -1.2987149E-02
  0.000E+00  3.108E-04  9.751E-01 8.8970394E+00 -3.3827747E-01 -8.4554998E-03
  4.318E-02  0.000E+00  1.000E+00 8.6309670E+00 2.6695006E-01 4.6698019E-06
  0.000E+00  2.796E-03  9.253E-01 8.9223100E+00 -3.3733959E-01 -2.5444637E-02
  4.318E-02  1.243E-03  9.502E-01 8.6416631E+00 2.6654558E-01 1.2996345E-02
  0.000E+00  7.761E-03  8.757E-01 8.9779627E+00 -3.3534584E-01 -4.2587263E-02
  4.318E-02  4.969E-03  9.004E-01 8.6786315E+00 2.6565746E-01 2.5909435E-02
  0.000E+00  1.519E-02  8.264E-01 9.0679793E+00 -3.3231887E-01 -5.9659848E-02
  4.318E-02  1.117E-02  8.510E-01 8.7515517E+00 2.6468835E-01 3.8983157E-02
  0.000E+00  2.507E-02  7.775E-01 9.1840299E+00 -3.2875994E-01 -7.5992906E-02
  4.318E-02  1.983E-02  8.019E-01 8.8592354E+00 2.6314429E-01 5.2471905E-02
  0.000E+00  3.738E-02  7.292E-01 9.2915781E+00 -3.2568056E-01 -9.1348910E-02
  4.318E-02  3.092E-02  7.532E-01 8.9752667E+00 2.5978168E-01 6.6180520E-02
  0.000E+00  5.207E-02  6.815E-01 9.3603127E+00 -3.2261246E-01 -1.0684947E-01
  4.318E-02  4.443E-02  7.052E-01 9.0623579E+00 2.5429575E-01 7.9309762E-02
  0.000E+00  6.913E-02  6.347E-01 9.4633352E+00 -3.1533656E-01 -1.2327458E-01
  4.318E-02  6.031E-02  6.580E-01 9.1282467E+00 2.4934480E-01 9.1511216E-02
  0.000E+00  8.849E-02  5.887E-01 9.6588638E+00 -3.0724745E-01 -1.3897123E-01
  4.318E-02  7.852E-02  6.116E-01 9.3020935E+00 2.4740749E-01 1.0394145E-01
  0.000E+00  1.101E-01  5.438E-01 9.7471950E+00 -3.0345777E-01 -1.5479164E-01
  4.318E-02  9.903E-02  5.661E-01 9.4472359E+00 2.4023172E-01 1.1582439E-01
  0.000E+00  1.340E-01  5.000E-01 9.8153598E+00 -2.9364850E-01 -1.6976227E-01
  4.318E-02  1.218E-01  5.217E-01 9.4862993E+00 2.3251443E-01 1.2726532E-01
  0.000E+00  1.600E-01  4.575E-01 9.9836591E+00 -2.8383106E-01 -1.8380894E-01
  4.318E-02  1.467E-01  4.786E-01 9.6656985E+00 2.2961744E-01 1.3957872E-01
  0.000E+00  1.881E-01  4.163E-01 9.9918206E+00 -2.7648146E-01 -1.9872732E-01
  4.318E-02  1.738E-01  4.367E-01 9.7065702E+00 2.1855466E-01 1.4903777E-01
  0.000E+00  2.182E-01  3.765E-01 1.0100234E+01 -2.6400221E-01 -2.1212385E-01
  4.318E-02  2.029E-01  3.962E-01 9.7973708E+00 2.1440072E-01 1.6150122E-01
  0.000E+00  2.502E-01  3.383E-01 1.0104180E+01 -2.5426995E-01 -2.2483208E-01
  4.318E-02  2.340E-01  3.572E-01 9.8596408E+00 2.0397481E-01 1.7049963E-01
  0.000E+00  2.841E-01  3.018E-01 1.0162779E+01 -2.4153087E-01 -2.3787628E-01
  4.318E-02  2.669E-01  3.198E-01 9.8516309E+00 1.9693777E-01 1.8096575E-01
  0.000E+00  3.198E-01  2.669E-01 1.0116778E+01 -2.2919802E-01 -2.4854740E-01
  4.318E-02  3.018E-01  2.841E-01 9.8960367E+00 1.8692096E-01 1.9061992E-01
  0.000E+00  3.572E-01  2.340E-01 1.0125989E+01 -2.1662659E-01 -2.6107931E-01
  4.318E-02  3.383E-01  2.502E-01 9.8384683E+00 1.7819897E-01 1.9897998E-01
  0.000E+00  3.962E-01  2.029E-01 1.0062563E+01 -2.0161927E-01 -2.6881245E-01
  4.318E-02  3.765E-01  2.182E-01 9.8332563E+00 1.6795407E-01 2.0900454E-01
  0.000E+00  4.367E-01  1.738E-01 9.9718067E+00 -1.8954099E-01 -2.8197830E-01
  4.318E-02  4.163E-01  1.881E-01 9.7259245E+00 1.5760016E-01 2.1555096E-01
  0.000E+00  4.786E-01  1.467E-01 9.9314432E+00 -1.7321877E-01 -2.8625595E-01
  4.318E-02  4.575E-01  1.600E-01 9.7157358E+00 1.4753478E-01 2.2552069E-01
  0.000E+00  5.217E-01  1.218E-01 9.7501833E+00 -1.5966471E-01 -2.9822820E-01
  4.318E-02  5.000E-01  1.340E-01 9.5493419E+00 1.3575278E-01 2.3205212E-01
  0.000E+00  5.661E-01  9.903E-02 9.7134191E+00 -1.4445965E-01 -3.0375271E-01
  4.318E-02  5.438E-01  1.101E-01 9.4796627E+00 1.2433658E-01 2.3745520E-01
  0.000E+00  6.116E-01  7.852E-02 9.5671914E+00 -1.2862558E-01 -3.0826593E-01
  4.318E-02  5.887E-01  8.849E-02 9.3909221E+00 1.1267989E-01 2.4700650E-01
  0.000E+00  6.580E-01  6.031E-02 9.3921239E+00 -1.1280676E-01 -3.1691498E-01
  4.318E-02  6.347E-01  6.913E-02 9.1975261E+00 9.9816193E-02 2.5080477E-01
  0.000E+00  7.052E-01  4.443E-02 9.3281402E+00 -9.7006211E-02 -3.2130668E-01
  4.318E-02  6.815E-01  5.207E-02 9.0937783E+00 8.7648687E-02 2.5416153E-01
  0.000E+00  7.532E-01  3.092E-02 9.2418777E+00 -8.1902623E-02 -3.2387980E-01
  4.318E-02  7.292E-01  3.738E-02 9.0238257E+00 7.4823686E-02 2.6055780E-01
  0.000E+00  8.019E-01  1.983E-02 9.1254301E+00 -6.6343693E-02 -3.2681712E-01
  4.318E-02  7.775E-01  2.507E-02 8.9164150E+00 6.0993932E-02 2.6537744E-01
  0.000E+00  8.510E-01  1.117E-02 9.0170681E+00 -4.9944868E-02 -3.2998134E-01
  4.318E-02  8.264E-01  1.519E-02 8.8011441E+00 4.7078253E-02 2.6793391E-01
  0.000E+00  9.004E-01  4.969E-03 8.9438028E+00 -3.3173697E-02 -3.3238276E-01
  4.318E-02  8.757E-01  7.761E-03 8.7117676E+00 3.3507043E-02 2.6947111E-01
  4.318E-02  9.253E-01  2.796E-03 8.6564128E+00 2.0122480E-02 2.7060519E-01
  1.000E+01  1.050E+00  1.243E-03 8.9068003E+00 1.6481375E-02 -3.3356245E-01
  1.000E+01  1.000E+00  5.551E-16 8.8961339E+00 7.2380146E-06 -3.3386091E-01
  9.957E+00  1.025E+00  3.108E-04 9.1764864E+00 2.6049085E-02 -1.0551584E+00
  1.000E+01  9.502E-01  1.243E-03 8.9068013E+00 -1.6479831E-02 -3.3356157E-01
  9.957E+00  9.751E-01  3.108E-04 9.1764846E+00 -2.6036836E-02 -1.0551579E+00
  1.000E+01  9.004E-01  4.969E-03 8.9438028E+00 -3.3173697E-02 -3.3238276E-01
  9.957E+00  9.253E-01  2.796E-03 9.2017626E+00 -7.8244655E-02 -1.0526105E+00
  1.000E+01  8.510E-01  1.117E-02 9.0170681E+00 -4.9944868E-02 -3.2998134E-01
  9.957E+00  8.757E-01  7.761E-03 9.2577041E+00 -1.3083495E-01 -1.0474883E+00
  1.000E+01  8.019E-01  1.983E-02 9.1254301E+00 -6.6343693E-02 -3.2681712E-01
  9.957E+00  8.264E-01  1.519E-02 9.3484322E+00 -1.8373532E-01 -1.0398128E+00
  1.000E+01  7.532E-01  3.092E-02 9.2418777E+00 -8.1902623E-02 -3.2387980E-01
  9.957E+00  7.775E-01  2.507E-02 9.4653262E+00 -2.3563220E-01 -1.0297646E+00
  1.000E+01  7.052E-01  4.443E-02 9.3281402E+00 -9.7006211E-02 -3.2130668E-01
  9.957E+00  7.292E-01  3.738E-02 9.5728508E+00 -2.8541255E-01 -1.0178787E+00
  1.000E+01  6.580E-01  6.031E-02 9.3921239E+00 -1.1280676E-01 -3.1691498E-01
  9.957E+00  6.815E-01  5.207E-02 9.6398587E+00 -3.3424058E-01 -1.0039915E+00
  1.000E+01  6.116E-01  7.852E-02 9.5671914E+00 -1.2862558E-01 -3.0826593E-01
  9.957E+00  6.347E-01  6.913E-02 9.7416458E+00 -3.8410024E-01 -9.8467978E-01
  1.000E+01  5.661E-01  9.903E-02 9.7134191E+00 -1.4445965E-01 -3.0375271E-01
  9.957E+00  5.887E-01  8.849E-02 9.9392182E+00 -4.3330874E-01 -9.6334700E-01
  1.000E+01  5.217E-01  1.218E-01 9.7501833E+00 -1.5966471E-01 -2.9822820E-01
  9.957E+00  5.438E-01  1.101E-01 1.0027119E+01 -4.8155064E-01 -9.4468147E-01
  1.000E+01  4.786E-01  1.467E-01 9.9314432E+00 -1.7321877E-01 -2.8625595E-01
  9.957E+00  5.000E-01  1.340E-01 1.0093719E+01 -5.2770555E-01 -9.1786616E-01
  1.000E+01  4.367E-01  1.738E-01 9.9718067E+00 -1.8954099E-01 -2.8197830E-01
  9.957E+00  4.575E-01  1.600E-01 1.0264190E+01 -5.7246515E-01 -8.8989336E-01
  1.000E+01  3.962E-01  2.029E-01 1.0062563E+01 -2.0161927E-01 -2.6881245E-01
  9.957E+00  4.163E-01  1.881E-01 1.0270548E+01 -6.1750032E-01 -8.6321642E-01
  1.000E+01  3.572E-01  2.340E-01 1.0125989E+01 -2.1662659E-01 -2.6107931E-01
  9.957E+00  3.765E-01  2.182E-01 1.0380528E+01 -6.5964960E-01 -8.2937473E-01
  1.000E+01  3.198E-01  2.669E-01 1.0116778E+01 -2.2919802E-01 -2.4854740E-01
  9.957E+00  3.383E-01  2.502E-01 1.0383600E+01 -7.0049141E-01 -7.9722055E-01
  1.000E+01  2.841E-01  3.018E-01 1.0162779E+01 -2.4153087E-01 -2.3787628E-01
  9.957E+00  3.018E-01  2.841E-01 1.0443830E+01 -7.4026789E-01 -7.6035877E-01
  1.000E+01  2.502E-01  3.383E-01 1.0104180E+01 -2.5426995E-01 -2.2483208E-01
  9.957E+00  2.669E-01  3.198E-01 1.0396604E+01 -7.7659676E-01 -7.2267306E-01
  1.000E+01  2.182E-01  3.765E-01 1.0100234E+01 -2.6400221E-01 -2.1212385E-01
  9.957E+00  2.340E-01  3.572E-01 1.0407610E+01 -8.1350628E-01 -6.8346507E-01
  1.000E+01  1.881E-01  4.163E-01 9.9918206E+00 -2.7648146E-01 -1.9872732E-01
  9.957E+00  2.029E-01  3.962E-01 1.0343391E+01 -8.4416426E-01 -6.4044797E-01
  1.000E+01  1.600E-01  4.575E-01 9.9836591E+00 -2.8383106E-01 -1.8380894E-01
  9.957E+00  1.738E-01  4.367E-01 1.0253099E+01 -8.7929804E-01 -5.9946798E-01
  1.000E+01  1.340E-01  5.000E-01 9.8153598E+00 -2.9364850E-01 -1.6976227E-01
  9.957E+00  1.467E-01  4.786E-01 1.0213510E+01 -9.0318296E-01 -5.5257886E-01
  1.000E+01  1.101E-01  5.438E-01 9.7471950E+00 -3.0345777E-01 -1.5479164E-01
  9.957E+00  1.218E-01  5.217E-01 1.0030414E+01 -9.3421904E-01 -5.0798940E-01
  1.000E+01  8.849E-02  5.887E-01 9.6588638E+00 -3.0724745E-01 -1.3897123E-01
  9.957E+00  9.903E-02  5.661E-01 9.9960691E+00 -9.5662055E-01 -4.6064851E-01
  1.000E+01  6.913E-02  6.347E-01 9.4633352E+00 -3.1533656E-01 -1.2327458E-01
  9.957E+00  7.852E-02  6.116E-01 9.8484457E+00 -9.7586156E-01 -4.1121604E-01
  1.000E+01  5.207E-02  6.815E-01 9.3603127E+00 -3.2261246E-01 -1.0684947E-01
  9.957E+00  6.031E-02  6.580E-01 9.6719049E+00 -9.9784168E-01 -3.6129928E-01
  1.000E+01  3.738E-02  7.292E-01 9.2915781E+00 -3.2568056E-01 -9.1348910E-02
  9.957E+00  4.443E-02  7.052E-01 9.6098621E+00 -1.0142549E+00 -3.1180002E-01
  1.000E+01  2.507E-02  7.775E-01 9.1840299E+00 -3.2875994E-01 -7.5992906E-02
  9.957E+00  3.092E-02  7.532E-01 9.5242039E+00 -1.0273075E+00 -2.6254488E-01
  1.000E+01  1.519E-02  8.264E-01 9.0679793E+00 -3.3231887E-01 -5.9659848E-02
  9.957E+00  1.983E-02  8.019E-01 9.4068194E+00 -1.0384413E+00 -2.1138150E-01
  1.000E+01  7.761E-03  8.757E-01 8.9779627E+00 -3.3534584E-01 -4.2587263E-02
  9.957E+00  1.117E-02  8.510E-01 9.2972460E+00 -1.0476872E+00 -1.5855541E-01
  1.000E+01  2.796E-03  9.253E-01 8.9223100E+00 -3.3733959E-01 -2.5444637E-02
  9.957E+00  4.969E-03  9.004E-01 9.2233062E+00 -1.0544060E+00 -1.0537028E-01
  1.000E+01  3.108E-04  9.751E-01 8.8970394E+00 -3.3827747E-01 -8.4554998E-03
  9.957E+00  1.243E-03  9.502E-01 9.1861366E+00 -1.0582391E+00 -5.2505293E-02
  1.000E+01  3.108E-04  1.025E+00 8.8970388E+00 -3.3829338E-01 8.4666701E-03
  9.957E+00  0.000E+00  1.000E+00 9.1754663E+00 -1.0594456E+00 6.5202947E-06
  1.000E+01  2.796E-03  1.075E+00 8.9223081E+00 -3.3738483E-01 2.5456765E-02
  9.957E+00  1.243E-03  1.050E+00 9.1861355E+00 -1.0582431E+00 5.2518336E-02
  1.000E+01  7.761E-03  1.124E+00 8.9779591E+00 -3.3540828E-01 4.2600211E-02
  9.957E+00  4.969E-03  1.100E+00 9.2233035E+00 -1.0544266E+00 1.0538378E-01
  1.000E+01  1.519E-02  1.174E+00 9.0679746E+00 -3.3237065E-01 5.9671362E-02
  9.957E+00  1.117E-02  1.149E+00 9.2972403E+00 -1.0477365E+00 1.5856973E-01
  1.000E+01  2.507E-02  1.223E+00 9.1840264E+00 -3.2877339E-01 7.5999962E-02
  9.957E+00  1.983E-02  1.198E+00 9.4068098E+00 -1.0384991E+00 2.1139384E-01
  1.000E+01  3.738E-02  1.271E+00 9.2915769E+00 -3.2566422E-01 9.1351700E-02
  9.957E+00  3.092E-02  1.247E+00 9.5241938E+00 -1.0273114E+00 2.6254835E-01
  1.000E+01  5.207E-02  1.318E+00 9.3603113E+00 -3.2260507E-01 1.0685141E-01
  9.957E+00  4.443E-02  1.295E+00 9.6098564E+00 -1.0141754E+00 3.1179159E-01
  1.000E+01  6.913E-02  1.365E+00 9.4633319E+00 -3.1534356E-01 1.2327635E-01
  9.957E+00  6.031E-02  1.342E+00 9.6719026E+00 -9.9774735E-01 3.6128648E-01
  1.000E+01  8.849E-02  1.411E+00 9.6588626E+00 -3.0724761E-01 1.3897160E-01
  9.957E+00  7.852E-02  1.388E+00 9.8484441E+00 -9.7583018E-01 4.1120801E-01
  1.000E+01  1.101E-01  1.456E+00 9.7471972E+00 -3.0346874E-01 1.5479257E-01
  9.957E+00  9.903E-02  1.434E+00 9.9960710E+00 -9.5663395E-01 4.6064727E-01
  1.000E+01  1.340E-01  1.500E+00 9.8153677E+00 -2.9366667E-01 1.6976474E-01
  9.957E+00  1.218E-01  1.478E+00 1.0030419E+01 -9.3426093E-01 5.0799369E-01
  1.000E+01  1.600E-01  1.543E+00 9.9836706E+00 -2.8383411E-01 1.8381151E-01
  9.957E+00  1.467E-01  1.521E+00 1.0213515E+01 -9.0320334E-01 5.5258197E-01
  1.000E+01  1.881E-01  1.584E+00 9.9918302E+00 -2.7648003E-01 1.9873047E-01
  9.957E+00  1.738E-01  1.563E+00 1.0253107E+01 -8.7927796E-01 5.9946566E-01
  1.000E+01  2.182E-01  1.623E+00 1.0100242E+01 -2.6401052E-01 2.1212827E-01
  9.957E+00  2.029E-01  1.604E+00 1.0343404E+01 -8.4415023E-01 6.4044725E-01
  1.000E+01  2.502E-01  1.662E+00 1.0104191E+01 -2.5428765E-01 2.2483822E-01
  9.957E+00  2.340E-01  1.643E+00 1.0407625E+01 -8.1353637E-01 6.8347213E-01
  1.000E+01  2.841E-01  1.698E+00 1.0162796E+01 -2.4153755E-01 2.3788217E-01
  9.957E+00  2.669E-01  1.680E+00 1.0396616E+01 -7.7662487E-01 7.2268173E-01
  1.000E+01  3.198E-01  1.733E+00 1.0116791E+01 -2.2919772E-01 2.4855358E-01
  9.957E+00  3.018E-01  1.716E+00 1.0443843E+01 -7.4025309E-01 7.6036181E-01
  1.000E+01  3.572E-01  1.766E+00 1.0126001E+01 -2.1664133E-01 2.6108674E-01
  9.957E+00  3.383E-01  1.750E+00 1.0383617E+01 -7.0049524E-01 7.9722651E-01
  1.000E+01  3.962E-01  1.797E+00 1.0062579E+01 -2.0163473E-01 2.6882128E-01
  9.957E+00  3.765E-01  1.782E+00 1.0380544E+01 -6.5968189E-01 8.2938477E-01
  1.000E+01  4.367E-01  1.826E+00 9.9718188E+00 -1.8954467E-01 2.8198743E-01
  9.957E+00  4.163E-01  1.812E+00 1.0270563E+01 -6.1749532E-01 8.6322229E-01
  1.000E+01  4.786E-01  1.853E+00 9.9314539E+00 -1.7323127E-01 2.8626446E-01
  9.957E+00  4.575E-01  1.840E+00 1.0264209E+01 -5.7246317E-01 8.8989950E-01
  1.000E+01  5.217E-01  1.878E+00 9.7502011E+00 -1.5966899E-01 2.9823453E-01
  9.957E+00  5.000E-01  1.866E+00 1.0093734E+01 -5.2773889E-01 9.1787716E-01
  1.000E+01  5.661E-01  1.901E+00 9.7134349E+00 -1.4445075E-01 3.0375752E-01
  9.957E+00  5.438E-01  1.890E+00 1.0027132E+01 -4.8155340E-01 9.4469086E-01
  1.000E+01  6.116E-01  1.921E+00 9.5672066E+00 -1.2864133E-01 3.0827310E-01
  9.957E+00  5.887E-01  1.912E+00 9.9392344E+00 -4.3331624E-01 9.6335588E-01
  1.000E+01  6.580E-01  1.940E+00 9.3921434E+00 -1.1282867E-01 3.1692645E-01
  9.957E+00  6.347E-01  1.931E+00 9.7416599E+00 -3.8412013E-01 9.8468804E-01
  1.000E+01  7.052E-01  1.956E+00 9.3281515E+00 -9.7029352E-02 3.2132155E-01
  9.957E+00  6.815E-01  1.948E+00 9.6398720E+00 -3.3421845E-01 1.0039946E+00
  1.000E+01  7.532E-01  1.969E+00 9.2418885E+00 -8.1930805E-02 3.2389579E-01
  9.957E+00  7.292E-01  1.963E+00 9.5728653E+00 -2.8541831E-01 1.0178811E+00
  1.000E+01  8.019E-01  1.980E+00 9.1254397E+00 -6.6346525E-02 3.2683140E-01
  9.957E+00  7.775E-01  1.975E+00 9.4653379E+00 -2.3563838E-01 1.0297664E+00
  1.000E+01  8.510E-01  1.989E+00 9.0170736E+00 -4.9948675E-02 3.2999309E-01
  9.957E+00  8.264E-01  1.985E+00 9.3484464E+00 -1.8373212E-01 1.0398142E+00
  1.000E+01  9.004E-01  1.995E+00 8.9438156E+00 -3.3175164E-02 3.3239189E-01
  9.957E+00  8.757E-01  1.992E+00 9.2577166E+00 -1.3086525E-01 1.0474909E+00
  1.000E+01  9.502E-01  1.999E+00 8.9068109E+00 -1.6476613E-02 3.3356842E-01
  9.957E+00  9.253E-01  1.997E+00 9.2017731E+00 -7.8243081E-02 1.0526126E+00
  1.000E+01  1.000E+00  2.000E+00 8.8961454E+00 -7.6529311E-06 3.3386625E-01
  9.957E+00  9.751E-01  2.000E+00 9.1764962E+00 -2.6051319E-02 1.0551596E+00
  1.000E+01  1.050E+00  1.999E+00 8.9068122E+00 1.6474215E-02 3.3356705E-01
  9.957E+00  1.025E+00  2.000E+00 9.1764944E+00 2.6038271E-02 1.0551591E+00
  1.000E+01  1.100E+00  1.995E+00 8.9438118E+00 3.3164950E-02 3.3238910E-01
  9.957E+00  1.075E+00  1.997E+00 9.2017729E+00 7.8249047E-02 1.0526110E+00
  1.000E+01  1.149E+00  1.989E+00 9.0170750E+00 4.9937721E-02 3.2998910E-01
  9.957E+00  1.124E+00  1.992E+00 9.2577150E+00 1.3084001E-01 1.0474876E+00