# TIME = 7.000000
VARIABLES = X, Y, Z, FX, FY, FZ
ZONE N=29232 E=58212 F=FEPOINT ET=TRIANGLE
  0.000E+00  9.502E-01  1.243E-03 6.3649483E+00 1.8025669E-01 3.6378530E+00
  0.000E+00  1.000E+00  0.000E+00 6.3537585E+00 -1.2276918E-06 3.6425592E+00
  4.318E-02  9.751E-01  3.108E-04 6.3315248E+00 8.7612053E-02 3.5404319E+00
  0.000E+00  1.050E+00  1.243E-03 6.3649490E+00 -1.8025924E-01 3.6378528E+00
  4.318E-02  1.025E+00  3.108E-04 6.3315252E+00 -8.7614551E-02 3.5404318E+00
  0.000E+00  1.100E+00  4.969E-03 6.4022492E+00 -3.6096921E-01 3.6242369E+00
  4.318E-02  1.075E+00  2.796E-03 6.3569964E+00 -2.6303743E-01 3.5314492E+00
  0.000E+00  1.149E+00  1.117E-02 6.4726545E+00 -5.4267519E-01 3.6025851E+00
  4.318E-02  1.124E+00  7.761E-03 6.4112242E+00 -4.3917564E-01 3.5141872E+00
  0.000E+00  1.198E+00  1.983E-02 6.5742265E+00 -7.2438127E-01 3.5727791E+00
  4.318E-02  1.174E+00  1.519E-02 6.4965606E+00 -6.1615325E-01 3.4892919E+00
  0.000E+00  1.247E+00  3.092E-02 6.6857446E+00 -9.0246344E-01 3.5328535E+00
  4.318E-02  1.223E+00  2.507E-02 6.6059832E+00 -7.9157096E-01 3.4557439E+00
  0.000E+00  1.295E+00  4.443E-02 6.7786276E+00 -1.0740845E+00 3.4811292E+00
  4.318E-02  1.271E+00  3.738E-02 6.7127312E+00 -9.6156453E-01 3.4111329E+00
  0.000E+00  1.342E+00  6.031E-02 6.8593592E+00 -1.2433564E+00 3.4214559E+00
  4.318E-02  1.318E+00  5.207E-02 6.7941654E+00 -1.1264159E+00 3.3562292E+00
  0.000E+00  1.388E+00  7.852E-02 7.0218888E+00 -1.4144773E+00 3.3571256E+00
  4.318E-02  1.365E+00  6.913E-02 6.9046860E+00 -1.2919621E+00 3.2960541E+00
  0.000E+00  1.434E+00  9.903E-02 7.1585024E+00 -1.5820739E+00 3.2834934E+00
  4.318E-02  1.411E+00  8.849E-02 7.0806148E+00 -1.4576524E+00 3.2297601E+00
  0.000E+00  1.478E+00  1.218E-01 7.2170156E+00 -1.7424553E+00 3.1992665E+00
  4.318E-02  1.456E+00  1.101E-01 7.1743036E+00 -1.6168872E+00 3.1525778E+00
  0.000E+00  1.521E+00  1.467E-01 7.3801760E+00 -1.8995359E+00 3.1086660E+00
  4.318E-02  1.500E+00  1.340E-01 7.2559638E+00 -1.7707103E+00 3.0672383E+00
  0.000E+00  1.563E+00  1.738E-01 7.4284782E+00 -2.0525923E+00 3.0102057E+00
  4.318E-02  1.543E+00  1.600E-01 7.4049330E+00 -1.9220253E+00 2.9757497E+00
  0.000E+00  1.604E+00  2.029E-01 7.5193663E+00 -2.2000003E+00 2.9042546E+00
  4.318E-02  1.584E+00  1.881E-01 7.4315860E+00 -2.0680296E+00 2.8761363E+00
  0.000E+00  1.643E+00  2.340E-01 7.5752141E+00 -2.3419016E+00 2.7907569E+00
  4.318E-02  1.623E+00  2.182E-01 7.5276796E+00 -2.2085801E+00 2.7694348E+00
  0.000E+00  1.680E+00  2.669E-01 7.5786151E+00 -2.4781954E+00 2.6707687E+00
  4.318E-02  1.662E+00  2.502E-01 7.5416410E+00 -2.3440837E+00 2.6559230E+00
  0.000E+00  1.716E+00  3.018E-01 7.6121452E+00 -2.6081612E+00 2.5437154E+00
  4.318E-02  1.698E+00  2.841E-01 7.5885097E+00 -2.4733584E+00 2.5357576E+00
  0.000E+00  1.750E+00  3.383E-01 7.5651918E+00 -2.7317290E+00 2.4107649E+00
  4.318E-02  1.733E+00  3.198E-01 7.5551110E+00 -2.5968604E+00 2.4093825E+00
  0.000E+00  1.782E+00  3.765E-01 7.5513484E+00 -2.8484758E+00 2.2713804E+00
  4.318E-02  1.766E+00  3.572E-01 7.5516285E+00 -2.7135356E+00 2.2768650E+00
  0.000E+00  1.812E+00  4.163E-01 7.4551529E+00 -2.9581871E+00 2.1268292E+00
  4.318E-02  1.797E+00  3.962E-01 7.4958498E+00 -2.8238407E+00 2.1388694E+00
  0.000E+00  1.840E+00  4.575E-01 7.4287068E+00 -3.0606361E+00 1.9766630E+00
  4.318E-02  1.826E+00  4.367E-01 7.4050185E+00 -2.9268883E+00 1.9955686E+00
  0.000E+00  1.866E+00  5.000E-01 7.2795673E+00 -3.1547220E+00 1.8210316E+00
  4.318E-02  1.853E+00  4.786E-01 7.3566307E+00 -3.0225512E+00 1.8467347E+00
  0.000E+00  1.890E+00  5.438E-01 7.1980423E+00 -3.2424476E+00 1.6628269E+00
  4.318E-02  1.878E+00  5.217E-01 7.1936873E+00 -3.1106757E+00 1.6940180E+00
  0.000E+00  1.912E+00  5.887E-01 7.1044445E+00 -3.3218487E+00 1.4990624E+00
  4.318E-02  1.901E+00  5.661E-01 7.1349858E+00 -3.1925352E+00 1.5380903E+00
  0.000E+00  1.931E+00  6.347E-01 6.9283375E+00 -3.3900142E+00 1.3286621E+00
  4.318E-02  1.921E+00  6.116E-01 6.9984646E+00 -3.2640810E+00 1.3751366E+00
  0.000E+00  1.948E+00  6.815E-01 6.8178901E+00 -3.4518631E+00 1.1584166E+00
  4.318E-02  1.940E+00  6.580E-01 6.8360871E+00 -3.3266513E+00 1.2087591E+00
  0.000E+00  1.963E+00  7.292E-01 6.7366003E+00 -3.5083320E+00 9.8887526E-01
  4.318E-02  1.956E+00  7.052E-01 6.7552178E+00 -3.3846536E+00 1.0441864E+00
  0.000E+00  1.975E+00  7.775E-01 6.6298618E+00 -3.5542195E+00 8.1403879E-01
  4.318E-02  1.969E+00  7.532E-01 6.6622826E+00 -3.4349095E+00 8.7734609E-01
  0.000E+00  1.985E+00  8.264E-01 6.5203844E+00 -3.5887142E+00 6.3362886E-01
  4.318E-02  1.980E+00  8.019E-01 6.5508200E+00 -3.4737127E+00 7.0423168E-01
  0.000E+00  1.992E+00  8.757E-01 6.4350108E+00 -3.6143029E+00 4.5162406E-01
  4.318E-02  1.989E+00  8.510E-01 6.4493205E+00 -3.5026916E+00 5.2758728E-01
  0.000E+00  1.997E+00  9.253E-01 6.3807780E+00 -3.6320466E+00 2.7048904E-01
  4.318E-02  1.995E+00  9.004E-01 6.3789472E+00 -3.5237453E+00 3.5093432E-01
  0.000E+00  2.000E+00  9.751E-01 6.3553144E+00 -3.6412812E+00 9.0093846E-02
  4.318E-02  1.999E+00  9.502E-01 6.3416463E+00 -3.5369842E+00 1.7524573E-01
  0.000E+00  2.000E+00  1.025E+00 6.3553144E+00 -3.6412801E+00 -9.0098451E-02
  4.318E-02  2.000E+00  1.000E+00 6.3304507E+00 -3.5415585E+00 -2.2844949E-06
  0.000E+00  1.997E+00  1.075E+00 6.3807781E+00 -3.6320429E+00 -2.7049361E-01
  4.318E-02  1.999E+00  1.050E+00 6.3416463E+00 -3.5369819E+00 -1.7525028E-01
  0.000E+00  1.992E+00  1.124E+00 6.4350109E+00 -3.6142972E+00 -4.5162859E-01
  4.318E-02  1.995E+00  1.100E+00 6.3789473E+00 -3.5237404E+00 -3.5093881E-01
  0.000E+00  1.985E+00  1.174E+00 6.5203844E+00 -3.5887112E+00 -6.3363332E-01
  4.318E-02  1.989E+00  1.149E+00 6.4493207E+00 -3.5026865E+00 -5.2759170E-01
  0.000E+00  1.975E+00  1.223E+00 6.6298618E+00 -3.5542255E+00 -8.1404312E-01
  4.318E-02  1.980E+00  1.198E+00 6.5508202E+00 -3.4737141E+00 -7.0423601E-01
  0.000E+00  1.963E+00  1.271E+00 6.7366002E+00 -3.5083387E+00 -9.8887938E-01
  4.318E-02  1.969E+00  1.247E+00 6.6622829E+00 -3.4349182E+00 -8.7735025E-01
  0.000E+00  1.948E+00  1.318E+00 6.8178900E+00 -3.4518522E+00 -1.1584205E+00
  4.318E-02  1.956E+00  1.295E+00 6.7552182E+00 -3.3846529E+00 -1.0441904E+00
  0.000E+00  1.931E+00  1.365E+00 6.9283376E+00 -3.3900050E+00 -1.3286658E+00
  4.318E-02  1.940E+00  1.342E+00 6.8360875E+00 -3.3266363E+00 -1.2087629E+00
  0.000E+00  1.912E+00  1.411E+00 7.1044440E+00 -3.3218625E+00 -1.4990658E+00
  4.318E-02  1.921E+00  1.388E+00 6.9984652E+00 -3.2640862E+00 -1.3751404E+00
  0.000E+00  1.890E+00  1.456E+00 7.1980426E+00 -3.2424430E+00 -1.6628302E+00
  4.318E-02  1.901E+00  1.434E+00 7.1349862E+00 -3.1925447E+00 -1.5380937E+00
  0.000E+00  1.866E+00  1.500E+00 7.2795677E+00 -3.1547128E+00 -1.8210345E+00
  4.318E-02  1.878E+00  1.478E+00 7.1936877E+00 -3.1106614E+00 -1.6940209E+00
  0.000E+00  1.840E+00  1.543E+00 7.4287073E+00 -3.0606467E+00 -1.9766660E+00
  4.318E-02  1.853E+00  1.521E+00 7.3566310E+00 -3.0225564E+00 -1.8467378E+00
  0.000E+00  1.812E+00  1.584E+00 7.4551533E+00 -2.9581822E+00 -2.1268315E+00
  4.318E-02  1.826E+00  1.563E+00 7.4050189E+00 -2.9268912E+00 -1.9955712E+00
  0.000E+00  1.782E+00  1.623E+00 7.5513487E+00 -2.8484791E+00 -2.2713828E+00
  4.318E-02  1.797E+00  1.604E+00 7.4958502E+00 -2.8238380E+00 -2.1388719E+00
  0.000E+00  1.750E+00  1.662E+00 7.5651923E+00 -2.7317299E+00 -2.4107668E+00
  4.318E-02  1.766E+00  1.643E+00 7.5516290E+00 -2.7135410E+00 -2.2768673E+00
  0.000E+00  1.716E+00  1.698E+00 7.6121462E+00 -2.6081624E+00 -2.5437173E+00
  4.318E-02  1.733E+00  1.680E+00 7.5551112E+00 -2.5968585E+00 -2.4093842E+00
  0.000E+00  1.680E+00  1.733E+00 7.5786158E+00 -2.4781981E+00 -2.6707702E+00
  4.318E-02  1.698E+00  1.716E+00 7.5885097E+00 -2.4733617E+00 -2.5357593E+00
  0.000E+00  1.643E+00  1.766E+00 7.5752137E+00 -2.3419010E+00 -2.7907578E+00
  4.318E-02  1.662E+00  1.750E+00 7.5416413E+00 -2.3440838E+00 -2.6559244E+00
  0.000E+00  1.604E+00  1.797E+00 7.5193651E+00 -2.1999993E+00 -2.9042547E+00
  4.318E-02  1.623E+00  1.782E+00 7.5276806E+00 -2.2085824E+00 -2.7694364E+00
  0.000E+00  1.563E+00  1.826E+00 7.4284781E+00 -2.0525909E+00 -3.0102056E+00
  4.318E-02  1.584E+00  1.812E+00 7.4315872E+00 -2.0680321E+00 -2.8761377E+00
  0.000E+00  1.521E+00  1.853E+00 7.3801787E+00 -1.8995394E+00 -3.1086669E+00
  4.318E-02  1.543E+00  1.840E+00 7.4049332E+00 -1.9220272E+00 -2.9757503E+00
  0.000E+00  1.478E+00  1.878E+00 7.2170190E+00 -1.7424638E+00 -3.1992692E+00
  4.318E-02  1.500E+00  1.866E+00 7.2559626E+00 -1.7707075E+00 -3.0672376E+00
  0.000E+00  1.434E+00  1.901E+00 7.1585027E+00 -1.5820846E+00 -3.2834967E+00
  4.318E-02  1.456E+00  1.890E+00 7.1743025E+00 -1.6168826E+00 -3.1525760E+00
  0.000E+00  1.388E+00  1.921E+00 7.0218854E+00 -1.4144771E+00 -3.3571266E+00
  4.318E-02  1.411E+00  1.912E+00 7.0806148E+00 -1.4576504E+00 -3.2297584E+00
  0.000E+00  1.342E+00  1.940E+00 6.8593562E+00 -1.2433435E+00 -3.4214523E+00
  4.318E-02  1.365E+00  1.931E+00 6.9046867E+00 -1.2919679E+00 -3.2960540E+00
  0.000E+00  1.295E+00  1.956E+00 6.7786277E+00 -1.0740639E+00 -3.4811210E+00
  4.318E-02  1.318E+00  1.948E+00 6.7941654E+00 -1.1264307E+00 -3.3562319E+00
  0.000E+00  1.247E+00  1.969E+00 6.6857470E+00 -9.0244641E-01 -3.5328424E+00
  4.318E-02  1.271E+00  1.963E+00 6.7127309E+00 -9.6157998E-01 -3.4111378E+00
  0.000E+00  1.198E+00  1.980E+00 6.5742284E+00 -7.2437550E-01 -3.5727676E+00
  4.318E-02  1.223E+00  1.975E+00 6.6059835E+00 -7.9158102E-01 -3.4557495E+00
  0.000E+00  1.149E+00  1.989E+00 6.4726548E+00 -5.4267924E-01 -3.6025745E+00
  4.318E-02  1.174E+00  1.985E+00 6.4965615E+00 -6.1615582E-01 -3.4892971E+00
  0.000E+00  1.100E+00  1.995E+00 6.4022483E+00 -3.6097735E-01 -3.6242275E+00
  4.318E-02  1.124E+00  1.992E+00 6.4112251E+00 -4.3917377E-01 -3.5141913E+00
  0.000E+00  1.050E+00  1.999E+00 6.3649476E+00 -1.8026562E-01 -3.6378442E+00
  4.318E-02  1.075E+00  1.997E+00 6.3569967E+00 -2.6303499E-01 -3.5314522E+00
  0.000E+00  1.000E+00  2.000E+00 6.3537571E+00 -2.9473085E-06 -3.6425509E+00
  4.318E-02  1.025E+00  2.000E+00 6.3315248E+00 -8.7614591E-02 -3.5404342E+00
  0.000E+00  9.502E-01  1.999E+00 6.3649468E+00 1.8025986E-01 -3.6378442E+00
  4.318E-02  9.751E-01  2.000E+00 6.3315244E+00 8.7608654E-02 -3.5404342E+00
  0.000E+00  9.004E-01  1.995E+00 6.4022467E+00 3.6097160E-01 -3.6242273E+00
  4.318E-02  9.253E-01  1.997E+00 6.3569955E+00 2.6302920E-01 -3.5314521E+00
  0.000E+00  8.510E-01  1.989E+00 6.4726525E+00 5.4267363E-01 -3.6025742E+00
  4.318E-02  8.757E-01  1.992E+00 6.4112232E+00 4.3916793E-01 -3.5141911E+00
  0.000E+00  8.019E-01  1.980E+00 6.5742253E+00 7.2437002E-01 -3.5727673E+00
  4.318E-02  8.264E-01  1.985E+00 6.4965589E+00 6.1615025E-01 -3.4892968E+00
  0.000E+00  7.532E-01  1.969E+00 6.6857432E+00 9.0244127E-01 -3.5328420E+00
  4.318E-02  7.775E-01  1.975E+00 6.6059801E+00 7.9157556E-01 -3.4557492E+00
  0.000E+00  7.052E-01  1.956E+00 6.7786232E+00 1.0740588E+00 -3.4811205E+00
  4.318E-02  7.292E-01  1.963E+00 6.7127269E+00 9.6157490E-01 -3.4111374E+00
  0.000E+00  6.580E-01  1.940E+00 6.8593510E+00 1.2433386E+00 -3.4214518E+00
  4.318E-02  6.815E-01  1.948E+00 6.7941608E+00 1.1264254E+00 -3.3562315E+00
  0.000E+00  6.116E-01  1.921E+00 7.0218797E+00 1.4144734E+00 -3.3571262E+00
  4.318E-02  6.347E-01  1.931E+00 6.9046814E+00 1.2919637E+00 -3.2960535E+00
  0.000E+00  5.661E-01  1.901E+00 7.1584963E+00 1.5820796E+00 -3.2834961E+00
  4.318E-02  5.887E-01  1.912E+00 7.0806087E+00 1.4576458E+00 -3.2297576E+00
  0.000E+00  5.217E-01  1.878E+00 7.2170120E+00 1.7424607E+00 -3.1992685E+00
  4.318E-02  5.438E-01  1.890E+00 7.1742961E+00 1.6168782E+00 -3.1525754E+00
  0.000E+00  4.786E-01  1.853E+00 7.3801713E+00 1.8995360E+00 -3.1086662E+00
  4.318E-02  5.000E-01  1.866E+00 7.2559557E+00 1.7707046E+00 -3.0672370E+00
  0.000E+00  4.367E-01  1.826E+00 7.4284702E+00 2.0525882E+00 -3.0102048E+00
  4.318E-02  4.575E-01  1.840E+00 7.4049259E+00 1.9220236E+00 -2.9757495E+00
  0.000E+00  3.962E-01  1.797E+00 7.5193569E+00 2.1999964E+00 -2.9042538E+00
  4.318E-02  4.163E-01  1.812E+00 7.4315795E+00 2.0680296E+00 -2.8761369E+00
  0.000E+00  3.572E-01  1.766E+00 7.5752051E+00 2.3418996E+00 -2.7907568E+00
  4.318E-02  3.765E-01  1.782E+00 7.5276725E+00 2.2085796E+00 -2.7694354E+00
  0.000E+00  3.198E-01  1.733E+00 7.5786069E+00 2.4781948E+00 -2.6707692E+00
  4.318E-02  3.383E-01  1.750E+00 7.5416329E+00 2.3440826E+00 -2.6559235E+00
  0.000E+00  2.841E-01  1.698E+00 7.6121370E+00 2.6081610E+00 -2.5437161E+00
  4.318E-02  3.018E-01  1.716E+00 7.5885010E+00 2.4733573E+00 -2.5357581E+00
  0.000E+00  2.502E-01  1.662E+00 7.5651829E+00 2.7317288E+00 -2.4107657E+00
  4.318E-02  2.669E-01  1.680E+00 7.5551023E+00 2.5968600E+00 -2.4093832E+00
  0.000E+00  2.182E-01  1.623E+00 7.5513392E+00 2.8484758E+00 -2.2713813E+00
  4.318E-02  2.340E-01  1.643E+00 7.5516199E+00 2.7135357E+00 -2.2768659E+00
  0.000E+00  1.881E-01  1.584E+00 7.4551436E+00 2.9581876E+00 -2.1268303E+00
  4.318E-02  2.029E-01  1.604E+00 7.4958409E+00 2.8238411E+00 -2.1388706E+00
  0.000E+00  1.600E-01  1.543E+00 7.4286975E+00 3.0606369E+00 -1.9766643E+00
  4.318E-02  1.738E-01  1.563E+00 7.4050095E+00 2.9268890E+00 -1.9955699E+00
  0.000E+00  1.340E-01  1.500E+00 7.2795578E+00 3.1547232E+00 -1.8210330E+00
  4.318E-02  1.467E-01  1.521E+00 7.3566215E+00 3.0225522E+00 -1.8467361E+00
  0.000E+00  1.101E-01  1.456E+00 7.1980327E+00 3.2424491E+00 -1.6628285E+00
  4.318E-02  1.218E-01  1.478E+00 7.1936782E+00 3.1106771E+00 -1.6940195E+00
  0.000E+00  8.849E-02  1.411E+00 7.1044346E+00 3.3218503E+00 -1.4990640E+00
  4.318E-02  9.903E-02  1.434E+00 7.1349767E+00 3.1925370E+00 -1.5380920E+00
  0.000E+00  6.913E-02  1.365E+00 6.9283277E+00 3.3900162E+00 -1.3286639E+00
  4.318E-02  7.852E-02  1.388E+00 6.9984556E+00 3.2640830E+00 -1.3751384E+00
  0.000E+00  5.207E-02  1.318E+00 6.8178802E+00 3.4518653E+00 -1.1584185E+00
  4.318E-02  6.031E-02  1.342E+00 6.8360781E+00 3.3266537E+00 -1.2087610E+00
  0.000E+00  3.738E-02  1.271E+00 6.7365904E+00 3.5083344E+00 -9.8887727E-01
  4.318E-02  4.443E-02  1.295E+00 6.7552088E+00 3.3846562E+00 -1.0441884E+00
  0.000E+00  2.507E-02  1.223E+00 6.6298520E+00 3.5542222E+00 -8.1404089E-01
  4.318E-02  3.092E-02  1.247E+00 6.6622736E+00 3.4349124E+00 -8.7734815E-01
  0.000E+00  1.519E-02  1.174E+00 6.5203747E+00 3.5887172E+00 -6.3363103E-01
  4.318E-02  1.983E-02  1.198E+00 6.5508109E+00 3.4737157E+00 -7.0423380E-01
  0.000E+00  7.761E-03  1.124E+00 6.4350013E+00 3.6143061E+00 -4.5162625E-01
  4.318E-02  1.117E-02  1.149E+00 6.4493115E+00 3.5026947E+00 -5.2758945E-01
  0.000E+00  2.796E-03  1.075E+00 6.3807686E+00 3.6320499E+00 -2.7049123E-01
  4.318E-02  4.969E-03  1.100E+00 6.3789381E+00 3.5237486E+00 -3.5093652E-01
  0.000E+00  3.108E-04  1.025E+00 6.3553049E+00 3.6412845E+00 -9.0096036E-02
  4.318E-02  1.243E-03  1.050E+00 6.3416372E+00 3.5369875E+00 -1.7524795E-01
  0.000E+00  3.108E-04  9.751E-01 6.3553049E+00 3.6412835E+00 9.0096286E-02
  4.318E-02  0.000E+00  1.000E+00 6.3304417E+00 3.5415620E+00 8.1772932E-08
  0.000E+00  2.796E-03  9.253E-01 6.3807687E+00 3.6320463E+00 2.7049149E-01
  4.318E-02  1.243E-03  9.502E-01 6.3416373E+00 3.5369854E+00 1.7524812E-01
  0.000E+00  7.761E-03  8.757E-01 6.4350015E+00 3.6143006E+00 4.5162653E-01
  4.318E-02  4.969E-03  9.004E-01 6.3789383E+00 3.5237439E+00 3.5093671E-01
  0.000E+00  1.519E-02  8.264E-01 6.5203751E+00 3.5887145E+00 6.3363133E-01
  4.318E-02  1.117E-02  8.510E-01 6.4493117E+00 3.5026900E+00 5.2758969E-01
  0.000E+00  2.507E-02  7.775E-01 6.6298526E+00 3.5542289E+00 8.1404126E-01
  4.318E-02  1.983E-02  8.019E-01 6.5508111E+00 3.4737174E+00 7.0423411E-01
  0.000E+00  3.738E-02  7.292E-01 6.7365911E+00 3.5083420E+00 9.8887769E-01
  4.318E-02  3.092E-02  7.532E-01 6.6622738E+00 3.4349213E+00 8.7734847E-01
  0.000E+00  5.207E-02  6.815E-01 6.8178810E+00 3.4518554E+00 1.1584190E+00
  4.318E-02  4.443E-02  7.052E-01 6.7552090E+00 3.3846559E+00 1.0441887E+00
  0.000E+00  6.913E-02  6.347E-01 6.9283285E+00 3.3900079E+00 1.3286645E+00
  4.318E-02  6.031E-02  6.580E-01 6.8360784E+00 3.3266391E+00 1.2087614E+00
  0.000E+00  8.849E-02  5.887E-01 7.1044351E+00 3.3218653E+00 1.4990648E+00
  4.318E-02  7.852E-02  6.116E-01 6.9984561E+00 3.2640888E+00 1.3751391E+00
  0.000E+00  1.101E-01  5.438E-01 7.1980334E+00 3.2424453E+00 1.6628293E+00
  4.318E-02  9.903E-02  5.661E-01 7.1349773E+00 3.1925471E+00 1.5380927E+00
  0.000E+00  1.340E-01  5.000E-01 7.2795585E+00 3.1547148E+00 1.8210338E+00
  4.318E-02  1.218E-01  5.217E-01 7.1936789E+00 3.1106635E+00 1.6940201E+00
  0.000E+00  1.600E-01  4.575E-01 7.4286982E+00 3.0606484E+00 1.9766656E+00
  4.318E-02  1.467E-01  4.786E-01 7.3566224E+00 3.0225583E+00 1.8467372E+00
  0.000E+00  1.881E-01  4.163E-01 7.4551444E+00 2.9581836E+00 2.1268313E+00
  4.318E-02  1.738E-01  4.367E-01 7.4050103E+00 2.9268927E+00 1.9955709E+00
  0.000E+00  2.182E-01  3.765E-01 7.5513401E+00 2.8484803E+00 2.2713828E+00
  4.318E-02  2.029E-01  3.962E-01 7.4958417E+00 2.8238391E+00 2.1388717E+00
  0.000E+00  2.502E-01  3.383E-01 7.5651837E+00 2.7317306E+00 2.4107671E+00
  4.318E-02  2.340E-01  3.572E-01 7.5516206E+00 2.7135417E+00 2.2768674E+00
  0.000E+00  2.841E-01  3.018E-01 7.6121373E+00 2.6081623E+00 2.5437176E+00
  4.318E-02  2.669E-01  3.198E-01 7.5551033E+00 2.5968591E+00 2.4093846E+00
  0.000E+00  3.198E-01  2.669E-01 7.5786074E+00 2.4781976E+00 2.6707708E+00
  4.318E-02  3.018E-01  2.841E-01 7.5885022E+00 2.4733621E+00 2.5357599E+00
  0.000E+00  3.572E-01  2.340E-01 7.5752067E+00 2.3419013E+00 2.7907590E+00
  4.318E-02  3.383E-01  2.502E-01 7.5416337E+00 2.3440835E+00 2.6559250E+00
  0.000E+00  3.962E-01  2.029E-01 7.5193592E+00 2.2000007E+00 2.9042566E+00
  4.318E-02  3.765E-01  2.182E-01 7.5276726E+00 2.2085808E+00 2.7694369E+00
  0.000E+00  4.367E-01  1.738E-01 7.4284715E+00 2.0525918E+00 3.0102076E+00
  4.318E-02  4.163E-01  1.881E-01 7.4315793E+00 2.0680292E+00 2.8761383E+00
  0.000E+00  4.786E-01  1.467E-01 7.3801696E+00 1.8995354E+00 3.1086679E+00
  4.318E-02  4.575E-01  1.600E-01 7.4049267E+00 1.9220253E+00 2.9757516E+00
  0.000E+00  5.217E-01  1.218E-01 7.2170097E+00 1.7424539E+00 3.1992682E+00
  4.318E-02  5.000E-01  1.340E-01 7.2559579E+00 1.7707090E+00 3.0672401E+00
  0.000E+00  5.661E-01  9.903E-02 7.1584969E+00 1.5820737E+00 3.2834950E+00
  4.318E-02  5.438E-01  1.101E-01 7.1742982E+00 1.6168867E+00 3.1525795E+00
  0.000E+00  6.116E-01  7.852E-02 7.0218839E+00 1.4144752E+00 3.3571270E+00
  4.318E-02  5.887E-01  8.849E-02 7.0806095E+00 1.4576512E+00 3.2297615E+00
  0.000E+00  6.580E-01  6.031E-02 6.8593548E+00 1.2433549E+00 3.4214572E+00
  4.318E-02  6.347E-01  6.913E-02 6.9046815E+00 1.2919602E+00 3.2960555E+00
  0.000E+00  7.052E-01  4.443E-02 6.7786237E+00 1.0740827E+00 3.4811304E+00
  4.318E-02  6.815E-01  5.207E-02 6.7941614E+00 1.1264145E+00 3.3562304E+00
  0.000E+00  7.532E-01  3.092E-02 6.6857414E+00 9.0246126E-01 3.5328544E+00
  4.318E-02  7.292E-01  3.738E-02 6.7127277E+00 9.6156243E-01 3.4111340E+00
  0.000E+00  8.019E-01  1.983E-02 6.5742238E+00 7.2437908E-01 3.5727799E+00
  4.318E-02  7.775E-01  2.507E-02 6.6059803E+00 7.9156883E-01 3.4557448E+00
  0.000E+00  8.510E-01  1.117E-02 6.4726525E+00 5.4267284E-01 3.6025857E+00
  4.318E-02  8.264E-01  1.519E-02 6.4965583E+00 6.1615090E-01 3.4892926E+00
  0.000E+00  9.004E-01  4.969E-03 6.4022479E+00 3.6096679E-01 3.6242373E+00
  4.318E-02  8.757E-01  7.761E-03 6.4112225E+00 4.3917330E-01 3.5141877E+00
  4.318E-02  9.253E-01  2.796E-03 6.3569955E+00 2.6303488E-01 3.5314495E+00
  1.000E+01  1.050E+00  1.243E-03 6.3649490E+00 -1.8025924E-01 3.6378528E+00
  1.000E+01  1.000E+00  5.551E-16 6.3537585E+00 -1.2276918E-06 3.6425592E+00
  9.957E+00  1.025E+00  3.108E-04 6.3832232E+00 -9.2531367E-02 3.7393104E+00
  1.000E+01  9.502E-01  1.243E-03 6.3649483E+00 1.8025669E-01 3.6378530E+00
  9.957E+00  9.751E-01  3.108E-04 6.3832229E+00 9.2528884E-02 3.7393105E+00
  1.000E+01  9.004E-01  4.969E-03 6.4022479E+00 3.6096679E-01 3.6242373E+00
  9.957E+00  9.253E-01  2.796E-03 6.4086866E+00 2.7779763E-01 3.7298286E+00
  1.000E+01  8.510E-01  1.117E-02 6.4726525E+00 5.4267284E-01 3.6025857E+00
  9.957E+00  8.757E-01  7.761E-03 6.4629392E+00 4.6382570E-01 3.7116072E+00
  1.000E+01  8.019E-01  1.983E-02 6.5742238E+00 7.2437908E-01 3.5727799E+00
  9.957E+00  8.264E-01  1.519E-02 6.5483722E+00 6.5074686E-01 3.6853271E+00
  1.000E+01  7.532E-01  3.092E-02 6.6857414E+00 9.0246126E-01 3.5328544E+00
  9.957E+00  7.775E-01  2.507E-02 6.6579354E+00 8.3603487E-01 3.6498964E+00
  1.000E+01  7.052E-01  4.443E-02 6.7786237E+00 1.0740827E+00 3.4811304E+00
  9.957E+00  7.292E-01  3.738E-02 6.7646924E+00 1.0156042E+00 3.6027440E+00
  1.000E+01  6.580E-01  6.031E-02 6.8593548E+00 1.2433549E+00 3.4214572E+00
  9.957E+00  6.815E-01  5.207E-02 6.8458484E+00 1.1897294E+00 3.5447129E+00
  1.000E+01  6.116E-01  7.852E-02 7.0218839E+00 1.4144752E+00 3.3571270E+00
  9.957E+00  6.347E-01  6.913E-02 6.9562445E+00 1.3645669E+00 3.4812164E+00
  1.000E+01  5.661E-01  9.903E-02 7.1584969E+00 1.5820737E+00 3.2834950E+00
  9.957E+00  5.887E-01  8.849E-02 7.1326011E+00 1.5395683E+00 3.4112227E+00
  1.000E+01  5.217E-01  1.218E-01 7.2170097E+00 1.7424539E+00 3.1992682E+00
  9.957E+00  5.438E-01  1.101E-01 7.2261428E+00 1.7077439E+00 3.3296066E+00
  1.000E+01  4.786E-01  1.467E-01 7.3801696E+00 1.8995354E+00 3.1086679E+00
  9.957E+00  5.000E-01  1.340E-01 7.3075586E+00 1.8702054E+00 3.2395312E+00
  1.000E+01  4.367E-01  1.738E-01 7.4284715E+00 2.0525918E+00 3.0102076E+00
  9.957E+00  4.575E-01  1.600E-01 7.4569455E+00 2.0300286E+00 3.1429043E+00
  1.000E+01  3.962E-01  2.029E-01 7.5193592E+00 2.2000007E+00 2.9042566E+00
  9.957E+00  4.163E-01  1.881E-01 7.4831990E+00 2.1842240E+00 3.0376504E+00
  1.000E+01  3.572E-01  2.340E-01 7.5752067E+00 2.3419013E+00 2.7907590E+00
  9.957E+00  3.765E-01  2.182E-01 7.5795701E+00 2.3326513E+00 2.9249962E+00
  1.000E+01  3.198E-01  2.669E-01 7.5786074E+00 2.4781976E+00 2.6707708E+00
  9.957E+00  3.383E-01  2.502E-01 7.5933309E+00 2.4757896E+00 2.8050767E+00
  1.000E+01  2.841E-01  3.018E-01 7.6121373E+00 2.6081623E+00 2.5437176E+00
  9.957E+00  3.018E-01  2.841E-01 7.6404443E+00 2.6122857E+00 2.6781790E+00
  1.000E+01  2.502E-01  3.383E-01 7.5651837E+00 2.7317306E+00 2.4107671E+00
  9.957E+00  2.669E-01  3.198E-01 7.6068133E+00 2.7427636E+00 2.5447088E+00
  1.000E+01  2.182E-01  3.765E-01 7.5513401E+00 2.8484803E+00 2.2713828E+00
  9.957E+00  2.340E-01  3.572E-01 7.6035668E+00 2.8659336E+00 2.4047241E+00
  1.000E+01  1.881E-01  4.163E-01 7.4551444E+00 2.9581836E+00 2.1268313E+00
  9.957E+00  2.029E-01  3.962E-01 7.5476898E+00 2.9825070E+00 2.2590244E+00
  1.000E+01  1.600E-01  4.575E-01 7.4286982E+00 3.0606484E+00 1.9766656E+00
  9.957E+00  1.738E-01  4.367E-01 7.4567913E+00 3.0912316E+00 2.1076178E+00
  1.000E+01  1.340E-01  5.000E-01 7.2795585E+00 3.1547148E+00 1.8210338E+00
  9.957E+00  1.467E-01  4.786E-01 7.4086427E+00 3.1923861E+00 1.9504672E+00
  1.000E+01  1.101E-01  5.438E-01 7.1980334E+00 3.2424453E+00 1.6628293E+00
  9.957E+00  1.218E-01  5.217E-01 7.2452730E+00 3.2853430E+00 1.7891628E+00
  1.000E+01  8.849E-02  5.887E-01 7.1044351E+00 3.3218653E+00 1.4990648E+00
  9.957E+00  9.903E-02  5.661E-01 7.1870308E+00 3.3718397E+00 1.6244663E+00
  1.000E+01  6.913E-02  6.347E-01 6.9283285E+00 3.3900079E+00 1.3286645E+00
  9.957E+00  7.852E-02  6.116E-01 7.0503432E+00 3.4474653E+00 1.4523701E+00
  1.000E+01  5.207E-02  6.815E-01 6.8178810E+00 3.4518554E+00 1.1584190E+00
  9.957E+00  6.031E-02  6.580E-01 6.8876699E+00 3.5134545E+00 1.2766567E+00
  1.000E+01  3.738E-02  7.292E-01 6.7365911E+00 3.5083420E+00 9.8887769E-01
  9.957E+00  4.443E-02  7.052E-01 6.8071448E+00 3.5747162E+00 1.1028403E+00
  1.000E+01  2.507E-02  7.775E-01 6.6298526E+00 3.5542289E+00 8.1404126E-01
  9.957E+00  3.092E-02  7.532E-01 6.7143609E+00 3.6278443E+00 9.2661149E-01
  1.000E+01  1.519E-02  8.264E-01 6.5203751E+00 3.5887145E+00 6.3363133E-01
  9.957E+00  1.983E-02  8.019E-01 6.6028000E+00 3.6688360E+00 7.4375280E-01
  1.000E+01  7.761E-03  8.757E-01 6.4350015E+00 3.6143006E+00 4.5162653E-01
  9.957E+00  1.117E-02  8.510E-01 6.5011561E+00 3.6994204E+00 5.5718267E-01
  1.000E+01  2.796E-03  9.253E-01 6.3807687E+00 3.6320463E+00 2.7049149E-01
  9.957E+00  4.969E-03  9.004E-01 6.4307253E+00 3.7216377E+00 3.7061949E-01
  1.000E+01  3.108E-04  9.751E-01 6.3553049E+00 3.6412835E+00 9.0096286E-02
  9.957E+00  1.243E-03  9.502E-01 6.3934377E+00 3.7356165E+00 1.8507963E-01
  1.000E+01  3.108E-04  1.025E+00 6.3553049E+00 3.6412845E+00 -9.0096036E-02
  9.957E+00  0.000E+00  1.000E+00 6.3822590E+00 3.7404522E+00 1.3906694E-07
  1.000E+01  2.796E-03  1.075E+00 6.3807686E+00 3.6320499E+00 -2.7049123E-01
  9.957E+00  1.243E-03  1.050E+00 6.3934376E+00 3.7356188E+00 -1.8507934E-01
  1.000E+01  7.761E-03  1.124E+00 6.4350013E+00 3.6143061E+00 -4.5162625E-01
  9.957E+00  4.969E-03  1.100E+00 6.4307252E+00 3.7216428E+00 -3.7061918E-01
  1.000E+01  1.519E-02  1.174E+00 6.5203747E+00 3.5887172E+00 -6.3363103E-01
  9.957E+00  1.117E-02  1.149E+00 6.5011560E+00 3.6994256E+00 -5.5718231E-01
  1.000E+01  2.507E-02  1.223E+00 6.6298520E+00 3.5542222E+00 -8.1404089E-01
  9.957E+00  1.983E-02  1.198E+00 6.6027998E+00 3.6688343E+00 -7.4375236E-01
  1.000E+01  3.738E-02  1.271E+00 6.7365904E+00 3.5083344E+00 -9.8887727E-01
  9.957E+00  3.092E-02  1.247E+00 6.7143608E+00 3.6278350E+00 -9.2661104E-01
  1.000E+01  5.207E-02  1.318E+00 6.8178802E+00 3.4518653E+00 -1.1584185E+00
  9.957E+00  4.443E-02  1.295E+00 6.8071448E+00 3.5747164E+00 -1.1028398E+00
  1.000E+01  6.913E-02  1.365E+00 6.9283277E+00 3.3900162E+00 -1.3286639E+00
  9.957E+00  6.031E-02  1.342E+00 6.8876698E+00 3.5134698E+00 -1.2766563E+00
  1.000E+01  8.849E-02  1.411E+00 7.1044346E+00 3.3218503E+00 -1.4990640E+00
  9.957E+00  7.852E-02  1.388E+00 7.0503432E+00 3.4474595E+00 -1.4523695E+00
  1.000E+01  1.101E-01  1.456E+00 7.1980327E+00 3.2424491E+00 -1.6628285E+00
  9.957E+00  9.903E-02  1.434E+00 7.1870307E+00 3.3718293E+00 -1.6244653E+00
  1.000E+01  1.340E-01  1.500E+00 7.2795578E+00 3.1547232E+00 -1.8210330E+00
  9.957E+00  1.218E-01  1.478E+00 7.2452726E+00 3.2853574E+00 -1.7891621E+00
  1.000E+01  1.600E-01  1.543E+00 7.4286975E+00 3.0606369E+00 -1.9766643E+00
  9.957E+00  1.467E-01  1.521E+00 7.4086422E+00 3.1923799E+00 -1.9504660E+00
  1.000E+01  1.881E-01  1.584E+00 7.4551436E+00 2.9581876E+00 -2.1268303E+00
  9.957E+00  1.738E-01  1.563E+00 7.4567908E+00 3.0912278E+00 -2.1076167E+00
  1.000E+01  2.182E-01  1.623E+00 7.5513392E+00 2.8484758E+00 -2.2713813E+00
  9.957E+00  2.029E-01  1.604E+00 7.5476893E+00 2.9825092E+00 -2.2590231E+00
  1.000E+01  2.502E-01  1.662E+00 7.5651829E+00 2.7317288E+00 -2.4107657E+00
  9.957E+00  2.340E-01  1.643E+00 7.6035663E+00 2.8659275E+00 -2.4047226E+00
  1.000E+01  2.841E-01  1.698E+00 7.6121370E+00 2.6081610E+00 -2.5437161E+00
  9.957E+00  2.669E-01  1.680E+00 7.6068126E+00 2.7427647E+00 -2.5447074E+00
  1.000E+01  3.198E-01  1.733E+00 7.5786069E+00 2.4781948E+00 -2.6707692E+00
  9.957E+00  3.018E-01  1.716E+00 7.6404435E+00 2.6122807E+00 -2.6781771E+00
  1.000E+01  3.572E-01  1.766E+00 7.5752051E+00 2.3418996E+00 -2.7907568E+00
  9.957E+00  3.383E-01  1.750E+00 7.5933307E+00 2.4757889E+00 -2.8050750E+00
  1.000E+01  3.962E-01  1.797E+00 7.5193569E+00 2.1999964E+00 -2.9042538E+00
  9.957E+00  3.765E-01  1.782E+00 7.5795707E+00 2.3326503E+00 -2.9249946E+00
  1.000E+01  4.367E-01  1.826E+00 7.4284702E+00 2.0525882E+00 -3.0102048E+00
  9.957E+00  4.163E-01  1.812E+00 7.4831993E+00 2.1842243E+00 -3.0376490E+00
  1.000E+01  4.786E-01  1.853E+00 7.3801713E+00 1.8995360E+00 -3.1086662E+00
  9.957E+00  4.575E-01  1.840E+00 7.4569440E+00 2.0300264E+00 -3.1429025E+00
  1.000E+01  5.217E-01  1.878E+00 7.2170120E+00 1.7424607E+00 -3.1992685E+00
  9.957E+00  5.000E-01  1.866E+00 7.3075556E+00 1.8702011E+00 -3.2395281E+00
  1.000E+01  5.661E-01  1.901E+00 7.1584963E+00 1.5820796E+00 -3.2834961E+00
  9.957E+00  5.438E-01  1.890E+00 7.2261414E+00 1.7077359E+00 -3.3296020E+00
  1.000E+01  6.116E-01  1.921E+00 7.0218797E+00 1.4144734E+00 -3.3571262E+00
  9.957E+00  5.887E-01  1.912E+00 7.1326033E+00 1.5395636E+00 -3.4112182E+00
  1.000E+01  6.580E-01  1.940E+00 6.8593510E+00 1.2433386E+00 -3.4214518E+00
  9.957E+00  6.347E-01  1.931E+00 6.9562489E+00 1.3645705E+00 -3.4812145E+00
  1.000E+01  7.052E-01  1.956E+00 6.7786232E+00 1.0740588E+00 -3.4811205E+00
  9.957E+00  6.815E-01  1.948E+00 6.8458505E+00 1.1897397E+00 -3.5447141E+00
  1.000E+01  7.532E-01  1.969E+00 6.6857432E+00 9.0244127E-01 -3.5328420E+00
  9.957E+00  7.292E-01  1.963E+00 6.7646907E+00 1.0156163E+00 -3.6027476E+00
  1.000E+01  8.019E-01  1.980E+00 6.5742253E+00 7.2437002E-01 -3.5727673E+00
  9.957E+00  7.775E-01  1.975E+00 6.6579319E+00 8.3604172E-01 -3.6499007E+00
  1.000E+01  8.510E-01  1.989E+00 6.4726525E+00 5.4267363E-01 -3.6025742E+00
  9.957E+00  8.264E-01  1.985E+00 6.5483697E+00 6.5074656E-01 -3.6853312E+00
  1.000E+01  9.004E-01  1.995E+00 6.4022467E+00 3.6097160E-01 -3.6242273E+00
  9.957E+00  8.757E-01  1.992E+00 6.4629387E+00 4.6382075E-01 -3.7116105E+00
  1.000E+01  9.502E-01  1.999E+00 6.3649468E+00 1.8025986E-01 -3.6378442E+00
  9.957E+00  9.253E-01  1.997E+00 6.4086877E+00 2.7779205E-01 -3.7298312E+00
  1.000E+01  1.000E+00  2.000E+00 6.3537571E+00 -2.9473085E-06 -3.6425509E+00
  9.957E+00  9.751E-01  2.000E+00 6.3832247E+00 9.2525581E-02 -3.7393128E+00
  1.000E+01  1.050E+00  1.999E+00 6.3649476E+00 -1.8026562E-01 -3.6378442E+00
  9.957E+00  1.025E+00  2.000E+00 6.3832251E+00 -9.2531334E-02 -3.7393128E+00
  1.000E+01  1.100E+00  1.995E+00 6.4022483E+00 -3.6097735E-01 -3.6242275E+00
  9.957E+00  1.075E+00  1.997E+00 6.4086889E+00 -2.7779774E-01 -3.7298313E+00
  1.000E+01  1.149E+00  1.989E+00 6.4726548E+00 -5.4267924E-01 -3.6025745E+00
  9.957E+00  1.124E+00  1.992E+00 6.4629408E+00 -4.6382635E-01 -3.7116107E+00
  1.000E+01  1.198E+00  1.980E+00 6.5742284E+00 -7.2437550E-01 -3.5727676E+00
  9.957E+00  1.174E+00  1.985E+00 6.5483725E+00 -6.5075202E-01 -3.6853314E+00