# TIME = 1.300000
variables = x, y, z
zone N=5762 E=11520 F=FEPOINT ET=TRIANGLE
 5.1208325E+00 1.4871267E+00 1.7879058E+00
 5.1208325E+00 1.4871267E+00 2.1209419E-01
 5.1208325E+00 5.1287339E-01 1.7879057E+00
 5.1208326E+00 5.1287346E-01 2.1209445E-01
 3.4149338E+00 1.0000000E+00 1.7717182E+00
 6.8218009E+00 1.0000000E+00 1.7631087E+00
 3.4149338E+00 1.0000000E+00 2.2828178E-01
 6.8218008E+00 1.0000000E+00 2.3689132E-01
 4.1769047E+00 1.9512268E+00 9.9999999E-01
 4.1769047E+00 4.8773312E-02 9.9999999E-01
 6.0642491E+00 1.9469473E+00 9.9999999E-01
 6.0642491E+00 5.3052515E-02 9.9999999E-01
 5.0618421E+00 1.4781769E+00 1.7930423E+00
 4.9971016E+00 1.4684272E+00 1.7990964E+00
 4.9292619E+00 1.4583717E+00 1.8058535E+00
 4.8587573E+00 1.4480104E+00 1.8133426E+00
 4.7857063E+00 1.4372662E+00 1.8215708E+00
 4.7103548E+00 1.4260412E+00 1.8304951E+00
 4.6329352E+00 1.4141970E+00 1.8400235E+00
 4.5537518E+00 1.4015739E+00 1.8499969E+00
 4.4731472E+00 1.3879858E+00 1.8601872E+00
 4.3915033E+00 1.3732293E+00 1.8702924E+00
 4.3092376E+00 1.3570906E+00 1.8799314E+00
 4.2268056E+00 1.3393563E+00 1.8886433E+00
 4.1447022E+00 1.3198283E+00 1.8958911E+00
 4.0634560E+00 1.2983454E+00 1.9010862E+00
 3.9836162E+00 1.2748086E+00 1.9036333E+00
 3.9057414E+00 1.2492088E+00 1.9029974E+00
 3.8303932E+00 1.2216418E+00 1.8987692E+00
 3.7581246E+00 1.1923096E+00 1.8907140E+00
 3.6894526E+00 1.1615025E+00 1.8787885E+00
 3.6248227E+00 1.1295723E+00 1.8631292E+00
 3.5645859E+00 1.0968984E+00 1.8440237E+00
 3.5090366E+00 1.0638970E+00 1.8218881E+00
 3.4584467E+00 1.0310074E+00 1.7972545E+00
 5.0561528E+00 5.5478343E-01 1.8119841E+00
 4.9897489E+00 5.6597936E-01 1.8183338E+00
 4.9205624E+00 5.7733695E-01 1.8252886E+00
 4.8488810E+00 5.8905887E-01 1.8329501E+00
 4.7747832E+00 6.0127435E-01 1.8413375E+00
 4.6984759E+00 6.1408922E-01 1.8503881E+00
 4.6202400E+00 6.2764327E-01 1.8599824E+00
 4.5404042E+00 6.4209962E-01 1.8699329E+00
 4.4593429E+00 6.5763955E-01 1.8799792E+00
 4.3774651E+00 6.7445456E-01 1.8897861E+00
 4.2952144E+00 6.9273628E-01 1.8989400E+00
 4.2130691E+00 7.1266369E-01 1.9069510E+00
 4.1315415E+00 7.3438612E-01 1.9132631E+00
 4.0511676E+00 7.5800187E-01 1.9172845E+00
 3.9724940E+00 7.8353524E-01 1.9184401E+00
 3.8960661E+00 8.1091846E-01 1.9162385E+00
 3.8224233E+00 8.3998514E-01 1.9103331E+00
 3.7520824E+00 8.7048114E-01 1.9005612E+00
 3.6855119E+00 9.0208729E-01 1.8869500E+00
 3.6230892E+00 9.3446388E-01 1.8696939E+00
 3.5650320E+00 9.6726285E-01 1.8490904E+00
 3.5110979E+00 1.0000000E+00 1.8253435E+00
 5.0545263E+00 5.8880748E-01 1.8297243E+00
 4.9862486E+00 6.0152876E-01 1.8362580E+00
 4.9156978E+00 6.1426362E-01 1.8432773E+00
 4.8426538E+00 6.2747485E-01 1.8510096E+00
 4.7672789E+00 6.4127343E-01 1.8594373E+00
 4.6897860E+00 6.5578652E-01 1.8684863E+00
 4.6104897E+00 6.7115614E-01 1.8780092E+00
 4.5297555E+00 6.8754541E-01 1.8877882E+00
 4.4479909E+00 7.0512827E-01 1.8975287E+00
 4.3656379E+00 7.2407960E-01 1.9068602E+00
 4.2831698E+00 7.4456377E-01 1.9153354E+00
 4.2010909E+00 7.6671947E-01 1.9224361E+00
 4.1199332E+00 7.9064233E-01 1.9275896E+00
 4.0402429E+00 8.1636429E-01 1.9302067E+00
 3.9625655E+00 8.4383600E-01 1.9297385E+00
 3.8874353E+00 8.7291663E-01 1.9257446E+00
 3.8153667E+00 9.0337875E-01 1.9179470E+00
 3.7468373E+00 9.3492708E-01 1.9062583E+00
 3.6822424E+00 9.6724243E-01 1.8907708E+00
 3.6218022E+00 1.0000000E+00 1.8716988E+00
 3.5650320E+00 1.0327372E+00 1.8490904E+00
 5.0530761E+00 6.2475998E-01 1.8465999E+00
 4.9834587E+00 6.3882924E-01 1.8530680E+00
 4.9115499E+00 6.5305115E-01 1.8600564E+00
 4.8372528E+00 6.6781971E-01 1.8677222E+00
 4.7606871E+00 6.8328502E-01 1.8760474E+00
 4.6821201E+00 6.9956945E-01 1.8849300E+00
 4.6018962E+00 7.1681827E-01 1.8941967E+00
 4.5204179E+00 7.3518777E-01 1.9035980E+00
 4.4381267E+00 7.5483788E-01 1.9128067E+00
 4.3554952E+00 7.7591963E-01 1.9214204E+00
 4.2730238E+00 7.9856197E-01 1.9289641E+00
 4.1912384E+00 8.2285614E-01 1.9349012E+00
 4.1106841E+00 8.4883835E-01 1.9386556E+00
 4.0319097E+00 8.7647283E-01 1.9396554E+00
 3.9554518E+00 9.0564009E-01 1.9373932E+00
 3.8818229E+00 9.3613701E-01 1.9314904E+00
 3.8115014E+00 9.6769092E-01 1.9217422E+00
 3.7448964E+00 1.0000000E+00 1.9081293E+00
 3.6822424E+00 1.0327576E+00 1.8907708E+00
 3.6230892E+00 1.0655361E+00 1.8696939E+00
 5.0517707E+00 6.6278131E-01 1.8624625E+00
 4.9808805E+00 6.7825967E-01 1.8687453E+00
 4.9077689E+00 6.9398247E-01 1.8755452E+00
 4.8323419E+00 7.1035382E-01 1.8829884E+00
 4.7547568E+00 7.2751431E-01 1.8910309E+00
 4.6753097E+00 7.4559193E-01 1.8995489E+00
 4.5943837E+00 7.6472542E-01 1.9083407E+00
 4.5124150E+00 7.8505947E-01 1.9171272E+00
 4.4298761E+00 8.0673260E-01 1.9255519E+00
 4.3472661E+00 8.2986429E-01 1.9331872E+00
 4.2651062E+00 8.5454090E-01 1.9395406E+00
 4.1839359E+00 8.8080019E-01 1.9440700E+00
 4.1043037E+00 9.0861620E-01 1.9462119E+00
 4.0267504E+00 9.3788697E-01 1.9454283E+00
 3.9517915E+00 9.6843159E-01 1.9412665E+00
 3.8799043E+00 1.0000000E+00 1.9334167E+00
 3.8115014E+00 1.0323091E+00 1.9217422E+00
 3.7468373E+00 1.0650729E+00 1.9062583E+00
 3.6855119E+00 1.0979127E+00 1.8869500E+00
 5.0505421E+00 7.0284124E-01 1.8770830E+00
 4.9785113E+00 7.1973549E-01 1.8830348E+00
 4.9043436E+00 7.3698580E-01 1.8894912E+00
 4.8279682E+00 7.5497098E-01 1.8965363E+00
 4.7495699E+00 7.7383094E-01 1.9041037E+00
 4.6694806E+00 7.9368827E-01 1.9120451E+00
 4.5881176E+00 8.1467186E-01 1.9201324E+00
 4.5059482E+00 8.3690741E-01 1.9280599E+00
 4.4234711E+00 8.6050530E-01 1.9354482E+00
 4.3412056E+00 8.8554681E-01 1.9418535E+00
 4.2596860E+00 9.1207027E-01 1.9467774E+00
 4.1794554E+00 9.4005716E-01 1.9496876E+00
 4.1010557E+00 9.6942050E-01 1.9500489E+00
 4.0250074E+00 1.0000000E+00 1.9473715E+00
 3.9517915E+00 1.0315684E+00 1.9412665E+00
 3.8818229E+00 1.0638630E+00 1.9314904E+00
 3.8153667E+00 1.0966212E+00 1.9179471E+00
 3.7520824E+00 1.1295189E+00 1.9005612E+00
 5.0494437E+00 7.4483685E-01 1.8902184E+00
 4.9764126E+00 7.6314027E-01 1.8956866E+00
 4.9013631E+00 7.8190609E-01 1.9016295E+00
 4.8242397E+00 8.0148304E-01 1.9080902E+00
 4.7452589E+00 8.2200313E-01 1.9149790E+00
 4.6647853E+00 8.4358029E-01 1.9221246E+00
 4.5832672E+00 8.6632693E-01 1.9292753E+00
 4.5011985E+00 8.9034402E-01 1.9361042E+00
 4.4190979E+00 9.1570785E-01 1.9422170E+00
 4.3374971E+00 9.4245679E-01 1.9471639E+00
 4.2569341E+00 9.7057877E-01 1.9504545E+00
 4.1779461E+00 1.0000000E+00 1.9515805E+00
 4.1010557E+00 1.0305795E+00 1.9500489E+00
 4.0267504E+00 1.0621130E+00 1.9454283E+00
 3.9554518E+00 1.0943599E+00 1.9373932E+00
 3.8874353E+00 1.1270834E+00 1.9257446E+00
 3.8224233E+00 1.1600149E+00 1.9103332E+00
 5.0484844E+00 7.8858758E-01 1.9016203E+00
 4.9746241E+00 8.0826190E-01 1.9064462E+00
 4.8988872E+00 8.2849898E-01 1.9117006E+00
 4.8212395E+00 8.4960664E-01 1.9173868E+00
 4.7419255E+00 8.7170509E-01 1.9233934E+00
 4.6613406E+00 8.9489412E-01 1.9295280E+00
 4.5799593E+00 9.1926469E-01 1.9355202E+00
 4.4982953E+00 9.4488777E-01 1.9410291E+00
 4.4168800E+00 9.7180170E-01 1.9456546E+00
 4.3362488E+00 1.0000000E+00 1.9489531E+00
 4.2569341E+00 1.0294212E+00 1.9504545E+00
 4.1794554E+00 1.0599428E+00 1.9496877E+00
 4.1043037E+00 1.0913838E+00 1.9462119E+00
 4.0319097E+00 1.1235272E+00 1.9396554E+00
 3.9625655E+00 1.1561640E+00 1.9297385E+00
 3.8960661E+00 1.1890815E+00 1.9162385E+00
 5.0476905E+00 8.3386756E-01 1.9110595E+00
 4.9731874E+00 8.5484255E-01 1.9150845E+00
 4.8969760E+00 8.7646728E-01 1.9194762E+00
 4.8190411E+00 8.9900232E-01 1.9242022E+00
 4.7396545E+00 9.2255097E-01 1.9291314E+00
 4.6592368E+00 9.4719460E-01 1.9340549E+00
 4.5782827E+00 9.7299836E-01 1.9386891E+00
 4.4973186E+00 1.0000000E+00 1.9426876E+00
 4.4168800E+00 1.0281983E+00 1.9456547E+00
 4.3374971E+00 1.0575432E+00 1.9471640E+00
 4.2596860E+00 1.0879297E+00 1.9467774E+00
 4.1839359E+00 1.1191998E+00 1.9440700E+00
 4.1106841E+00 1.1511617E+00 1.9386556E+00
 4.0402429E+00 1.1836357E+00 1.9302067E+00
 3.9724939E+00 1.2164648E+00 1.9184401E+00
 5.0470774E+00 8.8039806E-01 1.9183337E+00
 4.9721353E+00 9.0256784E-01 1.9214058E+00
 4.8956744E+00 9.2545880E-01 1.9247701E+00
 4.8176991E+00 9.4927660E-01 1.9283639E+00
 4.7385038E+00 9.7410387E-01 1.9320401E+00
 4.6585291E+00 1.0000000E+00 1.9355783E+00
 4.5782827E+00 1.0270017E+00 1.9386891E+00
 4.4982953E+00 1.0551122E+00 1.9410292E+00
 4.4190980E+00 1.0842922E+00 1.9422170E+00
 4.3412057E+00 1.1144532E+00 1.9418536E+00
 4.2651063E+00 1.1454591E+00 1.9395406E+00
 4.1912384E+00 1.1771439E+00 1.9349013E+00
 4.1199332E+00 1.2093577E+00 1.9275897E+00
 4.0511676E+00 1.2419981E+00 1.9172845E+00
 5.0466604E+00 9.2785716E-01 1.9232795E+00
 4.9714934E+00 9.5108258E-01 1.9252612E+00
 4.8950153E+00 9.7508180E-01 1.9274512E+00
 4.8172478E+00 1.0000000E+00 1.9297635E+00
 4.7385038E+00 1.0258962E+00 1.9320402E+00
 4.6592368E+00 1.0528054E+00 1.9340550E+00
 4.5799593E+00 1.0807353E+00 1.9355203E+00
 4.5011986E+00 1.1096560E+00 1.9361044E+00
 4.4234712E+00 1.1394947E+00 1.9354484E+00
 4.3472661E+00 1.1701357E+00 1.9331873E+00
 4.2730238E+00 1.2014380E+00 1.9289642E+00
 4.2010909E+00 1.2332805E+00 1.9224361E+00
 4.1315415E+00 1.2656139E+00 1.9132631E+00
 5.0464492E+00 9.7588802E-01 1.9257822E+00
 4.9712776E+00 1.0000000E+00 1.9265569E+00
 4.8950153E+00 1.0249182E+00 1.9274512E+00
 4.8176991E+00 1.0507234E+00 1.9283640E+00
 4.7396545E+00 1.0774491E+00 1.9291315E+00
 4.6613406E+00 1.1051059E+00 1.9295282E+00
 4.5832673E+00 1.1336731E+00 1.9292755E+00
 4.5059482E+00 1.1630926E+00 1.9280601E+00
 4.4298762E+00 1.1932674E+00 1.9255521E+00
 4.3554953E+00 1.2240804E+00 1.9214205E+00
 4.2831698E+00 1.2554363E+00 1.9153355E+00
 4.2130691E+00 1.2873363E+00 1.9069511E+00
 5.0464492E+00 1.0241120E+00 1.9257822E+00
 4.9714933E+00 1.0489174E+00 1.9252612E+00
 4.8956744E+00 1.0745412E+00 1.9247702E+00
 4.8190411E+00 1.1009977E+00 1.9242023E+00
 4.7419255E+00 1.1282950E+00 1.9233936E+00
 4.6647853E+00 1.1564198E+00 1.9221249E+00
 4.5881177E+00 1.1853282E+00 1.9201326E+00
 4.5124151E+00 1.2149406E+00 1.9171274E+00
 4.4381268E+00 1.2451622E+00 1.9128069E+00
 4.3656379E+00 1.2759204E+00 1.9068604E+00
 4.2952145E+00 1.3072638E+00 1.8989401E+00
 5.0466603E+00 1.0721428E+00 1.9232796E+00
 4.9721352E+00 1.0974322E+00 1.9214059E+00
 4.8969760E+00 1.1235328E+00 1.9194764E+00
 4.8212395E+00 1.1503934E+00 1.9173870E+00
 4.7452589E+00 1.1779970E+00 1.9149794E+00
 4.6694807E+00 1.2063118E+00 1.9120454E+00
 4.5943838E+00 1.2352747E+00 1.9083411E+00
 4.5204180E+00 1.2648123E+00 1.9035983E+00
 4.4479910E+00 1.2948718E+00 1.8975289E+00
 4.3774651E+00 1.3255455E+00 1.8897863E+00
 5.0470773E+00 1.1196020E+00 1.9183338E+00
 4.9731873E+00 1.1451575E+00 1.9150847E+00
 4.8988872E+00 1.1715011E+00 1.9117008E+00
 4.8242397E+00 1.1985171E+00 1.9080905E+00
 4.7495700E+00 1.2261692E+00 1.9041041E+00
 4.6753098E+00 1.2544082E+00 1.8995493E+00
 4.6018963E+00 1.2831818E+00 1.8941971E+00
 4.5297555E+00 1.3124547E+00 1.8877885E+00
 4.4593430E+00 1.3423605E+00 1.8799794E+00
 5.0476904E+00 1.1661325E+00 1.9110596E+00
 4.9746240E+00 1.1917382E+00 1.9064464E+00
 4.9013631E+00 1.2180940E+00 1.9016298E+00
 4.8279681E+00 1.2450291E+00 1.8965366E+00
 4.7547569E+00 1.2724858E+00 1.8910313E+00
 4.6821201E+00 1.3004307E+00 1.8849304E+00
 4.6104898E+00 1.3288440E+00 1.8780096E+00
 4.5404043E+00 1.3579005E+00 1.8699332E+00
 5.0484843E+00 1.2114125E+00 1.9016205E+00
 4.9764125E+00 1.2368598E+00 1.8956869E+00
 4.9043436E+00 1.2630143E+00 1.8894915E+00
 4.8323419E+00 1.2896463E+00 1.8829888E+00
 4.7606871E+00 1.3167151E+00 1.8760478E+00
 4.6897861E+00 1.3442136E+00 1.8684867E+00
 4.6202401E+00 1.3723569E+00 1.8599828E+00
 5.0494436E+00 1.2551632E+00 1.8902186E+00
 4.9785111E+00 1.2802646E+00 1.8830350E+00
 4.9077688E+00 1.3060177E+00 1.8755455E+00
 4.8372528E+00 1.3321804E+00 1.8677226E+00
 4.7672790E+00 1.3587267E+00 1.8594377E+00
 4.6984760E+00 1.3859110E+00 1.8503886E+00
 5.0505420E+00 1.2971588E+00 1.8770832E+00
 4.9808804E+00 1.3217404E+00 1.8687456E+00
 4.9115498E+00 1.3469490E+00 1.8600567E+00
 4.8426538E+00 1.3725253E+00 1.8510100E+00
 4.7747833E+00 1.3987258E+00 1.8413379E+00
 5.0517706E+00 1.3372188E+00 1.8624627E+00
 4.9834585E+00 1.3611709E+00 1.8530682E+00
 4.9156977E+00 1.3857365E+00 1.8432776E+00
 4.8488810E+00 1.4109413E+00 1.8329505E+00
 5.0530760E+00 1.3752401E+00 1.8466001E+00
 4.9862485E+00 1.3984714E+00 1.8362582E+00
 4.9205624E+00 1.4226632E+00 1.8252890E+00
 5.0545262E+00 1.4111926E+00 1.8297245E+00
 4.9897488E+00 1.4340208E+00 1.8183340E+00
 5.0561528E+00 1.4452167E+00 1.8119842E+00
 5.1208473E+00 1.4582670E+00 1.8050045E+00
 5.1208573E+00 1.4255172E+00 1.8228022E+00
 5.1208594E+00 1.3909153E+00 1.8398125E+00
 5.1208623E+00 1.3541056E+00 1.8559963E+00
 5.1208649E+00 1.3152438E+00 1.8710687E+00
 5.1208676E+00 1.2744121E+00 1.8847919E+00
 5.1208699E+00 1.2317740E+00 1.8969153E+00
 5.1208720E+00 1.1875204E+00 1.9072088E+00
 5.1208736E+00 1.1419037E+00 1.9154604E+00
 5.1208748E+00 1.0952177E+00 1.9214920E+00
 5.1208756E+00 1.0477964E+00 1.9251677E+00
 5.1208758E+00 1.0000000E+00 1.9264025E+00
 5.1208756E+00 9.5220363E-01 1.9251676E+00
 5.1208748E+00 9.0478226E-01 1.9214919E+00
 5.1208736E+00 8.5809635E-01 1.9154603E+00
 5.1208720E+00 8.1247962E-01 1.9072087E+00
 5.1208699E+00 7.6822601E-01 1.8969152E+00
 5.1208676E+00 7.2558795E-01 1.8847918E+00
 5.1208649E+00 6.8475625E-01 1.8710686E+00
 5.1208623E+00 6.4589446E-01 1.8559961E+00
 5.1208594E+00 6.0908478E-01 1.8398123E+00
 5.1208573E+00 5.7448283E-01 1.8228021E+00
 5.1208473E+00 5.4173304E-01 1.8050044E+00
 5.1798259E+00 5.2126598E-01 1.7939673E+00
 5.2445524E+00 5.3044987E-01 1.8010211E+00
 5.3123595E+00 5.3998188E-01 1.8087631E+00
 5.3828197E+00 5.4989907E-01 1.8171584E+00
 5.4558234E+00 5.6031518E-01 1.8261402E+00
 5.5311326E+00 5.7136721E-01 1.8355742E+00
 5.6085215E+00 5.8323149E-01 1.8452655E+00
 5.6876849E+00 5.9609885E-01 1.8549456E+00
 5.7682688E+00 6.1017214E-01 1.8642864E+00
 5.8498678E+00 6.2564720E-01 1.8729162E+00
 5.9320326E+00 6.4269792E-01 1.8804441E+00
 6.0142754E+00 6.6146086E-01 1.8864838E+00
 6.0960740E+00 6.8202583E-01 1.8906721E+00
 6.1768794E+00 7.0443053E-01 1.8926803E+00
 6.2561290E+00 7.2865900E-01 1.8922209E+00
 6.3332696E+00 7.5464061E-01 1.8890559E+00
 6.4077793E+00 7.8225051E-01 1.8830083E+00
 6.4791856E+00 8.1131114E-01 1.8739754E+00
 6.5470797E+00 8.4159909E-01 1.8619383E+00
 6.6111268E+00 8.7285518E-01 1.8469652E+00
 6.6710638E+00 9.0479680E-01 1.8292107E+00
 6.7266501E+00 9.3710449E-01 1.8089199E+00
 6.7776136E+00 9.6940851E-01 1.7864475E+00
 5.1855407E+00 1.4457917E+00 1.8130203E+00
 5.2519237E+00 1.4351308E+00 1.8204130E+00
 5.3210738E+00 1.4242539E+00 1.8283842E+00
 5.3927084E+00 1.4129261E+00 1.8369674E+00
 5.4667565E+00 1.4009851E+00 1.8461025E+00
 5.5430197E+00 1.3882897E+00 1.8556309E+00
 5.6212222E+00 1.3746688E+00 1.8653246E+00
 5.7010339E+00 1.3599368E+00 1.8748852E+00
 5.7820672E+00 1.3439073E+00 1.8839551E+00
 5.8638894E+00 1.3264091E+00 1.8921402E+00
 5.9460260E+00 1.3073022E+00 1.8990351E+00
 6.0279686E+00 1.2864905E+00 1.9042489E+00
 6.1091796E+00 1.2639292E+00 1.9074228E+00
 6.1891025E+00 1.2396277E+00 1.9082414E+00
 6.2671785E+00 1.2136501E+00 1.9064385E+00
 6.3428700E+00 1.1861136E+00 1.9018065E+00
 6.4156817E+00 1.1571862E+00 1.8942064E+00
 6.4851782E+00 1.1270796E+00 1.8835794E+00
 6.5509947E+00 1.0960379E+00 1.8699532E+00
 6.6128537E+00 1.0643138E+00 1.8534385E+00
 6.6706178E+00 1.0321613E+00 1.8341940E+00
 6.7245663E+00 1.0000000E+00 1.8122768E+00
 5.1871813E+00 1.4117429E+00 1.8308079E+00
 5.2554371E+00 1.3995248E+00 1.8384344E+00
 5.3259506E+00 1.3872286E+00 1.8465051E+00
 5.3989462E+00 1.3743657E+00 1.8551819E+00
 5.4742702E+00 1.3607936E+00 1.8643610E+00
 5.5517176E+00 1.3463551E+00 1.8738661E+00
 5.6309789E+00 1.3308832E+00 1.8834360E+00
 5.7116856E+00 1.3142019E+00 1.8927395E+00
 5.7934158E+00 1.2961434E+00 1.9013882E+00
 5.8757029E+00 1.2765649E+00 1.9089637E+00
 5.9580431E+00 1.2553629E+00 1.9150455E+00
 6.0399038E+00 1.2324842E+00 1.9192387E+00
 6.1207291E+00 1.2079304E+00 1.9211909E+00
 6.1999542E+00 1.1817591E+00 1.9206031E+00
 6.2770235E+00 1.1540824E+00 1.9172353E+00
 6.3514151E+00 1.1250627E+00 1.9109151E+00
 6.4226619E+00 1.0949061E+00 1.9015473E+00
 6.4903683E+00 1.0638495E+00 1.8891211E+00
 6.5542355E+00 1.0321357E+00 1.8737071E+00
 6.6141376E+00 1.0000000E+00 1.8554217E+00
 6.6706178E+00 9.6783871E-01 1.8341940E+00
 5.1886365E+00 1.3757527E+00 1.8477310E+00
 5.2582304E+00 1.3621439E+00 1.8553340E+00
 5.3301003E+00 1.3483136E+00 1.8634086E+00
 5.4043478E+00 1.3338435E+00 1.8720399E+00
 5.4808617E+00 1.3185563E+00 1.8811185E+00
 5.5593830E+00 1.3023046E+00 1.8904339E+00
 5.6395715E+00 1.2849264E+00 1.8996954E+00
 5.7210207E+00 1.2662623E+00 1.9085393E+00
 5.8032730E+00 1.2461696E+00 1.9165501E+00
 5.8858303E+00 1.2245391E+00 1.9232902E+00
 5.9681625E+00 1.2013086E+00 1.9283311E+00
 6.0497167E+00 1.1764702E+00 1.9312817E+00
 6.1299260E+00 1.1500735E+00 1.9318044E+00
 6.2082251E+00 1.1222239E+00 1.9296249E+00
 6.2840699E+00 1.0930782E+00 1.9245378E+00
 6.3569641E+00 1.0628371E+00 1.9164132E+00
 6.4264792E+00 1.0317321E+00 1.9052033E+00
 6.4922838E+00 1.0000000E+00 1.8909416E+00
 6.5542355E+00 9.6786434E-01 1.8737071E+00
 6.6128537E+00 9.3568620E-01 1.8534385E+00
 5.1899472E+00 1.3376888E+00 1.8636378E+00
 5.2608131E+00 1.3226230E+00 1.8710954E+00
 5.3338844E+00 1.3072402E+00 1.8790125E+00
 5.4092607E+00 1.2911146E+00 1.8874388E+00
 5.4867932E+00 1.2740828E+00 1.8962333E+00
 5.5661942E+00 1.2559987E+00 1.9051594E+00
 5.6470842E+00 1.2367154E+00 1.9138953E+00
 5.7290217E+00 1.2160953E+00 1.9220497E+00
 5.8115171E+00 1.1940278E+00 1.9291856E+00
 5.8940456E+00 1.1704432E+00 1.9348541E+00
 5.9760573E+00 1.1453244E+00 1.9386279E+00
 6.0569876E+00 1.1187116E+00 1.9401291E+00
 6.1362684E+00 1.0907018E+00 1.9390441E+00
 6.2133442E+00 1.0614451E+00 1.9351326E+00
 6.2876948E+00 1.0311360E+00 1.9282307E+00
 6.3588614E+00 1.0000000E+00 1.9182556E+00
 6.4264792E+00 9.6826789E-01 1.9052033E+00
 6.4903683E+00 9.3615046E-01 1.8891211E+00
 6.5509947E+00 9.0396213E-01 1.8699533E+00
 5.1911807E+00 1.2975802E+00 1.8783004E+00
 5.2631862E+00 1.2810455E+00 1.8854631E+00
 5.3373124E+00 1.2640793E+00 1.8930638E+00
 5.4136362E+00 1.2462843E+00 1.9011053E+00
 5.4919811E+00 1.2275035E+00 1.9094202E+00
 5.5720238E+00 1.2076035E+00 1.9177442E+00
 5.6533502E+00 1.1864566E+00 1.9257288E+00
 5.7354865E+00 1.1639546E+00 1.9329606E+00
 5.8179164E+00 1.1400240E+00 1.9389889E+00
 5.9000951E+00 1.1146394E+00 1.9433632E+00
 5.9814611E+00 1.0878310E+00 1.9456672E+00
 6.0614480E+00 1.0596864E+00 1.9455457E+00
 6.1394965E+00 1.0303470E+00 1.9427184E+00
 6.2150732E+00 1.0000000E+00 1.9369860E+00
 6.2876948E+00 9.6886404E-01 1.9282307E+00
 6.3569641E+00 9.3716292E-01 1.9164132E+00
 6.4226619E+00 9.0509394E-01 1.9015473E+00
 6.4851782E+00 8.7292037E-01 1.8835794E+00
 5.1922840E+00 1.2555309E+00 1.8914740E+00
 5.2652889E+00 1.2375292E+00 1.8981851E+00
 5.3402958E+00 1.2189876E+00 1.9052944E+00
 5.4173665E+00 1.1995432E+00 1.9127605E+00
 5.4962934E+00 1.1790529E+00 1.9203897E+00
 5.5767199E+00 1.1574002E+00 1.9278932E+00
 5.6582005E+00 1.1344833E+00 1.9349011E+00
 5.7402345E+00 1.1102283E+00 1.9409849E+00
 5.8222854E+00 1.0846038E+00 1.9456901E+00
 5.9037966E+00 1.0576304E+00 1.9485743E+00
 5.9842043E+00 1.0293852E+00 1.9492421E+00
 6.0629505E+00 1.0000000E+00 1.9473702E+00
 6.1394965E+00 9.6965295E-01 1.9427184E+00
 6.2133442E+00 9.3855485E-01 1.9351326E+00
 6.2840699E+00 9.0692178E-01 1.9245378E+00
 6.3514151E+00 8.7493728E-01 1.9109151E+00
 6.4156817E+00 8.4281378E-01 1.8942064E+00
 5.1932475E+00 1.2117213E+00 1.9029097E+00
 5.2670807E+00 1.1922864E+00 1.9090050E+00
 5.3427741E+00 1.1722106E+00 1.9154427E+00
 5.4203683E+00 1.1511764E+00 1.9221389E+00
 5.4996276E+00 1.1290592E+00 1.9288764E+00
 5.5801650E+00 1.1057651E+00 1.9353466E+00
 5.6615084E+00 1.0812230E+00 1.9411644E+00
 5.7431367E+00 1.0553976E+00 1.9458960E+00
 5.8245012E+00 1.0283011E+00 1.9490922E+00
 5.9050426E+00 1.0000000E+00 1.9503295E+00
 5.9842043E+00 9.7061475E-01 1.9492421E+00
 6.0614480E+00 9.4031359E-01 1.9455457E+00
 6.1362684E+00 9.0929816E-01 1.9390441E+00
 6.2082251E+00 8.7777609E-01 1.9296250E+00
 6.2770235E+00 8.4591760E-01 1.9172353E+00
 6.3428700E+00 8.1388641E-01 1.9018065E+00
 5.1940450E+00 1.1663779E+00 1.9123771E+00
 5.2685201E+00 1.1455765E+00 1.9176923E+00
 5.3446872E+00 1.1240476E+00 1.9232783E+00
 5.4225678E+00 1.1015262E+00 1.9290143E+00
 5.5018992E+00 1.0779117E+00 1.9346636E+00
 5.5822691E+00 1.0531367E+00 1.9399034E+00
 5.6631850E+00 1.0271645E+00 1.9443422E+00
 5.7441131E+00 1.0000000E+00 1.9475495E+00
 5.8245012E+00 9.7169887E-01 1.9490922E+00
 5.9037966E+00 9.4236964E-01 1.9485743E+00
 5.9814611E+00 9.1216898E-01 1.9456672E+00
 6.0569876E+00 8.8128843E-01 1.9401291E+00
 6.1299260E+00 8.4992650E-01 1.9318044E+00
 6.1999542E+00 8.1824089E-01 1.9206031E+00
 6.2671785E+00 7.8634994E-01 1.9064386E+00
 5.1946608E+00 1.1197801E+00 1.9196733E+00
 5.2695743E+00 1.0977154E+00 1.9240497E+00
 5.3459899E+00 1.0748534E+00 1.9286133E+00
 5.4239105E+00 1.0509897E+00 1.9332127E+00
 5.5030502E+00 1.0260510E+00 1.9375971E+00
 5.5829768E+00 1.0000000E+00 1.9414368E+00
 5.6631850E+00 9.7283552E-01 1.9443422E+00
 5.7431367E+00 9.4460241E-01 1.9458960E+00
 5.8222854E+00 9.1539624E-01 1.9456901E+00
 5.9000951E+00 8.8536060E-01 1.9433632E+00
 5.9760573E+00 8.5467559E-01 1.9386280E+00
 6.0497167E+00 8.2352982E-01 1.9312817E+00
 6.1207291E+00 7.9206963E-01 1.9211909E+00
 6.1891025E+00 7.6037229E-01 1.9082414E+00
 5.1950797E+00 1.0722510E+00 1.9246342E+00
 5.2702174E+00 1.0490602E+00 1.9279271E+00
 5.3466497E+00 1.0250228E+00 1.9313151E+00
 5.4243619E+00 1.0000000E+00 1.9346246E+00
 5.5030502E+00 9.7394896E-01 1.9375971E+00
 5.5822691E+00 9.4686327E-01 1.9399034E+00
 5.6615084E+00 9.1877698E-01 1.9411645E+00
 5.7402345E+00 8.8977171E-01 1.9409850E+00
 5.8179164E+00 8.5997601E-01 1.9389889E+00
 5.8940456E+00 8.2955680E-01 1.9348541E+00
 5.9681625E+00 7.9869140E-01 1.9283311E+00
 6.0399038E+00 7.6751575E-01 1.9192387E+00
 6.1091797E+00 7.3607081E-01 1.9074228E+00
 5.1952918E+00 1.0241482E+00 1.9271445E+00
 5.2704335E+00 1.0000000E+00 1.9292303E+00
 5.3466497E+00 9.7497715E-01 1.9313151E+00
 5.4239105E+00 9.4901032E-01 1.9332127E+00
 5.5018992E+00 9.2208832E-01 1.9346636E+00
 5.5801650E+00 8.9423487E-01 1.9353466E+00
 5.6582005E+00 8.6551674E-01 1.9349011E+00
 5.7354865E+00 8.3604544E-01 1.9329606E+00
 5.8115171E+00 8.0597224E-01 1.9291856E+00
 5.8858303E+00 7.7546085E-01 1.9232902E+00
 5.9580431E+00 7.4463705E-01 1.9150455E+00
 6.0279686E+00 7.1350947E-01 1.9042489E+00
 5.1952918E+00 9.7585177E-01 1.9271445E+00
 5.2702174E+00 9.5093980E-01 1.9279271E+00
 5.3459899E+00 9.2514655E-01 1.9286133E+00
 5.4225677E+00 8.9847376E-01 1.9290143E+00
 5.4996276E+00 8.7094083E-01 1.9288764E+00
 5.5767199E+00 8.4259980E-01 1.9278932E+00
 5.6533502E+00 8.1354340E-01 1.9257288E+00
 5.7290217E+00 7.8390465E-01 1.9220497E+00
 5.8032730E+00 7.5383044E-01 1.9165501E+00
 5.8757029E+00 7.2343511E-01 1.9089637E+00
 5.9460260E+00 6.9269781E-01 1.8990351E+00
 5.1950797E+00 9.2774904E-01 1.9246342E+00
 5.2695743E+00 9.0228464E-01 1.9240497E+00
 5.3446871E+00 8.7595239E-01 1.9232783E+00
 5.4203683E+00 8.4882364E-01 1.9221389E+00
 5.4962934E+00 8.2094711E-01 1.9203897E+00
 5.5720238E+00 7.9239650E-01 1.9177442E+00
 5.6470842E+00 7.6328462E-01 1.9138953E+00
 5.7210207E+00 7.3373769E-01 1.9085393E+00
 5.7934158E+00 7.0385664E-01 1.9013882E+00
 5.8638894E+00 6.7359091E-01 1.8921402E+00
 5.1946608E+00 8.8021985E-01 1.9196733E+00
 5.2685201E+00 8.5442350E-01 1.9176923E+00
 5.3427741E+00 8.2778942E-01 1.9154427E+00
 5.4173665E+00 8.0045678E-01 1.9127605E+00
 5.4919811E+00 7.7249654E-01 1.9094202E+00
 5.5661942E+00 7.4400126E-01 1.9051594E+00
 5.6395715E+00 7.1507356E-01 1.8996954E+00
 5.7116856E+00 6.8579814E-01 1.8927395E+00
 5.7820672E+00 6.5609271E-01 1.8839551E+00
 5.1940450E+00 8.3362212E-01 1.9123771E+00
 5.2670807E+00 8.0771357E-01 1.9090050E+00
 5.3402958E+00 7.8101237E-01 1.9052944E+00
 5.4136361E+00 7.5371569E-01 1.9011053E+00
 5.4867932E+00 7.2591717E-01 1.8962333E+00
 5.5593830E+00 6.9769536E-01 1.8904339E+00
 5.6309789E+00 6.6911677E-01 1.8834360E+00
 5.7010339E+00 6.4006321E-01 1.8748852E+00
 5.1932475E+00 7.8827875E-01 1.9029096E+00
 5.2652889E+00 7.6247081E-01 1.8981850E+00
 5.3373124E+00 7.3592073E-01 1.8930638E+00
 5.4092607E+00 7.0888539E-01 1.8874388E+00
 5.4808617E+00 6.8144374E-01 1.8811185E+00
 5.5517176E+00 6.5364487E-01 1.8738661E+00
 5.6212222E+00 6.2533120E-01 1.8653247E+00
 5.1922840E+00 7.4446911E-01 1.8914739E+00
 5.2631862E+00 7.1895448E-01 1.8854630E+00
 5.3338844E+00 6.9275978E-01 1.8790125E+00
 5.4043478E+00 6.6615647E-01 1.8720399E+00
 5.4742702E+00 6.3920636E-01 1.8643610E+00
 5.5430197E+00 6.1171026E-01 1.8556309E+00
 5.1911807E+00 7.0241982E-01 1.8783003E+00
 5.2608131E+00 6.7737705E-01 1.8710953E+00
 5.3301002E+00 6.5168638E-01 1.8634086E+00
 5.3989462E+00 6.2563433E-01 1.8551819E+00
 5.4667565E+00 5.9901493E-01 1.8461025E+00
 5.1899472E+00 6.6231124E-01 1.8636377E+00
 5.2582304E+00 6.3785616E-01 1.8553339E+00
 5.3259506E+00 6.1277142E-01 1.8465051E+00
 5.3927084E+00 5.8707391E-01 1.8369674E+00
 5.1886365E+00 6.2424731E-01 1.8477309E+00
 5.2554371E+00 6.0047521E-01 1.8384344E+00
 5.3210738E+00 5.7574615E-01 1.8283842E+00
 5.1871813E+00 5.8825712E-01 1.8308078E+00
 5.2519237E+00 5.6486923E-01 1.8204130E+00
 5.1855407E+00 5.5420835E-01 1.8130203E+00
 5.0843336E+00 1.5096162E+00 1.7732506E+00
 5.0440995E+00 1.5343493E+00 1.7563122E+00
 5.0023701E+00 1.5597794E+00 1.7379155E+00
 4.9590308E+00 1.5858120E+00 1.7179827E+00
 4.9143248E+00 1.6123456E+00 1.6964300E+00
 4.8684339E+00 1.6392582E+00 1.6731669E+00
 4.8216003E+00 1.6664164E+00 1.6480923E+00
 4.7740996E+00 1.6936412E+00 1.6211263E+00
 4.7262475E+00 1.7207250E+00 1.5922030E+00
 4.6783878E+00 1.7474270E+00 1.5612855E+00
 4.6308834E+00 1.7734818E+00 1.5283705E+00
 4.5841036E+00 1.7986064E+00 1.4934990E+00
 4.5384112E+00 1.8225113E+00 1.4567609E+00
 4.4941504E+00 1.8449138E+00 1.4182999E+00
 4.4516341E+00 1.8655519E+00 1.3783124E+00
 4.4111342E+00 1.8841971E+00 1.3370437E+00
 4.3728738E+00 1.9006668E+00 1.2947794E+00
 4.3370222E+00 1.9148321E+00 1.2518342E+00
 4.3036921E+00 1.9266228E+00 1.2085366E+00
 4.2729425E+00 1.9360284E+00 1.1652139E+00
 4.2447905E+00 1.9430922E+00 1.1221856E+00
 4.2192457E+00 1.9478988E+00 1.0797750E+00
 4.1963470E+00 1.9505744E+00 1.0383467E+00
 3.4478806E+00 1.0889396E+00 1.7869946E+00
 3.4380617E+00 1.1469135E+00 1.7725385E+00
 3.4316938E+00 1.2067658E+00 1.7548826E+00
 3.4296025E+00 1.2682987E+00 1.7340165E+00
 3.4322834E+00 1.3310049E+00 1.7098139E+00
 3.4401739E+00 1.3942064E+00 1.6822315E+00
 3.4536268E+00 1.4571148E+00 1.6513252E+00
 3.4728750E+00 1.5188625E+00 1.6172614E+00
 3.4979984E+00 1.5785451E+00 1.5803198E+00
 3.5289034E+00 1.6352683E+00 1.5408906E+00
 3.5653148E+00 1.6882018E+00 1.4994644E+00
 3.6067820E+00 1.7366326E+00 1.4566108E+00
 3.6527008E+00 1.7800127E+00 1.4129501E+00
 3.7023504E+00 1.8179943E+00 1.3691180E+00
 3.7549389E+00 1.8504473E+00 1.3257292E+00
 3.8096539E+00 1.8774564E+00 1.2833426E+00
 3.8657089E+00 1.8992983E+00 1.2424339E+00
 3.9223845E+00 1.9164029E+00 1.2033761E+00
 3.9790510E+00 1.9293041E+00 1.1664339E+00
 4.0352077E+00 1.9385893E+00 1.1317596E+00
 4.0904543E+00 1.9448506E+00 1.0993807E+00
 4.1444398E+00 1.9486600E+00 1.0690189E+00
 3.5012434E+00 1.1234175E+00 1.8112740E+00
 3.4942374E+00 1.1825816E+00 1.7965059E+00
 3.4907467E+00 1.2431127E+00 1.7783765E+00
 3.4916673E+00 1.3049692E+00 1.7568718E+00
 3.4974629E+00 1.3676176E+00 1.7318691E+00
 3.5085138E+00 1.4303271E+00 1.7033423E+00
 3.5250999E+00 1.4922613E+00 1.6713794E+00
 3.5473669E+00 1.5525230E+00 1.6361903E+00
 3.5752978E+00 1.6102049E+00 1.5981066E+00
 3.6086993E+00 1.6644433E+00 1.5575750E+00
 3.6472027E+00 1.7144738E+00 1.5151410E+00
 3.6902795E+00 1.7596830E+00 1.4714221E+00
 3.7372730E+00 1.7996493E+00 1.4270739E+00
 3.7874408E+00 1.8341673E+00 1.3827507E+00
 3.8400027E+00 1.8632512E+00 1.3390676E+00
 3.8941872E+00 1.8871164E+00 1.2965670E+00
 3.9492741E+00 1.9061453E+00 1.2556934E+00
 4.0046223E+00 1.9208378E+00 1.2167800E+00
 4.0597121E+00 1.9317615E+00 1.1800378E+00
 4.1141320E+00 1.9395049E+00 1.1455324E+00
 4.1675941E+00 1.9446657E+00 1.1128367E+00
 3.5594892E+00 1.1570955E+00 1.8328004E+00
 3.5553104E+00 1.2168546E+00 1.8174972E+00
 3.5547839E+00 1.2776968E+00 1.7987154E+00
 3.5587651E+00 1.3395061E+00 1.7763988E+00
 3.5676693E+00 1.4016993E+00 1.7504386E+00
 3.5818090E+00 1.4634972E+00 1.7208380E+00
 3.6013833E+00 1.5240297E+00 1.6877280E+00
 3.6264456E+00 1.5823915E+00 1.6513710E+00
 3.6568830E+00 1.6376985E+00 1.6121572E+00
 3.6924103E+00 1.6891453E+00 1.5705926E+00
 3.7325802E+00 1.7360601E+00 1.5272761E+00
 3.7768087E+00 1.7779506E+00 1.4828666E+00
 3.8244124E+00 1.8145349E+00 1.4380441E+00
 3.8746536E+00 1.8457515E+00 1.3934677E+00
 3.9267855E+00 1.8717471E+00 1.3497376E+00
 3.9800951E+00 1.8928460E+00 1.3073640E+00
 4.0339333E+00 1.9095035E+00 1.2667476E+00
 4.0877623E+00 1.9222563E+00 1.2281639E+00
 4.1411571E+00 1.9316775E+00 1.1917232E+00
 4.1938040E+00 1.9383760E+00 1.1570759E+00
 3.6224113E+00 1.1900129E+00 1.8510563E+00
 3.6211655E+00 1.2499638E+00 1.8350189E+00
 3.6236926E+00 1.3106901E+00 1.8154038E+00
 3.6307722E+00 1.3720002E+00 1.7921231E+00
 3.6427502E+00 1.4332576E+00 1.7650914E+00
 3.6598610E+00 1.4936522E+00 1.7343526E+00
 3.6822160E+00 1.5523036E+00 1.7000900E+00
 3.7097762E+00 1.6083268E+00 1.6626247E+00
 3.7423398E+00 1.6608919E+00 1.6224080E+00
 3.7795449E+00 1.7092815E+00 1.5800019E+00
 3.8208885E+00 1.7529408E+00 1.5360497E+00
 3.8657578E+00 1.7915140E+00 1.4912381E+00
 3.9134710E+00 1.8248608E+00 1.4462537E+00
 3.9633187E+00 1.8530513E+00 1.4017414E+00
 4.0146066E+00 1.8763405E+00 1.3582680E+00
 4.0666876E+00 1.8951254E+00 1.3162967E+00
 4.1190142E+00 1.9098988E+00 1.2761641E+00
 4.1711458E+00 1.9212042E+00 1.2380459E+00
 4.2227622E+00 1.9296484E+00 1.2016663E+00
 3.6897663E+00 1.2218172E+00 1.8656816E+00
 3.6915213E+00 1.2815457E+00 1.8487283E+00
 3.6971333E+00 1.3417134E+00 1.8281258E+00