# TIME = 10.000000
variables = x, y, z
zone N=5762 E=11520 F=FEPOINT ET=TRIANGLE
 5.8615745E+00 1.4907499E+00 1.7937661E+00
 5.8615744E+00 1.4907500E+00 2.0623365E-01
 5.8615746E+00 5.0924993E-01 1.7937659E+00
 5.8615747E+00 5.0924988E-01 2.0623388E-01
 4.1448282E+00 9.9999988E-01 1.7820972E+00
 7.5628857E+00 9.9999987E-01 1.7548914E+00
 4.1448279E+00 9.9999987E-01 2.1790221E-01
 7.5628856E+00 9.9999987E-01 2.4510864E-01
 4.8975034E+00 1.9529236E+00 9.9999997E-01
 4.8975034E+00 4.7076042E-02 9.9999995E-01
 6.8079509E+00 1.9335325E+00 9.9999996E-01
 6.8079509E+00 6.6467317E-02 9.9999996E-01
 5.8008121E+00 1.4803691E+00 1.7973504E+00
 5.7336376E+00 1.4689437E+00 1.8013355E+00
 5.6633550E+00 1.4572096E+00 1.8056866E+00
 5.5901966E+00 1.4452617E+00 1.8106382E+00
 5.5143368E+00 1.4331909E+00 1.8164286E+00
 5.4359950E+00 1.4210271E+00 1.8233110E+00
 5.3554793E+00 1.4087561E+00 1.8314870E+00
 5.2732716E+00 1.3962921E+00 1.8410511E+00
 5.1900080E+00 1.3834577E+00 1.8519240E+00
 5.1064163E+00 1.3699765E+00 1.8638017E+00
 5.0232081E+00 1.3554898E+00 1.8761426E+00
 4.9409794E+00 1.3395969E+00 1.8882019E+00
 4.8601623E+00 1.3219055E+00 1.8991020E+00
 4.7810308E+00 1.3020849E+00 1.9079219E+00
 4.7037551E+00 1.2799080E+00 1.9137883E+00
 4.6284880E+00 1.2552802E+00 1.9159575E+00
 4.5554578E+00 1.2282485E+00 1.9138787E+00
 4.4850184E+00 1.1989935E+00 1.9072335E+00
 4.4176261E+00 1.1678053E+00 1.8959435E+00
 4.3537666E+00 1.1350528E+00 1.8801478E+00
 4.2939177E+00 1.1011780E+00 1.8601773E+00
 4.2385084E+00 1.0666882E+00 1.8365109E+00
 4.1880581E+00 1.0322893E+00 1.8098553E+00
 5.7940502E+00 5.5430630E-01 1.8169318E+00
 5.7246268E+00 5.6775067E-01 1.8213476E+00
 5.6526806E+00 5.8097615E-01 1.8258698E+00
 5.5783475E+00 5.9418394E-01 1.8308820E+00
 5.5015882E+00 6.0750890E-01 1.8367338E+00
 5.4225830E+00 6.2100534E-01 1.8436976E+00
 5.3416634E+00 6.3474898E-01 1.8519671E+00
 5.2593384E+00 6.4885964E-01 1.8615981E+00
 5.1762661E+00 6.6353324E-01 1.8724532E+00
 5.0931740E+00 6.7904393E-01 1.8841632E+00
 5.0107490E+00 6.9572346E-01 1.8961280E+00
 4.9295468E+00 7.1392049E-01 1.9075640E+00
 4.8499582E+00 7.3395367E-01 1.9175819E+00
 4.7722258E+00 7.5606859E-01 1.9252778E+00
 4.6965025E+00 7.8040641E-01 1.9298204E+00
 4.6229366E+00 8.0698616E-01 1.9305260E+00
 4.5517492E+00 8.3570140E-01 1.9269110E+00
 4.4832585E+00 8.6632825E-01 1.9187156E+00
 4.4178342E+00 8.9853989E-01 1.9058927E+00
 4.3557928E+00 9.3192211E-01 1.8885555E+00
 4.2972756E+00 9.6598097E-01 1.8668871E+00
 4.2420813E+00 9.9999989E-01 1.8409990E+00
 5.7916187E+00 5.8986674E-01 1.8352348E+00
 5.7194908E+00 6.0530408E-01 1.8398433E+00
 5.6456894E+00 6.2005966E-01 1.8443634E+00
 5.5698637E+00 6.3467299E-01 1.8493337E+00
 5.4919887E+00 6.4937997E-01 1.8551296E+00
 5.4121641E+00 6.6433880E-01 1.8620441E+00
 5.3307187E+00 6.7967120E-01 1.8702510E+00
 5.2481678E+00 6.9552868E-01 1.8797677E+00
 5.1651782E+00 7.1211798E-01 1.8904017E+00
 5.0824693E+00 7.2970417E-01 1.9017252E+00
 5.0007006E+00 7.4858632E-01 1.9130882E+00
 4.9203896E+00 7.6905862E-01 1.9236777E+00
 4.8418890E+00 7.9136983E-01 1.9326003E+00
 4.7654102E+00 8.1569043E-01 1.9389744E+00
 4.6910836E+00 8.4209111E-01 1.9420111E+00
 4.6190313E+00 8.7053231E-01 1.9410797E+00
 4.5494202E+00 9.0086199E-01 1.9357437E+00
 4.4824457E+00 9.3281760E-01 1.9257594E+00
 4.4182352E+00 9.6602734E-01 1.9110253E+00
 4.3567057E+00 9.9999991E-01 1.8914807E+00
 4.2972756E+00 1.0340188E+00 1.8668872E+00
 5.7900534E+00 6.2703863E-01 1.8524178E+00
 5.7161341E+00 6.4402527E-01 1.8568510E+00
 5.6406998E+00 6.6027992E-01 1.8612005E+00
 5.5635429E+00 6.7632178E-01 1.8659774E+00
 5.4845884E+00 6.9248673E-01 1.8715780E+00
 5.4039604E+00 7.0898189E-01 1.8782856E+00
 5.3219851E+00 7.2597134E-01 1.8862521E+00
 5.2391945E+00 7.4362679E-01 1.8954540E+00
 5.1562617E+00 7.6216010E-01 1.9056481E+00
 5.0738967E+00 7.8182047E-01 1.9163543E+00
 4.9927314E+00 8.0287048E-01 1.9268819E+00
 4.9132472E+00 8.2555060E-01 1.9363976E+00
 4.8357591E+00 8.5004651E-01 1.9440123E+00
 4.7604431E+00 8.7646503E-01 1.9488699E+00
 4.6873898E+00 9.0481887E-01 1.9502214E+00
 4.6166553E+00 9.3501693E-01 1.9474747E+00
 4.5482757E+00 9.6685456E-01 1.9402080E+00
 4.4822143E+00 9.9999993E-01 1.9281375E+00
 4.4182351E+00 1.0339725E+00 1.9110254E+00
 4.3557927E+00 1.0680777E+00 1.8885557E+00
 5.7888674E+00 6.6586591E-01 1.8683298E+00
 5.7135798E+00 6.8417746E-01 1.8723622E+00
 5.6368507E+00 7.0180451E-01 1.8763499E+00
 5.5585592E+00 7.1925420E-01 1.8807748E+00
 5.4786790E+00 7.3688456E-01 1.8860174E+00
 5.3973575E+00 7.5493698E-01 1.8923433E+00
 5.3149474E+00 7.7359702E-01 1.8998745E+00
 5.2319981E+00 7.9304905E-01 1.9085470E+00
 5.1491899E+00 8.1350160E-01 1.9180702E+00
 5.0672206E+00 8.3518305E-01 1.9279200E+00
 4.9866935E+00 8.5831791E-01 1.9373754E+00
 4.9080528E+00 8.8309670E-01 1.9455929E+00
 4.8315722E+00 9.0965041E-01 1.9516951E+00
 4.7573797E+00 9.3803157E-01 1.9548537E+00
 4.6854948E+00 9.6819905E-01 1.9543520E+00
 4.6158505E+00 9.9999997E-01 1.9496172E+00
 4.5482757E+00 1.0331453E+00 1.9402082E+00
 4.4824456E+00 1.0671823E+00 1.9257597E+00
 4.4178342E+00 1.1014600E+00 1.9058931E+00
 5.7878757E+00 7.0636161E-01 1.8828132E+00
 5.7114611E+00 7.2582676E-01 1.8862667E+00
 5.6336762E+00 7.4471465E-01 1.8897243E+00
 5.5544610E+00 7.6351030E-01 1.8936340E+00
 5.4738423E+00 7.8257253E-01 1.8983494E+00
 5.3920032E+00 8.0215313E-01 1.9041086E+00
 5.3093248E+00 8.2244772E-01 1.9110006E+00
 5.2263742E+00 8.4364333E-01 1.9189215E+00
 5.1438336E+00 8.6593914E-01 1.9275392E+00
 5.0623839E+00 8.8953960E-01 1.9362949E+00
 4.9825960E+00 9.1463270E-01 1.9444484E+00
 4.9048719E+00 9.4136498E-01 1.9511567E+00
 4.8294341E+00 9.6982019E-01 1.9555598E+00
 4.7563397E+00 1.0000000E+00 1.9568562E+00
 4.6854948E+00 1.0318010E+00 1.9543522E+00
 4.6166553E+00 1.0649830E+00 1.9474751E+00
 4.5494202E+00 1.0991379E+00 1.9357442E+00
 4.4832585E+00 1.1336717E+00 1.9187162E+00
 5.7870001E+00 7.4845412E-01 1.8956875E+00
 5.7096329E+00 7.6893392E-01 1.8984140E+00
 5.6309888E+00 7.8897688E-01 1.9011906E+00
 5.5510593E+00 8.0903784E-01 1.9044274E+00
 5.4699149E+00 8.2946406E-01 1.9084455E+00
 5.3877729E+00 8.5050382E-01 1.9134514E+00
 5.3050388E+00 8.7235262E-01 1.9194993E+00
 5.2222904E+00 8.9519360E-01 1.9264487E+00
 5.1402039E+00 9.1921280E-01 1.9339330E+00
 5.0594353E+00 9.4459095E-01 1.9413695E+00
 4.9805163E+00 9.7148378E-01 1.9480097E+00
 4.9037980E+00 1.0000001E+00 1.9530195E+00
 4.8294342E+00 1.0301799E+00 1.9555600E+00
 4.7573798E+00 1.0619685E+00 1.9548541E+00
 4.6873899E+00 1.0951812E+00 1.9502221E+00
 4.6190314E+00 1.1294677E+00 1.9410805E+00
 4.5517492E+00 1.1642986E+00 1.9269119E+00
 5.7862265E+00 7.9200288E-01 1.9067656E+00
 5.7080655E+00 8.1337594E-01 1.9086398E+00
 5.6287554E+00 8.3446502E-01 1.9105983E+00
 5.5483277E+00 8.5569395E-01 1.9130128E+00
 5.4668876E+00 8.7738810E-01 1.9161690E+00
 5.3846792E+00 8.9978369E-01 1.9202399E+00
 5.3021234E+00 9.2306955E-01 1.9252466E+00
 5.2197988E+00 9.4742122E-01 1.9310161E+00
 5.1383647E+00 9.7301134E-01 1.9371562E+00
 5.0584428E+00 1.0000001E+00 1.9430699E+00
 4.9805163E+00 1.0285164E+00 1.9480099E+00
 4.9048719E+00 1.0586352E+00 1.9511571E+00
 4.8315724E+00 1.0903498E+00 1.9516958E+00
 4.7604433E+00 1.1235351E+00 1.9488709E+00
 4.6910838E+00 1.1579090E+00 1.9420122E+00
 4.6229367E+00 1.1930139E+00 1.9305272E+00
 5.7855685E+00 8.3681846E-01 1.9158714E+00
 5.7067845E+00 8.5896254E-01 1.9167851E+00
 5.6270118E+00 8.8098022E-01 1.9178025E+00
 5.5463122E+00 9.0326115E-01 1.9192561E+00
 5.4648164E+00 9.2610213E-01 1.9213961E+00
 5.3827850E+00 9.4972152E-01 1.9243627E+00
 5.3006437E+00 9.7429829E-01 1.9281463E+00
 5.2189601E+00 1.0000001E+00 1.9325477E+00
 5.1383647E+00 1.0269889E+00 1.9371564E+00
 5.0594354E+00 1.0554093E+00 1.9413699E+00
 4.9825960E+00 1.0853676E+00 1.9444490E+00
 4.9080530E+00 1.1169036E+00 1.9455937E+00
 4.8357594E+00 1.1499537E+00 1.9440134E+00
 4.7654105E+00 1.1843098E+00 1.9389757E+00
 4.6965028E+00 1.2195938E+00 1.9298219E+00
 5.7850491E+00 8.8266887E-01 1.9228501E+00
 5.7058315E+00 9.0545262E-01 1.9227118E+00
 5.6258117E+00 9.2826810E-01 1.9226799E+00
 5.5450732E+00 9.5146644E-01 1.9230490E+00
 5.4637624E+00 9.7531119E-01 1.9240344E+00
 5.3821464E+00 1.0000000E+00 1.9257457E+00
 5.3006437E+00 1.0257018E+00 1.9281465E+00
 5.2197988E+00 1.0525790E+00 1.9310165E+00
 5.1402038E+00 1.0807874E+00 1.9339336E+00
 5.0623839E+00 1.1104607E+00 1.9362957E+00
 4.9866937E+00 1.1416824E+00 1.9373763E+00
 4.9132475E+00 1.1744497E+00 1.9363988E+00
 4.8418894E+00 1.2086305E+00 1.9326018E+00
 4.7722262E+00 1.2439317E+00 1.9252795E+00
 5.7846898E+00 9.2928632E-01 1.9275763E+00
 5.7052436E+00 9.5256688E-01 1.9263128E+00
 5.6251996E+00 9.7603521E-01 1.9251419E+00
 5.5446549E+00 9.9999998E-01 1.9243214E+00
 5.4637623E+00 1.0246888E+00 1.9240345E+00
 5.3827849E+00 1.0502785E+00 1.9243630E+00
 5.3021233E+00 1.0769306E+00 1.9252471E+00
 5.2222903E+00 1.1048066E+00 1.9264494E+00
 5.1438335E+00 1.1340611E+00 1.9275401E+00
 5.0672206E+00 1.1648173E+00 1.9279212E+00
 4.9927316E+00 1.1971299E+00 1.9268833E+00
 4.9203900E+00 1.2309417E+00 1.9236792E+00
 4.8499587E+00 1.2660467E+00 1.9175837E+00
 5.7845062E+00 9.7637562E-01 1.9299622E+00
 5.7050449E+00 9.9999993E-01 1.9275209E+00
 5.6251995E+00 1.0239647E+00 1.9251420E+00
 5.5450731E+00 1.0485335E+00 1.9230491E+00
 5.4648163E+00 1.0738979E+00 1.9213964E+00
 5.3846791E+00 1.1002164E+00 1.9202404E+00
 5.3050386E+00 1.1276476E+00 1.9195001E+00
 5.2263740E+00 1.1563569E+00 1.9189225E+00
 5.1491898E+00 1.1864987E+00 1.9180715E+00
 5.0738967E+00 1.2181799E+00 1.9163557E+00
 5.0007007E+00 1.2514141E+00 1.9130899E+00
 4.9295472E+00 1.2860799E+00 1.9075659E+00
 5.7845062E+00 1.0236242E+00 1.9299622E+00
 5.7052435E+00 1.0474330E+00 1.9263129E+00
 5.6258116E+00 1.0717318E+00 1.9226801E+00
 5.5463121E+00 1.0967388E+00 1.9192564E+00
 5.4668875E+00 1.1226119E+00 1.9161695E+00
 5.3877727E+00 1.1494963E+00 1.9134521E+00
 5.3093246E+00 1.1775525E+00 1.9110016E+00
 5.2319979E+00 1.2069513E+00 1.9085483E+00
 5.1562616E+00 1.2378403E+00 1.9056497E+00
 5.0824693E+00 1.2702963E+00 1.9017270E+00
 5.0107492E+00 1.3042770E+00 1.8961300E+00
 5.7846898E+00 1.0707135E+00 1.9275764E+00
 5.7058314E+00 1.0945473E+00 1.9227119E+00
 5.6270117E+00 1.1190197E+00 1.9178027E+00
 5.5483275E+00 1.1443060E+00 1.9130132E+00
 5.4699146E+00 1.1705360E+00 1.9084462E+00
 5.3920030E+00 1.1978470E+00 1.9041095E+00
 5.3149472E+00 1.2264033E+00 1.8998757E+00
 5.2391943E+00 1.2563736E+00 1.8954555E+00
 5.1651781E+00 1.2878825E+00 1.8904035E+00
 5.0931741E+00 1.3209566E+00 1.8841652E+00
 5.7850490E+00 1.1173310E+00 1.9228502E+00
 5.7067844E+00 1.1410373E+00 1.9167854E+00
 5.6287552E+00 1.1655349E+00 1.9105987E+00
 5.5510591E+00 1.1909622E+00 1.9044279E+00
 5.4738420E+00 1.2174276E+00 1.8983501E+00
 5.3973572E+00 1.2450632E+00 1.8923444E+00
 5.3219848E+00 1.2740290E+00 1.8862534E+00
 5.2481676E+00 1.3044718E+00 1.8797693E+00
 5.1762661E+00 1.3364673E+00 1.8724551E+00
 5.7855684E+00 1.1631814E+00 1.9158716E+00
 5.7080653E+00 1.1866239E+00 1.9086400E+00
 5.6309885E+00 1.2110231E+00 1.9011910E+00
 5.5544607E+00 1.2364897E+00 1.8936347E+00
 5.4786787E+00 1.2631156E+00 1.8860183E+00
 5.4039601E+00 1.2910184E+00 1.8782867E+00
 5.3307185E+00 1.3203292E+00 1.8702524E+00
 5.2593383E+00 1.3511408E+00 1.8615998E+00
 5.7862263E+00 1.2079970E+00 1.9067657E+00
 5.7096327E+00 1.2310660E+00 1.8984143E+00
 5.6336759E+00 1.2552853E+00 1.8897248E+00
 5.5585589E+00 1.2807459E+00 1.8807755E+00
 5.4845881E+00 1.3075134E+00 1.8715789E+00
 5.4121638E+00 1.3356615E+00 1.8620452E+00
 5.3416632E+00 1.3652514E+00 1.8519686E+00
 5.7869999E+00 1.2515457E+00 1.8956877E+00
 5.7114608E+00 1.2741731E+00 1.8862670E+00
 5.6368504E+00 1.2981955E+00 1.8763504E+00
 5.5635425E+00 1.3236783E+00 1.8659781E+00
 5.4919883E+00 1.3506202E+00 1.8551305E+00
 5.4225827E+00 1.3789949E+00 1.8436987E+00
 5.7878755E+00 1.2936382E+00 1.8828135E+00
 5.7135795E+00 1.3158225E+00 1.8723625E+00
 5.6406995E+00 1.3397201E+00 1.8612010E+00
 5.5698634E+00 1.3653271E+00 1.8493343E+00
 5.5015879E+00 1.3924913E+00 1.8367347E+00
 5.7888672E+00 1.3341339E+00 1.8683301E+00
 5.7161338E+00 1.3559746E+00 1.8568513E+00
 5.6456892E+00 1.3799403E+00 1.8443639E+00
 5.5783472E+00 1.4058161E+00 1.8308827E+00
 5.7900532E+00 1.3729612E+00 1.8524181E+00
 5.7194906E+00 1.3946958E+00 1.8398437E+00
 5.6526803E+00 1.4190238E+00 1.8258703E+00
 5.7916185E+00 1.4101331E+00 1.8352350E+00
 5.7246265E+00 1.4322492E+00 1.8213480E+00
 5.7940500E+00 1.4456936E+00 1.8169321E+00
 5.8618658E+00 1.4609830E+00 1.8114461E+00
 5.8622479E+00 1.4272639E+00 1.8297292E+00
 5.8625434E+00 1.3915104E+00 1.8472171E+00
 5.8627765E+00 1.3537974E+00 1.8636653E+00
 5.8629570E+00 1.3142345E+00 1.8788487E+00
 5.8631012E+00 1.2729590E+00 1.8925450E+00
 5.8632195E+00 1.2301149E+00 1.9045507E+00
 5.8633171E+00 1.1858841E+00 1.9146750E+00
 5.8633951E+00 1.1404875E+00 1.9227467E+00
 5.8634523E+00 1.0941809E+00 1.9286222E+00
 5.8634874E+00 1.0472494E+00 1.9321928E+00
 5.8634992E+00 9.9999990E-01 1.9333907E+00
 5.8634874E+00 9.5275036E-01 1.9321928E+00
 5.8634524E+00 9.0581894E-01 1.9286221E+00
 5.8633952E+00 8.5951234E-01 1.9227466E+00
 5.8633173E+00 8.1411573E-01 1.9146749E+00
 5.8632197E+00 7.6988491E-01 1.9045506E+00
 5.8631013E+00 7.2704085E-01 1.8925449E+00
 5.8629572E+00 6.8576528E-01 1.8788485E+00
 5.8627767E+00 6.4620242E-01 1.8636652E+00
 5.8625436E+00 6.0848942E-01 1.8472169E+00
 5.8622480E+00 5.7273594E-01 1.8297290E+00
 5.8618659E+00 5.3901679E-01 1.8114459E+00
 5.9224667E+00 5.1707056E-01 1.8015368E+00
 5.9894322E+00 5.2591385E-01 1.8099615E+00
 6.0590457E+00 5.3541047E-01 1.8184590E+00
 6.1309464E+00 5.4568119E-01 1.8268799E+00
 6.2049164E+00 5.5681567E-01 1.8350559E+00
 6.2807430E+00 5.6891242E-01 1.8428443E+00
 6.3582457E+00 5.8205367E-01 1.8501207E+00
 6.4371943E+00 5.9630626E-01 1.8567778E+00
 6.5173121E+00 6.1172642E-01 1.8627201E+00
 6.5982532E+00 6.2836546E-01 1.8678506E+00
 6.6795949E+00 6.4627610E-01 1.8720529E+00
 6.7608458E+00 6.6551593E-01 1.8751760E+00
 6.8414742E+00 6.8614654E-01 1.8770248E+00
 6.9209483E+00 7.0822718E-01 1.8773630E+00
 6.9987713E+00 7.3180474E-01 1.8759267E+00
 7.0745017E+00 7.5690236E-01 1.8724472E+00
 7.1477537E+00 7.8351042E-01 1.8666756E+00
 7.2181873E+00 8.1158159E-01 1.8584068E+00
 7.2854964E+00 8.4103011E-01 1.8474963E+00
 7.3494043E+00 8.7173486E-01 1.8338710E+00
 7.4096269E+00 9.0351142E-01 1.8175434E+00
 7.4658814E+00 9.3608665E-01 1.7986056E+00
 7.5177164E+00 9.6891151E-01 1.7773286E+00
 5.9297899E+00 1.4484425E+00 1.8216739E+00
 5.9988339E+00 1.4374467E+00 1.8307276E+00
 6.0699100E+00 1.4262199E+00 1.8395014E+00
 6.1427771E+00 1.4144010E+00 1.8479652E+00
 6.2174330E+00 1.4017298E+00 1.8560591E+00
 6.2937394E+00 1.3880631E+00 1.8636672E+00
 6.3715183E+00 1.3733022E+00 1.8706764E+00
 6.4505439E+00 1.3573852E+00 1.8769797E+00
 6.5305273E+00 1.3402686E+00 1.8824763E+00
 6.6111069E+00 1.3219157E+00 1.8870611E+00
 6.6918442E+00 1.3022891E+00 1.8906084E+00
 6.7722387E+00 1.2813485E+00 1.8929585E+00
 6.8517615E+00 1.2590519E+00 1.8939108E+00
 6.9298941E+00 1.2353623E+00 1.8932304E+00
 7.0061611E+00 1.2102558E+00 1.8906630E+00
 7.0801461E+00 1.1837310E+00 1.8859578E+00
 7.1514945E+00 1.1558171E+00 1.8788891E+00
 7.2199151E+00 1.1265823E+00 1.8692720E+00
 7.2851870E+00 1.0961430E+00 1.8569683E+00
 7.3471960E+00 1.0646781E+00 1.8418722E+00
 7.4060043E+00 1.0324495E+00 1.8238710E+00
 7.4620149E+00 9.9999987E-01 1.8027525E+00
 5.9328769E+00 1.4128329E+00 1.8402651E+00
 6.0044676E+00 1.3997070E+00 1.8497735E+00
 6.0771816E+00 1.3867376E+00 1.8586773E+00
 6.1513151E+00 1.3732729E+00 1.8671158E+00
 6.2268739E+00 1.3589909E+00 1.8750447E+00
 6.3038194E+00 1.3436897E+00 1.8823795E+00
 6.3820061E+00 1.3272642E+00 1.8890107E+00
 6.4612214E+00 1.3096572E+00 1.8948321E+00
 6.5411743E+00 1.2908365E+00 1.8997391E+00
 6.6214916E+00 1.2707787E+00 1.9036212E+00
 6.7017235E+00 1.2494608E+00 1.9063461E+00
 6.7813656E+00 1.2268578E+00 1.9077486E+00
 6.8598956E+00 1.2029447E+00 1.9076264E+00
 6.9368141E+00 1.1777015E+00 1.9057482E+00
 7.0116753E+00 1.1511197E+00 1.9018697E+00
 7.0841080E+00 1.1232104E+00 1.8957527E+00
 7.1538327E+00 1.0940158E+00 1.8871787E+00
 7.2206940E+00 1.0636251E+00 1.8759487E+00
 7.2847185E+00 1.0321973E+00 1.8618605E+00
 7.3462086E+00 9.9999987E-01 1.8446555E+00
 7.4060043E+00 9.6755028E-01 1.8238710E+00
 5.9349799E+00 1.3755040E+00 1.8576964E+00
 6.0082417E+00 1.3606464E+00 1.8672334E+00
 6.0824196E+00 1.3459660E+00 1.8760936E+00
 6.1576943E+00 1.3308552E+00 1.8843578E+00
 6.2341461E+00 1.3149267E+00 1.8919996E+00
 6.3117399E+00 1.2979685E+00 1.8989309E+00
 6.3903563E+00 1.2798698E+00 1.9050451E+00
 6.4697849E+00 1.2605823E+00 1.9102339E+00
 6.5497293E+00 1.2400844E+00 1.9143905E+00
 6.6298060E+00 1.2183649E+00 1.9174009E+00
 6.7095576E+00 1.1954132E+00 1.9191290E+00
 6.7884811E+00 1.1712172E+00 1.9194072E+00
 6.8660682E+00 1.1457643E+00 1.9180337E+00
 6.9418482E+00 1.1190451E+00 1.9147818E+00
 7.0154247E+00 1.0910605E+00 1.9094128E+00
 7.0865112E+00 1.0618338E+00 1.9016888E+00
 7.1549767E+00 1.0314323E+00 1.8913719E+00
 7.2209110E+00 9.9999987E-01 1.8782048E+00
 7.2847185E+00 9.6780242E-01 1.8618605E+00
 7.3471960E+00 9.3532165E-01 1.8418722E+00
 5.9365719E+00 1.3364654E+00 1.8738276E+00
 6.0111129E+00 1.3200592E+00 1.8831417E+00
 6.0864557E+00 1.3037811E+00 1.8917477E+00
 6.1627136E+00 1.2870538E+00 1.8996748E+00
 6.2399399E+00 1.2694986E+00 1.9068732E+00
 6.3181016E+00 1.2509023E+00 1.9132470E+00
 6.3970754E+00 1.2311647E+00 1.9186841E+00
 6.4766479E+00 1.2102471E+00 1.9230748E+00
 6.5565136E+00 1.1881397E+00 1.9263110E+00
 6.6362815E+00 1.1648418E+00 1.9282770E+00
 6.7154921E+00 1.1403529E+00 1.9288357E+00
 6.7936519E+00 1.1146695E+00 1.9278193E+00
 6.8702779E+00 1.0877858E+00 1.9250279E+00
 6.9449466E+00 1.0596985E+00 1.9202368E+00
 7.0173440E+00 1.0304196E+00 1.9132049E+00
 7.0873236E+00 9.9999987E-01 1.9036774E+00
 7.1549767E+00 9.6856742E-01 1.8913719E+00
 7.2206940E+00 9.3637464E-01 1.8759487E+00
 7.2851870E+00 9.0385673E-01 1.8569682E+00
 5.9378754E+00 1.2957220E+00 1.8885083E+00
 6.0134695E+00 1.2779095E+00 1.8973996E+00
 6.0897653E+00 1.2601304E+00 1.9055650E+00
 6.1668250E+00 1.2418519E+00 1.9129820E+00
 6.2446699E+00 1.2227222E+00 1.9195704E+00
 6.3232522E+00 1.2025479E+00 1.9252195E+00
 6.4024398E+00 1.1812447E+00 1.9298115E+00
 6.4820111E+00 1.1587878E+00 1.9332350E+00
 6.5616536E+00 1.1351782E+00 1.9353822E+00
 6.6409736E+00 1.1104236E+00 1.9361381E+00
 6.7195185E+00 1.0845292E+00 1.9353664E+00
 6.7968159E+00 1.0574948E+00 1.9329006E+00
 6.8724250E+00 1.0293169E+00 1.9285412E+00
 6.9459971E+00 9.9999987E-01 1.9220607E+00
 7.0173440E+00 9.6958017E-01 1.9132049E+00
 7.0865112E+00 9.3816590E-01 1.9016888E+00
 7.1538327E+00 9.0598390E-01 1.8871787E+00
 7.2199151E+00 8.7341741E-01 1.8692720E+00
 5.9389992E+00 1.2533548E+00 1.9015599E+00
 6.0154825E+00 1.2342528E+00 1.9098589E+00
 6.0925509E+00 1.2150668E+00 1.9174134E+00
 6.1702263E+00 1.1953193E+00 1.9241511E+00
 6.2485032E+00 1.1746976E+00 1.9299617E+00
 6.3273177E+00 1.1530384E+00 1.9347193E+00
 6.4065281E+00 1.1302785E+00 1.9383011E+00
 6.4859063E+00 1.1064077E+00 1.9405959E+00
 6.5651378E+00 1.0814358E+00 1.9414978E+00
 6.6438345E+00 1.0553747E+00 1.9408942E+00
 6.7215617E+00 1.0282301E+00 1.9386503E+00
 6.7978836E+00 9.9999987E-01 1.9346000E+00
 6.8724250E+00 9.7068287E-01 1.9285412E+00
 6.9449466E+00 9.4030124E-01 1.9202368E+00
 7.0154247E+00 9.0893920E-01 1.9094128E+00
 7.0841080E+00 8.7678933E-01 1.8957527E+00
 7.1514945E+00 8.4418263E-01 1.8788891E+00
 5.9399757E+00 1.2095093E+00 1.9127939E+00
 6.0171963E+00 1.1892220E+00 1.9203520E+00
 6.0948572E+00 1.1687297E+00 1.9271382E+00
 6.1729515E+00 1.1476130E+00 1.9330360E+00
 6.2514541E+00 1.1256074E+00 1.9379084E+00
 6.3302891E+00 1.1025852E+00 1.9416170E+00
 6.4093086E+00 1.0785064E+00 1.9440363E+00
 6.4882832E+00 1.0533735E+00 1.9450573E+00
 6.5669037E+00 1.0272012E+00 1.9445773E+00
 6.6447976E+00 9.9999987E-01 1.9424864E+00
 6.7215617E+00 9.7176962E-01 1.9386503E+00
 6.7968159E+00 9.4250496E-01 1.9329006E+00
 6.8702779E+00 9.1221398E-01 1.9250279E+00
 6.9418482E+00 8.8095459E-01 1.9147818E+00
 7.0116753E+00 8.4888004E-01 1.9018697E+00
 7.0801461E+00 8.1626873E-01 1.8859578E+00
 5.9407979E+00 1.1643783E+00 1.9220307E+00
 6.0185913E+00 1.1430150E+00 1.9287139E+00
 6.0966536E+00 1.1213287E+00 1.9345876E+00
 6.1749596E+00 1.0989621E+00 1.9394976E+00
 6.2534717E+00 1.0757043E+00 1.9432851E+00
 6.3321079E+00 1.0514651E+00 1.9458036E+00
 6.4107198E+00 1.0262265E+00 1.9469279E+00
 6.4890834E+00 9.9999987E-01 1.9465522E+00
 6.5669037E+00 9.7279853E-01 1.9445773E+00
 6.6438345E+00 9.4462499E-01 1.9408942E+00
 6.7195185E+00 9.1547054E-01 1.9353665E+00
 6.7936519E+00 8.8533020E-01 1.9278193E+00
 6.8660682E+00 8.5423543E-01 1.9180337E+00
 6.9368141E+00 8.2229821E-01 1.9057482E+00
 7.0061611E+00 7.8974395E-01 1.8906630E+00
 5.9414434E+00 1.1181974E+00 1.9291117E+00
 6.0196268E+00 1.0958799E+00 1.9348003E+00
 6.0978886E+00 1.0731282E+00 1.9396324E+00
 6.1761933E+00 1.0496508E+00 1.9434232E+00
 6.2544980E+00 1.0252924E+00 1.9459984E+00
 6.3327209E+00 9.9999987E-01 1.9472076E+00
 6.4107198E+00 9.7377322E-01 1.9469279E+00
 6.4882832E+00 9.4662622E-01 1.9450573E+00
 6.5651378E+00 9.1856398E-01 1.9414978E+00
 6.6409736E+00 8.8957618E-01 1.9361382E+00
 6.7154920E+00 8.5964681E-01 1.9288357E+00
 6.7884811E+00 8.2878252E-01 1.9194072E+00
 6.8598956E+00 7.9705503E-01 1.9076264E+00
 6.9298941E+00 7.6463748E-01 1.8932304E+00
 5.9418887E+00 1.0712381E+00 1.9339082E+00
 6.0202650E+00 1.0481036E+00 1.9384994E+00
 6.0985181E+00 1.0244320E+00 1.9421793E+00
 6.1766096E+00 9.9999987E-01 1.9447402E+00
 6.2544980E+00 9.7470737E-01 1.9459984E+00
 6.3321079E+00 9.4853468E-01 1.9458037E+00
 6.4093086E+00 9.2149333E-01 1.9440363E+00
 6.4859063E+00 8.9359207E-01 1.9405959E+00
 6.5616536E+00 8.6482156E-01 1.9353822E+00
 6.6362815E+00 8.3515795E-01 1.9282770E+00
 6.7095576E+00 8.0458655E-01 1.9191290E+00
 6.7813656E+00 7.7314196E-01 1.9077486E+00
 6.8517614E+00 7.4094785E-01 1.8939108E+00
 5.9421160E+00 1.0237999E+00 1.9363298E+00
 6.0204806E+00 9.9999988E-01 1.9397404E+00
 6.0985181E+00 9.7556780E-01 1.9421793E+00
 6.1761933E+00 9.5034896E-01 1.9434233E+00
 6.2534717E+00 9.2429548E-01 1.9432851E+00
 6.3302891E+00 8.9741453E-01 1.9416170E+00
 6.4065281E+00 8.6972124E-01 1.9383012E+00
 6.4820111E+00 8.4121191E-01 1.9332350E+00
 6.5565136E+00 8.1186007E-01 1.9263110E+00
 6.6298060E+00 7.8163485E-01 1.9174009E+00
 6.7017235E+00 7.5053896E-01 1.9063462E+00
 6.7722387E+00 7.1865123E-01 1.8929585E+00
 5.9421161E+00 9.7619991E-01 1.9363298E+00
 6.0202650E+00 9.5189611E-01 1.9384994E+00
 6.0978886E+00 9.2687156E-01 1.9396324E+00
 6.1749597E+00 9.0103760E-01 1.9394976E+00
 6.2514542E+00 8.7439232E-01 1.9379084E+00
 6.3273177E+00 8.4696138E-01 1.9347194E+00
 6.4024398E+00 8.1875501E-01 1.9298115E+00
 6.4766479E+00 7.8975266E-01 1.9230749E+00
 6.5497292E+00 7.5991530E-01 1.9143906E+00
 6.6214916E+00 7.2922103E-01 1.9036213E+00
 6.6918441E+00 6.9771058E-01 1.8906084E+00
 5.9418888E+00 9.2876165E-01 1.9339082E+00
 6.0196269E+00 9.0411985E-01 1.9348003E+00
 6.0966536E+00 8.7867104E-01 1.9345876E+00
 6.1729516E+00 8.5238675E-01 1.9330360E+00
 6.2485032E+00 8.2530214E-01 1.9299617E+00
 6.3232522E+00 7.9745179E-01 1.9252195E+00
 6.3970754E+00 7.6883504E-01 1.9186842E+00
 6.4697849E+00 7.3941743E-01 1.9102339E+00
 6.5411743E+00 7.0916324E-01 1.8997392E+00
 6.6111069E+00 6.7808403E-01 1.8870611E+00
 5.9414435E+00 8.8180234E-01 1.9291117E+00
 6.0185913E+00 8.5698478E-01 1.9287139E+00
 6.0948572E+00 8.3127004E-01 1.9271381E+00
 6.1702264E+00 8.0468042E-01 1.9241511E+00
 6.2446699E+00 7.7727754E-01 1.9195704E+00
 6.3181016E+00 7.4909740E-01 1.9132470E+00
 6.3903563E+00 7.2012989E-01 1.9050451E+00
 6.4612214E+00 6.9034257E-01 1.8948321E+00
 6.5305273E+00 6.5973108E-01 1.8824763E+00
 5.9407980E+00 8.3562144E-01 1.9220307E+00
 6.0171964E+00 8.1077777E-01 1.9203519E+00
 6.0925510E+00 7.8493296E-01 1.9174134E+00
 6.1668250E+00 7.5814784E-01 1.9129820E+00
 6.2399400E+00 7.3050113E-01 1.9068733E+00
 6.3117400E+00 7.0203127E-01 1.8989309E+00
 6.3820061E+00 6.7273549E-01 1.8890108E+00
 6.4505439E+00 6.4261447E-01 1.8769798E+00
 5.9399758E+00 7.9049051E-01 1.9127938E+00
 6.0154826E+00 7.6574698E-01 1.9098589E+00
 6.0897654E+00 7.3986937E-01 1.9055650E+00
 6.1627137E+00 7.1294594E-01 1.8996748E+00
 6.2341462E+00 6.8507302E-01 1.8919996E+00
 6.3038194E+00 6.5631007E-01 1.8823795E+00
 6.3715183E+00 6.2669754E-01 1.8706765E+00
 5.9389994E+00 7.4664496E-01 1.9015598E+00
 6.0134696E+00 7.2209021E-01 1.8973996E+00
 6.0864558E+00 6.9621866E-01 1.8917477E+00
 6.1576944E+00 6.6914456E-01 1.8843578E+00
 6.2268739E+00 6.4100886E-01 1.8750448E+00
 6.2937394E+00 6.1193659E-01 1.8636673E+00
 5.9378756E+00 7.0427782E-01 1.8885083E+00
 6.0111130E+00 6.7994061E-01 1.8831417E+00
 6.0824196E+00 6.5403374E-01 1.8760936E+00
 6.1513152E+00 6.2672686E-01 1.8671158E+00
 6.2174330E+00 5.9826990E-01 1.8560591E+00
 5.9365720E+00 6.6353437E-01 1.8738275E+00
 6.0082418E+00 6.3935337E-01 1.8672334E+00
 6.0771817E+00 6.1326216E-01 1.8586773E+00
 6.1427772E+00 5.8559874E-01 1.8479652E+00
 5.9349800E+00 6.2449578E-01 1.8576963E+00
 6.0044677E+00 6.0029273E-01 1.8497734E+00
 6.0699101E+00 5.7377979E-01 1.8395014E+00
 5.9328771E+00 5.8716684E-01 1.8402650E+00
 5.9988340E+00 5.6255308E-01 1.8307275E+00
 5.9297900E+00 5.5155725E-01 1.8216738E+00
 5.8242720E+00 1.5134306E+00 1.7775403E+00
 5.7829506E+00 1.5380427E+00 1.7587876E+00
 5.7398563E+00 1.5630775E+00 1.7384810E+00
 5.6952475E+00 1.5883356E+00 1.7166919E+00
 5.6492486E+00 1.6137423E+00 1.6934232E+00
 5.6020827E+00 1.6392336E+00 1.6686714E+00
 5.5539753E+00 1.6647552E+00 1.6424179E+00
 5.5051849E+00 1.6902346E+00 1.6146481E+00
 5.4560130E+00 1.7155794E+00 1.5853469E+00
 5.4068027E+00 1.7406698E+00 1.5545003E+00
 5.3579327E+00 1.7653538E+00 1.5220979E+00
 5.3098037E+00 1.7894439E+00 1.4881378E+00
 5.2628187E+00 1.8127192E+00 1.4526348E+00
 5.2173610E+00 1.8349332E+00 1.4156286E+00
 5.1737733E+00 1.8558258E+00 1.3771918E+00
 5.1323449E+00 1.8751398E+00 1.3374355E+00
 5.0933076E+00 1.8926369E+00 1.2965112E+00
 5.0568423E+00 1.9081120E+00 1.2546075E+00
 5.0230891E+00 1.9214042E+00 1.2119430E+00
 4.9921604E+00 1.9324024E+00 1.1687575E+00
 4.9641441E+00 1.9410427E+00 1.1253397E+00
 4.9390200E+00 1.9473138E+00 1.0820200E+00
 4.9167168E+00 1.9512592E+00 1.0394253E+00
 4.1779958E+00 1.0938576E+00 1.7989594E+00
 4.1688487E+00 1.1549343E+00 1.7835990E+00
 4.1629727E+00 1.2170211E+00 1.7648650E+00
 4.1612437E+00 1.2800507E+00 1.7429712E+00
 4.1641791E+00 1.3436543E+00 1.7179623E+00
 4.1721541E+00 1.4072854E+00 1.6898818E+00
 4.1854217E+00 1.4702741E+00 1.6588100E+00
 4.2041214E+00 1.5318778E+00 1.6248898E+00
 4.2282755E+00 1.5913146E+00 1.5883424E+00
 4.2577819E+00 1.6477988E+00 1.5494738E+00
 4.2924075E+00 1.7005786E+00 1.5086732E+00
 4.3317889E+00 1.7489764E+00 1.4664029E+00
 4.3754435E+00 1.7924298E+00 1.4231810E+00
 4.4227925E+00 1.8305272E+00 1.3795585E+00
 4.4731956E+00 1.8630350E+00 1.3360936E+00
 4.5259922E+00 1.8899116E+00 1.2933243E+00
 4.5805451E+00 1.9113076E+00 1.2517424E+00
 4.6362769E+00 1.9275512E+00 1.2117678E+00
 4.6926884E+00 1.9391206E+00 1.1737233E+00
 4.7493680E+00 1.9466056E+00 1.1377970E+00
 4.8059660E+00 1.9506635E+00 1.1039708E+00
 4.8620188E+00 1.9519809E+00 1.0719013E+00
 4.2314869E+00 1.1310605E+00 1.8251716E+00
 4.2257202E+00 1.1943514E+00 1.8094671E+00
 4.2230600E+00 1.2575249E+00 1.7901722E+00
 4.2244684E+00 1.3208227E+00 1.7675539E+00
 4.2305190E+00 1.3840296E+00 1.7417126E+00
 4.2415711E+00 1.4466690E+00 1.7127224E+00
 4.2578197E+00 1.5081060E+00 1.6806871E+00
 4.2793212E+00 1.5676168E+00 1.6457756E+00
 4.3060061E+00 1.6244451E+00 1.6082407E+00
 4.3376823E+00 1.6778485E+00 1.5684254E+00
 4.3740376E+00 1.7271434E+00 1.5267579E+00
 4.4146493E+00 1.7717474E+00 1.4837369E+00
 4.4590040E+00 1.8112179E+00 1.4399101E+00
 4.5065295E+00 1.8452815E+00 1.3958469E+00
 4.5566337E+00 1.8738511E+00 1.3521098E+00
 4.6087462E+00 1.8970292E+00 1.3092225E+00
 4.6623515E+00 1.9150964E+00 1.2676363E+00
 4.7170085E+00 1.9284869E+00 1.2276880E+00
 4.7723531E+00 1.9377559E+00 1.1895376E+00
 4.8280667E+00 1.9435358E+00 1.1530932E+00
 4.8838522E+00 1.9464964E+00 1.1177520E+00
 4.2896865E+00 1.1665945E+00 1.8480546E+00
 4.2870759E+00 1.2308230E+00 1.8316974E+00
 4.2875526E+00 1.2944178E+00 1.8116512E+00
 4.2920298E+00 1.3575332E+00 1.7881597E+00
 4.3010865E+00 1.4199762E+00 1.7613487E+00
 4.3150481E+00 1.4812927E+00 1.7313183E+00
 4.3340443E+00 1.5408667E+00 1.6982020E+00
 4.3580514E+00 1.5980018E+00 1.6622036E+00
 4.3869183E+00 1.6519831E+00 1.6236174E+00
 4.4203795E+00 1.7021324E+00 1.5828309E+00
 4.4580674E+00 1.7478552E+00 1.5403150E+00
 4.4995307E+00 1.7886828E+00 1.4966043E+00
 4.5442628E+00 1.8243053E+00 1.4522707E+00
 4.5917382E+00 1.8545922E+00 1.4078920E+00
 4.6414502E+00 1.8795991E+00 1.3640174E+00
 4.6929412E+00 1.8995597E+00 1.3211270E+00
 4.7458147E+00 1.9148658E+00 1.2795807E+00
 4.7997259E+00 1.9260378E+00 1.2395540E+00
 4.8543617E+00 1.9336881E+00 1.2009336E+00
 4.9093785E+00 1.9384711E+00 1.1632178E+00
 4.3521817E+00 1.2005656E+00 1.8670101E+00
 4.3525426E+00 1.2648489E+00 1.8497642E+00
 4.3560106E+00 1.3281728E+00 1.8287833E+00
 4.3634262E+00 1.3905693E+00 1.8042790E+00
 4.3753249E+00 1.4517937E+00 1.7763854E+00
 4.3919763E+00 1.5113831E+00 1.7452279E+00
 4.4134396E+00 1.5687362E+00 1.7109760E+00
 4.4396181E+00 1.6231923E+00 1.6738777E+00
 4.4702944E+00 1.6740965E+00 1.6342756E+00
 4.5051539E+00 1.7208550E+00 1.5926043E+00
 4.5438053E+00 1.7629819E+00 1.5493753E+00
 4.5858063E+00 1.8001361E+00 1.5051519E+00
 4.6306963E+00 1.8321464E+00 1.4605176E+00
 4.6780293E+00 1.8590214E+00 1.4160389E+00
 4.7273978E+00 1.8809465E+00 1.3722222E+00
 4.7784389E+00 1.8982676E+00 1.3294601E+00
 4.8308182E+00 1.9114681E+00 1.2879600E+00
 4.8841966E+00 1.9211331E+00 1.2476658E+00
 4.9381755E+00 1.9279021E+00 1.2081841E+00
 4.4185643E+00 1.2327794E+00 1.8816144E+00
 4.4216938E+00 1.2964564E+00 1.8632822E+00
 4.4279690E+00 1.3589147E+00 1.8412120E+00