# TIME = 0.000000
VARIABLES = X, Y, Z, FX, FY, FZ
ZONE N=29232 E=58212 F=FEPOINT ET=TRIANGLE
  0.000E+00  9.502E-01  1.243E-03 3.5840235E+00 7.3560983E-02 1.4795203E+00
  0.000E+00  1.000E+00  0.000E+00 3.5826653E+00 -8.7628142E-07 1.4814074E+00
  4.318E-02  9.751E-01  3.108E-04 3.5824201E+00 3.6779806E-02 1.4810485E+00
  0.000E+00  1.050E+00  1.243E-03 3.5840232E+00 -7.3562741E-02 1.4795202E+00
  4.318E-02  1.025E+00  3.108E-04 3.5824200E+00 -3.6781871E-02 1.4810485E+00
  0.000E+00  1.100E+00  4.969E-03 3.5894378E+00 -1.4719406E-01 1.4740094E+00
  4.318E-02  1.075E+00  2.796E-03 3.5857680E+00 -1.1037528E-01 1.4773212E+00
  0.000E+00  1.149E+00  1.117E-02 3.6014477E+00 -2.2090501E-01 1.4651207E+00
  4.318E-02  1.124E+00  7.761E-03 3.5946595E+00 -1.8406717E-01 1.4701007E+00
  0.000E+00  1.198E+00  1.983E-02 3.6194526E+00 -2.9421537E-01 1.4526912E+00
  4.318E-02  1.174E+00  1.519E-02 3.6104237E+00 -2.5768541E-01 1.4594943E+00
  0.000E+00  1.247E+00  3.092E-02 3.6359517E+00 -3.6615888E-01 1.4361565E+00
  4.318E-02  1.223E+00  2.507E-02 3.6288626E+00 -3.3044037E-01 1.4450883E+00
  0.000E+00  1.295E+00  4.443E-02 3.6421465E+00 -4.3650222E-01 1.4155617E+00
  4.318E-02  1.271E+00  3.738E-02 3.6402700E+00 -4.0151080E-01 1.4264233E+00
  0.000E+00  1.342E+00  6.031E-02 3.6525335E+00 -5.0626405E-01 1.3919170E+00
  4.318E-02  1.318E+00  5.207E-02 3.6422341E+00 -4.7143015E-01 1.4041770E+00
  0.000E+00  1.388E+00  7.852E-02 3.6874064E+00 -5.7555499E-01 1.3653821E+00
  4.318E-02  1.365E+00  6.913E-02 3.6715147E+00 -5.4110556E-01 1.3791951E+00
  0.000E+00  1.434E+00  9.903E-02 3.6946584E+00 -6.4296815E-01 1.3349761E+00
  4.318E-02  1.411E+00  8.849E-02 3.6977937E+00 -6.0958693E-01 1.3507816E+00
  0.000E+00  1.478E+00  1.218E-01 3.7120750E+00 -7.0852595E-01 1.3011204E+00
  4.318E-02  1.456E+00  1.101E-01 3.6934747E+00 -6.7598512E-01 1.3185263E+00
  0.000E+00  1.521E+00  1.467E-01 3.7385622E+00 -7.7256917E-01 1.2642647E+00
  4.318E-02  1.500E+00  1.340E-01 3.7288415E+00 -7.4082234E-01 1.2831876E+00
  0.000E+00  1.563E+00  1.738E-01 3.7337642E+00 -8.3463306E-01 1.2241764E+00
  4.318E-02  1.543E+00  1.600E-01 3.7268183E+00 -8.0393125E-01 1.2447208E+00
  0.000E+00  1.604E+00  2.029E-01 3.7555860E+00 -8.9460329E-01 1.1810410E+00
  4.318E-02  1.584E+00  1.881E-01 3.7593943E+00 -8.6494857E-01 1.2030701E+00
  0.000E+00  1.643E+00  2.340E-01 3.7628873E+00 -9.5237249E-01 1.1349941E+00
  4.318E-02  1.623E+00  2.182E-01 3.7485376E+00 -9.2385281E-01 1.1584737E+00
  0.000E+00  1.680E+00  2.669E-01 3.7641387E+00 -1.0077600E+00 1.0861107E+00
  4.318E-02  1.662E+00  2.502E-01 3.7657596E+00 -9.8044977E-01 1.1109872E+00
  0.000E+00  1.716E+00  3.018E-01 3.7653409E+00 -1.0606474E+00 1.0345291E+00
  4.318E-02  1.698E+00  2.841E-01 3.7653577E+00 -1.0346092E+00 1.0607353E+00
  0.000E+00  1.750E+00  3.383E-01 3.7657426E+00 -1.1108990E+00 9.8037719E-01
  4.318E-02  1.733E+00  3.198E-01 3.7641554E+00 -1.0861984E+00 1.0078468E+00
  0.000E+00  1.782E+00  3.765E-01 3.7485206E+00 -1.1583861E+00 9.2378780E-01
  4.318E-02  1.766E+00  3.572E-01 3.7629038E+00 -1.1350897E+00 9.5245773E-01
  0.000E+00  1.812E+00  4.163E-01 3.7593775E+00 -1.2029839E+00 8.6489108E-01
  4.318E-02  1.797E+00  3.962E-01 3.7556022E+00 -1.1811443E+00 8.9468626E-01
  0.000E+00  1.840E+00  4.575E-01 3.7268018E+00 -1.2446357E+00 8.0388048E-01
  4.318E-02  1.826E+00  4.367E-01 3.7337795E+00 -1.2242873E+00 8.3471302E-01
  0.000E+00  1.866E+00  5.000E-01 3.7288250E+00 -1.2831031E+00 7.4077754E-01
  4.318E-02  1.853E+00  4.786E-01 3.7385762E+00 -1.2643824E+00 7.7264532E-01
  0.000E+00  1.890E+00  5.438E-01 3.6934578E+00 -1.3184432E+00 6.7594583E-01
  4.318E-02  1.878E+00  5.217E-01 3.7120885E+00 -1.3012460E+00 7.0859797E-01
  0.000E+00  1.912E+00  5.887E-01 3.6977760E+00 -1.3507002E+00 6.0955321E-01
  4.318E-02  1.901E+00  5.661E-01 3.6946720E+00 -1.3351098E+00 6.4303557E-01
  0.000E+00  1.931E+00  6.347E-01 3.6714959E+00 -1.3791157E+00 5.4107695E-01
  4.318E-02  1.921E+00  6.116E-01 3.6874203E+00 -1.3655229E+00 5.7561712E-01
  0.000E+00  1.948E+00  6.815E-01 3.6422139E+00 -1.4040993E+00 4.7140612E-01
  4.318E-02  1.940E+00  6.580E-01 3.6525478E+00 -1.3920643E+00 5.0631989E-01
  0.000E+00  1.963E+00  7.292E-01 3.6402483E+00 -1.4263468E+00 4.0149089E-01
  4.318E-02  1.956E+00  7.052E-01 3.6421608E+00 -1.4157138E+00 4.3655076E-01
  0.000E+00  1.975E+00  7.775E-01 3.6288392E+00 -1.4450128E+00 3.3042421E-01
  4.318E-02  1.969E+00  7.532E-01 3.6359660E+00 -1.4363124E+00 3.6619937E-01
  0.000E+00  1.985E+00  8.264E-01 3.6103984E+00 -1.4594198E+00 2.5767267E-01
  4.318E-02  1.980E+00  8.019E-01 3.6194673E+00 -1.4528510E+00 2.9424741E-01
  0.000E+00  1.992E+00  8.757E-01 3.5946325E+00 -1.4700261E+00 1.8405744E-01
  4.318E-02  1.989E+00  8.510E-01 3.6014632E+00 -1.4652842E+00 2.2092864E-01
  0.000E+00  1.997E+00  9.253E-01 3.5857409E+00 -1.4772450E+00 1.1036833E-01
  4.318E-02  1.995E+00  9.004E-01 3.5894537E+00 -1.4741765E+00 1.4720960E-01
  0.000E+00  2.000E+00  9.751E-01 3.5823955E+00 -1.4809705E+00 3.6777946E-02
  4.318E-02  1.999E+00  9.502E-01 3.5840378E+00 -1.4796903E+00 7.3570027E-02
  0.000E+00  2.000E+00  1.025E+00 3.5824000E+00 -1.4809703E+00 -3.6780480E-02
  4.318E-02  2.000E+00  1.000E+00 3.5826767E+00 -1.4815788E+00 -8.6714754E-07
  0.000E+00  1.997E+00  1.075E+00 3.5857509E+00 -1.4772447E+00 -1.1037086E-01
  4.318E-02  1.999E+00  1.050E+00 3.5840317E+00 -1.4796902E+00 -7.3572113E-02
  0.000E+00  1.992E+00  1.124E+00 3.5946422E+00 -1.4700256E+00 -1.8405996E-01
  4.318E-02  1.995E+00  1.100E+00 3.5894451E+00 -1.4741762E+00 -1.4721233E-01
  0.000E+00  1.985E+00  1.174E+00 3.6104046E+00 -1.4594193E+00 -2.5767517E-01
  4.318E-02  1.989E+00  1.149E+00 3.6014553E+00 -1.4652837E+00 -2.2093171E-01
  0.000E+00  1.975E+00  1.223E+00 3.6288418E+00 -1.4450124E+00 -3.3042669E-01
  4.318E-02  1.980E+00  1.198E+00 3.6194609E+00 -1.4528505E+00 -2.9425048E-01
  0.000E+00  1.963E+00  1.271E+00 3.6402479E+00 -1.4263460E+00 -4.0149335E-01
  4.318E-02  1.969E+00  1.247E+00 3.6359609E+00 -1.4363118E+00 -3.6620234E-01
  0.000E+00  1.948E+00  1.318E+00 3.6422112E+00 -1.4040979E+00 -4.7140853E-01
  4.318E-02  1.956E+00  1.295E+00 3.6421565E+00 -1.4157126E+00 -4.3655362E-01
  0.000E+00  1.931E+00  1.365E+00 3.6714913E+00 -1.3791148E+00 -5.4107933E-01
  4.318E-02  1.940E+00  1.342E+00 3.6525440E+00 -1.3920629E+00 -5.0632266E-01
  0.000E+00  1.912E+00  1.411E+00 3.6977699E+00 -1.3506993E+00 -6.0955554E-01
  4.318E-02  1.921E+00  1.388E+00 3.6874169E+00 -1.3655221E+00 -5.7561982E-01
  0.000E+00  1.890E+00  1.456E+00 3.6934505E+00 -1.3184415E+00 -6.7594809E-01
  4.318E-02  1.901E+00  1.434E+00 3.6946686E+00 -1.3351082E+00 -6.4303816E-01
  0.000E+00  1.866E+00  1.500E+00 3.7288172E+00 -1.2831019E+00 -7.4077976E-01
  4.318E-02  1.878E+00  1.478E+00 3.7120849E+00 -1.3012444E+00 -7.0860045E-01
  0.000E+00  1.840E+00  1.543E+00 3.7267938E+00 -1.2446342E+00 -8.0388262E-01
  4.318E-02  1.853E+00  1.521E+00 3.7385722E+00 -1.2643811E+00 -7.7264770E-01
  0.000E+00  1.812E+00  1.584E+00 3.7593695E+00 -1.2029823E+00 -8.6489316E-01
  4.318E-02  1.826E+00  1.563E+00 3.7337748E+00 -1.2242855E+00 -8.3471531E-01
  0.000E+00  1.782E+00  1.623E+00 3.7485128E+00 -1.1583844E+00 -9.2378980E-01
  4.318E-02  1.797E+00  1.604E+00 3.7555968E+00 -1.1811427E+00 -8.9468847E-01
  0.000E+00  1.750E+00  1.662E+00 3.7657351E+00 -1.1108972E+00 -9.8037911E-01
  4.318E-02  1.766E+00  1.643E+00 3.7628976E+00 -1.1350878E+00 -9.5245984E-01
  0.000E+00  1.716E+00  1.698E+00 3.7653337E+00 -1.0606456E+00 -1.0345309E+00
  4.318E-02  1.733E+00  1.680E+00 3.7641484E+00 -1.0861965E+00 -1.0078489E+00
  0.000E+00  1.680E+00  1.733E+00 3.7641319E+00 -1.0077581E+00 -1.0861124E+00
  4.318E-02  1.698E+00  1.716E+00 3.7653499E+00 -1.0346072E+00 -1.0607372E+00
  0.000E+00  1.643E+00  1.766E+00 3.7628807E+00 -9.5237049E-01 -1.1349958E+00
  4.318E-02  1.662E+00  1.750E+00 3.7657511E+00 -9.8044770E-01 -1.1109891E+00
  0.000E+00  1.604E+00  1.797E+00 3.7555790E+00 -8.9460122E-01 -1.1810425E+00
  4.318E-02  1.623E+00  1.782E+00 3.7485286E+00 -9.2385058E-01 -1.1584755E+00
  0.000E+00  1.563E+00  1.826E+00 3.7337557E+00 -8.3463092E-01 -1.2241779E+00
  4.318E-02  1.584E+00  1.812E+00 3.7593854E+00 -8.6494619E-01 -1.2030719E+00
  0.000E+00  1.521E+00  1.853E+00 3.7385518E+00 -7.7256698E-01 -1.2642660E+00
  4.318E-02  1.543E+00  1.840E+00 3.7268102E+00 -8.0392873E-01 -1.2447224E+00
  0.000E+00  1.478E+00  1.878E+00 3.7120636E+00 -7.0852372E-01 -1.3011216E+00
  4.318E-02  1.500E+00  1.866E+00 3.7288341E+00 -7.4081986E-01 -1.2831891E+00
  0.000E+00  1.434E+00  1.901E+00 3.6946469E+00 -6.4296588E-01 -1.3349772E+00
  4.318E-02  1.456E+00  1.890E+00 3.6934672E+00 -6.7598264E-01 -1.3185276E+00
  0.000E+00  1.388E+00  1.921E+00 3.6873949E+00 -5.7555271E-01 -1.3653831E+00
  4.318E-02  1.411E+00  1.912E+00 3.6977859E+00 -6.0958441E-01 -1.3507828E+00
  0.000E+00  1.342E+00  1.940E+00 3.6525218E+00 -5.0626171E-01 -1.3919178E+00
  4.318E-02  1.365E+00  1.931E+00 3.6715067E+00 -5.4110298E-01 -1.3791962E+00
  0.000E+00  1.295E+00  1.956E+00 3.6421345E+00 -4.3649966E-01 -1.4155623E+00
  4.318E-02  1.318E+00  1.948E+00 3.6422260E+00 -4.7142759E-01 -1.4041779E+00
  0.000E+00  1.247E+00  1.969E+00 3.6359392E+00 -3.6615585E-01 -1.4361569E+00
  4.318E-02  1.271E+00  1.963E+00 3.6402619E+00 -4.0150841E-01 -1.4264242E+00
  0.000E+00  1.198E+00  1.980E+00 3.6194394E+00 -2.9421190E-01 -1.4526913E+00
  4.318E-02  1.223E+00  1.975E+00 3.6288548E+00 -3.3043826E-01 -1.4450891E+00
  0.000E+00  1.149E+00  1.989E+00 3.6014341E+00 -2.2090171E-01 -1.4651206E+00
  4.318E-02  1.174E+00  1.985E+00 3.6104163E+00 -2.5768343E-01 -1.4594950E+00
  0.000E+00  1.100E+00  1.995E+00 3.5894239E+00 -1.4719163E-01 -1.4740092E+00
  4.318E-02  1.124E+00  1.992E+00 3.5946524E+00 -1.8406482E-01 -1.4701013E+00
  0.000E+00  1.050E+00  1.999E+00 3.5840091E+00 -7.3560863E-02 -1.4795199E+00
  4.318E-02  1.075E+00  1.997E+00 3.5857609E+00 -1.1037239E-01 -1.4773216E+00
  0.000E+00  1.000E+00  2.000E+00 3.5826511E+00 1.4886860E-06 -1.4814070E+00
  4.318E-02  1.025E+00  2.000E+00 3.5824127E+00 -3.6779004E-02 -1.4810487E+00
  0.000E+00  9.502E-01  1.999E+00 3.5840094E+00 7.3563841E-02 -1.4795198E+00
  4.318E-02  9.751E-01  2.000E+00 3.5824129E+00 3.6782222E-02 -1.4810486E+00
  0.000E+00  9.004E-01  1.995E+00 3.5894245E+00 1.4719460E-01 -1.4740090E+00
  4.318E-02  9.253E-01  1.997E+00 3.5857614E+00 1.1037559E-01 -1.4773214E+00
  0.000E+00  8.510E-01  1.989E+00 3.6014350E+00 2.2090466E-01 -1.4651202E+00
  4.318E-02  8.757E-01  1.992E+00 3.5946532E+00 1.8406799E-01 -1.4701009E+00
  0.000E+00  8.019E-01  1.980E+00 3.6194408E+00 2.9421480E-01 -1.4526908E+00
  4.318E-02  8.264E-01  1.985E+00 3.6104174E+00 2.5768656E-01 -1.4594945E+00
  0.000E+00  7.532E-01  1.969E+00 3.6359409E+00 3.6615870E-01 -1.4361562E+00
  4.318E-02  7.775E-01  1.975E+00 3.6288562E+00 3.3044134E-01 -1.4450884E+00
  0.000E+00  7.052E-01  1.956E+00 3.6421365E+00 4.3650246E-01 -1.4155615E+00
  4.318E-02  7.292E-01  1.963E+00 3.6402637E+00 4.0151143E-01 -1.4264233E+00
  0.000E+00  6.580E-01  1.940E+00 3.6525241E+00 5.0626444E-01 -1.3919169E+00
  4.318E-02  6.815E-01  1.948E+00 3.6422280E+00 4.7143054E-01 -1.4041769E+00
  0.000E+00  6.116E-01  1.921E+00 3.6873975E+00 5.7555536E-01 -1.3653821E+00
  4.318E-02  6.347E-01  1.931E+00 3.6715090E+00 5.4110584E-01 -1.3791950E+00
  0.000E+00  5.661E-01  1.901E+00 3.6946498E+00 6.4296846E-01 -1.3349761E+00
  4.318E-02  5.887E-01  1.912E+00 3.6977885E+00 6.0958717E-01 -1.3507815E+00
  0.000E+00  5.217E-01  1.878E+00 3.7120667E+00 7.0852620E-01 -1.3011204E+00
  4.318E-02  5.438E-01  1.890E+00 3.6934701E+00 6.7598530E-01 -1.3185262E+00
  0.000E+00  4.786E-01  1.853E+00 3.7385552E+00 7.7256936E-01 -1.2642647E+00
  4.318E-02  5.000E-01  1.866E+00 3.7288372E+00 7.4082237E-01 -1.2831875E+00
  0.000E+00  4.367E-01  1.826E+00 3.7337593E+00 8.3463320E-01 -1.2241764E+00
  4.318E-02  4.575E-01  1.840E+00 3.7268136E+00 8.0393115E-01 -1.2447207E+00
  0.000E+00  3.962E-01  1.797E+00 3.7555829E+00 8.9460338E-01 -1.1810410E+00
  4.318E-02  4.163E-01  1.812E+00 3.7593891E+00 8.6494844E-01 -1.2030701E+00
  0.000E+00  3.572E-01  1.766E+00 3.7628848E+00 9.5237252E-01 -1.1349941E+00
  4.318E-02  3.765E-01  1.782E+00 3.7485324E+00 9.2385272E-01 -1.1584736E+00
  0.000E+00  3.198E-01  1.733E+00 3.7641363E+00 1.0077600E+00 -1.0861106E+00
  4.318E-02  3.383E-01  1.750E+00 3.7657552E+00 9.8044965E-01 -1.1109871E+00
  0.000E+00  2.841E-01  1.698E+00 3.7653383E+00 1.0606473E+00 -1.0345290E+00
  4.318E-02  3.018E-01  1.716E+00 3.7653542E+00 1.0346090E+00 -1.0607351E+00
  0.000E+00  2.502E-01  1.662E+00 3.7657399E+00 1.1108989E+00 -9.8037720E-01
  4.318E-02  2.669E-01  1.680E+00 3.7641529E+00 1.0861981E+00 -1.0078467E+00
  0.000E+00  2.182E-01  1.623E+00 3.7485177E+00 1.1583859E+00 -9.2378781E-01
  4.318E-02  2.340E-01  1.643E+00 3.7629022E+00 1.1350894E+00 -9.5245757E-01
  0.000E+00  1.881E-01  1.584E+00 3.7593746E+00 1.2029837E+00 -8.6489110E-01
  4.318E-02  2.029E-01  1.604E+00 3.7556016E+00 1.1811439E+00 -8.9468611E-01
  0.000E+00  1.600E-01  1.543E+00 3.7267991E+00 1.2446354E+00 -8.0388050E-01
  4.318E-02  1.738E-01  1.563E+00 3.7337798E+00 1.2242868E+00 -8.3471289E-01
  0.000E+00  1.340E-01  1.500E+00 3.7288226E+00 1.2831028E+00 -7.4077757E-01
  4.318E-02  1.467E-01  1.521E+00 3.7385773E+00 1.2643818E+00 -7.7264521E-01
  0.000E+00  1.101E-01  1.456E+00 3.6934560E+00 1.3184429E+00 -6.7594586E-01
  4.318E-02  1.218E-01  1.478E+00 3.7120902E+00 1.3012454E+00 -7.0859790E-01
  0.000E+00  8.849E-02  1.411E+00 3.6977754E+00 1.3506999E+00 -6.0955325E-01
  4.318E-02  9.903E-02  1.434E+00 3.6946740E+00 1.3351091E+00 -6.4303557E-01
  0.000E+00  6.913E-02  1.365E+00 3.6714970E+00 1.3791153E+00 -5.4107699E-01
  4.318E-02  7.852E-02  1.388E+00 3.6874223E+00 1.3655222E+00 -5.7561717E-01
  0.000E+00  5.207E-02  1.318E+00 3.6422170E+00 1.4040989E+00 -4.7140616E-01
  4.318E-02  6.031E-02  1.342E+00 3.6525495E+00 1.3920635E+00 -5.0631998E-01
  0.000E+00  3.738E-02  1.271E+00 3.6402537E+00 1.4263463E+00 -4.0149094E-01
  4.318E-02  4.443E-02  1.295E+00 3.6421621E+00 1.4157130E+00 -4.3655091E-01
  0.000E+00  2.507E-02  1.223E+00 3.6288477E+00 1.4450124E+00 -3.3042425E-01
  4.318E-02  3.092E-02  1.247E+00 3.6359665E+00 1.4363115E+00 -3.6619960E-01
  0.000E+00  1.519E-02  1.174E+00 3.6104105E+00 1.4594194E+00 -2.5767270E-01
  4.318E-02  1.983E-02  1.198E+00 3.6194666E+00 1.4528501E+00 -2.9424772E-01
  0.000E+00  7.761E-03  1.124E+00 3.5946482E+00 1.4700257E+00 -1.8405747E-01
  4.318E-02  1.117E-02  1.149E+00 3.6014610E+00 1.4652834E+00 -2.2092893E-01
  0.000E+00  2.796E-03  1.075E+00 3.5857569E+00 1.4772446E+00 -1.1036835E-01
  4.318E-02  4.969E-03  1.100E+00 3.5894508E+00 1.4741758E+00 -1.4720954E-01
  0.000E+00  3.108E-04  1.025E+00 3.5824059E+00 1.4809700E+00 -3.6777957E-02
  4.318E-02  1.243E-03  1.050E+00 3.5840374E+00 1.4796895E+00 -7.3569321E-02
  0.000E+00  3.108E-04  9.751E-01 3.5824014E+00 1.4809699E+00 3.6780476E-02
  4.318E-02  0.000E+00  1.000E+00 3.5826824E+00 1.4815779E+00 1.9229818E-06
  0.000E+00  2.796E-03  9.253E-01 3.5857468E+00 1.4772443E+00 1.1037086E-01
  4.318E-02  1.243E-03  9.502E-01 3.5840435E+00 1.4796892E+00 7.3572810E-02
  0.000E+00  7.761E-03  8.757E-01 3.5946384E+00 1.4700253E+00 1.8405996E-01
  4.318E-02  4.969E-03  9.004E-01 3.5894594E+00 1.4741753E+00 1.4721237E-01
  0.000E+00  1.519E-02  8.264E-01 3.6104043E+00 1.4594190E+00 2.5767519E-01
  4.318E-02  1.117E-02  8.510E-01 3.6014688E+00 1.4652829E+00 2.2093139E-01
  0.000E+00  2.507E-02  7.775E-01 3.6288450E+00 1.4450121E+00 3.3042671E-01
  4.318E-02  1.983E-02  8.019E-01 3.6194729E+00 1.4528497E+00 2.9425014E-01
  0.000E+00  3.738E-02  7.292E-01 3.6402540E+00 1.4263458E+00 4.0149337E-01
  4.318E-02  3.092E-02  7.532E-01 3.6359716E+00 1.4363112E+00 3.6620206E-01
  0.000E+00  5.207E-02  6.815E-01 3.6422195E+00 1.4040977E+00 4.7140857E-01
  4.318E-02  4.443E-02  7.052E-01 3.6421663E+00 1.4157120E+00 4.3655341E-01
  0.000E+00  6.913E-02  6.347E-01 3.6715014E+00 1.3791146E+00 5.4107937E-01
  4.318E-02  6.031E-02  6.580E-01 3.6525532E+00 1.3920624E+00 5.0632249E-01
  0.000E+00  8.849E-02  5.887E-01 3.6977814E+00 1.3506992E+00 6.0955559E-01
  4.318E-02  7.852E-02  6.116E-01 3.6874256E+00 1.3655216E+00 5.7561968E-01
  0.000E+00  1.101E-01  5.438E-01 3.6934631E+00 1.3184414E+00 6.7594815E-01
  4.318E-02  9.903E-02  5.661E-01 3.6946772E+00 1.3351078E+00 6.4303807E-01
  0.000E+00  1.340E-01  5.000E-01 3.7288302E+00 1.2831019E+00 7.4077982E-01
  4.318E-02  1.218E-01  5.217E-01 3.7120935E+00 1.3012440E+00 7.0860041E-01
  0.000E+00  1.600E-01  4.575E-01 3.7268069E+00 1.2446342E+00 8.0388268E-01
  4.318E-02  1.467E-01  4.786E-01 3.7385812E+00 1.2643807E+00 7.7264769E-01
  0.000E+00  1.881E-01  4.163E-01 3.7593824E+00 1.2029824E+00 8.6489323E-01
  4.318E-02  1.738E-01  4.367E-01 3.7337843E+00 1.2242852E+00 8.3471530E-01
  0.000E+00  2.182E-01  3.765E-01 3.7485254E+00 1.1583846E+00 9.2378987E-01
  4.318E-02  2.029E-01  3.962E-01 3.7556068E+00 1.1811424E+00 8.9468847E-01
  0.000E+00  2.502E-01  3.383E-01 3.7657472E+00 1.1108974E+00 9.8037918E-01
  4.318E-02  2.340E-01  3.572E-01 3.7629083E+00 1.1350876E+00 9.5245984E-01
  0.000E+00  2.841E-01  3.018E-01 3.7653452E+00 1.0606458E+00 1.0345310E+00
  4.318E-02  2.669E-01  3.198E-01 3.7641597E+00 1.0861964E+00 1.0078489E+00
  0.000E+00  3.198E-01  2.669E-01 3.7641429E+00 1.0077584E+00 1.0861125E+00
  4.318E-02  3.018E-01  2.841E-01 3.7653619E+00 1.0346071E+00 1.0607372E+00
  0.000E+00  3.572E-01  2.340E-01 3.7628912E+00 9.5237080E-01 1.1349958E+00
  4.318E-02  3.383E-01  2.502E-01 3.7657635E+00 9.8044769E-01 1.1109890E+00
  0.000E+00  3.962E-01  2.029E-01 3.7555898E+00 8.9460157E-01 1.1810426E+00
  4.318E-02  3.765E-01  2.182E-01 3.7485413E+00 9.2385070E-01 1.1584754E+00
  0.000E+00  4.367E-01  1.738E-01 3.7337677E+00 8.3463132E-01 1.2241779E+00
  4.318E-02  4.163E-01  1.881E-01 3.7593977E+00 8.6494647E-01 1.2030717E+00
  0.000E+00  4.786E-01  1.467E-01 3.7385654E+00 7.7256742E-01 1.2642661E+00
  4.318E-02  4.575E-01  1.600E-01 3.7268215E+00 8.0392912E-01 1.2447223E+00
  0.000E+00  5.217E-01  1.218E-01 3.7120780E+00 7.0852420E-01 1.3011217E+00
  4.318E-02  5.000E-01  1.340E-01 3.7288445E+00 7.4082025E-01 1.2831890E+00
  0.000E+00  5.661E-01  9.903E-02 3.6946611E+00 6.4296638E-01 1.3349773E+00
  4.318E-02  5.438E-01  1.101E-01 3.6934775E+00 6.7598299E-01 1.3185275E+00
  0.000E+00  6.116E-01  7.852E-02 3.6874088E+00 5.7555323E-01 1.3653832E+00
  4.318E-02  5.887E-01  8.849E-02 3.6977962E+00 6.0958483E-01 1.3507828E+00
  0.000E+00  6.580E-01  6.031E-02 3.6525357E+00 5.0626228E-01 1.3919179E+00
  4.318E-02  6.347E-01  6.913E-02 3.6715169E+00 5.4110346E-01 1.3791961E+00
  0.000E+00  7.052E-01  4.443E-02 3.6421484E+00 4.3650046E-01 1.4155625E+00
  4.318E-02  6.815E-01  5.207E-02 3.6422360E+00 4.7142806E-01 1.4041778E+00
  0.000E+00  7.532E-01  3.092E-02 3.6359533E+00 3.6615712E-01 1.4361572E+00
  4.318E-02  7.292E-01  3.738E-02 3.6402716E+00 4.0150872E-01 1.4264241E+00
  0.000E+00  8.019E-01  1.983E-02 3.6194539E+00 2.9421361E-01 1.4526918E+00
  4.318E-02  7.775E-01  2.507E-02 3.6288640E+00 3.3043829E-01 1.4450889E+00
  0.000E+00  8.510E-01  1.117E-02 3.6014487E+00 2.2090324E-01 1.4651211E+00
  4.318E-02  8.264E-01  1.519E-02 3.6104248E+00 2.5768334E-01 1.4594948E+00
  0.000E+00  9.004E-01  4.969E-03 3.5894385E+00 1.4719229E-01 1.4740097E+00
  4.318E-02  8.757E-01  7.761E-03 3.5946603E+00 1.8406511E-01 1.4701010E+00
  4.318E-02  9.253E-01  2.796E-03 3.5857685E+00 1.1037322E-01 1.4773214E+00
  1.000E+01  1.050E+00  1.243E-03 3.5840232E+00 -7.3562741E-02 1.4795202E+00
  1.000E+01  1.000E+00  5.551E-16 3.5826653E+00 -8.7628142E-07 1.4814074E+00
  9.957E+00  1.025E+00  3.108E-04 3.5824036E+00 -3.6778375E-02 1.4809241E+00
  1.000E+01  9.502E-01  1.243E-03 3.5840235E+00 7.3560983E-02 1.4795203E+00
  9.957E+00  9.751E-01  3.108E-04 3.5824038E+00 3.6776912E-02 1.4809242E+00
  1.000E+01  9.004E-01  4.969E-03 3.5894385E+00 1.4719229E-01 1.4740097E+00
  9.957E+00  9.253E-01  2.796E-03 3.5857522E+00 1.1036397E-01 1.4771973E+00
  1.000E+01  8.510E-01  1.117E-02 3.6014487E+00 2.2090324E-01 1.4651211E+00
  9.957E+00  8.757E-01  7.761E-03 3.5946440E+00 1.8404960E-01 1.4699775E+00
  1.000E+01  8.019E-01  1.983E-02 3.6194539E+00 2.9421361E-01 1.4526918E+00
  9.957E+00  8.264E-01  1.519E-02 3.6104085E+00 2.5766175E-01 1.4593722E+00
  1.000E+01  7.532E-01  3.092E-02 3.6359533E+00 3.6615712E-01 1.4361572E+00
  9.957E+00  7.775E-01  2.507E-02 3.6288479E+00 3.3041090E-01 1.4449676E+00
  1.000E+01  7.052E-01  4.443E-02 3.6421484E+00 4.3650046E-01 1.4155625E+00
  9.957E+00  7.292E-01  3.738E-02 3.6402560E+00 4.0147575E-01 1.4263045E+00
  1.000E+01  6.580E-01  6.031E-02 3.6525357E+00 5.0626228E-01 1.3919179E+00
  9.957E+00  6.815E-01  5.207E-02 3.6422207E+00 4.7138935E-01 1.4040601E+00
  1.000E+01  6.116E-01  7.852E-02 3.6874088E+00 5.7555323E-01 1.3653832E+00
  9.957E+00  6.347E-01  6.913E-02 3.6715019E+00 5.4105865E-01 1.3790802E+00
  1.000E+01  5.661E-01  9.903E-02 3.6946611E+00 6.4296638E-01 1.3349773E+00
  9.957E+00  5.887E-01  8.849E-02 3.6977814E+00 6.0953396E-01 1.3506690E+00
  1.000E+01  5.217E-01  1.218E-01 3.7120780E+00 7.0852420E-01 1.3011217E+00
  9.957E+00  5.438E-01  1.101E-01 3.6934629E+00 6.7592641E-01 1.3184165E+00
  1.000E+01  4.786E-01  1.467E-01 3.7385654E+00 7.7256742E-01 1.2642661E+00
  9.957E+00  5.000E-01  1.340E-01 3.7288303E+00 7.4075839E-01 1.2830812E+00
  1.000E+01  4.367E-01  1.738E-01 3.7337677E+00 8.3463132E-01 1.2241779E+00
  9.957E+00  4.575E-01  1.600E-01 3.7268075E+00 8.0386204E-01 1.2446180E+00
  1.000E+01  3.962E-01  2.029E-01 3.7555898E+00 8.9460157E-01 1.1810426E+00
  9.957E+00  4.163E-01  1.881E-01 3.7593836E+00 8.6487413E-01 1.2029709E+00
  1.000E+01  3.572E-01  2.340E-01 3.7628912E+00 9.5237080E-01 1.1349958E+00
  9.957E+00  3.765E-01  2.182E-01 3.7485271E+00 9.2377333E-01 1.1583781E+00
  1.000E+01  3.198E-01  2.669E-01 3.7641429E+00 1.0077584E+00 1.0861125E+00
  9.957E+00  3.383E-01  2.502E-01 3.7657491E+00 9.8036563E-01 1.1108957E+00
  1.000E+01  2.841E-01  3.018E-01 3.7653452E+00 1.0606458E+00 1.0345310E+00
  9.957E+00  3.018E-01  2.841E-01 3.7653471E+00 1.0345205E+00 1.0606481E+00
  1.000E+01  2.502E-01  3.383E-01 3.7657472E+00 1.1108974E+00 9.8037918E-01
  9.957E+00  2.669E-01  3.198E-01 3.7641447E+00 1.0861055E+00 1.0077642E+00
  1.000E+01  2.182E-01  3.765E-01 3.7485254E+00 1.1583846E+00 9.2378987E-01
  9.957E+00  2.340E-01  3.572E-01 3.7628928E+00 1.1349927E+00 9.5237987E-01
  1.000E+01  1.881E-01  4.163E-01 3.7593824E+00 1.2029824E+00 8.6489323E-01
  9.957E+00  2.029E-01  3.962E-01 3.7555908E+00 1.1810436E+00 8.9461332E-01
  1.000E+01  1.600E-01  4.575E-01 3.7268069E+00 1.2446342E+00 8.0388268E-01
  9.957E+00  1.738E-01  4.367E-01 3.7337676E+00 1.2241826E+00 8.3464491E-01
  1.000E+01  1.340E-01  5.000E-01 3.7288302E+00 1.2831019E+00 7.4077982E-01
  9.957E+00  1.467E-01  4.786E-01 3.7385638E+00 1.2642748E+00 7.7258255E-01
  1.000E+01  1.101E-01  5.438E-01 3.6934631E+00 1.3184414E+00 6.7594815E-01
  9.957E+00  1.218E-01  5.217E-01 3.7120756E+00 1.3011352E+00 7.0854087E-01
  1.000E+01  8.849E-02  5.887E-01 3.6977814E+00 1.3506992E+00 6.0955559E-01
  9.957E+00  9.903E-02  5.661E-01 3.6946586E+00 1.3349964E+00 6.4298425E-01
  1.000E+01  6.913E-02  6.347E-01 3.6715014E+00 1.3791146E+00 5.4107937E-01
  9.957E+00  7.852E-02  6.116E-01 3.6874062E+00 1.3654075E+00 5.7557124E-01
  1.000E+01  5.207E-02  6.815E-01 3.6422195E+00 1.4040977E+00 4.7140857E-01
  9.957E+00  6.031E-02  6.580E-01 3.6525328E+00 1.3919458E+00 5.0627952E-01
  1.000E+01  3.738E-02  7.292E-01 3.6402540E+00 1.4263458E+00 4.0149337E-01
  9.957E+00  4.443E-02  7.052E-01 3.6421452E+00 1.4155933E+00 4.3651630E-01
  1.000E+01  2.507E-02  7.775E-01 3.6288450E+00 1.4450121E+00 3.3042671E-01
  9.957E+00  3.092E-02  7.532E-01 3.6359499E+00 1.4361909E+00 3.6617116E-01
  1.000E+01  1.519E-02  8.264E-01 3.6104043E+00 1.4594190E+00 2.5767519E-01
  9.957E+00  1.983E-02  8.019E-01 3.6194506E+00 1.4527282E+00 2.9422565E-01
  1.000E+01  7.761E-03  8.757E-01 3.5946384E+00 1.4700253E+00 1.8405996E-01
  9.957E+00  1.117E-02  8.510E-01 3.6014461E+00 1.4651604E+00 2.2091324E-01
  1.000E+01  2.796E-03  9.253E-01 3.5857468E+00 1.4772443E+00 1.1037086E-01
  9.957E+00  4.969E-03  9.004E-01 3.5894363E+00 1.4740521E+00 1.4720006E-01
  1.000E+01  3.108E-04  9.751E-01 3.5824014E+00 1.4809699E+00 3.6780476E-02
  9.957E+00  1.243E-03  9.502E-01 3.5840202E+00 1.4795656E+00 7.3565879E-02
  1.000E+01  3.108E-04  1.025E+00 3.5824059E+00 1.4809700E+00 -3.6777957E-02
  9.957E+00  0.000E+00  1.000E+00 3.5826591E+00 1.4814539E+00 5.8366269E-07
  1.000E+01  2.796E-03  1.075E+00 3.5857569E+00 1.4772446E+00 -1.1036835E-01
  9.957E+00  1.243E-03  1.050E+00 3.5840141E+00 1.4795656E+00 -7.3564357E-02
  1.000E+01  7.761E-03  1.124E+00 3.5946482E+00 1.4700257E+00 -1.8405747E-01
  9.957E+00  4.969E-03  1.100E+00 3.5894277E+00 1.4740524E+00 -1.4719788E-01
  1.000E+01  1.519E-02  1.174E+00 3.6104105E+00 1.4594194E+00 -2.5767270E-01
  9.957E+00  1.117E-02  1.149E+00 3.6014383E+00 1.4651608E+00 -2.2091072E-01
  1.000E+01  2.507E-02  1.223E+00 3.6288477E+00 1.4450124E+00 -3.3042425E-01
  9.957E+00  1.983E-02  1.198E+00 3.6194443E+00 1.4527285E+00 -2.9422313E-01
  1.000E+01  3.738E-02  1.271E+00 3.6402537E+00 1.4263463E+00 -4.0149094E-01
  9.957E+00  3.092E-02  1.247E+00 3.6359448E+00 1.4361911E+00 -3.6616872E-01
  1.000E+01  5.207E-02  1.318E+00 3.6422170E+00 1.4040989E+00 -4.7140616E-01
  9.957E+00  4.443E-02  1.295E+00 3.6421410E+00 1.4155942E+00 -4.3651396E-01
  1.000E+01  6.913E-02  1.365E+00 3.6714970E+00 1.3791153E+00 -5.4107699E-01
  9.957E+00  6.031E-02  1.342E+00 3.6525291E+00 1.3919468E+00 -5.0627727E-01
  1.000E+01  8.849E-02  1.411E+00 3.6977754E+00 1.3506999E+00 -6.0955325E-01
  9.957E+00  7.852E-02  1.388E+00 3.6874029E+00 1.3654079E+00 -5.7556905E-01
  1.000E+01  1.101E-01  1.456E+00 3.6934560E+00 1.3184429E+00 -6.7594586E-01
  9.957E+00  9.903E-02  1.434E+00 3.6946554E+00 1.3349975E+00 -6.4298214E-01
  1.000E+01  1.340E-01  1.500E+00 3.7288226E+00 1.2831028E+00 -7.4077757E-01
  9.957E+00  1.218E-01  1.478E+00 3.7120722E+00 1.3011364E+00 -7.0853886E-01
  1.000E+01  1.600E-01  1.543E+00 3.7267991E+00 1.2446354E+00 -8.0388050E-01
  9.957E+00  1.467E-01  1.521E+00 3.7385599E+00 1.2642756E+00 -7.7258062E-01
  1.000E+01  1.881E-01  1.584E+00 3.7593746E+00 1.2029837E+00 -8.6489110E-01
  9.957E+00  1.738E-01  1.563E+00 3.7337631E+00 1.2241838E+00 -8.3464306E-01
  1.000E+01  2.182E-01  1.623E+00 3.7485177E+00 1.1583859E+00 -9.2378781E-01
  9.957E+00  2.029E-01  1.604E+00 3.7555856E+00 1.1810446E+00 -8.9461152E-01
  1.000E+01  2.502E-01  1.662E+00 3.7657399E+00 1.1108989E+00 -9.8037720E-01
  9.957E+00  2.340E-01  1.643E+00 3.7628868E+00 1.1349940E+00 -9.5237815E-01
  1.000E+01  2.841E-01  1.698E+00 3.7653383E+00 1.0606473E+00 -1.0345290E+00
  9.957E+00  2.669E-01  1.680E+00 3.7641378E+00 1.0861068E+00 -1.0077626E+00
  1.000E+01  3.198E-01  1.733E+00 3.7641363E+00 1.0077600E+00 -1.0861106E+00
  9.957E+00  3.018E-01  1.716E+00 3.7653395E+00 1.0345219E+00 -1.0606465E+00
  1.000E+01  3.572E-01  1.766E+00 3.7628848E+00 9.5237252E-01 -1.1349941E+00
  9.957E+00  3.383E-01  1.750E+00 3.7657407E+00 9.8036705E-01 -1.1108941E+00
  1.000E+01  3.962E-01  1.797E+00 3.7555829E+00 8.9460338E-01 -1.1810410E+00
  9.957E+00  3.765E-01  1.782E+00 3.7485182E+00 9.2377489E-01 -1.1583766E+00
  1.000E+01  4.367E-01  1.826E+00 3.7337593E+00 8.3463320E-01 -1.2241764E+00
  9.957E+00  4.163E-01  1.812E+00 3.7593750E+00 8.6487584E-01 -1.2029693E+00
  1.000E+01  4.786E-01  1.853E+00 3.7385552E+00 7.7256936E-01 -1.2642647E+00
  9.957E+00  4.575E-01  1.840E+00 3.7267996E+00 8.0386388E-01 -1.2446165E+00
  1.000E+01  5.217E-01  1.878E+00 3.7120667E+00 7.0852620E-01 -1.3011204E+00
  9.957E+00  5.000E-01  1.866E+00 3.7288230E+00 7.4076018E-01 -1.2830799E+00
  1.000E+01  5.661E-01  1.901E+00 3.6946498E+00 6.4296846E-01 -1.3349761E+00
  9.957E+00  5.438E-01  1.890E+00 3.6934556E+00 6.7592819E-01 -1.3184154E+00
  1.000E+01  6.116E-01  1.921E+00 3.6873975E+00 5.7555536E-01 -1.3653821E+00
  9.957E+00  5.887E-01  1.912E+00 3.6977737E+00 6.0953576E-01 -1.3506680E+00
  1.000E+01  6.580E-01  1.940E+00 3.6525241E+00 5.0626444E-01 -1.3919169E+00
  9.957E+00  6.347E-01  1.931E+00 3.6714940E+00 5.4106053E-01 -1.3790793E+00
  1.000E+01  7.052E-01  1.956E+00 3.6421365E+00 4.3650246E-01 -1.4155615E+00
  9.957E+00  6.815E-01  1.948E+00 3.6422128E+00 4.7139134E-01 -1.4040593E+00
  1.000E+01  7.532E-01  1.969E+00 3.6359409E+00 3.6615870E-01 -1.4361562E+00
  9.957E+00  7.292E-01  1.963E+00 3.6402482E+00 4.0147802E-01 -1.4263039E+00
  1.000E+01  8.019E-01  1.980E+00 3.6194408E+00 2.9421480E-01 -1.4526908E+00
  9.957E+00  7.775E-01  1.975E+00 3.6288403E+00 3.3041355E-01 -1.4449672E+00
  1.000E+01  8.510E-01  1.989E+00 3.6014350E+00 2.2090466E-01 -1.4651202E+00
  9.957E+00  8.264E-01  1.985E+00 3.6104011E+00 2.5766455E-01 -1.4593719E+00
  1.000E+01  9.004E-01  1.995E+00 3.5894245E+00 1.4719460E-01 -1.4740090E+00
  9.957E+00  8.757E-01  1.992E+00 3.5946366E+00 1.8405201E-01 -1.4699774E+00
  1.000E+01  9.502E-01  1.999E+00 3.5840094E+00 7.3563841E-02 -1.4795198E+00
  9.957E+00  9.253E-01  1.997E+00 3.5857449E+00 1.1036584E-01 -1.4771973E+00
  1.000E+01  1.000E+00  2.000E+00 3.5826511E+00 1.4886860E-06 -1.4814070E+00
  9.957E+00  9.751E-01  2.000E+00 3.5823967E+00 3.6778808E-02 -1.4809243E+00
  1.000E+01  1.050E+00  1.999E+00 3.5840091E+00 -7.3560863E-02 -1.4795199E+00
  9.957E+00  1.025E+00  2.000E+00 3.5823965E+00 -3.6776051E-02 -1.4809243E+00
  1.000E+01  1.100E+00  1.995E+00 3.5894239E+00 -1.4719163E-01 -1.4740092E+00
  9.957E+00  1.075E+00  1.997E+00 3.5857444E+00 -1.1036310E-01 -1.4771975E+00
  1.000E+01  1.149E+00  1.989E+00 3.6014341E+00 -2.2090171E-01 -1.4651206E+00
  9.957E+00  1.124E+00  1.992E+00 3.5946358E+00 -1.8404928E-01 -1.4699777E+00
  1.000E+01  1.198E+00  1.980E+00 3.6194394E+00 -2.9421190E-01 -1.4526913E+00
  9.957E+00  1.174E+00  1.985E+00 3.6103999E+00 -2.5766184E-01 -1.4593723E+00