# TIME = 3.000000
VARIABLES = X, Y, Z, FX, FY, FZ
ZONE N=29232 E=58212 F=FEPOINT ET=TRIANGLE
  0.000E+00  9.502E-01  1.243E-03 3.2402430E+00 7.5839277E-02 1.5253504E+00
  0.000E+00  1.000E+00  0.000E+00 3.2388016E+00 -1.1195994E-06 1.5272959E+00
  4.318E-02  9.751E-01  3.108E-04 3.2386320E+00 3.7023286E-02 1.4908597E+00
  0.000E+00  1.050E+00  1.243E-03 3.2402434E+00 -7.5841513E-02 1.5253503E+00
  4.318E-02  1.025E+00  3.108E-04 3.2386322E+00 -3.7025546E-02 1.4908597E+00
  0.000E+00  1.100E+00  4.969E-03 3.2457711E+00 -1.5175217E-01 1.5196686E+00
  4.318E-02  1.075E+00  2.796E-03 3.2420851E+00 -1.1110611E-01 1.4871078E+00
  0.000E+00  1.149E+00  1.117E-02 3.2576630E+00 -2.2774432E-01 1.5105036E+00
  4.318E-02  1.124E+00  7.761E-03 3.2509583E+00 -1.8528533E-01 1.4798385E+00
  0.000E+00  1.198E+00  1.983E-02 3.2753291E+00 -3.0332439E-01 1.4976879E+00
  4.318E-02  1.174E+00  1.519E-02 3.2664262E+00 -2.5939021E-01 1.4691602E+00
  0.000E+00  1.247E+00  3.092E-02 3.2918867E+00 -3.7749635E-01 1.4806401E+00
  4.318E-02  1.223E+00  2.507E-02 3.2846126E+00 -3.3262618E-01 1.4546573E+00
  0.000E+00  1.295E+00  4.443E-02 3.2993386E+00 -4.5001882E-01 1.4594066E+00
  4.318E-02  1.271E+00  3.738E-02 3.2966658E+00 -4.0416615E-01 1.4358670E+00
  0.000E+00  1.342E+00  6.031E-02 3.3108196E+00 -5.2194091E-01 1.4350279E+00
  4.318E-02  1.318E+00  5.207E-02 3.3004266E+00 -4.7454707E-01 1.4134718E+00
  0.000E+00  1.388E+00  7.852E-02 3.3444483E+00 -5.9337677E-01 1.4076691E+00
  4.318E-02  1.365E+00  6.913E-02 3.3290803E+00 -5.4468227E-01 1.3883227E+00
  0.000E+00  1.434E+00  9.903E-02 3.3529805E+00 -6.6287601E-01 1.3763182E+00
  4.318E-02  1.411E+00  8.849E-02 3.3548651E+00 -6.1361571E-01 1.3597188E+00
  0.000E+00  1.478E+00  1.218E-01 3.3708726E+00 -7.3046281E-01 1.3414107E+00
  4.318E-02  1.456E+00  1.101E-01 3.3529253E+00 -6.8045271E-01 1.3272477E+00
  0.000E+00  1.521E+00  1.467E-01 3.3965400E+00 -7.9648843E-01 1.3034105E+00
  4.318E-02  1.500E+00  1.340E-01 3.3868861E+00 -7.4571879E-01 1.2916733E+00
  0.000E+00  1.563E+00  1.738E-01 3.3937188E+00 -8.6047326E-01 1.2620780E+00
  4.318E-02  1.543E+00  1.600E-01 3.3866196E+00 -8.0924450E-01 1.2529494E+00
  0.000E+00  1.604E+00  2.029E-01 3.4146806E+00 -9.2229939E-01 1.2176043E+00
  4.318E-02  1.584E+00  1.881E-01 3.4177066E+00 -8.7066383E-01 1.2110202E+00
  0.000E+00  1.643E+00  2.340E-01 3.4223096E+00 -9.8185654E-01 1.1701296E+00
  4.318E-02  1.623E+00  2.182E-01 3.4087115E+00 -9.2995587E-01 1.1661256E+00
  0.000E+00  1.680E+00  2.669E-01 3.4237729E+00 -1.0389580E+00 1.1197303E+00
  4.318E-02  1.662E+00  2.502E-01 3.4251238E+00 -9.8692594E-01 1.1183229E+00
  0.000E+00  1.716E+00  3.018E-01 3.4250764E+00 -1.0934816E+00 1.0665495E+00
  4.318E-02  1.698E+00  2.841E-01 3.4250858E+00 -1.0414423E+00 1.0677367E+00
  0.000E+00  1.750E+00  3.383E-01 3.4251146E+00 -1.1452872E+00 1.0107186E+00
  4.318E-02  1.733E+00  3.198E-01 3.4237824E+00 -1.0933707E+00 1.0144964E+00
  0.000E+00  1.782E+00  3.765E-01 3.4087025E+00 -1.1942425E+00 9.5237504E-01
  4.318E-02  1.766E+00  3.572E-01 3.4223193E+00 -1.1425835E+00 9.5873916E-01
  0.000E+00  1.812E+00  4.163E-01 3.4176979E+00 -1.2402197E+00 8.9165363E-01
  4.318E-02  1.797E+00  3.962E-01 3.4146905E+00 -1.1889405E+00 9.0058422E-01
  0.000E+00  1.840E+00  4.575E-01 3.3866111E+00 -1.2831596E+00 8.2875329E-01
  4.318E-02  1.826E+00  4.367E-01 3.3937290E+00 -1.2323674E+00 8.4021381E-01
  0.000E+00  1.866E+00  5.000E-01 3.3868776E+00 -1.3228163E+00 7.6369564E-01
  4.318E-02  1.853E+00  4.786E-01 3.3965502E+00 -1.2727260E+00 7.7773512E-01
  0.000E+00  1.890E+00  5.438E-01 3.3529170E+00 -1.3592487E+00 6.9685599E-01
  4.318E-02  1.878E+00  5.217E-01 3.3708827E+00 -1.3098314E+00 7.1326366E-01
  0.000E+00  1.912E+00  5.887E-01 3.3548571E+00 -1.3925029E+00 6.2840808E-01
  4.318E-02  1.901E+00  5.661E-01 3.3529907E+00 -1.3439172E+00 6.4726776E-01
  0.000E+00  1.931E+00  6.347E-01 3.3290725E+00 -1.4217967E+00 5.5781290E-01
  4.318E-02  1.921E+00  6.116E-01 3.3444589E+00 -1.3745301E+00 5.7940461E-01
  0.000E+00  1.948E+00  6.815E-01 3.3004190E+00 -1.4475521E+00 4.8598648E-01
  4.318E-02  1.940E+00  6.580E-01 3.3108304E+00 -1.4012451E+00 5.0965068E-01
  0.000E+00  1.963E+00  7.292E-01 3.2966582E+00 -1.4704864E+00 4.1390813E-01
  4.318E-02  1.956E+00  7.052E-01 3.2993493E+00 -1.4250493E+00 4.3942211E-01
  0.000E+00  1.975E+00  7.775E-01 3.2846051E+00 -1.4897292E+00 3.4064285E-01
  4.318E-02  1.969E+00  7.532E-01 3.2918970E+00 -1.4457821E+00 3.6860732E-01
  0.000E+00  1.985E+00  8.264E-01 3.2664189E+00 -1.5045817E+00 2.6564094E-01
  4.318E-02  1.980E+00  8.019E-01 3.2753394E+00 -1.4624286E+00 2.9618170E-01
  0.000E+00  1.992E+00  8.757E-01 3.2509512E+00 -1.5155176E+00 1.8974947E-01
  4.318E-02  1.989E+00  8.510E-01 3.2576736E+00 -1.4749430E+00 2.2238087E-01
  0.000E+00  1.997E+00  9.253E-01 3.2420782E+00 -1.5229621E+00 1.1378199E-01
  4.318E-02  1.995E+00  9.004E-01 3.2457819E+00 -1.4838925E+00 1.4817752E-01
  0.000E+00  2.000E+00  9.751E-01 3.2386255E+00 -1.5268044E+00 3.7915589E-02
  4.318E-02  1.999E+00  9.502E-01 3.2402545E+00 -1.4894406E+00 7.4053748E-02
  0.000E+00  2.000E+00  1.025E+00 3.2386254E+00 -1.5268043E+00 -3.7918326E-02
  4.318E-02  2.000E+00  1.000E+00 3.2388129E+00 -1.4913403E+00 -1.3663543E-06
  0.000E+00  1.997E+00  1.075E+00 3.2420780E+00 -1.5229617E+00 -1.1378474E-01
  4.318E-02  1.999E+00  1.050E+00 3.2402544E+00 -1.4894404E+00 -7.4056474E-02
  0.000E+00  1.992E+00  1.124E+00 3.2509508E+00 -1.5155170E+00 -1.8975220E-01
  4.318E-02  1.995E+00  1.100E+00 3.2457816E+00 -1.4838921E+00 -1.4818024E-01
  0.000E+00  1.985E+00  1.174E+00 3.2664183E+00 -1.5045812E+00 -2.6564365E-01
  4.318E-02  1.989E+00  1.149E+00 3.2576731E+00 -1.4749425E+00 -2.2238358E-01
  0.000E+00  1.975E+00  1.223E+00 3.2846044E+00 -1.4897289E+00 -3.4064551E-01
  4.318E-02  1.980E+00  1.198E+00 3.2753388E+00 -1.4624283E+00 -2.9618440E-01
  0.000E+00  1.963E+00  1.271E+00 3.2966573E+00 -1.4704857E+00 -4.1391077E-01
  4.318E-02  1.969E+00  1.247E+00 3.2918962E+00 -1.4457817E+00 -3.6861001E-01
  0.000E+00  1.948E+00  1.318E+00 3.3004179E+00 -1.4475508E+00 -4.8598908E-01
  4.318E-02  1.956E+00  1.295E+00 3.2993483E+00 -1.4250483E+00 -4.3942476E-01
  0.000E+00  1.931E+00  1.365E+00 3.3290714E+00 -1.4217959E+00 -5.5781548E-01
  4.318E-02  1.940E+00  1.342E+00 3.3108292E+00 -1.4012439E+00 -5.0965329E-01
  0.000E+00  1.912E+00  1.411E+00 3.3548558E+00 -1.3925021E+00 -6.2841061E-01
  4.318E-02  1.921E+00  1.388E+00 3.3444576E+00 -1.3745295E+00 -5.7940719E-01
  0.000E+00  1.890E+00  1.456E+00 3.3529155E+00 -1.3592470E+00 -6.9685847E-01
  4.318E-02  1.901E+00  1.434E+00 3.3529893E+00 -1.3439159E+00 -6.4727029E-01
  0.000E+00  1.866E+00  1.500E+00 3.3868760E+00 -1.3228152E+00 -7.6369808E-01
  4.318E-02  1.878E+00  1.478E+00 3.3708811E+00 -1.3098300E+00 -7.1326614E-01
  0.000E+00  1.840E+00  1.543E+00 3.3866094E+00 -1.2831581E+00 -8.2875565E-01
  4.318E-02  1.853E+00  1.521E+00 3.3965484E+00 -1.2727249E+00 -7.7773755E-01
  0.000E+00  1.812E+00  1.584E+00 3.4176961E+00 -1.2402182E+00 -8.9165593E-01
  4.318E-02  1.826E+00  1.563E+00 3.3937272E+00 -1.2323658E+00 -8.4021616E-01
  0.000E+00  1.782E+00  1.623E+00 3.4087006E+00 -1.1942410E+00 -9.5237726E-01
  4.318E-02  1.797E+00  1.604E+00 3.4146885E+00 -1.1889391E+00 -9.0058653E-01
  0.000E+00  1.750E+00  1.662E+00 3.4251125E+00 -1.1452855E+00 -1.0107208E+00
  4.318E-02  1.766E+00  1.643E+00 3.4223172E+00 -1.1425818E+00 -9.5874138E-01
  0.000E+00  1.716E+00  1.698E+00 3.4250742E+00 -1.0934798E+00 -1.0665516E+00
  4.318E-02  1.733E+00  1.680E+00 3.4237802E+00 -1.0933691E+00 -1.0144985E+00
  0.000E+00  1.680E+00  1.733E+00 3.4237706E+00 -1.0389560E+00 -1.1197323E+00
  4.318E-02  1.698E+00  1.716E+00 3.4250835E+00 -1.0414405E+00 -1.0677388E+00
  0.000E+00  1.643E+00  1.766E+00 3.4223072E+00 -9.8185450E-01 -1.1701315E+00
  4.318E-02  1.662E+00  1.750E+00 3.4251215E+00 -9.8692409E-01 -1.1183249E+00
  0.000E+00  1.604E+00  1.797E+00 3.4146781E+00 -9.2229728E-01 -1.2176060E+00
  4.318E-02  1.623E+00  1.782E+00 3.4087091E+00 -9.2995394E-01 -1.1661275E+00
  0.000E+00  1.563E+00  1.826E+00 3.3937164E+00 -8.6047123E-01 -1.2620796E+00
  4.318E-02  1.584E+00  1.812E+00 3.4177041E+00 -8.7066180E-01 -1.2110220E+00
  0.000E+00  1.521E+00  1.853E+00 3.3965374E+00 -7.9648656E-01 -1.3034121E+00
  4.318E-02  1.543E+00  1.840E+00 3.3866170E+00 -8.0924225E-01 -1.2529512E+00
  0.000E+00  1.478E+00  1.878E+00 3.3708698E+00 -7.3046078E-01 -1.3414122E+00
  4.318E-02  1.500E+00  1.866E+00 3.3868834E+00 -7.4571642E-01 -1.2916749E+00
  0.000E+00  1.434E+00  1.901E+00 3.3529776E+00 -6.6287332E-01 -1.3763194E+00
  4.318E-02  1.456E+00  1.890E+00 3.3529226E+00 -6.8045050E-01 -1.3272492E+00
  0.000E+00  1.388E+00  1.921E+00 3.3444456E+00 -5.9337337E-01 -1.4076700E+00
  4.318E-02  1.411E+00  1.912E+00 3.3548622E+00 -6.1361396E-01 -1.3597203E+00
  0.000E+00  1.342E+00  1.940E+00 3.3108170E+00 -5.2193755E-01 -1.4350286E+00
  4.318E-02  1.365E+00  1.931E+00 3.3290773E+00 -5.4468071E-01 -1.3883242E+00
  0.000E+00  1.295E+00  1.956E+00 3.2993360E+00 -4.5001642E-01 -1.4594073E+00
  4.318E-02  1.318E+00  1.948E+00 3.3004237E+00 -4.7454508E-01 -1.4134732E+00
  0.000E+00  1.247E+00  1.969E+00 3.2918838E+00 -3.7749510E-01 -1.4806410E+00
  4.318E-02  1.271E+00  1.963E+00 3.2966629E+00 -4.0416333E-01 -1.4358681E+00
  0.000E+00  1.198E+00  1.980E+00 3.2753260E+00 -3.0332371E-01 -1.4976889E+00
  4.318E-02  1.223E+00  1.975E+00 3.2846098E+00 -3.3262272E-01 -1.4546580E+00
  0.000E+00  1.149E+00  1.989E+00 3.2576598E+00 -2.2774346E-01 -1.5105047E+00
  4.318E-02  1.174E+00  1.985E+00 3.2664234E+00 -2.5938660E-01 -1.4691606E+00
  0.000E+00  1.100E+00  1.995E+00 3.2457679E+00 -1.5175075E-01 -1.5196696E+00
  4.318E-02  1.124E+00  1.992E+00 3.2509554E+00 -1.8528198E-01 -1.4798387E+00
  0.000E+00  1.050E+00  1.999E+00 3.2402402E+00 -7.5839513E-02 -1.5253513E+00
  4.318E-02  1.075E+00  1.997E+00 3.2420822E+00 -1.1110313E-01 -1.4871078E+00
  0.000E+00  1.000E+00  2.000E+00 3.2387984E+00 1.3778796E-06 -1.5272968E+00
  4.318E-02  1.025E+00  2.000E+00 3.2386292E+00 -3.7022898E-02 -1.4908596E+00
  0.000E+00  9.502E-01  1.999E+00 3.2402398E+00 7.5842265E-02 -1.5253511E+00
  4.318E-02  9.751E-01  2.000E+00 3.2386290E+00 3.7025631E-02 -1.4908595E+00
  0.000E+00  9.004E-01  1.995E+00 3.2457671E+00 1.5175349E-01 -1.5196693E+00
  4.318E-02  9.253E-01  1.997E+00 3.2420816E+00 1.1110586E-01 -1.4871076E+00
  0.000E+00  8.510E-01  1.989E+00 3.2576586E+00 2.2774619E-01 -1.5105043E+00
  4.318E-02  8.757E-01  1.992E+00 3.2509544E+00 1.8528470E-01 -1.4798384E+00
  0.000E+00  8.019E-01  1.980E+00 3.2753244E+00 3.0332643E-01 -1.4976884E+00
  4.318E-02  8.264E-01  1.985E+00 3.2664220E+00 2.5938931E-01 -1.4691601E+00
  0.000E+00  7.532E-01  1.969E+00 3.2918818E+00 3.7749779E-01 -1.4806403E+00
  4.318E-02  7.775E-01  1.975E+00 3.2846080E+00 3.3262539E-01 -1.4546574E+00
  0.000E+00  7.052E-01  1.956E+00 3.2993336E+00 4.5001908E-01 -1.4594065E+00
  4.318E-02  7.292E-01  1.963E+00 3.2966608E+00 4.0416598E-01 -1.4358673E+00
  0.000E+00  6.580E-01  1.940E+00 3.3108143E+00 5.2194017E-01 -1.4350277E+00
  4.318E-02  6.815E-01  1.948E+00 3.3004212E+00 4.7454770E-01 -1.4134723E+00
  0.000E+00  6.116E-01  1.921E+00 3.3444425E+00 5.9337594E-01 -1.4076689E+00
  4.318E-02  6.347E-01  1.931E+00 3.3290744E+00 5.4468329E-01 -1.3883232E+00
  0.000E+00  5.661E-01  1.901E+00 3.3529742E+00 6.6287586E-01 -1.3763182E+00
  4.318E-02  5.887E-01  1.912E+00 3.3548590E+00 6.1361650E-01 -1.3597192E+00
  0.000E+00  5.217E-01  1.878E+00 3.3708660E+00 7.3046327E-01 -1.3414109E+00
  4.318E-02  5.438E-01  1.890E+00 3.3529190E+00 6.8045300E-01 -1.3272480E+00
  0.000E+00  4.786E-01  1.853E+00 3.3965333E+00 7.9648899E-01 -1.3034107E+00
  4.318E-02  5.000E-01  1.866E+00 3.3868795E+00 7.4571884E-01 -1.2916735E+00
  0.000E+00  4.367E-01  1.826E+00 3.3937120E+00 8.6047360E-01 -1.2620781E+00
  4.318E-02  4.575E-01  1.840E+00 3.3866128E+00 8.0924464E-01 -1.2529497E+00
  0.000E+00  3.962E-01  1.797E+00 3.4146734E+00 9.2229958E-01 -1.2176044E+00
  4.318E-02  4.163E-01  1.812E+00 3.4176996E+00 8.7066410E-01 -1.2110204E+00
  0.000E+00  3.572E-01  1.766E+00 3.4223022E+00 9.8185672E-01 -1.1701297E+00
  4.318E-02  3.765E-01  1.782E+00 3.4087043E+00 9.2995619E-01 -1.1661259E+00
  0.000E+00  3.198E-01  1.733E+00 3.4237654E+00 1.0389582E+00 -1.1197305E+00
  4.318E-02  3.383E-01  1.750E+00 3.4251163E+00 9.8692624E-01 -1.1183231E+00
  0.000E+00  2.841E-01  1.698E+00 3.4250687E+00 1.0934819E+00 -1.0665497E+00
  4.318E-02  3.018E-01  1.716E+00 3.4250782E+00 1.0414426E+00 -1.0677369E+00
  0.000E+00  2.502E-01  1.662E+00 3.4251068E+00 1.1452875E+00 -1.0107188E+00
  4.318E-02  2.669E-01  1.680E+00 3.4237747E+00 1.0933710E+00 -1.0144966E+00
  0.000E+00  2.182E-01  1.623E+00 3.4086947E+00 1.1942428E+00 -9.5237521E-01
  4.318E-02  2.340E-01  1.643E+00 3.4223114E+00 1.1425837E+00 -9.5873937E-01
  0.000E+00  1.881E-01  1.584E+00 3.4176900E+00 1.2402200E+00 -8.9165380E-01
  4.318E-02  2.029E-01  1.604E+00 3.4146825E+00 1.1889408E+00 -9.0058444E-01
  0.000E+00  1.600E-01  1.543E+00 3.3866031E+00 1.2831598E+00 -8.2875347E-01
  4.318E-02  1.738E-01  1.563E+00 3.3937210E+00 1.2323676E+00 -8.4021402E-01
  0.000E+00  1.340E-01  1.500E+00 3.3868695E+00 1.3228165E+00 -7.6369583E-01
  4.318E-02  1.467E-01  1.521E+00 3.3965421E+00 1.2727262E+00 -7.7773534E-01
  0.000E+00  1.101E-01  1.456E+00 3.3529089E+00 1.3592490E+00 -6.9685618E-01
  4.318E-02  1.218E-01  1.478E+00 3.3708746E+00 1.3098317E+00 -7.1326387E-01
  0.000E+00  8.849E-02  1.411E+00 3.3548491E+00 1.3925032E+00 -6.2840827E-01
  4.318E-02  9.903E-02  1.434E+00 3.3529826E+00 1.3439175E+00 -6.4726798E-01
  0.000E+00  6.913E-02  1.365E+00 3.3290645E+00 1.4217970E+00 -5.5781310E-01
  4.318E-02  7.852E-02  1.388E+00 3.3444508E+00 1.3745303E+00 -5.7940483E-01
  0.000E+00  5.207E-02  1.318E+00 3.3004109E+00 1.4475524E+00 -4.8598667E-01
  4.318E-02  6.031E-02  1.342E+00 3.3108223E+00 1.4012454E+00 -5.0965090E-01
  0.000E+00  3.738E-02  1.271E+00 3.2966502E+00 1.4704867E+00 -4.1390833E-01
  4.318E-02  4.443E-02  1.295E+00 3.2993413E+00 1.4250496E+00 -4.3942234E-01
  0.000E+00  2.507E-02  1.223E+00 3.2845973E+00 1.4897295E+00 -3.4064305E-01
  4.318E-02  3.092E-02  1.247E+00 3.2918891E+00 1.4457824E+00 -3.6860755E-01
  0.000E+00  1.519E-02  1.174E+00 3.2664111E+00 1.5045820E+00 -2.6564117E-01
  4.318E-02  1.983E-02  1.198E+00 3.2753316E+00 1.4624289E+00 -2.9618193E-01
  0.000E+00  7.761E-03  1.124E+00 3.2509436E+00 1.5155178E+00 -1.8974971E-01
  4.318E-02  1.117E-02  1.149E+00 3.2576659E+00 1.4749433E+00 -2.2238109E-01
  0.000E+00  2.796E-03  1.075E+00 3.2420708E+00 1.5229623E+00 -1.1378224E-01
  4.318E-02  4.969E-03  1.100E+00 3.2457743E+00 1.4838928E+00 -1.4817774E-01
  0.000E+00  3.108E-04  1.025E+00 3.2386181E+00 1.5268046E+00 -3.7915826E-02
  4.318E-02  1.243E-03  1.050E+00 3.2402471E+00 1.4894408E+00 -7.4053975E-02
  0.000E+00  3.108E-04  9.751E-01 3.2386182E+00 1.5268045E+00 3.7918084E-02
  4.318E-02  0.000E+00  1.000E+00 3.2388056E+00 1.4913405E+00 1.1315809E-06
  0.000E+00  2.796E-03  9.253E-01 3.2420710E+00 1.5229620E+00 1.1378448E-01
  4.318E-02  1.243E-03  9.502E-01 3.2402473E+00 1.4894406E+00 7.4056240E-02
  0.000E+00  7.761E-03  8.757E-01 3.2509440E+00 1.5155173E+00 1.8975194E-01
  4.318E-02  4.969E-03  9.004E-01 3.2457747E+00 1.4838923E+00 1.4818000E-01
  0.000E+00  1.519E-02  8.264E-01 3.2664117E+00 1.5045815E+00 2.6564339E-01
  4.318E-02  1.117E-02  8.510E-01 3.2576664E+00 1.4749427E+00 2.2238334E-01
  0.000E+00  2.507E-02  7.775E-01 3.2845980E+00 1.4897291E+00 3.4064527E-01
  4.318E-02  1.983E-02  8.019E-01 3.2753323E+00 1.4624285E+00 2.9618414E-01
  0.000E+00  3.738E-02  7.292E-01 3.2966511E+00 1.4704860E+00 4.1391053E-01
  4.318E-02  3.092E-02  7.532E-01 3.2918899E+00 1.4457819E+00 3.6860974E-01
  0.000E+00  5.207E-02  6.815E-01 3.3004120E+00 1.4475510E+00 4.8598884E-01
  4.318E-02  4.443E-02  7.052E-01 3.2993422E+00 1.4250485E+00 4.3942449E-01
  0.000E+00  6.913E-02  6.347E-01 3.3290657E+00 1.4217961E+00 5.5781523E-01
  4.318E-02  6.031E-02  6.580E-01 3.3108234E+00 1.4012441E+00 5.0965302E-01
  0.000E+00  8.849E-02  5.887E-01 3.3548504E+00 1.3925024E+00 6.2841036E-01
  4.318E-02  7.852E-02  6.116E-01 3.3444521E+00 1.3745297E+00 5.7940691E-01
  0.000E+00  1.101E-01  5.438E-01 3.3529104E+00 1.3592473E+00 6.9685821E-01
  4.318E-02  9.903E-02  5.661E-01 3.3529841E+00 1.3439161E+00 6.4727002E-01
  0.000E+00  1.340E-01  5.000E-01 3.3868711E+00 1.3228154E+00 7.6369782E-01
  4.318E-02  1.218E-01  5.217E-01 3.3708761E+00 1.3098302E+00 7.1326586E-01
  0.000E+00  1.600E-01  4.575E-01 3.3866048E+00 1.2831584E+00 8.2875540E-01
  4.318E-02  1.467E-01  4.786E-01 3.3965438E+00 1.2727251E+00 7.7773727E-01
  0.000E+00  1.881E-01  4.163E-01 3.4176918E+00 1.2402184E+00 8.9165568E-01
  4.318E-02  1.738E-01  4.367E-01 3.3937228E+00 1.2323659E+00 8.4021588E-01
  0.000E+00  2.182E-01  3.765E-01 3.4086966E+00 1.1942412E+00 9.5237701E-01
  4.318E-02  2.029E-01  3.962E-01 3.4146845E+00 1.1889393E+00 9.0058624E-01
  0.000E+00  2.502E-01  3.383E-01 3.4251089E+00 1.1452857E+00 1.0107205E+00
  4.318E-02  2.340E-01  3.572E-01 3.4223135E+00 1.1425820E+00 9.5874109E-01
  0.000E+00  2.841E-01  3.018E-01 3.4250709E+00 1.0934801E+00 1.0665514E+00
  4.318E-02  2.669E-01  3.198E-01 3.4237768E+00 1.0933693E+00 1.0144982E+00
  0.000E+00  3.198E-01  2.669E-01 3.4237677E+00 1.0389563E+00 1.1197320E+00
  4.318E-02  3.018E-01  2.841E-01 3.4250805E+00 1.0414407E+00 1.0677385E+00
  0.000E+00  3.572E-01  2.340E-01 3.4223046E+00 9.8185482E-01 1.1701312E+00
  4.318E-02  3.383E-01  2.502E-01 3.4251187E+00 9.8692425E-01 1.1183246E+00
  0.000E+00  3.962E-01  2.029E-01 3.4146759E+00 9.2229759E-01 1.2176058E+00
  4.318E-02  3.765E-01  2.182E-01 3.4087067E+00 9.2995408E-01 1.1661272E+00
  0.000E+00  4.367E-01  1.738E-01 3.3937144E+00 8.6047139E-01 1.2620794E+00
  4.318E-02  4.163E-01  1.881E-01 3.4177021E+00 8.7066199E-01 1.2110217E+00
  0.000E+00  4.786E-01  1.467E-01 3.3965359E+00 7.9648651E-01 1.3034118E+00
  4.318E-02  4.575E-01  1.600E-01 3.3866154E+00 8.0924258E-01 1.2529508E+00
  0.000E+00  5.217E-01  1.218E-01 3.3708688E+00 7.3046083E-01 1.3414119E+00
  4.318E-02  5.000E-01  1.340E-01 3.3868821E+00 7.4571684E-01 1.2916746E+00
  0.000E+00  5.661E-01  9.903E-02 3.3529771E+00 6.6287397E-01 1.3763193E+00
  4.318E-02  5.438E-01  1.101E-01 3.3529217E+00 6.8045067E-01 1.3272489E+00
  0.000E+00  6.116E-01  7.852E-02 3.3444453E+00 5.9337470E-01 1.4076701E+00
  4.318E-02  5.887E-01  8.849E-02 3.3548618E+00 6.1361364E-01 1.3597199E+00
  0.000E+00  6.580E-01  6.031E-02 3.3108168E+00 5.2193880E-01 1.4350288E+00
  4.318E-02  6.347E-01  6.913E-02 3.3290774E+00 5.4468015E-01 1.3883236E+00
  0.000E+00  7.052E-01  4.443E-02 3.2993363E+00 4.5001667E-01 1.4594074E+00
  4.318E-02  6.815E-01  5.207E-02 3.3004241E+00 4.7454492E-01 1.4134727E+00
  0.000E+00  7.532E-01  3.092E-02 3.2918847E+00 3.7749418E-01 1.4806407E+00
  4.318E-02  7.292E-01  3.738E-02 3.2966636E+00 4.0416397E-01 1.4358677E+00
  0.000E+00  8.019E-01  1.983E-02 3.2753275E+00 3.0332220E-01 1.4976884E+00
  4.318E-02  7.775E-01  2.507E-02 3.2846108E+00 3.3262398E-01 1.4546579E+00
  0.000E+00  8.510E-01  1.117E-02 3.2576618E+00 2.2774210E-01 1.5105040E+00
  4.318E-02  8.264E-01  1.519E-02 3.2664248E+00 2.5938798E-01 1.4691606E+00
  0.000E+00  9.004E-01  4.969E-03 3.2457703E+00 1.5174994E-01 1.5196688E+00
  4.318E-02  8.757E-01  7.761E-03 3.2509573E+00 1.8528309E-01 1.4798388E+00
  4.318E-02  9.253E-01  2.796E-03 3.2420845E+00 1.1110385E-01 1.4871080E+00
  1.000E+01  1.050E+00  1.243E-03 3.2402434E+00 -7.5841513E-02 1.5253503E+00
  1.000E+01  1.000E+00  5.551E-16 3.2388016E+00 -1.1195994E-06 1.5272959E+00
  9.957E+00  1.025E+00  3.108E-04 3.2386294E+00 -3.8813689E-02 1.5628676E+00
  1.000E+01  9.502E-01  1.243E-03 3.2402430E+00 7.5839277E-02 1.5253504E+00
  9.957E+00  9.751E-01  3.108E-04 3.2386292E+00 3.8811472E-02 1.5628677E+00
  1.000E+01  9.004E-01  4.969E-03 3.2457703E+00 1.5174994E-01 1.5196688E+00
  9.957E+00  9.253E-01  2.796E-03 3.2420818E+00 1.1646993E-01 1.5589346E+00
  1.000E+01  8.510E-01  1.117E-02 3.2576618E+00 2.2774210E-01 1.5105040E+00
  9.957E+00  8.757E-01  7.761E-03 3.2509545E+00 1.9423191E-01 1.5513143E+00
  1.000E+01  8.019E-01  1.983E-02 3.2753275E+00 3.0332220E-01 1.4976884E+00
  9.957E+00  8.264E-01  1.519E-02 3.2664221E+00 2.7191611E-01 1.5401204E+00
  1.000E+01  7.532E-01  3.092E-02 3.2918847E+00 3.7749418E-01 1.4806407E+00
  9.957E+00  7.775E-01  2.507E-02 3.2846083E+00 3.4868965E-01 1.5249172E+00
  1.000E+01  7.052E-01  4.443E-02 3.2993363E+00 4.5001667E-01 1.4594074E+00
  9.957E+00  7.292E-01  3.738E-02 3.2966613E+00 4.2368533E-01 1.5052197E+00
  1.000E+01  6.580E-01  6.031E-02 3.3108168E+00 5.2193880E-01 1.4350288E+00
  9.957E+00  6.815E-01  5.207E-02 3.3004218E+00 4.9746577E-01 1.4817429E+00
  1.000E+01  6.116E-01  7.852E-02 3.3444453E+00 5.9337470E-01 1.4076701E+00
  9.957E+00  6.347E-01  6.913E-02 3.3290748E+00 5.7098829E-01 1.4553789E+00
  1.000E+01  5.661E-01  9.903E-02 3.3529771E+00 6.6287397E-01 1.3763193E+00
  9.957E+00  5.887E-01  8.849E-02 3.3548590E+00 6.4325090E-01 1.4253934E+00
  1.000E+01  5.217E-01  1.218E-01 3.3708688E+00 7.3046083E-01 1.3414119E+00
  9.957E+00  5.438E-01  1.101E-01 3.3529189E+00 7.1331596E-01 1.3913541E+00
  1.000E+01  4.786E-01  1.467E-01 3.3965359E+00 7.9648651E-01 1.3034118E+00
  9.957E+00  5.000E-01  1.340E-01 3.3868795E+00 7.8173465E-01 1.3540618E+00
  1.000E+01  4.367E-01  1.738E-01 3.3937144E+00 8.6047139E-01 1.2620794E+00
  9.957E+00  4.575E-01  1.600E-01 3.3866129E+00 8.4832879E-01 1.3134679E+00
  1.000E+01  3.962E-01  2.029E-01 3.4146759E+00 9.2229759E-01 1.2176058E+00
  9.957E+00  4.163E-01  1.881E-01 3.4176995E+00 9.1271455E-01 1.2695135E+00
  1.000E+01  3.572E-01  2.340E-01 3.4223046E+00 9.8185482E-01 1.1701312E+00
  9.957E+00  3.765E-01  2.182E-01 3.4087040E+00 9.7487026E-01 1.2224506E+00
  1.000E+01  3.198E-01  2.669E-01 3.4237677E+00 1.0389563E+00 1.1197320E+00
  9.957E+00  3.383E-01  2.502E-01 3.4251160E+00 1.0345921E+00 1.1723391E+00
  1.000E+01  2.841E-01  3.018E-01 3.4250709E+00 1.0934801E+00 1.0665514E+00
  9.957E+00  3.018E-01  2.841E-01 3.4250778E+00 1.0917416E+00 1.1193098E+00
  1.000E+01  2.502E-01  3.383E-01 3.4251089E+00 1.1452857E+00 1.0107205E+00
  9.957E+00  2.669E-01  3.198E-01 3.4237742E+00 1.1461784E+00 1.0634981E+00
  1.000E+01  2.182E-01  3.765E-01 3.4086966E+00 1.1942412E+00 9.5237701E-01
  9.957E+00  2.340E-01  3.572E-01 3.4223109E+00 1.1977681E+00 1.0050479E+00
  1.000E+01  1.881E-01  4.163E-01 3.4176918E+00 1.2402184E+00 8.9165568E-01
  9.957E+00  2.029E-01  3.962E-01 3.4146818E+00 1.2463644E+00 9.4408418E-01
  1.000E+01  1.600E-01  4.575E-01 3.3866048E+00 1.2831584E+00 8.2875540E-01
  9.957E+00  1.738E-01  4.367E-01 3.3937201E+00 1.2918884E+00 8.8079771E-01
  1.000E+01  1.340E-01  5.000E-01 3.3868711E+00 1.3228154E+00 7.6369782E-01
  9.957E+00  1.467E-01  4.786E-01 3.3965410E+00 1.3341970E+00 8.1530144E-01
  1.000E+01  1.101E-01  5.438E-01 3.3529104E+00 1.3592473E+00 6.9685821E-01
  9.957E+00  1.218E-01  5.217E-01 3.3708735E+00 1.3730945E+00 7.4771628E-01
  1.000E+01  8.849E-02  5.887E-01 3.3548504E+00 1.3925024E+00 6.2841036E-01
  9.957E+00  9.903E-02  5.661E-01 3.3529816E+00 1.4088270E+00 6.7853301E-01
  1.000E+01  6.913E-02  6.347E-01 3.3290657E+00 1.4217961E+00 5.5781523E-01
  9.957E+00  7.852E-02  6.116E-01 3.3444495E+00 1.4409190E+00 6.0739186E-01
  1.000E+01  5.207E-02  6.815E-01 3.3004120E+00 1.4475510E+00 4.8598884E-01
  9.957E+00  6.031E-02  6.580E-01 3.3108207E+00 1.4689235E+00 5.3426856E-01
  1.000E+01  3.738E-02  7.292E-01 3.2966511E+00 1.4704860E+00 4.1391053E-01
  9.957E+00  4.443E-02  7.052E-01 3.2993395E+00 1.4938775E+00 4.6064800E-01
  1.000E+01  2.507E-02  7.775E-01 3.2845980E+00 1.4897291E+00 3.4064527E-01
  9.957E+00  3.092E-02  7.532E-01 3.2918872E+00 1.5156125E+00 3.8641315E-01
  1.000E+01  1.519E-02  8.264E-01 3.2664117E+00 1.5045815E+00 2.6564339E-01
  9.957E+00  1.983E-02  8.019E-01 3.2753297E+00 1.5330632E+00 3.1048974E-01
  1.000E+01  7.761E-03  8.757E-01 3.2509440E+00 1.5155173E+00 1.8975194E-01
  9.957E+00  1.117E-02  8.510E-01 3.2576638E+00 1.5461819E+00 2.3312459E-01
  1.000E+01  2.796E-03  9.253E-01 3.2420710E+00 1.5229620E+00 1.1378448E-01
  9.957E+00  4.969E-03  9.004E-01 3.2457721E+00 1.5555638E+00 1.5533729E-01
  1.000E+01  3.108E-04  9.751E-01 3.2386182E+00 1.5268045E+00 3.7918084E-02
  9.957E+00  1.243E-03  9.502E-01 3.2402446E+00 1.5613800E+00 7.7633263E-02
  1.000E+01  3.108E-04  1.025E+00 3.2386181E+00 1.5268046E+00 -3.7915826E-02
  9.957E+00  0.000E+00  1.000E+00 3.2388030E+00 1.5633717E+00 1.1302954E-06
  1.000E+01  2.796E-03  1.075E+00 3.2420708E+00 1.5229623E+00 -1.1378224E-01
  9.957E+00  1.243E-03  1.050E+00 3.2402445E+00 1.5613803E+00 -7.7630998E-02
  1.000E+01  7.761E-03  1.124E+00 3.2509436E+00 1.5155178E+00 -1.8974971E-01
  9.957E+00  4.969E-03  1.100E+00 3.2457718E+00 1.5555643E+00 -1.5533502E-01
  1.000E+01  1.519E-02  1.174E+00 3.2664111E+00 1.5045820E+00 -2.6564117E-01
  9.957E+00  1.117E-02  1.149E+00 3.2576633E+00 1.5461825E+00 -2.3312234E-01
  1.000E+01  2.507E-02  1.223E+00 3.2845973E+00 1.4897295E+00 -3.4064305E-01
  9.957E+00  1.983E-02  1.198E+00 3.2753290E+00 1.5330636E+00 -3.1048752E-01
  1.000E+01  3.738E-02  1.271E+00 3.2966502E+00 1.4704867E+00 -4.1390833E-01
  9.957E+00  3.092E-02  1.247E+00 3.2918864E+00 1.5156129E+00 -3.8641096E-01
  1.000E+01  5.207E-02  1.318E+00 3.3004109E+00 1.4475524E+00 -4.8598667E-01
  9.957E+00  4.443E-02  1.295E+00 3.2993385E+00 1.4938787E+00 -4.6064585E-01
  1.000E+01  6.913E-02  1.365E+00 3.3290645E+00 1.4217970E+00 -5.5781310E-01
  9.957E+00  6.031E-02  1.342E+00 3.3108195E+00 1.4689248E+00 -5.3426644E-01
  1.000E+01  8.849E-02  1.411E+00 3.3548491E+00 1.3925032E+00 -6.2840827E-01
  9.957E+00  7.852E-02  1.388E+00 3.3444482E+00 1.4409196E+00 -6.0738977E-01
  1.000E+01  1.101E-01  1.456E+00 3.3529089E+00 1.3592490E+00 -6.9685618E-01
  9.957E+00  9.903E-02  1.434E+00 3.3529801E+00 1.4088283E+00 -6.7853097E-01
  1.000E+01  1.340E-01  1.500E+00 3.3868695E+00 1.3228165E+00 -7.6369583E-01
  9.957E+00  1.218E-01  1.478E+00 3.3708720E+00 1.3730960E+00 -7.4771429E-01
  1.000E+01  1.600E-01  1.543E+00 3.3866031E+00 1.2831598E+00 -8.2875347E-01
  9.957E+00  1.467E-01  1.521E+00 3.3965393E+00 1.3341981E+00 -8.1529950E-01
  1.000E+01  1.881E-01  1.584E+00 3.4176900E+00 1.2402200E+00 -8.9165380E-01
  9.957E+00  1.738E-01  1.563E+00 3.3937182E+00 1.2918901E+00 -8.8079585E-01
  1.000E+01  2.182E-01  1.623E+00 3.4086947E+00 1.1942428E+00 -9.5237521E-01
  9.957E+00  2.029E-01  1.604E+00 3.4146798E+00 1.2463659E+00 -9.4408237E-01
  1.000E+01  2.502E-01  1.662E+00 3.4251068E+00 1.1452875E+00 -1.0107188E+00
  9.957E+00  2.340E-01  1.643E+00 3.4223088E+00 1.1977699E+00 -1.0050462E+00
  1.000E+01  2.841E-01  1.698E+00 3.4250687E+00 1.0934819E+00 -1.0665497E+00
  9.957E+00  2.669E-01  1.680E+00 3.4237720E+00 1.1461801E+00 -1.0634964E+00
  1.000E+01  3.198E-01  1.733E+00 3.4237654E+00 1.0389582E+00 -1.1197305E+00
  9.957E+00  3.018E-01  1.716E+00 3.4250755E+00 1.0917435E+00 -1.1193082E+00
  1.000E+01  3.572E-01  1.766E+00 3.4223022E+00 9.8185672E-01 -1.1701297E+00
  9.957E+00  3.383E-01  1.750E+00 3.4251137E+00 1.0345940E+00 -1.1723376E+00
  1.000E+01  3.962E-01  1.797E+00 3.4146734E+00 9.2229958E-01 -1.2176044E+00
  9.957E+00  3.765E-01  1.782E+00 3.4087016E+00 9.7487237E-01 -1.2224492E+00
  1.000E+01  4.367E-01  1.826E+00 3.3937120E+00 8.6047360E-01 -1.2620781E+00
  9.957E+00  4.163E-01  1.812E+00 3.4176969E+00 9.1271666E-01 -1.2695122E+00
  1.000E+01  4.786E-01  1.853E+00 3.3965333E+00 7.9648899E-01 -1.3034107E+00
  9.957E+00  4.575E-01  1.840E+00 3.3866102E+00 8.4833086E-01 -1.3134668E+00
  1.000E+01  5.217E-01  1.878E+00 3.3708660E+00 7.3046327E-01 -1.3414109E+00
  9.957E+00  5.000E-01  1.866E+00 3.3868768E+00 7.8173667E-01 -1.3540607E+00
  1.000E+01  5.661E-01  1.901E+00 3.3529742E+00 6.6287586E-01 -1.3763182E+00
  9.957E+00  5.438E-01  1.890E+00 3.3529163E+00 7.1331830E-01 -1.3913532E+00
  1.000E+01  6.116E-01  1.921E+00 3.3444425E+00 5.9337594E-01 -1.4076689E+00
  9.957E+00  5.887E-01  1.912E+00 3.3548563E+00 6.4325372E-01 -1.4253927E+00
  1.000E+01  6.580E-01  1.940E+00 3.3108143E+00 5.2194017E-01 -1.4350277E+00
  9.957E+00  6.347E-01  1.931E+00 3.3290718E+00 5.7099138E-01 -1.4553785E+00
  1.000E+01  7.052E-01  1.956E+00 3.2993336E+00 4.5001908E-01 -1.4594065E+00
  9.957E+00  6.815E-01  1.948E+00 3.3004185E+00 4.9746856E-01 -1.4817426E+00
  1.000E+01  7.532E-01  1.969E+00 3.2918818E+00 3.7749779E-01 -1.4806403E+00
  9.957E+00  7.292E-01  1.963E+00 3.2966581E+00 4.2368738E-01 -1.5052193E+00
  1.000E+01  8.019E-01  1.980E+00 3.2753244E+00 3.0332643E-01 -1.4976884E+00
  9.957E+00  7.775E-01  1.975E+00 3.2846053E+00 3.4869111E-01 -1.5249168E+00
  1.000E+01  8.510E-01  1.989E+00 3.2576586E+00 2.2774619E-01 -1.5105043E+00
  9.957E+00  8.264E-01  1.985E+00 3.2664193E+00 2.7191746E-01 -1.5401199E+00
  1.000E+01  9.004E-01  1.995E+00 3.2457671E+00 1.5175349E-01 -1.5196693E+00
  9.957E+00  8.757E-01  1.992E+00 3.2509518E+00 1.9423352E-01 -1.5513139E+00
  1.000E+01  9.502E-01  1.999E+00 3.2402398E+00 7.5842265E-02 -1.5253511E+00
  9.957E+00  9.253E-01  1.997E+00 3.2420790E+00 1.1647193E-01 -1.5589343E+00
  1.000E+01  1.000E+00  2.000E+00 3.2387984E+00 1.3778796E-06 -1.5272968E+00
  9.957E+00  9.751E-01  2.000E+00 3.2386265E+00 3.8813814E-02 -1.5628674E+00
  1.000E+01  1.050E+00  1.999E+00 3.2402402E+00 -7.5839513E-02 -1.5253513E+00
  9.957E+00  1.025E+00  2.000E+00 3.2386267E+00 -3.8811038E-02 -1.5628675E+00
  1.000E+01  1.100E+00  1.995E+00 3.2457679E+00 -1.5175075E-01 -1.5196696E+00
  9.957E+00  1.075E+00  1.997E+00 3.2420796E+00 -1.1646916E-01 -1.5589345E+00
  1.000E+01  1.149E+00  1.989E+00 3.2576598E+00 -2.2774346E-01 -1.5105047E+00
  9.957E+00  1.124E+00  1.992E+00 3.2509528E+00 -1.9423076E-01 -1.5513142E+00
  1.000E+01  1.198E+00  1.980E+00 3.2753260E+00 -3.0332371E-01 -1.4976889E+00
  9.957E+00  1.174E+00  1.985E+00 3.2664207E+00 -2.7191472E-01 -1.5401204E+00