# TIME = 2.000000
VARIABLES = X, Y, Z, FX, FY, FZ
ZONE N=29232 E=58212 F=FEPOINT ET=TRIANGLE
  0.000E+00  9.502E-01  1.243E-03 3.2442417E+00 7.1931989E-02 1.4467487E+00
  0.000E+00  1.000E+00  0.000E+00 3.2428013E+00 -6.2488173E-07 1.4485939E+00
  4.318E-02  9.751E-01  3.108E-04 3.2426307E+00 3.5080172E-02 1.4125983E+00
  0.000E+00  1.050E+00  1.243E-03 3.2442422E+00 -7.1933236E-02 1.4467486E+00
  4.318E-02  1.025E+00  3.108E-04 3.2426310E+00 -3.5081418E-02 1.4125983E+00
  0.000E+00  1.100E+00  4.969E-03 3.2497686E+00 -1.4393247E-01 1.4413596E+00
  4.318E-02  1.075E+00  2.796E-03 3.2460828E+00 -1.0527307E-01 1.4090434E+00
  0.000E+00  1.149E+00  1.117E-02 3.2616619E+00 -2.1600890E-01 1.4326669E+00
  4.318E-02  1.124E+00  7.761E-03 3.2549563E+00 -1.7555824E-01 1.4021558E+00
  0.000E+00  1.198E+00  1.983E-02 3.2793322E+00 -2.8769425E-01 1.4205116E+00
  4.318E-02  1.174E+00  1.519E-02 3.2704277E+00 -2.4577306E-01 1.3920381E+00
  0.000E+00  1.247E+00  3.092E-02 3.2958894E+00 -3.5804379E-01 1.4043422E+00
  4.318E-02  1.223E+00  2.507E-02 3.2886169E+00 -3.1516477E-01 1.3782967E+00
  0.000E+00  1.295E+00  4.443E-02 3.3033270E+00 -4.2682876E-01 1.3842029E+00
  4.318E-02  1.271E+00  3.738E-02 3.3006625E+00 -3.8294962E-01 1.3604928E+00
  0.000E+00  1.342E+00  6.031E-02 3.3147951E+00 -4.9504454E-01 1.3610805E+00
  4.318E-02  1.318E+00  5.207E-02 3.3044026E+00 -4.4963623E-01 1.3392733E+00
  0.000E+00  1.388E+00  7.852E-02 3.3484380E+00 -5.6279945E-01 1.3351316E+00
  4.318E-02  1.365E+00  6.913E-02 3.3330637E+00 -5.1608981E-01 1.3154444E+00
  0.000E+00  1.434E+00  9.903E-02 3.3569553E+00 -6.2871765E-01 1.3053964E+00
  4.318E-02  1.411E+00  8.849E-02 3.3588545E+00 -5.8140454E-01 1.2883420E+00
  0.000E+00  1.478E+00  1.218E-01 3.3748420E+00 -6.9282183E-01 1.2722878E+00
  4.318E-02  1.456E+00  1.101E-01 3.3568870E+00 -6.4473285E-01 1.2575755E+00
  0.000E+00  1.521E+00  1.467E-01 3.4005192E+00 -7.5544515E-01 1.2362458E+00
  4.318E-02  1.500E+00  1.340E-01 3.3908641E+00 -7.0657282E-01 1.2238686E+00
  0.000E+00  1.563E+00  1.738E-01 3.3976751E+00 -8.1613279E-01 1.1970432E+00
  4.318E-02  1.543E+00  1.600E-01 3.3905773E+00 -7.6676386E-01 1.1871776E+00
  0.000E+00  1.604E+00  2.029E-01 3.4186467E+00 -8.7477297E-01 1.1548613E+00
  4.318E-02  1.584E+00  1.881E-01 3.4216818E+00 -8.2495909E-01 1.1474494E+00
  0.000E+00  1.643E+00  2.340E-01 3.4262721E+00 -9.3126112E-01 1.1098331E+00
  4.318E-02  1.623E+00  2.182E-01 3.4126650E+00 -8.8113867E-01 1.1049116E+00
  0.000E+00  1.680E+00  2.669E-01 3.4277330E+00 -9.8542011E-01 1.0620310E+00
  4.318E-02  1.662E+00  2.502E-01 3.4290868E+00 -9.3511815E-01 1.0596182E+00
  0.000E+00  1.716E+00  3.018E-01 3.4290352E+00 -1.0371341E+00 1.0115906E+00
  4.318E-02  1.698E+00  2.841E-01 3.4290446E+00 -9.8677272E-01 1.0116876E+00
  0.000E+00  1.750E+00  3.383E-01 3.4290777E+00 -1.0862702E+00 9.5863676E-01
  4.318E-02  1.733E+00  3.198E-01 3.4277426E+00 -1.0359752E+00 9.6124207E-01
  0.000E+00  1.782E+00  3.765E-01 3.4126562E+00 -1.1327028E+00 9.0329966E-01
  4.318E-02  1.766E+00  3.572E-01 3.4262819E+00 -1.0826046E+00 9.0841182E-01
  0.000E+00  1.812E+00  4.163E-01 3.4216735E+00 -1.1763108E+00 8.4570726E-01
  4.318E-02  1.797E+00  3.962E-01 3.4186568E+00 -1.1265282E+00 8.5330970E-01
  0.000E+00  1.840E+00  4.575E-01 3.3905693E+00 -1.2170379E+00 7.8604822E-01
  4.318E-02  1.826E+00  4.367E-01 3.3976854E+00 -1.1676753E+00 7.9610841E-01
  0.000E+00  1.866E+00  5.000E-01 3.3908561E+00 -1.2546511E+00 7.2434302E-01
  4.318E-02  1.853E+00  4.786E-01 3.4005296E+00 -1.2059153E+00 7.3690950E-01
  0.000E+00  1.890E+00  5.438E-01 3.3568793E+00 -1.2892061E+00 6.6094765E-01
  4.318E-02  1.878E+00  5.217E-01 3.3748527E+00 -1.2410730E+00 6.7582240E-01
  0.000E+00  1.912E+00  5.887E-01 3.3588472E+00 -1.3207468E+00 5.9602689E-01
  4.318E-02  1.901E+00  5.661E-01 3.3569663E+00 -1.2733695E+00 6.1329090E-01
  0.000E+00  1.931E+00  6.347E-01 3.3330569E+00 -1.3485310E+00 5.2906949E-01
  4.318E-02  1.921E+00  6.116E-01 3.3484493E+00 -1.3023753E+00 5.4899016E-01
  0.000E+00  1.948E+00  6.815E-01 3.3043961E+00 -1.3729592E+00 4.6094428E-01
  4.318E-02  1.940E+00  6.580E-01 3.3148064E+00 -1.3276880E+00 4.8289789E-01
  0.000E+00  1.963E+00  7.292E-01 3.3006561E+00 -1.3947117E+00 3.9258014E-01
  4.318E-02  1.956E+00  7.052E-01 3.3033380E+00 -1.3502426E+00 4.1635590E-01
  0.000E+00  1.975E+00  7.775E-01 3.2886106E+00 -1.4129629E+00 3.2309022E-01
  4.318E-02  1.969E+00  7.532E-01 3.2959003E+00 -1.3698871E+00 3.4925846E-01
  0.000E+00  1.985E+00  8.264E-01 3.2704215E+00 -1.4270501E+00 2.5195316E-01
  4.318E-02  1.980E+00  8.019E-01 3.2793435E+00 -1.3856598E+00 2.8063472E-01
  0.000E+00  1.992E+00  8.757E-01 3.2549504E+00 -1.4374224E+00 1.7997237E-01
  4.318E-02  1.989E+00  8.510E-01 3.2616736E+00 -1.3975173E+00 2.1070794E-01
  0.000E+00  1.997E+00  9.253E-01 3.2460773E+00 -1.4444834E+00 1.0791949E-01
  4.318E-02  1.995E+00  9.004E-01 3.2497807E+00 -1.4059970E+00 1.4039977E-01
  0.000E+00  2.000E+00  9.751E-01 3.2426257E+00 -1.4481277E+00 3.5962461E-02
  4.318E-02  1.999E+00  9.502E-01 3.2442547E+00 -1.4112538E+00 7.0167027E-02
  0.000E+00  2.000E+00  1.025E+00 3.2426256E+00 -1.4481276E+00 -3.5963751E-02
  4.318E-02  2.000E+00  1.000E+00 3.2428140E+00 -1.4130538E+00 -6.5904301E-07
  0.000E+00  1.997E+00  1.075E+00 3.2460770E+00 -1.4444832E+00 -1.0792078E-01
  4.318E-02  1.999E+00  1.050E+00 3.2442545E+00 -1.4112537E+00 -7.0168344E-02
  0.000E+00  1.992E+00  1.124E+00 3.2549500E+00 -1.4374221E+00 -1.7997367E-01
  4.318E-02  1.995E+00  1.100E+00 3.2497804E+00 -1.4059967E+00 -1.4040108E-01
  0.000E+00  1.985E+00  1.174E+00 3.2704209E+00 -1.4270499E+00 -2.5195446E-01
  4.318E-02  1.989E+00  1.149E+00 3.2616732E+00 -1.3975169E+00 -2.1070923E-01
  0.000E+00  1.975E+00  1.223E+00 3.2886100E+00 -1.4129629E+00 -3.2309151E-01
  4.318E-02  1.980E+00  1.198E+00 3.2793429E+00 -1.3856597E+00 -2.8063599E-01
  0.000E+00  1.963E+00  1.271E+00 3.3006553E+00 -1.3947114E+00 -3.9258141E-01
  4.318E-02  1.969E+00  1.247E+00 3.2958996E+00 -1.3698870E+00 -3.4925972E-01
  0.000E+00  1.948E+00  1.318E+00 3.3043952E+00 -1.3729583E+00 -4.6094553E-01
  4.318E-02  1.956E+00  1.295E+00 3.3033371E+00 -1.3502420E+00 -4.1635716E-01
  0.000E+00  1.931E+00  1.365E+00 3.3330558E+00 -1.3485307E+00 -5.2907072E-01
  4.318E-02  1.940E+00  1.342E+00 3.3148053E+00 -1.3276873E+00 -4.8289914E-01
  0.000E+00  1.912E+00  1.411E+00 3.3588461E+00 -1.3207465E+00 -5.9602810E-01
  4.318E-02  1.921E+00  1.388E+00 3.3484481E+00 -1.3023753E+00 -5.4899140E-01
  0.000E+00  1.890E+00  1.456E+00 3.3568780E+00 -1.2892051E+00 -6.6094883E-01
  4.318E-02  1.901E+00  1.434E+00 3.3569650E+00 -1.2733688E+00 -6.1329211E-01
  0.000E+00  1.866E+00  1.500E+00 3.3908547E+00 -1.2546507E+00 -7.2434419E-01
  4.318E-02  1.878E+00  1.478E+00 3.3748513E+00 -1.2410723E+00 -6.7582359E-01
  0.000E+00  1.840E+00  1.543E+00 3.3905677E+00 -1.2170372E+00 -7.8604934E-01
  4.318E-02  1.853E+00  1.521E+00 3.4005281E+00 -1.2059150E+00 -7.3691066E-01
  0.000E+00  1.812E+00  1.584E+00 3.4216718E+00 -1.1763100E+00 -8.4570835E-01
  4.318E-02  1.826E+00  1.563E+00 3.3976838E+00 -1.1676745E+00 -7.9610953E-01
  0.000E+00  1.782E+00  1.623E+00 3.4126545E+00 -1.1327021E+00 -9.0330070E-01
  4.318E-02  1.797E+00  1.604E+00 3.4186551E+00 -1.1265276E+00 -8.5331081E-01
  0.000E+00  1.750E+00  1.662E+00 3.4290759E+00 -1.0862693E+00 -9.5863776E-01
  4.318E-02  1.766E+00  1.643E+00 3.4262800E+00 -1.0826038E+00 -9.0841289E-01
  0.000E+00  1.716E+00  1.698E+00 3.4290333E+00 -1.0371333E+00 -1.0115916E+00
  4.318E-02  1.733E+00  1.680E+00 3.4277406E+00 -1.0359745E+00 -9.6124311E-01
  0.000E+00  1.680E+00  1.733E+00 3.4277310E+00 -9.8541920E-01 -1.0620319E+00
  4.318E-02  1.698E+00  1.716E+00 3.4290425E+00 -9.8677186E-01 -1.0116886E+00
  0.000E+00  1.643E+00  1.766E+00 3.4262700E+00 -9.3126017E-01 -1.1098340E+00
  4.318E-02  1.662E+00  1.750E+00 3.4290846E+00 -9.3511728E-01 -1.0596192E+00
  0.000E+00  1.604E+00  1.797E+00 3.4186445E+00 -8.7477198E-01 -1.1548622E+00
  4.318E-02  1.623E+00  1.782E+00 3.4126627E+00 -8.8113775E-01 -1.1049125E+00
  0.000E+00  1.563E+00  1.826E+00 3.3976727E+00 -8.1613183E-01 -1.1970440E+00
  4.318E-02  1.584E+00  1.812E+00 3.4216795E+00 -8.2495812E-01 -1.1474502E+00
  0.000E+00  1.521E+00  1.853E+00 3.4005168E+00 -7.5544427E-01 -1.2362466E+00
  4.318E-02  1.543E+00  1.840E+00 3.3905750E+00 -7.6676279E-01 -1.1871783E+00
  0.000E+00  1.478E+00  1.878E+00 3.3748398E+00 -6.9282082E-01 -1.2722885E+00
  4.318E-02  1.500E+00  1.866E+00 3.3908616E+00 -7.0657174E-01 -1.2238693E+00
  0.000E+00  1.434E+00  1.901E+00 3.3569532E+00 -6.2871629E-01 -1.3053969E+00
  4.318E-02  1.456E+00  1.890E+00 3.3568843E+00 -6.4473187E-01 -1.2575762E+00
  0.000E+00  1.388E+00  1.921E+00 3.3484357E+00 -5.6279793E-01 -1.3351321E+00
  4.318E-02  1.411E+00  1.912E+00 3.3588518E+00 -5.8140369E-01 -1.2883428E+00
  0.000E+00  1.342E+00  1.940E+00 3.3147923E+00 -4.9504332E-01 -1.3610809E+00
  4.318E-02  1.365E+00  1.931E+00 3.3330612E+00 -5.1608885E-01 -1.3154451E+00
  0.000E+00  1.295E+00  1.956E+00 3.3033238E+00 -4.2682810E-01 -1.3842034E+00
  4.318E-02  1.318E+00  1.948E+00 3.3044005E+00 -4.4963493E-01 -1.3392739E+00
  0.000E+00  1.247E+00  1.969E+00 3.2958861E+00 -3.5804339E-01 -1.4043428E+00
  4.318E-02  1.271E+00  1.963E+00 3.3006603E+00 -3.8294804E-01 -1.3604932E+00
  0.000E+00  1.198E+00  1.980E+00 3.2793293E+00 -2.8769368E-01 -1.4205122E+00
  4.318E-02  1.223E+00  1.975E+00 3.2886146E+00 -3.1516317E-01 -1.3782968E+00
  0.000E+00  1.149E+00  1.989E+00 3.2616592E+00 -2.1600797E-01 -1.4326675E+00
  4.318E-02  1.174E+00  1.985E+00 3.2704250E+00 -2.4577163E-01 -1.3920382E+00
  0.000E+00  1.100E+00  1.995E+00 3.2497659E+00 -1.4393128E-01 -1.4413602E+00
  4.318E-02  1.124E+00  1.992E+00 3.2549536E+00 -1.7555698E-01 -1.4021558E+00
  0.000E+00  1.050E+00  1.999E+00 3.2442395E+00 -7.1931980E-02 -1.4467490E+00
  4.318E-02  1.075E+00  1.997E+00 3.2460801E+00 -1.0527189E-01 -1.4090434E+00
  0.000E+00  1.000E+00  2.000E+00 3.2427986E+00 5.8759620E-07 -1.4485943E+00
  4.318E-02  1.025E+00  2.000E+00 3.2426283E+00 -3.5080226E-02 -1.4125982E+00
  0.000E+00  9.502E-01  1.999E+00 3.2442390E+00 7.1933153E-02 -1.4467490E+00
  4.318E-02  9.751E-01  2.000E+00 3.2426280E+00 3.5081403E-02 -1.4125982E+00
  0.000E+00  9.004E-01  1.995E+00 3.2497648E+00 1.4393245E-01 -1.4413600E+00
  4.318E-02  9.253E-01  1.997E+00 3.2460793E+00 1.0527307E-01 -1.4090433E+00
  0.000E+00  8.510E-01  1.989E+00 3.2616576E+00 2.1600913E-01 -1.4326673E+00
  4.318E-02  8.757E-01  1.992E+00 3.2549522E+00 1.7555815E-01 -1.4021557E+00
  0.000E+00  8.019E-01  1.980E+00 3.2793272E+00 2.8769484E-01 -1.4205120E+00
  4.318E-02  8.264E-01  1.985E+00 3.2704232E+00 2.4577279E-01 -1.3920380E+00
  0.000E+00  7.532E-01  1.969E+00 3.2958835E+00 3.5804453E-01 -1.4043425E+00
  4.318E-02  7.775E-01  1.975E+00 3.2886122E+00 3.1516432E-01 -1.3782965E+00
  0.000E+00  7.052E-01  1.956E+00 3.3033206E+00 4.2682923E-01 -1.3842030E+00
  4.318E-02  7.292E-01  1.963E+00 3.3006574E+00 3.8294918E-01 -1.3604928E+00
  0.000E+00  6.580E-01  1.940E+00 3.3147886E+00 4.9504444E-01 -1.3610805E+00
  4.318E-02  6.815E-01  1.948E+00 3.3043971E+00 4.4963605E-01 -1.3392734E+00
  0.000E+00  6.116E-01  1.921E+00 3.3484315E+00 5.6279902E-01 -1.3351315E+00
  4.318E-02  6.347E-01  1.931E+00 3.3330574E+00 5.1608995E-01 -1.3154446E+00
  0.000E+00  5.661E-01  1.901E+00 3.3569486E+00 6.2871737E-01 -1.3053963E+00
  4.318E-02  5.887E-01  1.912E+00 3.3588474E+00 5.8140477E-01 -1.2883422E+00
  0.000E+00  5.217E-01  1.878E+00 3.3748347E+00 6.9282186E-01 -1.2722879E+00
  4.318E-02  5.438E-01  1.890E+00 3.3568795E+00 6.4473294E-01 -1.2575756E+00
  0.000E+00  4.786E-01  1.853E+00 3.4005113E+00 7.5544528E-01 -1.2362459E+00
  4.318E-02  5.000E-01  1.866E+00 3.3908563E+00 7.0657276E-01 -1.2238686E+00
  0.000E+00  4.367E-01  1.826E+00 3.3976668E+00 8.1613282E-01 -1.1970433E+00
  4.318E-02  4.575E-01  1.840E+00 3.3905693E+00 7.6676381E-01 -1.1871776E+00
  0.000E+00  3.962E-01  1.797E+00 3.4186382E+00 8.7477294E-01 -1.1548614E+00
  4.318E-02  4.163E-01  1.812E+00 3.4216734E+00 8.2495909E-01 -1.1474495E+00
  0.000E+00  3.572E-01  1.766E+00 3.4262633E+00 9.3126109E-01 -1.1098331E+00
  4.318E-02  3.765E-01  1.782E+00 3.4126563E+00 8.8113870E-01 -1.1049117E+00
  0.000E+00  3.198E-01  1.733E+00 3.4277240E+00 9.8542009E-01 -1.0620310E+00
  4.318E-02  3.383E-01  1.750E+00 3.4290778E+00 9.3511816E-01 -1.0596183E+00
  0.000E+00  2.841E-01  1.698E+00 3.4290259E+00 1.0371341E+00 -1.0115907E+00
  4.318E-02  3.018E-01  1.716E+00 3.4290353E+00 9.8677274E-01 -1.0116877E+00
  0.000E+00  2.502E-01  1.662E+00 3.4290682E+00 1.0862702E+00 -9.5863680E-01
  4.318E-02  2.669E-01  1.680E+00 3.4277331E+00 1.0359752E+00 -9.6124217E-01
  0.000E+00  2.182E-01  1.623E+00 3.4126465E+00 1.1327028E+00 -9.0329971E-01
  4.318E-02  2.340E-01  1.643E+00 3.4262722E+00 1.0826046E+00 -9.0841192E-01
  0.000E+00  1.881E-01  1.584E+00 3.4216636E+00 1.1763107E+00 -8.4570732E-01
  4.318E-02  2.029E-01  1.604E+00 3.4186470E+00 1.1265282E+00 -8.5330980E-01
  0.000E+00  1.600E-01  1.543E+00 3.3905593E+00 1.2170379E+00 -7.8604829E-01
  4.318E-02  1.738E-01  1.563E+00 3.3976755E+00 1.1676754E+00 -7.9610850E-01
  0.000E+00  1.340E-01  1.500E+00 3.3908460E+00 1.2546511E+00 -7.2434310E-01
  4.318E-02  1.467E-01  1.521E+00 3.4005195E+00 1.2059154E+00 -7.3690959E-01
  0.000E+00  1.101E-01  1.456E+00 3.3568691E+00 1.2892061E+00 -6.6094773E-01
  4.318E-02  1.218E-01  1.478E+00 3.3748425E+00 1.2410730E+00 -6.7582249E-01
  0.000E+00  8.849E-02  1.411E+00 3.3588370E+00 1.3207467E+00 -5.9602697E-01
  4.318E-02  9.903E-02  1.434E+00 3.3569561E+00 1.2733695E+00 -6.1329099E-01
  0.000E+00  6.913E-02  1.365E+00 3.3330466E+00 1.3485310E+00 -5.2906957E-01
  4.318E-02  7.852E-02  1.388E+00 3.3484390E+00 1.3023753E+00 -5.4899025E-01
  0.000E+00  5.207E-02  1.318E+00 3.3043858E+00 1.3729592E+00 -4.6094436E-01
  4.318E-02  6.031E-02  1.342E+00 3.3147960E+00 1.3276880E+00 -4.8289798E-01
  0.000E+00  3.738E-02  1.271E+00 3.3006459E+00 1.3947117E+00 -3.9258023E-01
  4.318E-02  4.443E-02  1.295E+00 3.3033277E+00 1.3502426E+00 -4.1635598E-01
  0.000E+00  2.507E-02  1.223E+00 3.2886004E+00 1.4129629E+00 -3.2309032E-01
  4.318E-02  3.092E-02  1.247E+00 3.2958901E+00 1.3698871E+00 -3.4925853E-01
  0.000E+00  1.519E-02  1.174E+00 3.2704113E+00 1.4270501E+00 -2.5195326E-01
  4.318E-02  1.983E-02  1.198E+00 3.2793333E+00 1.3856598E+00 -2.8063479E-01
  0.000E+00  7.761E-03  1.124E+00 3.2549403E+00 1.4374224E+00 -1.7997246E-01
  4.318E-02  1.117E-02  1.149E+00 3.2616636E+00 1.3975172E+00 -2.1070802E-01
  0.000E+00  2.796E-03  1.075E+00 3.2460673E+00 1.4444833E+00 -1.0791957E-01
  4.318E-02  4.969E-03  1.100E+00 3.2497707E+00 1.4059969E+00 -1.4039987E-01
  0.000E+00  3.108E-04  1.025E+00 3.2426159E+00 1.4481277E+00 -3.5962537E-02
  4.318E-02  1.243E-03  1.050E+00 3.2442448E+00 1.4112538E+00 -7.0167130E-02
  0.000E+00  3.108E-04  9.751E-01 3.2426159E+00 1.4481276E+00 3.5963673E-02
  4.318E-02  0.000E+00  1.000E+00 3.2428043E+00 1.4130538E+00 5.5381885E-07
  0.000E+00  2.796E-03  9.253E-01 3.2460675E+00 1.4444831E+00 1.0792070E-01
  4.318E-02  1.243E-03  9.502E-01 3.2442449E+00 1.4112536E+00 7.0168237E-02
  0.000E+00  7.761E-03  8.757E-01 3.2549407E+00 1.4374220E+00 1.7997357E-01
  4.318E-02  4.969E-03  9.004E-01 3.2497710E+00 1.4059966E+00 1.4040098E-01
  0.000E+00  1.519E-02  8.264E-01 3.2704119E+00 1.4270498E+00 2.5195435E-01
  4.318E-02  1.117E-02  8.510E-01 3.2616640E+00 1.3975169E+00 2.1070913E-01
  0.000E+00  2.507E-02  7.775E-01 3.2886011E+00 1.4129629E+00 3.2309140E-01
  4.318E-02  1.983E-02  8.019E-01 3.2793339E+00 1.3856596E+00 2.8063590E-01
  0.000E+00  3.738E-02  7.292E-01 3.3006466E+00 1.3947114E+00 3.9258130E-01
  4.318E-02  3.092E-02  7.532E-01 3.2958908E+00 1.3698870E+00 3.4925963E-01
  0.000E+00  5.207E-02  6.815E-01 3.3043867E+00 1.3729583E+00 4.6094543E-01
  4.318E-02  4.443E-02  7.052E-01 3.3033286E+00 1.3502419E+00 4.1635706E-01
  0.000E+00  6.913E-02  6.347E-01 3.3330476E+00 1.3485306E+00 5.2907062E-01
  4.318E-02  6.031E-02  6.580E-01 3.3147971E+00 1.3276872E+00 4.8289903E-01
  0.000E+00  8.849E-02  5.887E-01 3.3588382E+00 1.3207464E+00 5.9602800E-01
  4.318E-02  7.852E-02  6.116E-01 3.3484401E+00 1.3023752E+00 5.4899129E-01
  0.000E+00  1.101E-01  5.438E-01 3.3568704E+00 1.2892051E+00 6.6094873E-01
  4.318E-02  9.903E-02  5.661E-01 3.3569574E+00 1.2733687E+00 6.1329200E-01
  0.000E+00  1.340E-01  5.000E-01 3.3908474E+00 1.2546506E+00 7.2434409E-01
  4.318E-02  1.218E-01  5.217E-01 3.3748440E+00 1.2410722E+00 6.7582348E-01
  0.000E+00  1.600E-01  4.575E-01 3.3905608E+00 1.2170371E+00 7.8604924E-01
  4.318E-02  1.467E-01  4.786E-01 3.4005211E+00 1.2059149E+00 7.3691055E-01
  0.000E+00  1.881E-01  4.163E-01 3.4216653E+00 1.1763100E+00 8.4570826E-01
  4.318E-02  1.738E-01  4.367E-01 3.3976771E+00 1.1676744E+00 7.9610941E-01
  0.000E+00  2.182E-01  3.765E-01 3.4126483E+00 1.1327020E+00 9.0330061E-01
  4.318E-02  2.029E-01  3.962E-01 3.4186488E+00 1.1265275E+00 8.5331069E-01
  0.000E+00  2.502E-01  3.383E-01 3.4290701E+00 1.0862693E+00 9.5863768E-01
  4.318E-02  2.340E-01  3.572E-01 3.4262741E+00 1.0826037E+00 9.0841276E-01
  0.000E+00  2.841E-01  3.018E-01 3.4290279E+00 1.0371333E+00 1.0115915E+00
  4.318E-02  2.669E-01  3.198E-01 3.4277351E+00 1.0359744E+00 9.6124298E-01
  0.000E+00  3.198E-01  2.669E-01 3.4277260E+00 9.8541914E-01 1.0620318E+00
  4.318E-02  3.018E-01  2.841E-01 3.4290374E+00 9.8677177E-01 1.0116884E+00
  0.000E+00  3.572E-01  2.340E-01 3.4262654E+00 9.3126013E-01 1.1098339E+00
  4.318E-02  3.383E-01  2.502E-01 3.4290799E+00 9.3511719E-01 1.0596191E+00
  0.000E+00  3.962E-01  2.029E-01 3.4186405E+00 8.7477194E-01 1.1548621E+00
  4.318E-02  3.765E-01  2.182E-01 3.4126585E+00 8.8113765E-01 1.1049123E+00
  0.000E+00  4.367E-01  1.738E-01 3.3976692E+00 8.1613172E-01 1.1970439E+00
  4.318E-02  4.163E-01  1.881E-01 3.4216757E+00 8.2495805E-01 1.1474501E+00
  0.000E+00  4.786E-01  1.467E-01 3.4005137E+00 7.5544406E-01 1.2362464E+00
  4.318E-02  4.575E-01  1.600E-01 3.3905716E+00 7.6676277E-01 1.1871783E+00
  0.000E+00  5.217E-01  1.218E-01 3.3748370E+00 6.9282071E-01 1.2722884E+00
  4.318E-02  5.000E-01  1.340E-01 3.3908588E+00 7.0657173E-01 1.2238692E+00
  0.000E+00  5.661E-01  9.903E-02 3.3569507E+00 6.2871649E-01 1.3053969E+00
  4.318E-02  5.438E-01  1.101E-01 3.3568822E+00 6.4473171E-01 1.2575761E+00
  0.000E+00  6.116E-01  7.852E-02 3.3484339E+00 5.6279829E-01 1.3351321E+00
  4.318E-02  5.887E-01  8.849E-02 3.3588501E+00 5.8140339E-01 1.2883425E+00
  0.000E+00  6.580E-01  6.031E-02 3.3147915E+00 4.9504334E-01 1.3610810E+00
  4.318E-02  6.347E-01  6.913E-02 3.3330598E+00 5.1608864E-01 1.3154448E+00
  0.000E+00  7.052E-01  4.443E-02 3.3033238E+00 4.2682756E-01 1.3842033E+00
  4.318E-02  6.815E-01  5.207E-02 3.3043992E+00 4.4963503E-01 1.3392737E+00
  0.000E+00  7.532E-01  3.092E-02 3.2958867E+00 3.5804257E-01 1.4043425E+00
  4.318E-02  7.292E-01  3.738E-02 3.3006595E+00 3.8294842E-01 1.3604932E+00
  0.000E+00  8.019E-01  1.983E-02 3.2793301E+00 2.8769303E-01 1.4205118E+00
  4.318E-02  7.775E-01  2.507E-02 3.2886145E+00 3.1516355E-01 1.3782969E+00
  0.000E+00  8.510E-01  1.117E-02 3.2616603E+00 2.1600766E-01 1.4326671E+00
  4.318E-02  8.264E-01  1.519E-02 3.2704258E+00 2.4577183E-01 1.3920383E+00
  0.000E+00  9.004E-01  4.969E-03 3.2497675E+00 1.4393122E-01 1.4413597E+00
  4.318E-02  8.757E-01  7.761E-03 3.2549550E+00 1.7555700E-01 1.4021560E+00
  4.318E-02  9.253E-01  2.796E-03 3.2460820E+00 1.0527183E-01 1.4090435E+00
  1.000E+01  1.050E+00  1.243E-03 3.2442422E+00 -7.1933236E-02 1.4467486E+00
  1.000E+01  1.000E+00  5.551E-16 3.2428013E+00 -6.2488173E-07 1.4485939E+00
  9.957E+00  1.025E+00  3.108E-04 3.2426285E+00 -3.6848797E-02 1.4837691E+00
  1.000E+01  9.502E-01  1.243E-03 3.2442417E+00 7.1931989E-02 1.4467487E+00
  9.957E+00  9.751E-01  3.108E-04 3.2426282E+00 3.6847546E-02 1.4837691E+00
  1.000E+01  9.004E-01  4.969E-03 3.2497675E+00 1.4393122E-01 1.4413597E+00
  9.957E+00  9.253E-01  2.796E-03 3.2460795E+00 1.1057551E-01 1.4800352E+00
  1.000E+01  8.510E-01  1.117E-02 3.2616603E+00 2.1600766E-01 1.4326671E+00
  9.957E+00  8.757E-01  7.761E-03 3.2549524E+00 1.8440180E-01 1.4728006E+00
  1.000E+01  8.019E-01  1.983E-02 3.2793301E+00 2.8769303E-01 1.4205118E+00
  9.957E+00  8.264E-01  1.519E-02 3.2704232E+00 2.5815437E-01 1.4621732E+00
  1.000E+01  7.532E-01  3.092E-02 3.2958867E+00 3.5804257E-01 1.4043425E+00
  9.957E+00  7.775E-01  2.507E-02 3.2886121E+00 3.3104253E-01 1.4477396E+00
  1.000E+01  7.052E-01  4.443E-02 3.3033238E+00 4.2682756E-01 1.3842033E+00
  9.957E+00  7.292E-01  3.738E-02 3.3006573E+00 4.0224290E-01 1.4290389E+00
  1.000E+01  6.580E-01  6.031E-02 3.3147915E+00 4.9504334E-01 1.3610810E+00
  9.957E+00  6.815E-01  5.207E-02 3.3043970E+00 4.7228944E-01 1.4067504E+00
  1.000E+01  6.116E-01  7.852E-02 3.3484339E+00 5.6279829E-01 1.3351321E+00
  9.957E+00  6.347E-01  6.913E-02 3.3330574E+00 5.4209091E-01 1.3817207E+00
  1.000E+01  5.661E-01  9.903E-02 3.3569507E+00 6.2871649E-01 1.3053969E+00
  9.957E+00  5.887E-01  8.849E-02 3.3588476E+00 6.1069613E-01 1.3532527E+00
  1.000E+01  5.217E-01  1.218E-01 3.3748370E+00 6.9282071E-01 1.2722884E+00
  9.957E+00  5.438E-01  1.101E-01 3.3568796E+00 6.7721501E-01 1.3209362E+00
  1.000E+01  4.786E-01  1.467E-01 3.4005137E+00 7.5544406E-01 1.2362464E+00
  9.957E+00  5.000E-01  1.340E-01 3.3908563E+00 7.4217093E-01 1.2855312E+00
  1.000E+01  4.367E-01  1.738E-01 3.3976692E+00 8.1613172E-01 1.1970439E+00
  9.957E+00  4.575E-01  1.600E-01 3.3905693E+00 8.0539468E-01 1.2469919E+00
  1.000E+01  3.962E-01  2.029E-01 3.4186405E+00 8.7477194E-01 1.1548621E+00
  9.957E+00  4.163E-01  1.881E-01 3.4216733E+00 8.6652181E-01 1.2052620E+00
  1.000E+01  3.572E-01  2.340E-01 3.4262654E+00 9.3126013E-01 1.1098339E+00
  9.957E+00  3.765E-01  2.182E-01 3.4126560E+00 9.2553173E-01 1.1605810E+00
  1.000E+01  3.198E-01  2.669E-01 3.4277260E+00 9.8541914E-01 1.0620318E+00
  9.957E+00  3.383E-01  2.502E-01 3.4290774E+00 9.8223091E-01 1.1130057E+00
  1.000E+01  2.841E-01  3.018E-01 3.4290279E+00 1.0371333E+00 1.0115915E+00
  9.957E+00  3.018E-01  2.841E-01 3.4290349E+00 1.0364880E+00 1.0626603E+00
  1.000E+01  2.502E-01  3.383E-01 3.4290701E+00 1.0862693E+00 9.5863768E-01
  9.957E+00  2.669E-01  3.198E-01 3.4277326E+00 1.0881697E+00 1.0096733E+00
  1.000E+01  2.182E-01  3.765E-01 3.4126483E+00 1.1327020E+00 9.0330061E-01
  9.957E+00  2.340E-01  3.572E-01 3.4262716E+00 1.1371483E+00 9.5418135E-01
  1.000E+01  1.881E-01  4.163E-01 3.4216653E+00 1.1763100E+00 8.4570826E-01
  9.957E+00  2.029E-01  3.962E-01 3.4186463E+00 1.1832851E+00 8.9630305E-01
  1.000E+01  1.600E-01  4.575E-01 3.3905608E+00 1.2170371E+00 7.8604924E-01
  9.957E+00  1.738E-01  4.367E-01 3.3976746E+00 1.2265050E+00 8.3621956E-01
  1.000E+01  1.340E-01  5.000E-01 3.3908474E+00 1.2546506E+00 7.2434409E-01
  9.957E+00  1.467E-01  4.786E-01 3.4005185E+00 1.2666722E+00 7.7403812E-01
  1.000E+01  1.101E-01  5.438E-01 3.3568704E+00 1.2892051E+00 6.6094873E-01
  9.957E+00  1.218E-01  5.217E-01 3.3748416E+00 1.3036011E+00 7.0987349E-01
  1.000E+01  8.849E-02  5.887E-01 3.3588382E+00 1.3207464E+00 5.9602800E-01
  9.957E+00  9.903E-02  5.661E-01 3.3569550E+00 1.3375250E+00 6.4419164E-01
  1.000E+01  6.913E-02  6.347E-01 3.3330476E+00 1.3485306E+00 5.2907062E-01
  9.957E+00  7.852E-02  6.116E-01 3.3484377E+00 1.3679927E+00 5.7665098E-01
  1.000E+01  5.207E-02  6.815E-01 3.3043867E+00 1.3729583E+00 4.6094543E-01
  9.957E+00  6.031E-02  6.580E-01 3.3147945E+00 1.3945799E+00 5.0722848E-01
  1.000E+01  3.738E-02  7.292E-01 3.3006466E+00 1.3947114E+00 3.9258130E-01
  9.957E+00  4.443E-02  7.052E-01 3.3033260E+00 1.4182709E+00 4.3733390E-01
  1.000E+01  2.507E-02  7.775E-01 3.2886011E+00 1.4129629E+00 3.2309140E-01
  9.957E+00  3.092E-02  7.532E-01 3.2958883E+00 1.4389058E+00 3.6685612E-01
  1.000E+01  1.519E-02  8.264E-01 3.2704119E+00 1.4270498E+00 2.5195435E-01
  9.957E+00  1.983E-02  8.019E-01 3.2793314E+00 1.4554732E+00 2.9477523E-01
  1.000E+01  7.761E-03  8.757E-01 3.2549407E+00 1.4374220E+00 1.7997357E-01
  9.957E+00  1.117E-02  8.510E-01 3.2616616E+00 1.4679280E+00 2.2132555E-01
  1.000E+01  2.796E-03  9.253E-01 3.2460675E+00 1.4444831E+00 1.0792070E-01
  9.957E+00  4.969E-03  9.004E-01 3.2497686E+00 1.4768350E+00 1.4747508E-01
  1.000E+01  3.108E-04  9.751E-01 3.2426159E+00 1.4481276E+00 3.5963673E-02
  9.957E+00  1.243E-03  9.502E-01 3.2442425E+00 1.4823568E+00 7.3703694E-02
  1.000E+01  3.108E-04  1.025E+00 3.2426159E+00 1.4481277E+00 -3.5962537E-02
  9.957E+00  0.000E+00  1.000E+00 3.2428018E+00 1.4842476E+00 5.5660368E-07
  1.000E+01  2.796E-03  1.075E+00 3.2460673E+00 1.4444833E+00 -1.0791957E-01
  9.957E+00  1.243E-03  1.050E+00 3.2442423E+00 1.4823569E+00 -7.3702582E-02
  1.000E+01  7.761E-03  1.124E+00 3.2549403E+00 1.4374224E+00 -1.7997246E-01
  9.957E+00  4.969E-03  1.100E+00 3.2497683E+00 1.4768352E+00 -1.4747397E-01
  1.000E+01  1.519E-02  1.174E+00 3.2704113E+00 1.4270501E+00 -2.5195326E-01
  9.957E+00  1.117E-02  1.149E+00 3.2616612E+00 1.4679283E+00 -2.2132444E-01
  1.000E+01  2.507E-02  1.223E+00 3.2886004E+00 1.4129629E+00 -3.2309032E-01
  9.957E+00  1.983E-02  1.198E+00 3.2793308E+00 1.4554733E+00 -2.9477412E-01
  1.000E+01  3.738E-02  1.271E+00 3.3006459E+00 1.3947117E+00 -3.9258023E-01
  9.957E+00  3.092E-02  1.247E+00 3.2958875E+00 1.4389059E+00 -3.6685503E-01
  1.000E+01  5.207E-02  1.318E+00 3.3043858E+00 1.3729592E+00 -4.6094436E-01
  9.957E+00  4.443E-02  1.295E+00 3.3033251E+00 1.4182716E+00 -4.3733282E-01
  1.000E+01  6.913E-02  1.365E+00 3.3330466E+00 1.3485310E+00 -5.2906957E-01
  9.957E+00  6.031E-02  1.342E+00 3.3147935E+00 1.3945807E+00 -5.0722742E-01
  1.000E+01  8.849E-02  1.411E+00 3.3588370E+00 1.3207467E+00 -5.9602697E-01
  9.957E+00  7.852E-02  1.388E+00 3.3484365E+00 1.3679929E+00 -5.7664995E-01
  1.000E+01  1.101E-01  1.456E+00 3.3568691E+00 1.2892061E+00 -6.6094773E-01
  9.957E+00  9.903E-02  1.434E+00 3.3569537E+00 1.3375258E+00 -6.4419063E-01
  1.000E+01  1.340E-01  1.500E+00 3.3908460E+00 1.2546511E+00 -7.2434310E-01
  9.957E+00  1.218E-01  1.478E+00 3.3748401E+00 1.3036019E+00 -7.0987250E-01
  1.000E+01  1.600E-01  1.543E+00 3.3905593E+00 1.2170379E+00 -7.8604829E-01
  9.957E+00  1.467E-01  1.521E+00 3.4005170E+00 1.2666727E+00 -7.7403715E-01
  1.000E+01  1.881E-01  1.584E+00 3.4216636E+00 1.1763107E+00 -8.4570732E-01
  9.957E+00  1.738E-01  1.563E+00 3.3976729E+00 1.2265060E+00 -8.3621865E-01
  1.000E+01  2.182E-01  1.623E+00 3.4126465E+00 1.1327028E+00 -9.0329971E-01
  9.957E+00  2.029E-01  1.604E+00 3.4186445E+00 1.1832858E+00 -8.9630216E-01
  1.000E+01  2.502E-01  1.662E+00 3.4290682E+00 1.0862702E+00 -9.5863680E-01
  9.957E+00  2.340E-01  1.643E+00 3.4262698E+00 1.1371493E+00 -9.5418051E-01
  1.000E+01  2.841E-01  1.698E+00 3.4290259E+00 1.0371341E+00 -1.0115907E+00
  9.957E+00  2.669E-01  1.680E+00 3.4277307E+00 1.0881705E+00 -1.0096725E+00
  1.000E+01  3.198E-01  1.733E+00 3.4277240E+00 9.8542009E-01 -1.0620310E+00
  9.957E+00  3.018E-01  1.716E+00 3.4290328E+00 1.0364890E+00 -1.0626595E+00
  1.000E+01  3.572E-01  1.766E+00 3.4262633E+00 9.3126109E-01 -1.1098331E+00
  9.957E+00  3.383E-01  1.750E+00 3.4290753E+00 9.8223189E-01 -1.1130050E+00
  1.000E+01  3.962E-01  1.797E+00 3.4186382E+00 8.7477294E-01 -1.1548614E+00
  9.957E+00  3.765E-01  1.782E+00 3.4126538E+00 9.2553279E-01 -1.1605803E+00
  1.000E+01  4.367E-01  1.826E+00 3.3976668E+00 8.1613282E-01 -1.1970433E+00
  9.957E+00  4.163E-01  1.812E+00 3.4216710E+00 8.6652286E-01 -1.2052614E+00
  1.000E+01  4.786E-01  1.853E+00 3.4005113E+00 7.5544528E-01 -1.2362459E+00
  9.957E+00  4.575E-01  1.840E+00 3.3905670E+00 8.0539571E-01 -1.2469913E+00
  1.000E+01  5.217E-01  1.878E+00 3.3748347E+00 6.9282186E-01 -1.2722879E+00
  9.957E+00  5.000E-01  1.866E+00 3.3908539E+00 7.4217191E-01 -1.2855306E+00
  1.000E+01  5.661E-01  1.901E+00 3.3569486E+00 6.2871737E-01 -1.3053963E+00
  9.957E+00  5.438E-01  1.890E+00 3.3568770E+00 6.7721620E-01 -1.3209357E+00
  1.000E+01  6.116E-01  1.921E+00 3.3484315E+00 5.6279902E-01 -1.3351315E+00
  9.957E+00  5.887E-01  1.912E+00 3.3588449E+00 6.1069754E-01 -1.3532524E+00
  1.000E+01  6.580E-01  1.940E+00 3.3147886E+00 4.9504444E-01 -1.3610805E+00
  9.957E+00  6.347E-01  1.931E+00 3.3330549E+00 5.4209232E-01 -1.3817204E+00
  1.000E+01  7.052E-01  1.956E+00 3.3033206E+00 4.2682923E-01 -1.3842030E+00
  9.957E+00  6.815E-01  1.948E+00 3.3043947E+00 4.7229053E-01 -1.4067501E+00
  1.000E+01  7.532E-01  1.969E+00 3.2958835E+00 3.5804453E-01 -1.4043425E+00
  9.957E+00  7.292E-01  1.963E+00 3.3006550E+00 4.0224365E-01 -1.4290386E+00
  1.000E+01  8.019E-01  1.980E+00 3.2793272E+00 2.8769484E-01 -1.4205120E+00
  9.957E+00  7.775E-01  1.975E+00 3.2886097E+00 3.3104324E-01 -1.4477392E+00
  1.000E+01  8.510E-01  1.989E+00 3.2616576E+00 2.1600913E-01 -1.4326673E+00
  9.957E+00  8.264E-01  1.985E+00 3.2704207E+00 2.5815528E-01 -1.4621728E+00
  1.000E+01  9.004E-01  1.995E+00 3.2497648E+00 1.4393245E-01 -1.4413600E+00
  9.957E+00  8.757E-01  1.992E+00 3.2549497E+00 1.8440293E-01 -1.4728003E+00
  1.000E+01  9.502E-01  1.999E+00 3.2442390E+00 7.1933153E-02 -1.4467490E+00
  9.957E+00  9.253E-01  1.997E+00 3.2460768E+00 1.1057675E-01 -1.4800350E+00
  1.000E+01  1.000E+00  2.000E+00 3.2427986E+00 5.8759620E-07 -1.4485943E+00
  9.957E+00  9.751E-01  2.000E+00 3.2426256E+00 3.6848782E-02 -1.4837690E+00
  1.000E+01  1.050E+00  1.999E+00 3.2442395E+00 -7.1931980E-02 -1.4467490E+00
  9.957E+00  1.025E+00  2.000E+00 3.2426258E+00 -3.6847611E-02 -1.4837691E+00
  1.000E+01  1.100E+00  1.995E+00 3.2497659E+00 -1.4393128E-01 -1.4413602E+00
  9.957E+00  1.075E+00  1.997E+00 3.2460776E+00 -1.1057558E-01 -1.4800351E+00
  1.000E+01  1.149E+00  1.989E+00 3.2616592E+00 -2.1600797E-01 -1.4326675E+00
  9.957E+00  1.124E+00  1.992E+00 3.2549511E+00 -1.8440177E-01 -1.4728005E+00
  1.000E+01  1.198E+00  1.980E+00 3.2793293E+00 -2.8769368E-01 -1.4205122E+00
  9.957E+00  1.174E+00  1.985E+00 3.2704226E+00 -2.5815412E-01 -1.4621731E+00