# TIME = 6.000000
VARIABLES = X, Y, Z, FX, FY, FZ
ZONE N=29232 E=58212 F=FEPOINT ET=TRIANGLE
  0.000E+00  9.502E-01  1.243E-03 3.2333381E+00 8.9401911E-02 1.7980690E+00
  0.000E+00  1.000E+00  0.000E+00 3.2318945E+00 1.7818254E-06 1.8003625E+00
  4.318E-02  9.751E-01  3.108E-04 3.2317282E+00 4.3787570E-02 1.7631235E+00
  0.000E+00  1.050E+00  1.243E-03 3.2333375E+00 -8.9398350E-02 1.7980692E+00
  4.318E-02  1.025E+00  3.108E-04 3.2317279E+00 -4.3783989E-02 1.7631236E+00
  0.000E+00  1.100E+00  4.969E-03 3.2388670E+00 -1.7888130E-01 1.7913718E+00
  4.318E-02  1.075E+00  2.796E-03 3.2351825E+00 -1.3139308E-01 1.7586867E+00
  0.000E+00  1.149E+00  1.117E-02 3.2507563E+00 -2.6846025E-01 1.7805683E+00
  4.318E-02  1.124E+00  7.761E-03 3.2440549E+00 -2.1911890E-01 1.7500901E+00
  0.000E+00  1.198E+00  1.983E-02 3.2684152E+00 -3.5755325E-01 1.7654613E+00
  4.318E-02  1.174E+00  1.519E-02 3.2595162E+00 -3.0675692E-01 1.7374620E+00
  0.000E+00  1.247E+00  3.092E-02 3.2849738E+00 -4.4498614E-01 1.7453654E+00
  4.318E-02  1.223E+00  2.507E-02 3.2776969E+00 -3.9336755E-01 1.7203108E+00
  0.000E+00  1.295E+00  4.443E-02 3.2924506E+00 -5.3047454E-01 1.7203356E+00
  4.318E-02  1.271E+00  3.738E-02 3.2897625E+00 -4.7797257E-01 1.6980892E+00
  0.000E+00  1.342E+00  6.031E-02 3.3039530E+00 -6.1525543E-01 1.6915983E+00
  4.318E-02  1.318E+00  5.207E-02 3.2935588E+00 -5.6120685E-01 1.6716044E+00
  0.000E+00  1.388E+00  7.852E-02 3.3375561E+00 -6.9946344E-01 1.6593482E+00
  4.318E-02  1.365E+00  6.913E-02 3.3221996E+00 -6.4415036E-01 1.6418625E+00
  0.000E+00  1.434E+00  9.903E-02 3.3461132E+00 -7.8138870E-01 1.6223922E+00
  4.318E-02  1.411E+00  8.849E-02 3.3479742E+00 -7.2567250E-01 1.6080350E+00
  0.000E+00  1.478E+00  1.218E-01 3.3640145E+00 -8.6105956E-01 1.5812437E+00
  4.318E-02  1.456E+00  1.101E-01 3.3460822E+00 -8.0471533E-01 1.5696341E+00
  0.000E+00  1.521E+00  1.467E-01 3.3896653E+00 -9.3889006E-01 1.5364495E+00
  4.318E-02  1.500E+00  1.340E-01 3.3800141E+00 -8.8190048E-01 1.5275631E+00
  0.000E+00  1.563E+00  1.738E-01 3.3868837E+00 -1.0143149E+00 1.4877273E+00
  4.318E-02  1.543E+00  1.600E-01 3.3797826E+00 -9.5702751E-01 1.4817675E+00
  0.000E+00  1.604E+00  2.029E-01 3.4078278E+00 -1.0871950E+00 1.4353022E+00
  4.318E-02  1.584E+00  1.881E-01 3.4108390E+00 -1.0296635E+00 1.4321811E+00
  0.000E+00  1.643E+00  2.340E-01 3.4154630E+00 -1.1574005E+00 1.3793396E+00
  4.318E-02  1.623E+00  2.182E-01 3.4018815E+00 -1.0997837E+00 1.3790879E+00
  0.000E+00  1.680E+00  2.669E-01 3.4169302E+00 -1.2247113E+00 1.3199295E+00
  4.318E-02  1.662E+00  2.502E-01 3.4182770E+00 -1.1671579E+00 1.3225554E+00
  0.000E+00  1.716E+00  3.018E-01 3.4182358E+00 -1.2889834E+00 1.2572406E+00
  4.318E-02  1.698E+00  2.841E-01 3.4182462E+00 -1.2316303E+00 1.2627312E+00
  0.000E+00  1.750E+00  3.383E-01 3.4182664E+00 -1.3500515E+00 1.1914277E+00
  4.318E-02  1.733E+00  3.198E-01 3.4169402E+00 -1.2930421E+00 1.1997680E+00
  0.000E+00  1.782E+00  3.765E-01 3.4018708E+00 -1.4077597E+00 1.1226529E+00
  4.318E-02  1.766E+00  3.572E-01 3.4154728E+00 -1.3512424E+00 1.1338284E+00
  0.000E+00  1.812E+00  4.163E-01 3.4108281E+00 -1.4619574E+00 1.0510751E+00
  4.318E-02  1.797E+00  3.962E-01 3.4078374E+00 -1.4060655E+00 1.0650532E+00
  0.000E+00  1.840E+00  4.575E-01 3.3797715E+00 -1.5125747E+00 9.7692890E-01
  4.318E-02  1.826E+00  4.367E-01 3.3868931E+00 -1.4574232E+00 9.9365783E-01
  0.000E+00  1.866E+00  5.000E-01 3.3800026E+00 -1.5593218E+00 9.0023963E-01
  4.318E-02  1.853E+00  4.786E-01 3.3896742E+00 -1.5051523E+00 9.1976922E-01
  0.000E+00  1.890E+00  5.438E-01 3.3460703E+00 -1.6022682E+00 8.2144976E-01
  4.318E-02  1.878E+00  5.217E-01 3.3640231E+00 -1.5490343E+00 8.4352392E-01
  0.000E+00  1.912E+00  5.887E-01 3.3479623E+00 -1.6414682E+00 7.4076409E-01
  4.318E-02  1.901E+00  5.661E-01 3.3461217E+00 -1.5893452E+00 7.6547580E-01
  0.000E+00  1.931E+00  6.347E-01 3.3221877E+00 -1.6759997E+00 6.5754723E-01
  4.318E-02  1.921E+00  6.116E-01 3.3375644E+00 -1.6255488E+00 6.8521938E-01
  0.000E+00  1.948E+00  6.815E-01 3.2935467E+00 -1.7063601E+00 5.7287898E-01
  4.318E-02  1.940E+00  6.580E-01 3.3039608E+00 -1.6571428E+00 6.0272687E-01
  0.000E+00  1.963E+00  7.292E-01 3.2897501E+00 -1.7333950E+00 4.8791380E-01
  4.318E-02  1.956E+00  7.052E-01 3.2924577E+00 -1.6852943E+00 5.1967308E-01
  0.000E+00  1.975E+00  7.775E-01 3.2776841E+00 -1.7560785E+00 4.0154946E-01
  4.318E-02  1.969E+00  7.532E-01 3.2849804E+00 -1.7098137E+00 4.3592605E-01
  0.000E+00  1.985E+00  8.264E-01 3.2595030E+00 -1.7735867E+00 3.1313799E-01
  4.318E-02  1.980E+00  8.019E-01 3.2684217E+00 -1.7295004E+00 3.5027400E-01
  0.000E+00  1.992E+00  8.757E-01 3.2440414E+00 -1.7864779E+00 2.2367790E-01
  4.318E-02  1.989E+00  8.510E-01 3.2507628E+00 -1.7443004E+00 2.6299558E-01
  0.000E+00  1.997E+00  9.253E-01 3.2351689E+00 -1.7952536E+00 1.3412821E-01
  4.318E-02  1.995E+00  9.004E-01 3.2388735E+00 -1.7548845E+00 1.7524110E-01
  0.000E+00  2.000E+00  9.751E-01 3.2317142E+00 -1.7997831E+00 4.4697674E-02
  4.318E-02  1.999E+00  9.502E-01 3.2333439E+00 -1.7614460E+00 8.7580734E-02
  0.000E+00  2.000E+00  1.025E+00 3.2317142E+00 -1.7997832E+00 -4.4694565E-02
  4.318E-02  2.000E+00  1.000E+00 3.2319008E+00 -1.7636928E+00 1.5513131E-06
  0.000E+00  1.997E+00  1.075E+00 3.2351691E+00 -1.7952538E+00 -1.3412512E-01
  4.318E-02  1.999E+00  1.050E+00 3.2333441E+00 -1.7614461E+00 -8.7577631E-02
  0.000E+00  1.992E+00  1.124E+00 3.2440418E+00 -1.7864782E+00 -2.2367482E-01
  4.318E-02  1.995E+00  1.100E+00 3.2388738E+00 -1.7548848E+00 -1.7523801E-01
  0.000E+00  1.985E+00  1.174E+00 3.2595035E+00 -1.7735874E+00 -3.1313493E-01
  4.318E-02  1.989E+00  1.149E+00 3.2507632E+00 -1.7443010E+00 -2.6299251E-01
  0.000E+00  1.975E+00  1.223E+00 3.2776848E+00 -1.7560797E+00 -4.0154642E-01
  4.318E-02  1.980E+00  1.198E+00 3.2684222E+00 -1.7295015E+00 -3.5027097E-01
  0.000E+00  1.963E+00  1.271E+00 3.2897509E+00 -1.7333962E+00 -4.8791080E-01
  4.318E-02  1.969E+00  1.247E+00 3.2849811E+00 -1.7098150E+00 -4.3592305E-01
  0.000E+00  1.948E+00  1.318E+00 3.2935477E+00 -1.7063609E+00 -5.7287603E-01
  4.318E-02  1.956E+00  1.295E+00 3.2924585E+00 -1.6852953E+00 -5.1967013E-01
  0.000E+00  1.931E+00  1.365E+00 3.3221888E+00 -1.6760014E+00 -6.5754434E-01
  4.318E-02  1.940E+00  1.342E+00 3.3039617E+00 -1.6571439E+00 -6.0272397E-01
  0.000E+00  1.912E+00  1.411E+00 3.3479635E+00 -1.6414703E+00 -7.4076127E-01
  4.318E-02  1.921E+00  1.388E+00 3.3375655E+00 -1.6255510E+00 -6.8521655E-01
  0.000E+00  1.890E+00  1.456E+00 3.3460717E+00 -1.6022696E+00 -8.2144700E-01
  4.318E-02  1.901E+00  1.434E+00 3.3461229E+00 -1.5893468E+00 -7.6547304E-01
  0.000E+00  1.866E+00  1.500E+00 3.3800041E+00 -1.5593242E+00 -9.0023697E-01
  4.318E-02  1.878E+00  1.478E+00 3.3640245E+00 -1.5490362E+00 -8.4352124E-01
  0.000E+00  1.840E+00  1.543E+00 3.3797731E+00 -1.5125769E+00 -9.7692631E-01
  4.318E-02  1.853E+00  1.521E+00 3.3896757E+00 -1.5051549E+00 -9.1976663E-01
  0.000E+00  1.812E+00  1.584E+00 3.4108298E+00 -1.4619598E+00 -1.0510727E+00
  4.318E-02  1.826E+00  1.563E+00 3.3868947E+00 -1.4574254E+00 -9.9365532E-01
  0.000E+00  1.782E+00  1.623E+00 3.4018725E+00 -1.4077624E+00 -1.1226505E+00
  4.318E-02  1.797E+00  1.604E+00 3.4078391E+00 -1.4060682E+00 -1.0650508E+00
  0.000E+00  1.750E+00  1.662E+00 3.4182683E+00 -1.3500543E+00 -1.1914254E+00
  4.318E-02  1.766E+00  1.643E+00 3.4154746E+00 -1.3512451E+00 -1.1338261E+00
  0.000E+00  1.716E+00  1.698E+00 3.4182378E+00 -1.2889863E+00 -1.2572384E+00
  4.318E-02  1.733E+00  1.680E+00 3.4169421E+00 -1.2930451E+00 -1.1997659E+00
  0.000E+00  1.680E+00  1.733E+00 3.4169323E+00 -1.2247143E+00 -1.3199275E+00
  4.318E-02  1.698E+00  1.716E+00 3.4182482E+00 -1.2316333E+00 -1.2627291E+00
  0.000E+00  1.643E+00  1.766E+00 3.4154652E+00 -1.1574036E+00 -1.3793377E+00
  4.318E-02  1.662E+00  1.750E+00 3.4182791E+00 -1.1671610E+00 -1.3225535E+00
  0.000E+00  1.604E+00  1.797E+00 3.4078300E+00 -1.0871982E+00 -1.4353004E+00
  4.318E-02  1.623E+00  1.782E+00 3.4018837E+00 -1.0997870E+00 -1.3790862E+00
  0.000E+00  1.563E+00  1.826E+00 3.3868860E+00 -1.0143183E+00 -1.4877257E+00
  4.318E-02  1.584E+00  1.812E+00 3.4108412E+00 -1.0296669E+00 -1.4321795E+00
  0.000E+00  1.521E+00  1.853E+00 3.3896676E+00 -9.3889379E-01 -1.5364482E+00
  4.318E-02  1.543E+00  1.840E+00 3.3797849E+00 -9.5703087E-01 -1.4817661E+00
  0.000E+00  1.478E+00  1.878E+00 3.3640170E+00 -8.6106334E-01 -1.5812426E+00
  4.318E-02  1.500E+00  1.866E+00 3.3800164E+00 -8.8190388E-01 -1.5275618E+00
  0.000E+00  1.434E+00  1.901E+00 3.3461160E+00 -7.8139208E-01 -1.6223911E+00
  4.318E-02  1.456E+00  1.890E+00 3.3460843E+00 -8.0471896E-01 -1.5696330E+00
  0.000E+00  1.388E+00  1.921E+00 3.3375588E+00 -6.9946644E-01 -1.6593471E+00
  4.318E-02  1.411E+00  1.912E+00 3.3479763E+00 -7.2567654E-01 -1.6080342E+00
  0.000E+00  1.342E+00  1.940E+00 3.3039554E+00 -6.1525868E-01 -1.6915975E+00
  4.318E-02  1.365E+00  1.931E+00 3.3222021E+00 -6.4415454E-01 -1.6418620E+00
  0.000E+00  1.295E+00  1.956E+00 3.2924527E+00 -5.3047860E-01 -1.7203351E+00
  4.318E-02  1.318E+00  1.948E+00 3.2935617E+00 -5.6121075E-01 -1.6716040E+00
  0.000E+00  1.247E+00  1.969E+00 3.2849760E+00 -4.4499087E-01 -1.7453652E+00
  4.318E-02  1.271E+00  1.963E+00 3.2897655E+00 -4.7797604E-01 -1.6980889E+00
  0.000E+00  1.198E+00  1.980E+00 3.2684179E+00 -3.5755812E-01 -1.7654614E+00
  4.318E-02  1.223E+00  1.975E+00 3.2776997E+00 -3.9337083E-01 -1.7203106E+00
  0.000E+00  1.149E+00  1.989E+00 3.2507593E+00 -2.6846483E-01 -1.7805687E+00
  4.318E-02  1.174E+00  1.985E+00 3.2595186E+00 -3.0676033E-01 -1.7374619E+00
  0.000E+00  1.100E+00  1.995E+00 3.2388703E+00 -1.7888553E-01 -1.7913724E+00
  4.318E-02  1.124E+00  1.992E+00 3.2440571E+00 -2.1912256E-01 -1.7500903E+00
  0.000E+00  1.050E+00  1.999E+00 3.2333408E+00 -8.9402376E-02 -1.7980700E+00
  4.318E-02  1.075E+00  1.997E+00 3.2351847E+00 -1.3139692E-01 -1.7586870E+00
  0.000E+00  1.000E+00  2.000E+00 3.2318978E+00 -2.1563174E-06 -1.8003636E+00
  4.318E-02  1.025E+00  2.000E+00 3.2317301E+00 -4.3787906E-02 -1.7631241E+00
  0.000E+00  9.502E-01  1.999E+00 3.2333414E+00 8.9398066E-02 -1.7980703E+00
  4.318E-02  9.751E-01  2.000E+00 3.2317304E+00 4.3783613E-02 -1.7631243E+00
  0.000E+00  9.004E-01  1.995E+00 3.2388714E+00 1.7888123E-01 -1.7913728E+00
  4.318E-02  9.253E-01  1.997E+00 3.2351856E+00 1.3139263E-01 -1.7586874E+00
  0.000E+00  8.510E-01  1.989E+00 3.2507611E+00 2.6846055E-01 -1.7805693E+00
  4.318E-02  8.757E-01  1.992E+00 3.2440586E+00 2.1911829E-01 -1.7500908E+00
  0.000E+00  8.019E-01  1.980E+00 3.2684202E+00 3.5755387E-01 -1.7654622E+00
  4.318E-02  8.264E-01  1.985E+00 3.2595207E+00 3.0675609E-01 -1.7374626E+00
  0.000E+00  7.532E-01  1.969E+00 3.2849790E+00 4.4498666E-01 -1.7453663E+00
  4.318E-02  7.775E-01  1.975E+00 3.2777023E+00 3.9336662E-01 -1.7203115E+00
  0.000E+00  7.052E-01  1.956E+00 3.2924562E+00 5.3047443E-01 -1.7203363E+00
  4.318E-02  7.292E-01  1.963E+00 3.2897687E+00 4.7797187E-01 -1.6980900E+00
  0.000E+00  6.580E-01  1.940E+00 3.3039594E+00 6.1525457E-01 -1.6915989E+00
  4.318E-02  6.815E-01  1.948E+00 3.2935655E+00 5.6120663E-01 -1.6716053E+00
  0.000E+00  6.116E-01  1.921E+00 3.3375634E+00 6.9946238E-01 -1.6593487E+00
  4.318E-02  6.347E-01  1.931E+00 3.3222064E+00 6.4415048E-01 -1.6418635E+00
  0.000E+00  5.661E-01  1.901E+00 3.3461211E+00 7.8138811E-01 -1.6223929E+00
  4.318E-02  5.887E-01  1.912E+00 3.3479812E+00 7.2567254E-01 -1.6080359E+00
  0.000E+00  5.217E-01  1.878E+00 3.3640226E+00 8.6105944E-01 -1.5812445E+00
  4.318E-02  5.438E-01  1.890E+00 3.3460897E+00 8.0471505E-01 -1.5696349E+00
  0.000E+00  4.786E-01  1.853E+00 3.3896736E+00 9.3888998E-01 -1.5364503E+00
  4.318E-02  5.000E-01  1.866E+00 3.3800222E+00 8.8190002E-01 -1.5275639E+00
  0.000E+00  4.367E-01  1.826E+00 3.3868925E+00 1.0143146E+00 -1.4877280E+00
  4.318E-02  4.575E-01  1.840E+00 3.3797912E+00 9.5702714E-01 -1.4817683E+00
  0.000E+00  3.962E-01  1.797E+00 3.4078369E+00 1.0871946E+00 -1.4353029E+00
  4.318E-02  4.163E-01  1.812E+00 3.4108480E+00 1.0296632E+00 -1.4321819E+00
  0.000E+00  3.572E-01  1.766E+00 3.4154725E+00 1.1574001E+00 -1.3793403E+00
  4.318E-02  3.765E-01  1.782E+00 3.4018908E+00 1.0997835E+00 -1.3790887E+00
  0.000E+00  3.198E-01  1.733E+00 3.4169400E+00 1.2247109E+00 -1.3199302E+00
  4.318E-02  3.383E-01  1.750E+00 3.4182866E+00 1.1671576E+00 -1.3225562E+00
  0.000E+00  2.841E-01  1.698E+00 3.4182459E+00 1.2889831E+00 -1.2572413E+00
  4.318E-02  3.018E-01  1.716E+00 3.4182561E+00 1.2316300E+00 -1.2627320E+00
  0.000E+00  2.502E-01  1.662E+00 3.4182768E+00 1.3500512E+00 -1.1914285E+00
  4.318E-02  2.669E-01  1.680E+00 3.4169504E+00 1.2930419E+00 -1.1997689E+00
  0.000E+00  2.182E-01  1.623E+00 3.4018813E+00 1.4077594E+00 -1.1226537E+00
  4.318E-02  2.340E-01  1.643E+00 3.4154832E+00 1.3512421E+00 -1.1338292E+00
  0.000E+00  1.881E-01  1.584E+00 3.4108389E+00 1.4619570E+00 -1.0510759E+00
  4.318E-02  2.029E-01  1.604E+00 3.4078480E+00 1.4060652E+00 -1.0650540E+00
  0.000E+00  1.600E-01  1.543E+00 3.3797824E+00 1.5125743E+00 -9.7692968E-01
  4.318E-02  1.738E-01  1.563E+00 3.3869039E+00 1.4574229E+00 -9.9365864E-01
  0.000E+00  1.340E-01  1.500E+00 3.3800137E+00 1.5593215E+00 -9.0024042E-01
  4.318E-02  1.467E-01  1.521E+00 3.3896851E+00 1.5051521E+00 -9.1977004E-01
  0.000E+00  1.101E-01  1.456E+00 3.3460815E+00 1.6022679E+00 -8.2145055E-01
  4.318E-02  1.218E-01  1.478E+00 3.3640342E+00 1.5490340E+00 -8.4352474E-01
  0.000E+00  8.849E-02  1.411E+00 3.3479735E+00 1.6414679E+00 -7.4076488E-01
  4.318E-02  9.903E-02  1.434E+00 3.3461328E+00 1.5893449E+00 -7.6547662E-01
  0.000E+00  6.913E-02  1.365E+00 3.3221990E+00 1.6759993E+00 -6.5754802E-01
  4.318E-02  7.852E-02  1.388E+00 3.3375755E+00 1.6255485E+00 -6.8522020E-01
  0.000E+00  5.207E-02  1.318E+00 3.2935580E+00 1.7063597E+00 -5.7287978E-01
  4.318E-02  6.031E-02  1.342E+00 3.3039720E+00 1.6571425E+00 -6.0272769E-01
  0.000E+00  3.738E-02  1.271E+00 3.2897614E+00 1.7333947E+00 -4.8791460E-01
  4.318E-02  4.443E-02  1.295E+00 3.2924689E+00 1.6852940E+00 -5.1967390E-01
  0.000E+00  2.507E-02  1.223E+00 3.2776953E+00 1.7560781E+00 -4.0155027E-01
  4.318E-02  3.092E-02  1.247E+00 3.2849916E+00 1.7098134E+00 -4.3592688E-01
  0.000E+00  1.519E-02  1.174E+00 3.2595141E+00 1.7735863E+00 -3.1313880E-01
  4.318E-02  1.983E-02  1.198E+00 3.2684328E+00 1.7295001E+00 -3.5027483E-01
  0.000E+00  7.761E-03  1.124E+00 3.2440525E+00 1.7864775E+00 -2.2367872E-01
  4.318E-02  1.117E-02  1.149E+00 3.2507739E+00 1.7443001E+00 -2.6299640E-01
  0.000E+00  2.796E-03  1.075E+00 3.2351798E+00 1.7952533E+00 -1.3412904E-01
  4.318E-02  4.969E-03  1.100E+00 3.2388845E+00 1.7548842E+00 -1.7524193E-01
  0.000E+00  3.108E-04  1.025E+00 3.2317250E+00 1.7997827E+00 -4.4698501E-02
  4.318E-02  1.243E-03  1.050E+00 3.2333548E+00 1.7614456E+00 -8.7581562E-02
  0.000E+00  3.108E-04  9.751E-01 3.2317249E+00 1.7997828E+00 4.4693736E-02
  4.318E-02  0.000E+00  1.000E+00 3.2319115E+00 1.7636924E+00 -2.3863985E-06
  0.000E+00  2.796E-03  9.253E-01 3.2351796E+00 1.7952534E+00 1.3412428E-01
  4.318E-02  1.243E-03  9.502E-01 3.2333547E+00 1.7614457E+00 8.7576798E-02
  0.000E+00  7.761E-03  8.757E-01 3.2440521E+00 1.7864779E+00 2.2367398E-01
  4.318E-02  4.969E-03  9.004E-01 3.2388842E+00 1.7548844E+00 1.7523718E-01
  0.000E+00  1.519E-02  8.264E-01 3.2595136E+00 1.7735870E+00 3.1313410E-01
  4.318E-02  1.117E-02  8.510E-01 3.2507734E+00 1.7443006E+00 2.6299167E-01
  0.000E+00  2.507E-02  7.775E-01 3.2776946E+00 1.7560794E+00 4.0154560E-01
  4.318E-02  1.983E-02  8.019E-01 3.2684323E+00 1.7295011E+00 3.5027012E-01
  0.000E+00  3.738E-02  7.292E-01 3.2897605E+00 1.7333958E+00 4.8790997E-01
  4.318E-02  3.092E-02  7.532E-01 3.2849909E+00 1.7098146E+00 4.3592220E-01
  0.000E+00  5.207E-02  6.815E-01 3.2935570E+00 1.7063605E+00 5.7287520E-01
  4.318E-02  4.443E-02  7.052E-01 3.2924681E+00 1.6852949E+00 5.1966928E-01
  0.000E+00  6.913E-02  6.347E-01 3.3221979E+00 1.6760010E+00 6.5754351E-01
  4.318E-02  6.031E-02  6.580E-01 3.3039710E+00 1.6571435E+00 6.0272311E-01
  0.000E+00  8.849E-02  5.887E-01 3.3479723E+00 1.6414699E+00 7.4076044E-01
  4.318E-02  7.852E-02  6.116E-01 3.3375744E+00 1.6255505E+00 6.8521569E-01
  0.000E+00  1.101E-01  5.438E-01 3.3460801E+00 1.6022692E+00 8.2144617E-01
  4.318E-02  9.903E-02  5.661E-01 3.3461316E+00 1.5893464E+00 7.6547218E-01
  0.000E+00  1.340E-01  5.000E-01 3.3800122E+00 1.5593238E+00 9.0023614E-01
  4.318E-02  1.218E-01  5.217E-01 3.3640328E+00 1.5490357E+00 8.4352038E-01
  0.000E+00  1.600E-01  4.575E-01 3.3797808E+00 1.5125765E+00 9.7692548E-01
  4.318E-02  1.467E-01  4.786E-01 3.3896837E+00 1.5051544E+00 9.1976577E-01
  0.000E+00  1.881E-01  4.163E-01 3.4108372E+00 1.4619594E+00 1.0510718E+00
  4.318E-02  1.738E-01  4.367E-01 3.3869023E+00 1.4574250E+00 9.9365446E-01
  0.000E+00  2.182E-01  3.765E-01 3.4018795E+00 1.4077620E+00 1.1226497E+00
  4.318E-02  2.029E-01  3.962E-01 3.4078463E+00 1.4060678E+00 1.0650499E+00
  0.000E+00  2.502E-01  3.383E-01 3.4182749E+00 1.3500538E+00 1.1914246E+00
  4.318E-02  2.340E-01  3.572E-01 3.4154814E+00 1.3512446E+00 1.1338253E+00
  0.000E+00  2.841E-01  3.018E-01 3.4182440E+00 1.2889859E+00 1.2572376E+00
  4.318E-02  2.669E-01  3.198E-01 3.4169485E+00 1.2930447E+00 1.1997650E+00
  0.000E+00  3.198E-01  2.669E-01 3.4169379E+00 1.2247139E+00 1.3199267E+00
  4.318E-02  3.018E-01  2.841E-01 3.4182541E+00 1.2316328E+00 1.2627283E+00
  0.000E+00  3.572E-01  2.340E-01 3.4154704E+00 1.1574032E+00 1.3793369E+00
  4.318E-02  3.383E-01  2.502E-01 3.4182846E+00 1.1671606E+00 1.3225527E+00
  0.000E+00  3.962E-01  2.029E-01 3.4078347E+00 1.0871978E+00 1.4352997E+00
  4.318E-02  3.765E-01  2.182E-01 3.4018887E+00 1.0997865E+00 1.3790853E+00
  0.000E+00  4.367E-01  1.738E-01 3.3868902E+00 1.0143178E+00 1.4877249E+00
  4.318E-02  4.163E-01  1.881E-01 3.4108457E+00 1.0296664E+00 1.4321787E+00
  0.000E+00  4.786E-01  1.467E-01 3.3896713E+00 9.3889312E-01 1.5364474E+00
  4.318E-02  4.575E-01  1.600E-01 3.3797889E+00 9.5703052E-01 1.4817653E+00
  0.000E+00  5.217E-01  1.218E-01 3.3640200E+00 8.6106271E-01 1.5812417E+00
  4.318E-02  5.000E-01  1.340E-01 3.3800199E+00 8.8190363E-01 1.5275610E+00
  0.000E+00  5.661E-01  9.903E-02 3.3461183E+00 7.8139192E-01 1.6223903E+00
  4.318E-02  5.438E-01  1.101E-01 3.3460875E+00 8.0471853E-01 1.5696322E+00
  0.000E+00  6.116E-01  7.852E-02 3.3375607E+00 6.9946674E-01 1.6593465E+00
  4.318E-02  5.887E-01  8.849E-02 3.3479790E+00 7.2567579E-01 1.6080333E+00
  0.000E+00  6.580E-01  6.031E-02 3.3039570E+00 6.1525878E-01 1.6915969E+00
  4.318E-02  6.347E-01  6.913E-02 3.3222039E+00 6.4415372E-01 1.6418610E+00
  0.000E+00  7.052E-01  4.443E-02 3.2924541E+00 5.3047795E-01 1.7203343E+00
  4.318E-02  6.815E-01  5.207E-02 3.2935626E+00 5.6121026E-01 1.6716030E+00
  0.000E+00  7.532E-01  3.092E-02 3.2849767E+00 4.4498959E-01 1.7453643E+00
  4.318E-02  7.292E-01  3.738E-02 3.2897657E+00 4.7797603E-01 1.6980881E+00
  0.000E+00  8.019E-01  1.983E-02 3.2684176E+00 3.5755674E-01 1.7654604E+00
  4.318E-02  7.775E-01  2.507E-02 3.2776996E+00 3.9337105E-01 1.7203099E+00
  0.000E+00  8.510E-01  1.117E-02 3.2507580E+00 2.6846377E-01 1.7805676E+00
  4.318E-02  8.264E-01  1.519E-02 3.2595183E+00 3.0676045E-01 1.7374612E+00
  0.000E+00  9.004E-01  4.969E-03 3.2388682E+00 1.7888485E-01 1.7913713E+00
  4.318E-02  8.757E-01  7.761E-03 3.2440564E+00 2.1912246E-01 1.7500896E+00
  4.318E-02  9.253E-01  2.796E-03 3.2351834E+00 1.3139666E-01 1.7586864E+00
  1.000E+01  1.050E+00  1.243E-03 3.2333375E+00 -8.9398350E-02 1.7980692E+00
  1.000E+01  1.000E+00  5.551E-16 3.2318945E+00 1.7818254E-06 1.8003625E+00
  9.957E+00  1.025E+00  3.108E-04 3.2317236E+00 -4.5608169E-02 1.8365813E+00
  1.000E+01  9.502E-01  1.243E-03 3.2333381E+00 8.9401911E-02 1.7980690E+00
  9.957E+00  9.751E-01  3.108E-04 3.2317239E+00 4.5611712E-02 1.8365812E+00
  1.000E+01  9.004E-01  4.969E-03 3.2388682E+00 1.7888485E-01 1.7913713E+00
  9.957E+00  9.253E-01  2.796E-03 3.2351789E+00 1.3687072E-01 1.8319591E+00
  1.000E+01  8.510E-01  1.117E-02 3.2507580E+00 2.6846377E-01 1.7805676E+00
  9.957E+00  8.757E-01  7.761E-03 3.2440519E+00 2.2825142E-01 1.8230041E+00
  1.000E+01  8.019E-01  1.983E-02 3.2684176E+00 3.5755674E-01 1.7654604E+00
  9.957E+00  8.264E-01  1.519E-02 3.2595138E+00 3.1954081E-01 1.8098496E+00
  1.000E+01  7.532E-01  3.092E-02 3.2849767E+00 4.4498959E-01 1.7453643E+00
  9.957E+00  7.775E-01  2.507E-02 3.2776952E+00 4.0976016E-01 1.7919837E+00
  1.000E+01  7.052E-01  4.443E-02 3.2924541E+00 5.3047795E-01 1.7203343E+00
  9.957E+00  7.292E-01  3.738E-02 3.2897616E+00 4.9789036E-01 1.7688363E+00
  1.000E+01  6.580E-01  6.031E-02 3.3039570E+00 6.1525878E-01 1.6915969E+00
  9.957E+00  6.815E-01  5.207E-02 3.2935585E+00 5.8459247E-01 1.7412478E+00
  1.000E+01  6.116E-01  7.852E-02 3.3375607E+00 6.9946674E-01 1.6593465E+00
  9.957E+00  6.347E-01  6.913E-02 3.3221996E+00 6.7099137E-01 1.7102663E+00
  1.000E+01  5.661E-01  9.903E-02 3.3461183E+00 7.8139192E-01 1.6223903E+00
  9.957E+00  5.887E-01  8.849E-02 3.3479744E+00 7.5590964E-01 1.6750290E+00
  1.000E+01  5.217E-01  1.218E-01 3.3640200E+00 8.6106271E-01 1.5812417E+00
  9.957E+00  5.438E-01  1.101E-01 3.3460829E+00 8.3824544E-01 1.6350280E+00
  1.000E+01  4.786E-01  1.467E-01 3.3896713E+00 9.3889312E-01 1.5364474E+00
  9.957E+00  5.000E-01  1.340E-01 3.3800155E+00 9.1864653E-01 1.5912042E+00
  1.000E+01  4.367E-01  1.738E-01 3.3868902E+00 1.0143178E+00 1.4877249E+00
  9.957E+00  4.575E-01  1.600E-01 3.3797846E+00 9.9690358E-01 1.5435007E+00
  1.000E+01  3.962E-01  2.029E-01 3.4078347E+00 1.0871978E+00 1.4352997E+00
  9.957E+00  4.163E-01  1.881E-01 3.4108414E+00 1.0725655E+00 1.4918481E+00
  1.000E+01  3.572E-01  2.340E-01 3.4154704E+00 1.1574032E+00 1.3793369E+00
  9.957E+00  3.765E-01  2.182E-01 3.4018842E+00 1.1456069E+00 1.4365426E+00
  1.000E+01  3.198E-01  2.669E-01 3.4169379E+00 1.2247139E+00 1.3199267E+00
  9.957E+00  3.383E-01  2.502E-01 3.4182801E+00 1.2157880E+00 1.3776546E+00
  1.000E+01  2.841E-01  3.018E-01 3.4182440E+00 1.2889859E+00 1.2572376E+00
  9.957E+00  3.018E-01  2.841E-01 3.4182497E+00 1.2829464E+00 1.3153378E+00
  1.000E+01  2.502E-01  3.383E-01 3.4182749E+00 1.3500538E+00 1.1914246E+00
  9.957E+00  2.669E-01  3.198E-01 3.4169441E+00 1.3469169E+00 1.2497514E+00
  1.000E+01  2.182E-01  3.765E-01 3.4018795E+00 1.4077620E+00 1.1226497E+00
  9.957E+00  2.340E-01  3.572E-01 3.4154770E+00 1.4075417E+00 1.1810643E+00
  1.000E+01  1.881E-01  4.163E-01 3.4108372E+00 1.4619594E+00 1.0510718E+00
  9.957E+00  2.029E-01  3.962E-01 3.4078418E+00 1.4646489E+00 1.1094236E+00
  1.000E+01  1.600E-01  4.575E-01 3.3797808E+00 1.5125765E+00 9.7692548E-01
  9.957E+00  1.738E-01  4.367E-01 3.3868978E+00 1.5181457E+00 1.0350533E+00
  1.000E+01  1.340E-01  5.000E-01 3.3800122E+00 1.5593238E+00 9.0023614E-01
  9.957E+00  1.467E-01  4.786E-01 3.3896792E+00 1.5678639E+00 9.5808619E-01
  1.000E+01  1.101E-01  5.438E-01 3.3460801E+00 1.6022692E+00 8.2144617E-01
  9.957E+00  1.218E-01  5.217E-01 3.3640285E+00 1.6135737E+00 8.7866435E-01
  1.000E+01  8.849E-02  5.887E-01 3.3479723E+00 1.6414699E+00 7.4076044E-01
  9.957E+00  9.903E-02  5.661E-01 3.3461274E+00 1.6555640E+00 7.9736456E-01
  1.000E+01  6.913E-02  6.347E-01 3.3221979E+00 1.6760010E+00 6.5754351E-01
  9.957E+00  7.852E-02  6.116E-01 3.3375701E+00 1.6932764E+00 7.1376403E-01
  1.000E+01  5.207E-02  6.815E-01 3.2935570E+00 1.7063605E+00 5.7287520E-01
  9.957E+00  6.031E-02  6.580E-01 3.3039665E+00 1.7261854E+00 6.2783422E-01
  1.000E+01  3.738E-02  7.292E-01 3.2897605E+00 1.7333958E+00 4.8790997E-01
  9.957E+00  4.443E-02  7.052E-01 3.2924635E+00 1.7555096E+00 5.4132006E-01
  1.000E+01  2.507E-02  7.775E-01 3.2776946E+00 1.7560794E+00 4.0154560E-01
  9.957E+00  3.092E-02  7.532E-01 3.2849864E+00 1.7810510E+00 4.5408403E-01
  1.000E+01  1.519E-02  8.264E-01 3.2595136E+00 1.7735870E+00 3.1313410E-01
  9.957E+00  1.983E-02  8.019E-01 3.2684279E+00 1.8015578E+00 3.6486371E-01
  1.000E+01  7.761E-03  8.757E-01 3.2440521E+00 1.7864779E+00 2.2367398E-01
  9.957E+00  1.117E-02  8.510E-01 3.2507691E+00 1.8169740E+00 2.7394915E-01
  1.000E+01  2.796E-03  9.253E-01 3.2351796E+00 1.7952534E+00 1.3412428E-01
  9.957E+00  4.969E-03  9.004E-01 3.2388799E+00 1.8279988E+00 1.8253854E-01
  1.000E+01  3.108E-04  9.751E-01 3.2317249E+00 1.7997828E+00 4.4693736E-02
  9.957E+00  1.243E-03  9.502E-01 3.2333503E+00 1.8348334E+00 9.1225832E-02
  1.000E+01  3.108E-04  1.025E+00 3.2317250E+00 1.7997827E+00 -4.4698501E-02
  9.957E+00  0.000E+00  1.000E+00 3.2319072E+00 1.8371737E+00 -2.3802070E-06
  1.000E+01  2.796E-03  1.075E+00 3.2351798E+00 1.7952533E+00 -1.3412904E-01
  9.957E+00  1.243E-03  1.050E+00 3.2333505E+00 1.8348333E+00 -9.1230587E-02
  1.000E+01  7.761E-03  1.124E+00 3.2440525E+00 1.7864775E+00 -2.2367872E-01
  9.957E+00  4.969E-03  1.100E+00 3.2388802E+00 1.8279986E+00 -1.8254328E-01
  1.000E+01  1.519E-02  1.174E+00 3.2595141E+00 1.7735863E+00 -3.1313880E-01
  9.957E+00  1.117E-02  1.149E+00 3.2507696E+00 1.8169735E+00 -2.7395388E-01
  1.000E+01  2.507E-02  1.223E+00 3.2776953E+00 1.7560781E+00 -4.0155027E-01
  9.957E+00  1.983E-02  1.198E+00 3.2684285E+00 1.8015568E+00 -3.6486841E-01
  1.000E+01  3.738E-02  1.271E+00 3.2897614E+00 1.7333947E+00 -4.8791460E-01
  9.957E+00  3.092E-02  1.247E+00 3.2849871E+00 1.7810497E+00 -4.5408870E-01
  1.000E+01  5.207E-02  1.318E+00 3.2935580E+00 1.7063597E+00 -5.7287978E-01
  9.957E+00  4.443E-02  1.295E+00 3.2924644E+00 1.7555088E+00 -5.4132468E-01
  1.000E+01  6.913E-02  1.365E+00 3.3221990E+00 1.6759993E+00 -6.5754802E-01
  9.957E+00  6.031E-02  1.342E+00 3.3039675E+00 1.7261844E+00 -6.2783878E-01
  1.000E+01  8.849E-02  1.411E+00 3.3479735E+00 1.6414679E+00 -7.4076488E-01
  9.957E+00  7.852E-02  1.388E+00 3.3375712E+00 1.6932743E+00 -7.1376853E-01
  1.000E+01  1.101E-01  1.456E+00 3.3460815E+00 1.6022679E+00 -8.2145055E-01
  9.957E+00  9.903E-02  1.434E+00 3.3461286E+00 1.6555625E+00 -7.9736899E-01
  1.000E+01  1.340E-01  1.500E+00 3.3800137E+00 1.5593215E+00 -9.0024042E-01
  9.957E+00  1.218E-01  1.478E+00 3.3640299E+00 1.6135720E+00 -8.7866870E-01
  1.000E+01  1.600E-01  1.543E+00 3.3797824E+00 1.5125743E+00 -9.7692968E-01
  9.957E+00  1.467E-01  1.521E+00 3.3896807E+00 1.5678615E+00 -9.5809044E-01
  1.000E+01  1.881E-01  1.584E+00 3.4108389E+00 1.4619570E+00 -1.0510759E+00
  9.957E+00  1.738E-01  1.563E+00 3.3868994E+00 1.5181437E+00 -1.0350575E+00
  1.000E+01  2.182E-01  1.623E+00 3.4018813E+00 1.4077594E+00 -1.1226537E+00
  9.957E+00  2.029E-01  1.604E+00 3.4078436E+00 1.4646464E+00 -1.1094276E+00
  1.000E+01  2.502E-01  1.662E+00 3.4182768E+00 1.3500512E+00 -1.1914285E+00
  9.957E+00  2.340E-01  1.643E+00 3.4154789E+00 1.4075392E+00 -1.1810683E+00
  1.000E+01  2.841E-01  1.698E+00 3.4182459E+00 1.2889831E+00 -1.2572413E+00
  9.957E+00  2.669E-01  1.680E+00 3.4169460E+00 1.3469141E+00 -1.2497552E+00
  1.000E+01  3.198E-01  1.733E+00 3.4169400E+00 1.2247109E+00 -1.3199302E+00
  9.957E+00  3.018E-01  1.716E+00 3.4182517E+00 1.2829436E+00 -1.3153415E+00
  1.000E+01  3.572E-01  1.766E+00 3.4154725E+00 1.1574001E+00 -1.3793403E+00
  9.957E+00  3.383E-01  1.750E+00 3.4182822E+00 1.2157850E+00 -1.3776582E+00
  1.000E+01  3.962E-01  1.797E+00 3.4078369E+00 1.0871946E+00 -1.4353029E+00
  9.957E+00  3.765E-01  1.782E+00 3.4018864E+00 1.1456038E+00 -1.4365460E+00
  1.000E+01  4.367E-01  1.826E+00 3.3868925E+00 1.0143146E+00 -1.4877280E+00
  9.957E+00  4.163E-01  1.812E+00 3.4108436E+00 1.0725623E+00 -1.4918513E+00
  1.000E+01  4.786E-01  1.853E+00 3.3896736E+00 9.3888998E-01 -1.5364503E+00
  9.957E+00  4.575E-01  1.840E+00 3.3797869E+00 9.9690019E-01 -1.5435038E+00
  1.000E+01  5.217E-01  1.878E+00 3.3640226E+00 8.6105944E-01 -1.5812445E+00
  9.957E+00  5.000E-01  1.866E+00 3.3800179E+00 9.1864289E-01 -1.5912070E+00
  1.000E+01  5.661E-01  1.901E+00 3.3461211E+00 7.8138811E-01 -1.6223929E+00
  9.957E+00  5.438E-01  1.890E+00 3.3460852E+00 8.3824193E-01 -1.6350307E+00
  1.000E+01  6.116E-01  1.921E+00 3.3375634E+00 6.9946238E-01 -1.6593487E+00
  9.957E+00  5.887E-01  1.912E+00 3.3479767E+00 7.5590640E-01 -1.6750317E+00
  1.000E+01  6.580E-01  1.940E+00 3.3039594E+00 6.1525457E-01 -1.6915989E+00
  9.957E+00  6.347E-01  1.931E+00 3.3222021E+00 6.7098820E-01 -1.7102688E+00
  1.000E+01  7.052E-01  1.956E+00 3.2924562E+00 5.3047443E-01 -1.7203363E+00
  9.957E+00  6.815E-01  1.948E+00 3.2935611E+00 5.8458889E-01 -1.7412500E+00
  1.000E+01  7.532E-01  1.969E+00 3.2849790E+00 4.4498666E-01 -1.7453663E+00
  9.957E+00  7.292E-01  1.963E+00 3.2897643E+00 4.9788619E-01 -1.7688382E+00
  1.000E+01  8.019E-01  1.980E+00 3.2684202E+00 3.5755387E-01 -1.7654622E+00
  9.957E+00  7.775E-01  1.975E+00 3.2776979E+00 4.0975566E-01 -1.7919854E+00
  1.000E+01  8.510E-01  1.989E+00 3.2507611E+00 2.6846055E-01 -1.7805693E+00
  9.957E+00  8.264E-01  1.985E+00 3.2595163E+00 3.1953636E-01 -1.8098510E+00
  1.000E+01  9.004E-01  1.995E+00 3.2388714E+00 1.7888123E-01 -1.7913728E+00
  9.957E+00  8.757E-01  1.992E+00 3.2440542E+00 2.2824721E-01 -1.8230053E+00
  1.000E+01  9.502E-01  1.999E+00 3.2333414E+00 8.9398066E-02 -1.7980703E+00
  9.957E+00  9.253E-01  1.997E+00 3.2351812E+00 1.3686669E-01 -1.8319601E+00
  1.000E+01  1.000E+00  2.000E+00 3.2318978E+00 -2.1563174E-06 -1.8003636E+00
  9.957E+00  9.751E-01  2.000E+00 3.2317261E+00 4.5607758E-02 -1.8365819E+00
  1.000E+01  1.050E+00  1.999E+00 3.2333408E+00 -8.9402376E-02 -1.7980700E+00
  9.957E+00  1.025E+00  2.000E+00 3.2317258E+00 -4.5612089E-02 -1.8365818E+00
  1.000E+01  1.100E+00  1.995E+00 3.2388703E+00 -1.7888553E-01 -1.7913724E+00
  9.957E+00  1.075E+00  1.997E+00 3.2351803E+00 -1.3687101E-01 -1.8319598E+00
  1.000E+01  1.149E+00  1.989E+00 3.2507593E+00 -2.6846483E-01 -1.7805687E+00
  9.957E+00  1.124E+00  1.992E+00 3.2440528E+00 -2.2825151E-01 -1.8230047E+00
  1.000E+01  1.198E+00  1.980E+00 3.2684179E+00 -3.5755812E-01 -1.7654614E+00
  9.957E+00  1.174E+00  1.985E+00 3.2595142E+00 -3.1954064E-01 -1.8098502E+00