# TIME = 4.400000
variables = x, y, z
zone N=5762 E=11520 F=FEPOINT ET=TRIANGLE
 5.3792323E+00 1.4877109E+00 1.7888028E+00
 5.3792323E+00 1.4877108E+00 2.1119767E-01
 5.3792324E+00 5.1228973E-01 1.7888023E+00
 5.3792325E+00 5.1229000E-01 2.1119849E-01
 3.6714918E+00 1.0000002E+00 1.7722806E+00
 7.0800815E+00 1.0000002E+00 1.7605552E+00
 3.6714919E+00 1.0000002E+00 2.2771980E-01
 7.0800815E+00 1.0000002E+00 2.3944500E-01
 4.4298425E+00 1.9549679E+00 1.0000002E+00
 4.4298425E+00 4.5032454E-02 1.0000002E+00
 6.3247258E+00 1.9456061E+00 1.0000002E+00
 6.3247258E+00 5.4394040E-02 1.0000002E+00
 5.3199888E+00 1.4782201E+00 1.7932208E+00
 5.2545196E+00 1.4678807E+00 1.7984373E+00
 5.1859335E+00 1.4573092E+00 1.8043173E+00
 5.1144511E+00 1.4464870E+00 1.8110261E+00
 5.0403517E+00 1.4354297E+00 1.8186556E+00
 4.9639335E+00 1.4240798E+00 1.8272738E+00
 4.8854888E+00 1.4123351E+00 1.8368769E+00
 4.8053682E+00 1.4000370E+00 1.8473640E+00
 4.7239780E+00 1.3869724E+00 1.8585071E+00
 4.6417718E+00 1.3728790E+00 1.8699338E+00
 4.5592307E+00 1.3574609E+00 1.8811237E+00
 4.4768410E+00 1.3404144E+00 1.8914301E+00
 4.3950770E+00 1.3214615E+00 1.9001228E+00
 4.3143927E+00 1.3003885E+00 1.9064544E+00
 4.2352330E+00 1.2770782E+00 1.9097359E+00
 4.1580580E+00 1.2515322E+00 1.9094091E+00
 4.0833618E+00 1.2238736E+00 1.9050972E+00
 4.0116631E+00 1.1943334E+00 1.8966287E+00
 3.9434726E+00 1.1632257E+00 1.8840320E+00
 3.8792555E+00 1.1309189E+00 1.8675125E+00
 3.8194349E+00 1.0978276E+00 1.8474353E+00
 3.7643515E+00 1.0643884E+00 1.8242796E+00
 3.7143614E+00 1.0311670E+00 1.7986751E+00
 5.3131953E+00 5.5541381E-01 1.8124049E+00
 5.2456351E+00 5.6761744E-01 1.8181044E+00
 5.1754010E+00 5.7963128E-01 1.8242428E+00
 5.1027683E+00 5.9176248E-01 1.8311084E+00
 5.0277869E+00 6.0421680E-01 1.8388928E+00
 4.9506875E+00 6.1708839E-01 1.8476529E+00
 4.8717589E+00 6.3050174E-01 1.8573601E+00
 4.7913668E+00 6.4461942E-01 1.8678728E+00
 4.7099409E+00 6.5965237E-01 1.8789171E+00
 4.6279535E+00 6.7584780E-01 1.8900730E+00
 4.5458954E+00 6.9346980E-01 1.9007786E+00
 4.4642533E+00 7.1277083E-01 1.9103590E+00
 4.3834941E+00 7.3395927E-01 1.9180768E+00
 4.3040603E+00 7.5716782E-01 1.9232022E+00
 4.2263840E+00 7.8243024E-01 1.9250880E+00
 4.1509103E+00 8.0967202E-01 1.9232357E+00
 4.0781108E+00 8.3871828E-01 1.9173377E+00
 4.0084662E+00 8.6931560E-01 1.9072898E+00
 3.9424269E+00 9.0115540E-01 1.8931742E+00
 3.8803303E+00 9.3387953E-01 1.8752063E+00
 3.8222495E+00 9.6705124E-01 1.8536237E+00
 3.7677530E+00 1.0000002E+00 1.8284949E+00
 5.3108594E+00 5.9001225E-01 1.8303456E+00
 5.2407751E+00 6.0409440E-01 1.8363224E+00
 5.1689098E+00 6.1757861E-01 1.8425401E+00
 5.0949132E+00 6.3117581E-01 1.8494629E+00
 5.0188464E+00 6.4515121E-01 1.8572755E+00
 4.9408474E+00 6.5966263E-01 1.8660381E+00
 4.8612090E+00 6.7484485E-01 1.8756925E+00
 4.7803140E+00 6.9086839E-01 1.8860612E+00
 4.6986171E+00 7.0793822E-01 1.8968255E+00
 4.6166105E+00 7.2628232E-01 1.9075197E+00
 4.5347974E+00 7.4612778E-01 1.9175421E+00
 4.4536679E+00 7.6767204E-01 1.9261929E+00
 4.3736849E+00 7.9105388E-01 1.9327307E+00
 4.2952822E+00 8.1632904E-01 1.9364471E+00
 4.2188798E+00 8.4345793E-01 1.9367396E+00
 4.1449033E+00 8.7230859E-01 1.9331705E+00
 4.0737875E+00 9.0267510E-01 1.9254971E+00
 4.0059336E+00 9.3430155E-01 1.9136650E+00
 3.9415974E+00 9.6688286E-01 1.8977486E+00
 3.8806704E+00 1.0000002E+00 1.8778152E+00
 3.8222495E+00 1.0329491E+00 1.8536237E+00
 5.3093036E+00 6.2637805E-01 1.8473068E+00
 5.2376225E+00 6.4194814E-01 1.8531938E+00
 5.1642722E+00 6.5693262E-01 1.8593421E+00
 5.0890310E+00 6.7204013E-01 1.8661683E+00
 5.0118728E+00 6.8761618E-01 1.8738627E+00
 4.9329599E+00 7.0383290E-01 1.8824616E+00
 4.8525910E+00 7.2084133E-01 1.8918811E+00
 4.7711777E+00 7.3881131E-01 1.9019060E+00
 4.6891998E+00 7.5793724E-01 1.9121748E+00
 4.6071697E+00 7.7842036E-01 1.9221798E+00
 4.5256025E+00 8.0044455E-01 1.9312860E+00
 4.4449907E+00 8.2414873E-01 1.9387768E+00
 4.3657923E+00 8.4960308E-01 1.9439170E+00
 4.2884294E+00 8.7679376E-01 1.9460290E+00
 4.2133027E+00 9.0562229E-01 1.9445607E+00
 4.1408014E+00 9.3591988E-01 1.9391345E+00
 4.0712780E+00 9.6746872E-01 1.9295572E+00
 4.0049411E+00 1.0000002E+00 1.9157770E+00
 3.9415974E+00 1.0331175E+00 1.8977486E+00
 3.8803303E+00 1.0661208E+00 1.8752063E+00
 5.3080182E+00 6.6459794E-01 1.8631369E+00
 5.2350199E+00 6.8152714E-01 1.8687337E+00
 5.1604239E+00 6.9795565E-01 1.8746337E+00
 5.0840687E+00 7.1459463E-01 1.8812059E+00
 5.0059521E+00 7.3179277E-01 1.8886098E+00
 4.9262500E+00 7.4973587E-01 1.8968580E+00
 4.8452905E+00 7.6857638E-01 1.9058351E+00
 4.7635116E+00 7.8847905E-01 1.9152898E+00
 4.6814173E+00 8.0961902E-01 1.9248216E+00
 4.5995369E+00 8.3216376E-01 1.9338883E+00
 4.5183926E+00 8.5624837E-01 1.9418322E+00
 4.4384746E+00 8.8195196E-01 1.9479336E+00
 4.3602298E+00 9.0928092E-01 1.9514775E+00
 4.2840594E+00 9.3816464E-01 1.9518270E+00
 4.2103267E+00 9.6846609E-01 1.9484841E+00
 4.1393429E+00 1.0000002E+00 1.9411206E+00
 4.0712780E+00 1.0325316E+00 1.9295572E+00
 4.0059336E+00 1.0656988E+00 1.9136650E+00
 3.9424269E+00 1.0988450E+00 1.8931743E+00
 5.3068404E+00 7.0470664E-01 1.8776578E+00
 5.2326724E+00 7.2290886E-01 1.8827995E+00
 5.1570056E+00 7.4074596E-01 1.8882882E+00
 5.0797155E+00 7.5890050E-01 1.8944360E+00
 5.0008273E+00 7.7770886E-01 1.9013652E+00
 4.9205424E+00 7.9735417E-01 1.9090589E+00
 4.8392160E+00 8.1798511E-01 1.9173713E+00
 4.7573115E+00 8.3975269E-01 1.9260170E+00
 4.6753521E+00 8.6280619E-01 1.9345633E+00
 4.5938771E+00 8.8727309E-01 1.9424440E+00
 4.5134088E+00 9.1323729E-01 1.9489931E+00
 4.4344268E+00 9.4072096E-01 1.9535028E+00
 4.3573561E+00 9.6967790E-01 1.9552908E+00
 4.2825598E+00 1.0000002E+00 1.9537679E+00
 4.2103267E+00 1.0315343E+00 1.9484841E+00
 4.1408013E+00 1.0640805E+00 1.9391346E+00
 4.0737874E+00 1.0973253E+00 1.9254972E+00
 4.0084662E+00 1.1306848E+00 1.9072899E+00
 5.3057547E+00 7.4662657E-01 1.8906556E+00
 5.2305623E+00 7.6603269E-01 1.8951921E+00
 5.1540024E+00 7.8523574E-01 1.9001095E+00
 5.0759789E+00 8.0486570E-01 1.9056575E+00
 4.9965418E+00 8.2523573E-01 1.9119196E+00
 4.9159174E+00 8.4651826E-01 1.9188491E+00
 4.8344855E+00 8.6885093E-01 1.9262710E+00
 4.7527292E+00 8.9236513E-01 1.9338714E+00
 4.6711837E+00 9.1717836E-01 1.9411945E+00
 4.5903902E+00 9.4337548E-01 1.9476626E+00
 4.5108611E+00 9.7099105E-01 1.9526161E+00
 4.4330543E+00 1.0000002E+00 1.9553726E+00
 4.3573561E+00 1.0303225E+00 1.9552908E+00
 4.2840594E+00 1.0618357E+00 1.9518271E+00
 4.2133027E+00 1.0943781E+00 1.9445609E+00
 4.1449033E+00 1.1276918E+00 1.9331706E+00
 4.0781108E+00 1.1612821E+00 1.9173378E+00
 5.3047921E+00 7.9020059E-01 1.9019072E+00
 5.2287421E+00 8.1073947E-01 1.9056974E+00
 5.1514860E+00 8.3124406E-01 1.9098842E+00
 5.0729511E+00 8.5227958E-01 1.9146562E+00
 4.9932082E+00 8.7412593E-01 1.9200589E+00
 4.9125058E+00 8.9693876E-01 1.9260176E+00
 4.8312427E+00 9.2083918E-01 1.9323322E+00
 4.7499149E+00 9.4593400E-01 1.9386670E+00
 4.6690606E+00 9.7230646E-01 1.9445540E+00
 4.5892123E+00 1.0000002E+00 1.9494172E+00
 4.5108611E+00 1.0290094E+00 1.9526162E+00
 4.4344269E+00 1.0592794E+00 1.9535029E+00
 4.3602298E+00 1.0907195E+00 1.9514776E+00
 4.2884294E+00 1.1232066E+00 1.9460292E+00
 4.2188798E+00 1.1565425E+00 1.9367398E+00
 4.1509103E+00 1.1903284E+00 1.9232359E+00
 5.3039854E+00 8.3521728E-01 1.9112018E+00
 5.2272681E+00 8.5679721E-01 1.9141115E+00
 5.1495316E+00 8.7851125E-01 1.9174130E+00
 5.0707218E+00 9.0084826E-01 1.9212383E+00
 4.9909278E+00 9.2404733E-01 1.9255980E+00
 4.9104147E+00 9.4824210E-01 1.9303930E+00
 4.8295942E+00 9.7353303E-01 1.9354030E+00
 4.7489658E+00 1.0000002E+00 1.9402800E+00
 4.6690606E+00 1.0276940E+00 1.9445541E+00
 4.5903902E+00 1.0566250E+00 1.9476628E+00
 4.5134088E+00 1.0867631E+00 1.9489933E+00
 4.4384746E+00 1.1180484E+00 1.9479339E+00
 4.3657923E+00 1.1503973E+00 1.9439173E+00
 4.2952822E+00 1.1836714E+00 1.9364474E+00
 4.2263840E+00 1.2175702E+00 1.9250883E+00
 5.3033596E+00 8.8141494E-01 1.9183529E+00
 5.2261844E+00 9.0391811E-01 1.9202583E+00
 5.1481968E+00 9.2671896E-01 1.9225308E+00
 5.0693577E+00 9.5021893E-01 1.9252521E+00
 4.9897701E+00 9.7461009E-01 1.9284028E+00
 4.9097104E+00 1.0000002E+00 1.9318642E+00
 4.8295942E+00 1.0264675E+00 1.9354031E+00
 4.7499149E+00 1.0540665E+00 1.9386672E+00
 4.6711838E+00 1.0828221E+00 1.9411948E+00
 4.5938772E+00 1.1127274E+00 1.9424443E+00
 4.5183926E+00 1.1437521E+00 1.9418326E+00
 4.4449908E+00 1.1758517E+00 1.9387772E+00
 4.3736850E+00 1.2089466E+00 1.9327310E+00
 4.3040603E+00 1.2428326E+00 1.9232026E+00
 5.3029326E+00 9.2848902E-01 1.9232094E+00
 5.2255220E+00 9.5177216E-01 1.9240030E+00
 5.1475199E+00 9.7550765E-01 1.9251202E+00
 5.0688986E+00 1.0000002E+00 1.9266010E+00
 4.9897701E+00 1.0253904E+00 1.9284029E+00
 4.9104147E+00 1.0517584E+00 1.9303931E+00
 4.8312427E+00 1.0791613E+00 1.9323324E+00
 4.7527293E+00 1.1076354E+00 1.9338718E+00
 4.6753522E+00 1.1371943E+00 1.9345637E+00
 4.5995371E+00 1.1678367E+00 1.9338887E+00
 4.5256026E+00 1.1995559E+00 1.9312865E+00
 4.4536680E+00 1.2323284E+00 1.9261934E+00
 4.3834942E+00 1.2660412E+00 1.9180772E+00
 5.3027162E+00 9.7610245E-01 1.9256651E+00
 5.2252992E+00 1.0000002E+00 1.9252609E+00
 5.1475199E+00 1.0244928E+00 1.9251203E+00
 5.0693577E+00 1.0497815E+00 1.9252522E+00
 4.9909278E+00 1.0759532E+00 1.9255982E+00
 4.9125058E+00 1.1030618E+00 1.9260179E+00
 4.8344855E+00 1.1311496E+00 1.9262714E+00
 4.7573117E+00 1.1602478E+00 1.9260175E+00
 4.6814175E+00 1.1903815E+00 1.9248222E+00
 4.6071699E+00 1.2215802E+00 1.9221804E+00
 4.5347976E+00 1.2538728E+00 1.9175427E+00
 4.4642534E+00 1.2872297E+00 1.9103595E+00
 5.3027162E+00 1.0238980E+00 1.9256652E+00
 5.2255220E+00 1.0482283E+00 1.9240031E+00
 5.1481968E+00 1.0732815E+00 1.9225310E+00
 5.0707218E+00 1.0991522E+00 1.9212386E+00
 4.9932081E+00 1.1258746E+00 1.9200592E+00
 4.9159174E+00 1.1534823E+00 1.9188495E+00
 4.8392161E+00 1.1820155E+00 1.9173718E+00
 4.7635117E+00 1.2115215E+00 1.9152904E+00
 4.6892000E+00 1.2420633E+00 1.9121755E+00
 4.6166107E+00 1.2737183E+00 1.9075204E+00
 4.5458956E+00 1.3065308E+00 1.9007792E+00
 5.3029326E+00 1.0715114E+00 1.9232095E+00
 5.2261844E+00 1.0960823E+00 1.9202585E+00
 5.1495315E+00 1.1214892E+00 1.9174133E+00
 5.0729510E+00 1.1477209E+00 1.9146565E+00
 4.9965418E+00 1.1747648E+00 1.9119200E+00
 4.9205424E+00 1.2026464E+00 1.9090594E+00
 4.8452906E+00 1.2314242E+00 1.9058358E+00
 4.7711779E+00 1.2611893E+00 1.9019067E+00
 4.6986173E+00 1.2920624E+00 1.8968263E+00
 4.6279537E+00 1.3241528E+00 1.8900738E+00
 5.3033595E+00 1.1185855E+00 1.9183531E+00
 5.2272680E+00 1.1432033E+00 1.9141118E+00
 5.1514859E+00 1.1687564E+00 1.9098845E+00
 5.0759789E+00 1.1951348E+00 1.9056580E+00
 5.0008272E+00 1.2222917E+00 1.9013657E+00
 4.9262500E+00 1.2502647E+00 1.8968586E+00
 4.8525911E+00 1.2791593E+00 1.8918819E+00
 4.7803142E+00 1.3091323E+00 1.8860621E+00
 4.7099412E+00 1.3403483E+00 1.8789180E+00
 5.3039854E+00 1.1647832E+00 1.9112021E+00
 5.2287420E+00 1.1892610E+00 1.9056978E+00
 5.1540023E+00 1.2147648E+00 1.9001100E+00
 5.0797154E+00 1.2411001E+00 1.8944365E+00
 5.0059520E+00 1.2682078E+00 1.8886105E+00
 4.9329599E+00 1.2961678E+00 1.8824623E+00
 4.8612091E+00 1.3251558E+00 1.8756933E+00
 4.7913670E+00 1.3553813E+00 1.8678737E+00
 5.3047920E+00 1.2097999E+00 1.9019076E+00
 5.2305622E+00 1.2339678E+00 1.8951926E+00
 5.1570055E+00 1.2592546E+00 1.8882887E+00
 5.0840686E+00 1.2854060E+00 1.8812065E+00
 5.0118728E+00 1.3123845E+00 1.8738634E+00
 4.9408474E+00 1.3403381E+00 1.8660389E+00
 4.8717590E+00 1.3694990E+00 1.8573609E+00
 5.3057546E+00 1.2533739E+00 1.8906561E+00
 5.2326722E+00 1.2770917E+00 1.8828000E+00
 5.1604238E+00 1.3020449E+00 1.8746343E+00
 5.0890309E+00 1.3279605E+00 1.8661689E+00
 5.0188464E+00 1.3548495E+00 1.8572763E+00
 4.9506875E+00 1.3829123E+00 1.8476538E+00
 5.3068403E+00 1.2952939E+00 1.8776583E+00
 5.2350198E+00 1.3184734E+00 1.8687343E+00
 5.1642721E+00 1.3430680E+00 1.8593428E+00
 5.0949131E+00 1.3688249E+00 1.8494636E+00
 5.0277869E+00 1.3957839E+00 1.8388936E+00
 5.3080181E+00 1.3354026E+00 1.8631374E+00
 5.2376224E+00 1.3580525E+00 1.8531944E+00
 5.1689097E+00 1.3824220E+00 1.8425407E+00
 5.1027682E+00 1.4082382E+00 1.8311091E+00
 5.3093035E+00 1.3736225E+00 1.8473073E+00
 5.2407750E+00 1.3959062E+00 1.8363230E+00
 5.1754009E+00 1.4203694E+00 1.8242434E+00
 5.3108593E+00 1.4099884E+00 1.8303462E+00
 5.2456351E+00 1.4323832E+00 1.8181050E+00
 5.3131952E+00 1.4445868E+00 1.8124055E+00
 5.3793642E+00 1.4588153E+00 1.8059375E+00
 5.3794993E+00 1.4259086E+00 1.8238147E+00
 5.3795722E+00 1.3909851E+00 1.8409712E+00
 5.3796238E+00 1.3539528E+00 1.8572272E+00
 5.3796660E+00 1.3148940E+00 1.8723423E+00
 5.3797038E+00 1.2739464E+00 1.8860647E+00
 5.3797378E+00 1.2312591E+00 1.8981609E+00
 5.3797673E+00 1.1870232E+00 1.9084112E+00
 5.3797914E+00 1.1414786E+00 1.9166158E+00
 5.3798092E+00 1.0949089E+00 1.9226063E+00
 5.3798201E+00 1.0476341E+00 1.9262541E+00
 5.3798238E+00 1.0000002E+00 1.9274791E+00
 5.3798201E+00 9.5236627E-01 1.9262540E+00
 5.3798092E+00 9.0509154E-01 1.9226061E+00
 5.3797914E+00 8.5852182E-01 1.9166156E+00
 5.3797674E+00 8.1297723E-01 1.9084109E+00
 5.3797379E+00 7.6874133E-01 1.8981606E+00
 5.3797039E+00 7.2605412E-01 1.8860643E+00
 5.3796661E+00 6.8510654E-01 1.8723419E+00
 5.3796239E+00 6.4604772E-01 1.8572268E+00
 5.3795723E+00 6.0901548E-01 1.8409707E+00
 5.3794994E+00 5.7409203E-01 1.8238142E+00
 5.3793643E+00 5.4118527E-01 1.8059371E+00
 5.4385529E+00 5.2031669E-01 1.7956294E+00
 5.5039813E+00 5.2918327E-01 1.8034197E+00
 5.5723886E+00 5.3846225E-01 1.8117321E+00
 5.6435224E+00 5.4828454E-01 1.8205126E+00
 5.7171207E+00 5.5874192E-01 1.8296190E+00
 5.7929038E+00 5.6997195E-01 1.8388921E+00
 5.8706264E+00 5.8212225E-01 1.8481418E+00
 5.9499989E+00 5.9534596E-01 1.8571498E+00
 6.0306886E+00 6.0979334E-01 1.8656723E+00
 6.1123080E+00 6.2560535E-01 1.8734427E+00
 6.1944159E+00 6.4290944E-01 1.8801736E+00
 6.2765192E+00 6.6181467E-01 1.8855575E+00
 6.3580841E+00 6.8240635E-01 1.8892709E+00
 6.4385577E+00 7.0473799E-01 1.8909841E+00
 6.5173935E+00 7.2882243E-01 1.8903783E+00
 6.5940747E+00 7.5462312E-01 1.8871694E+00
 6.6681287E+00 7.8204961E-01 1.8811319E+00
 6.7391320E+00 8.1095754E-01 1.8721186E+00
 6.8067099E+00 8.4115352E-01 1.8600737E+00
 6.8705303E+00 8.7240411E-01 1.8450394E+00
 6.9302682E+00 9.0442703E-01 1.8271697E+00
 6.9856332E+00 9.3690697E-01 1.8067137E+00
 7.0362600E+00 9.6936799E-01 1.7840730E+00
 5.4455724E+00 1.4461424E+00 1.8151452E+00
 5.5130135E+00 1.4353293E+00 1.8235338E+00
 5.5829951E+00 1.4244791E+00 1.8321684E+00
 5.6552163E+00 1.4131906E+00 1.8410990E+00
 5.7296334E+00 1.4011801E+00 1.8502821E+00
 5.8060463E+00 1.3882928E+00 1.8595517E+00
 5.8842154E+00 1.3743834E+00 1.8687020E+00
 5.9638454E+00 1.3593164E+00 1.8774947E+00
 6.0445814E+00 1.3429627E+00 1.8856679E+00
 6.1260144E+00 1.3252057E+00 1.8929411E+00
 6.2076824E+00 1.3059469E+00 1.8990161E+00
 6.2890784E+00 1.2851106E+00 1.9035801E+00
 6.3696635E+00 1.2626501E+00 1.9063105E+00
 6.4488910E+00 1.2385550E+00 1.9068876E+00
 6.5262318E+00 1.2128568E+00 1.9050127E+00
 6.6011956E+00 1.1856329E+00 1.9004323E+00
 6.6733420E+00 1.1570046E+00 1.8929594E+00
 6.7422878E+00 1.1271299E+00 1.8824889E+00
 6.8077117E+00 1.0961991E+00 1.8690023E+00
 6.8693991E+00 1.0644463E+00 1.8525468E+00
 6.9273701E+00 1.0321887E+00 1.8331639E+00
 6.9821230E+00 1.0000002E+00 1.8107399E+00
 5.4481165E+00 1.4115056E+00 1.8332424E+00
 5.5180312E+00 1.3987376E+00 1.8420566E+00
 5.5895801E+00 1.3862989E+00 1.8508462E+00
 5.6631024E+00 1.3734130E+00 1.8598508E+00
 5.7385468E+00 1.3597542E+00 1.8690120E+00
 5.8158079E+00 1.3451270E+00 1.8781690E+00
 5.8946508E+00 1.3293960E+00 1.8870954E+00
 5.9747677E+00 1.3124386E+00 1.8955349E+00
 6.0557817E+00 1.2941461E+00 1.9032085E+00
 6.1372592E+00 1.2744269E+00 1.9098218E+00
 6.2187166E+00 1.2532123E+00 1.9150669E+00
 6.2996309E+00 1.2304613E+00 1.9186270E+00
 6.3794572E+00 1.2061667E+00 1.9201831E+00
 6.4576544E+00 1.1803590E+00 1.9194283E+00
 6.5337109E+00 1.1531091E+00 1.9160875E+00
 6.6071662E+00 1.1245247E+00 1.9099397E+00
 6.6776247E+00 1.0947413E+00 1.9008338E+00
 6.7447839E+00 1.0639140E+00 1.8886917E+00
 6.8085116E+00 1.0322329E+00 1.8734760E+00
 6.8690362E+00 1.0000002E+00 1.8550952E+00
 6.9273701E+00 9.6781168E-01 1.8331639E+00
 5.4498089E+00 1.3750476E+00 1.8503369E+00
 5.5212925E+00 1.3606873E+00 1.8591745E+00
 5.5942850E+00 1.3466284E+00 1.8679701E+00
 5.6690049E+00 1.3321087E+00 1.8768976E+00
 5.7454929E+00 1.3167401E+00 1.8859000E+00
 5.8236260E+00 1.3003320E+00 1.8947916E+00
 5.9031697E+00 1.2827530E+00 1.9033297E+00
 5.9837928E+00 1.2638980E+00 1.9112390E+00
 6.0650942E+00 1.2436802E+00 1.9182255E+00
 6.1466160E+00 1.2220352E+00 1.9239834E+00
 6.2278542E+00 1.1989263E+00 1.9281988E+00
 6.3082731E+00 1.1743487E+00 1.9305555E+00
 6.3873258E+00 1.1483334E+00 1.9307436E+00
 6.4644824E+00 1.1209476E+00 1.9284748E+00
 6.5392571E+00 1.0922911E+00 1.9235020E+00
 6.6112345E+00 1.0624861E+00 1.9156359E+00
 6.6801064E+00 1.0316676E+00 1.9047486E+00
 6.7457614E+00 1.0000002E+00 1.8907471E+00
 6.8085116E+00 9.6776747E-01 1.8734760E+00
 6.8693991E+00 9.3555401E-01 1.8525469E+00
 5.4511870E+00 1.3367090E+00 1.8662892E+00
 5.5239690E+00 1.3208629E+00 1.8749388E+00
 5.5981761E+00 1.3052300E+00 1.8835514E+00
 5.6739732E+00 1.2890559E+00 1.8922401E+00
 5.7513813E+00 1.2719659E+00 1.9009104E+00
 5.8302705E+00 1.2537740E+00 1.9093550E+00
 5.9103825E+00 1.2343656E+00 1.9173105E+00
 5.9913639E+00 1.2136552E+00 1.9244867E+00
 6.0727893E+00 1.1915814E+00 1.9305777E+00
 6.1541797E+00 1.1681100E+00 1.9352714E+00
 6.2350165E+00 1.1432379E+00 1.9382539E+00
 6.3147582E+00 1.1169959E+00 1.9392165E+00
 6.3928653E+00 1.0894488E+00 1.9378658E+00
 6.4688307E+00 1.0606906E+00 1.9339383E+00
 6.5422126E+00 1.0308341E+00 1.9272155E+00
 6.6126795E+00 1.0000002E+00 1.9175309E+00
 6.6801064E+00 9.6833278E-01 1.9047486E+00
 6.7447840E+00 9.3608636E-01 1.8886917E+00
 6.8077117E+00 9.0380128E-01 1.8690024E+00
 5.4524403E+00 1.2964639E+00 1.8809250E+00
 5.5263738E+00 1.2792029E+00 1.8892117E+00
 5.6016252E+00 1.2620218E+00 1.8974679E+00
 5.6783252E+00 1.2442081E+00 1.9057391E+00
 5.7564734E+00 1.2254152E+00 1.9138902E+00
 5.8359188E+00 1.2054780E+00 1.9216895E+00
 5.9163817E+00 1.1843021E+00 1.9288568E+00
 5.9974858E+00 1.1618266E+00 1.9350899E+00
 6.0787857E+00 1.1380185E+00 1.9400770E+00
 6.1597876E+00 1.1128756E+00 1.9435060E+00
 6.2399660E+00 1.0864279E+00 1.9450702E+00
 6.3187849E+00 1.0587375E+00 1.9444765E+00
 6.3957254E+00 1.0298934E+00 1.9414538E+00
 6.4703220E+00 1.0000002E+00 1.9357655E+00
 6.5422126E+00 9.6916626E-01 1.9272155E+00
 6.6112345E+00 9.3751427E-01 1.9156359E+00
 6.6776247E+00 9.0525902E-01 1.9008338E+00
 6.7422878E+00 8.7287043E-01 1.8824889E+00
 5.4535929E+00 1.2543934E+00 1.8940286E+00
 5.5285333E+00 1.2357739E+00 1.9017911E+00
 5.6046533E+00 1.2170803E+00 1.9095192E+00
 5.6820589E+00 1.1976662E+00 1.9171892E+00
 5.7607292E+00 1.1772252E+00 1.9246275E+00
 5.8404938E+00 1.1556200E+00 1.9315807E+00
 5.9210521E+00 1.1327816E+00 1.9377558E+00
 6.0020095E+00 1.1086768E+00 1.9428446E+00
 6.0829063E+00 1.0833028E+00 1.9465352E+00
 6.1632422E+00 1.0566885E+00 1.9485229E+00
 6.2424958E+00 1.0288930E+00 1.9485156E+00
 6.3201501E+00 1.0000002E+00 1.9462413E+00
 6.3957254E+00 9.7010695E-01 1.9414538E+00
 6.4688307E+00 9.3930974E-01 1.9339383E+00
 6.5392571E+00 9.0770929E-01 1.9235021E+00
 6.6071662E+00 8.7547568E-01 1.9099397E+00
 6.6733420E+00 8.4299577E-01 1.8929594E+00
 5.4546147E+00 1.2106554E+00 1.9053742E+00
 5.5303959E+00 1.1907384E+00 1.9124577E+00
 5.6071900E+00 1.1705910E+00 1.9194859E+00
 5.6850834E+00 1.1496468E+00 1.9263712E+00
 5.7640388E+00 1.1276491E+00 1.9329058E+00
 5.8438675E+00 1.1044936E+00 1.9388195E+00
 5.9242530E+00 1.0801398E+00 1.9438122E+00
 6.0047874E+00 1.0545837E+00 1.9475755E+00
 6.0850050E+00 1.0278518E+00 1.9498046E+00
 6.1644091E+00 1.0000002E+00 1.9502087E+00
 6.2424958E+00 9.7110733E-01 1.9485156E+00
 6.3187849E+00 9.4126282E-01 1.9444766E+00
 6.3928653E+00 9.1055154E-01 1.9378658E+00
 6.4644824E+00 8.7905279E-01 1.9284749E+00
 6.5337109E+00 8.4689126E-01 1.9160876E+00
 6.6011956E+00 8.1436740E-01 1.9004324E+00
 5.4554714E+00 1.1654628E+00 1.9147479E+00
 5.5319045E+00 1.1443312E+00 1.9210026E+00
 5.6091600E+00 1.1228184E+00 1.9271638E+00
 5.6873098E+00 1.1004496E+00 1.9330874E+00
 5.7663021E+00 1.0770249E+00 1.9385385E+00
 5.8459348E+00 1.0524763E+00 1.9432361E+00
 5.9258800E+00 1.0267935E+00 1.9468793E+00
 6.0057241E+00 1.0000002E+00 1.9491661E+00
 6.0850050E+00 9.7214852E-01 1.9498046E+00
 6.1632422E+00 9.4331185E-01 1.9485229E+00
 6.2399660E+00 9.1357246E-01 1.9450703E+00
 6.3147582E+00 8.8300443E-01 1.9392166E+00
 6.3873258E+00 8.5166697E-01 1.9307436E+00
 6.4576544E+00 8.1964135E-01 1.9194284E+00
 6.5262318E+00 7.8714351E-01 1.9050128E+00
 5.4561364E+00 1.1190788E+00 1.9219606E+00
 5.5330136E+00 1.0968442E+00 1.9272460E+00
 5.6105053E+00 1.0740868E+00 1.9323834E+00
 5.6886719E+00 1.0504344E+00 1.9371828E+00
 5.7674509E+00 1.0257488E+00 1.9413902E+00
 5.8466311E+00 1.0000002E+00 1.9447209E+00
 5.9258800E+00 9.7320689E-01 1.9468793E+00
 6.0047874E+00 9.4541669E-01 1.9475755E+00
 6.0829063E+00 9.1669752E-01 1.9465352E+00
 6.1597876E+00 8.8712474E-01 1.9435060E+00
 6.2350165E+00 8.5676246E-01 1.9382539E+00
 6.3082731E+00 8.2565161E-01 1.9305556E+00
 6.3794572E+00 7.9383365E-01 1.9201832E+00
 6.4488910E+00 7.6144530E-01 1.9068877E+00
 5.4565901E+00 1.0718107E+00 1.9268594E+00
 5.5336915E+00 1.0486122E+00 1.9310498E+00
 5.6111875E+00 1.0247625E+00 1.9350244E+00
 5.6891303E+00 1.0000002E+00 1.9385592E+00
 5.7674509E+00 9.7425158E-01 1.9413902E+00
 5.8459348E+00 9.4752404E-01 1.9432361E+00
 5.9242530E+00 9.1986051E-01 1.9438122E+00
 6.0020095E+00 8.9132358E-01 1.9428446E+00
 6.0787857E+00 8.6198182E-01 1.9400770E+00
 6.1541797E+00 8.3189038E-01 1.9352714E+00
 6.2278542E+00 8.0107406E-01 1.9281989E+00
 6.2996309E+00 7.6953899E-01 1.9186271E+00
 6.3696635E+00 7.3735018E-01 1.9063106E+00
 5.4568201E+00 1.0239983E+00 1.9293366E+00
 5.5339196E+00 1.0000002E+00 1.9323276E+00
 5.6111875E+00 9.7523786E-01 1.9350243E+00
 5.6886719E+00 9.4956601E-01 1.9371828E+00
 5.7663021E+00 9.2297551E-01 1.9385385E+00
 5.8438675E+00 8.9550678E-01 1.9388195E+00
 5.9210521E+00 8.6721872E-01 1.9377558E+00
 5.9974858E+00 8.3817380E-01 1.9350899E+00
 6.0727893E+00 8.0841898E-01 1.9305777E+00
 6.1466160E+00 7.7796515E-01 1.9239835E+00
 6.2187166E+00 7.4678805E-01 1.9150670E+00
 6.2890784E+00 7.1488975E-01 1.9035801E+00
 5.4568201E+00 9.7600212E-01 1.9293366E+00
 5.5336915E+00 9.5138818E-01 1.9310498E+00
 5.6105053E+00 9.2591362E-01 1.9323833E+00
 5.6873098E+00 8.9955077E-01 1.9330873E+00
 5.7640388E+00 8.7235129E-01 1.9329058E+00
 5.8404938E+00 8.4438039E-01 1.9315807E+00
 5.9163817E+00 8.1569828E-01 1.9288567E+00
 5.9913639E+00 7.8634520E-01 1.9244867E+00
 6.0650942E+00 7.5632017E-01 1.9182255E+00
 6.1372592E+00 7.2557340E-01 1.9098219E+00
 6.2076824E+00 6.9405343E-01 1.8990161E+00
 5.4565901E+00 9.2818971E-01 1.9268593E+00
 5.5330136E+00 9.0315623E-01 1.9272459E+00
 5.6091600E+00 8.7718198E-01 1.9271637E+00
 5.6850835E+00 8.5035359E-01 1.9263711E+00
 5.7607292E+00 8.2277519E-01 1.9246275E+00
 5.8359188E+00 7.9452233E-01 1.9216894E+00
 5.9103825E+00 7.6563474E-01 1.9173105E+00
 5.9837928E+00 7.3610230E-01 1.9112390E+00
 6.0557817E+00 7.0585423E-01 1.9032086E+00
 6.1260144E+00 6.7479458E-01 1.8929412E+00
 5.4561364E+00 8.8092157E-01 1.9219605E+00
 5.5319045E+00 8.5566920E-01 1.9210025E+00
 5.6071901E+00 8.2940943E-01 1.9194858E+00
 5.6820589E+00 8.0233417E-01 1.9171890E+00
 5.7564734E+00 7.7458516E-01 1.9138902E+00
 5.8302706E+00 7.4622640E-01 1.9093549E+00
 5.9031697E+00 7.1724740E-01 1.9033297E+00
 5.9747677E+00 6.8756175E-01 1.8955349E+00
 6.0445814E+00 6.5703764E-01 1.8856680E+00
 5.4554715E+00 8.3453766E-01 1.9147476E+00
 5.5303960E+00 8.0926205E-01 1.9124575E+00
 5.6046533E+00 7.8292014E-01 1.9095190E+00
 5.6783253E+00 7.5579226E-01 1.9057389E+00
 5.7513814E+00 7.2803450E-01 1.9009103E+00
 5.8236261E+00 6.9966836E-01 1.8947916E+00
 5.8946508E+00 6.7060436E-01 1.8870954E+00
 5.9638454E+00 6.4068393E-01 1.8774947E+00
 5.4546148E+00 7.8934499E-01 1.9053739E+00
 5.5285333E+00 7.6422651E-01 1.9017909E+00
 5.6016253E+00 7.3797862E-01 1.8974677E+00
 5.6739732E+00 7.1094448E-01 1.8922399E+00
 5.7454929E+00 6.8326031E-01 1.8858999E+00
 5.8158079E+00 6.5487342E-01 1.8781690E+00
 5.8842155E+00 6.2561700E-01 1.8687020E+00
 5.4535930E+00 7.4560703E-01 1.8940283E+00
 5.5263739E+00 7.2079757E-01 1.8892114E+00
 5.5981762E+00 6.9477046E-01 1.8835512E+00
 5.6690049E+00 6.6789169E-01 1.8768974E+00
 5.7385469E+00 6.4024617E-01 1.8690119E+00
 5.8060463E+00 6.1170757E-01 1.8595516E+00
 5.4524404E+00 7.0353653E-01 1.8809246E+00
 5.5239691E+00 6.7913752E-01 1.8749385E+00
 5.5942851E+00 6.5337208E-01 1.8679699E+00
 5.6631024E+00 6.2658741E-01 1.8598507E+00
 5.7296334E+00 5.9882028E-01 1.8502820E+00
 5.4511871E+00 6.6329151E-01 1.8662889E+00
 5.5212926E+00 6.3931317E-01 1.8591741E+00
 5.5895802E+00 6.1370158E-01 1.8508460E+00
 5.6552164E+00 5.8680986E-01 1.8410988E+00
 5.4498089E+00 6.2495294E-01 1.8503366E+00
 5.5180313E+00 6.0126285E-01 1.8420563E+00
 5.5829952E+00 5.7552142E-01 1.8321681E+00
 5.4481166E+00 5.8849492E-01 1.8332420E+00
 5.5130135E+00 5.6467120E-01 1.8235335E+00
 5.4455725E+00 5.5385819E-01 1.8151448E+00
 5.3427775E+00 1.5099980E+00 1.7736363E+00
 5.3022310E+00 1.5344763E+00 1.7560952E+00
 5.2599319E+00 1.5596220E+00 1.7370769E+00
 5.2160699E+00 1.5853118E+00 1.7165472E+00
 5.1707788E+00 1.6114490E+00 1.6944622E+00
 5.1243177E+00 1.6379238E+00 1.6707731E+00
 5.0769353E+00 1.6646283E+00 1.6454128E+00
 5.0289088E+00 1.6914271E+00 1.6183168E+00
 4.9805538E+00 1.7181535E+00 1.5894279E+00
 4.9322191E+00 1.7446053E+00 1.5587049E+00
 4.8842753E+00 1.7705467E+00 1.5261296E+00
 4.8371005E+00 1.7957135E+00 1.4917156E+00
 4.7910656E+00 1.8198224E+00 1.4555162E+00
 4.7465188E+00 1.8425840E+00 1.4176316E+00
 4.7037733E+00 1.8637181E+00 1.3782123E+00
 4.6630958E+00 1.8829703E+00 1.3374585E+00
 4.6247007E+00 1.9001265E+00 1.2956138E+00
 4.5887479E+00 1.9150245E+00 1.2529553E+00
 4.5553484E+00 1.9275604E+00 1.2097822E+00
 4.5245846E+00 1.9376889E+00 1.1664061E+00
 4.4965431E+00 1.9454171E+00 1.1231686E+00
 4.4712839E+00 1.9508048E+00 1.0803998E+00
 4.4488949E+00 1.9539585E+00 1.0386276E+00
 3.7043358E+00 1.0905702E+00 1.7882906E+00
 3.6950643E+00 1.1496268E+00 1.7736009E+00
 3.6889670E+00 1.2100296E+00 1.7555956E+00
 3.6870310E+00 1.2717901E+00 1.7344317E+00
 3.6898313E+00 1.3345067E+00 1.7100897E+00
 3.6977712E+00 1.3975719E+00 1.6825528E+00
 3.7111430E+00 1.4602595E+00 1.6518678E+00
 3.7301345E+00 1.5217705E+00 1.6181767E+00
 3.7548065E+00 1.5812660E+00 1.5817265E+00
 3.7850713E+00 1.6379082E+00 1.5428674E+00
 3.8206819E+00 1.6909080E+00 1.5020419E+00
 3.8612345E+00 1.7395718E+00 1.4597672E+00
 3.9061857E+00 1.7833445E+00 1.4166106E+00
 3.9548806E+00 1.8218427E+00 1.3731612E+00
 4.0065926E+00 1.8548751E+00 1.3299986E+00
 4.0605690E+00 1.8824473E+00 1.2876631E+00
 4.1160770E+00 1.9047508E+00 1.2466302E+00
 4.1724471E+00 1.9221368E+00 1.2072915E+00
 4.2290939E+00 1.9350786E+00 1.1699440E+00
 4.2855255E+00 1.9441305E+00 1.1347642E+00
 4.3413177E+00 1.9498906E+00 1.1017213E+00
 4.3960001E+00 1.9529686E+00 1.0704039E+00
 3.7574142E+00 1.1263534E+00 1.8135264E+00
 3.7514100E+00 1.1873691E+00 1.7985129E+00
 3.7484206E+00 1.2487296E+00 1.7799809E+00
 3.7496109E+00 1.3107863E+00 1.7581537E+00
 3.7555960E+00 1.3732682E+00 1.7330419E+00
 3.7667295E+00 1.4356012E+00 1.7046373E+00
 3.7832255E+00 1.4970584E+00 1.6730049E+00
 3.8051818E+00 1.5568330E+00 1.6383178E+00
 3.8325647E+00 1.6140948E+00 1.6008636E+00
 3.8651934E+00 1.6680405E+00 1.5610371E+00
 3.9027363E+00 1.7179446E+00 1.5193248E+00
 3.9447213E+00 1.7632051E+00 1.4762822E+00
 3.9905607E+00 1.8033818E+00 1.4325057E+00
 4.0395858E+00 1.8382210E+00 1.3886004E+00
 4.0910911E+00 1.8676664E+00 1.3451484E+00
 4.1443812E+00 1.8918519E+00 1.3026776E+00
 4.1988161E+00 1.9110802E+00 1.2616369E+00
 4.2538459E+00 1.9257880E+00 1.2223690E+00
 4.3090228E+00 1.9365085E+00 1.1850564E+00
 4.3639523E+00 1.9438362E+00 1.1496044E+00
 4.4182525E+00 1.9484001E+00 1.1152915E+00
 3.8153681E+00 1.1607253E+00 1.8360087E+00
 3.8124189E+00 1.2225734E+00 1.8204051E+00
 3.8124872E+00 1.2843482E+00 1.8011890E+00
 3.8167550E+00 1.3463377E+00 1.7785549E+00
 3.8258282E+00 1.4082800E+00 1.7525196E+00
 3.8400025E+00 1.4695945E+00 1.7230938E+00
 3.8594142E+00 1.5295441E+00 1.6903747E+00
 3.8840746E+00 1.5873251E+00 1.6545783E+00
 3.9138616E+00 1.6421317E+00 1.6160411E+00
 3.9485114E+00 1.6932132E+00 1.5752084E+00
 3.9876222E+00 1.7399251E+00 1.5326130E+00
 4.0306731E+00 1.7817722E+00 1.4888484E+00
 4.0770553E+00 1.8184390E+00 1.4445358E+00
 4.1261127E+00 1.8498057E+00 1.4002899E+00
 4.1771881E+00 1.8759464E+00 1.3566848E+00
 4.2296694E+00 1.8971118E+00 1.3142217E+00
 4.2830278E+00 1.9136980E+00 1.2732933E+00
 4.3368281E+00 1.9262112E+00 1.2341250E+00
 4.3906863E+00 1.9352412E+00 1.1966177E+00
 4.4441533E+00 1.9414328E+00 1.1601071E+00
 3.8779059E+00 1.1939947E+00 1.8551549E+00
 3.8778862E+00 1.2560031E+00 1.8387283E+00
 3.8809510E+00 1.3176579E+00 1.8186445E+00
 3.8882386E+00 1.3791344E+00 1.7950501E+00
 3.9002926E+00 1.4401166E+00 1.7679610E+00
 3.9173353E+00 1.5000039E+00 1.7374151E+00
 3.9394220E+00 1.5580570E+00 1.7035526E+00
 3.9664804E+00 1.6134924E+00 1.6666404E+00
 3.9983088E+00 1.6655511E+00 1.6270686E+00
 4.0345749E+00 1.7135576E+00 1.5853332E+00
 4.0748278E+00 1.7569686E+00 1.5420100E+00
 4.1185239E+00 1.7954100E+00 1.4977222E+00
 4.1650628E+00 1.8286980E+00 1.4531045E+00
 4.2138315E+00 1.8568432E+00 1.4087660E+00
 4.2642490E+00 1.8800380E+00 1.3652534E+00
 4.3158053E+00 1.8986289E+00 1.3230116E+00
 4.3680747E+00 1.9130862E+00 1.2823152E+00
 4.4206648E+00 1.9239805E+00 1.2431322E+00
 4.4730794E+00 1.9319644E+00 1.2048930E+00
 3.9447208E+00 1.2260068E+00 1.8705334E+00
 3.9475308E+00 1.2876707E+00 1.8530845E+00
 3.9535255E+00 1.3487232E+00 1.8319735E+00