# TIME = 2.800000
variables = x, y, z
zone N=5762 E=11520 F=FEPOINT ET=TRIANGLE
 5.2464652E+00 1.4874686E+00 1.7884269E+00
 5.2464652E+00 1.4874685E+00 2.1157346E-01
 5.2464652E+00 5.1253175E-01 1.7884265E+00
 5.2464653E+00 5.1253195E-01 2.1157410E-01
 3.5401187E+00 1.0000001E+00 1.7713374E+00
 6.9475945E+00 1.0000001E+00 1.7622618E+00
 3.5401188E+00 1.0000001E+00 2.2866301E-01
 6.9475945E+00 1.0000001E+00 2.3773834E-01
 4.3001345E+00 1.9538927E+00 1.0000001E+00
 4.3001345E+00 4.6107319E-02 1.0000001E+00
 6.1909857E+00 1.9464551E+00 1.0000001E+00
 6.1909857E+00 5.3544921E-02 1.0000001E+00
 5.1876453E+00 1.4782329E+00 1.7931094E+00
 5.1226855E+00 1.4681558E+00 1.7986317E+00
 5.0545592E+00 1.4578021E+00 1.8048326E+00
 4.9835664E+00 1.4471554E+00 1.8118353E+00
 4.9099899E+00 1.4362164E+00 1.8196927E+00
 4.8341075E+00 1.4249135E+00 1.8284368E+00
 4.7561766E+00 1.4131329E+00 1.8380362E+00
 4.6765155E+00 1.4007162E+00 1.8483733E+00
 4.5954908E+00 1.3874599E+00 1.8592213E+00
 4.5135148E+00 1.3731211E+00 1.8702296E+00
 4.4310348E+00 1.3574291E+00 1.8809188E+00
 4.3485249E+00 1.3401072E+00 1.8906928E+00
 4.2664760E+00 1.3209015E+00 1.8988729E+00
 4.1853867E+00 1.2996156E+00 1.9047537E+00
 4.1057632E+00 1.2761428E+00 1.9076742E+00
 4.0281269E+00 1.2504895E+00 1.9070906E+00
 3.9530207E+00 1.2227808E+00 1.9026309E+00
 3.8809921E+00 1.1932499E+00 1.8941220E+00
 3.8125578E+00 1.1622114E+00 1.8815878E+00
 3.7481678E+00 1.1300320E+00 1.8652244E+00
 3.6882168E+00 1.0971190E+00 1.8453823E+00
 3.6330474E+00 1.0639107E+00 1.8225373E+00
 3.5830091E+00 1.0309397E+00 1.7973122E+00
 5.1810550E+00 5.5510964E-01 1.8121894E+00
 5.1141236E+00 5.6691561E-01 1.8181416E+00
 5.0444417E+00 5.7864992E-01 1.8245777E+00
 4.9723296E+00 5.9061629E-01 1.8317398E+00
 4.8978480E+00 6.0298659E-01 1.8397573E+00
 4.8212100E+00 6.1584429E-01 1.8486414E+00
 4.7426903E+00 6.2931473E-01 1.8583345E+00
 4.6626294E+00 6.4355966E-01 1.8686828E+00
 4.5814233E+00 6.5878072E-01 1.8794180E+00
 4.4995077E+00 6.7520833E-01 1.8901463E+00
 4.4173488E+00 6.9308516E-01 1.9003482E+00
 4.3354311E+00 7.1264208E-01 1.9093985E+00
 4.2542484E+00 7.3406894E-01 1.9166068E+00
 4.1742952E+00 7.5748455E-01 1.9212798E+00
 4.0960678E+00 7.8291249E-01 1.9227936E+00
 4.0200724E+00 8.1026920E-01 1.9206613E+00
 3.9468268E+00 8.3936859E-01 1.9145798E+00
 3.8768384E+00 8.6994428E-01 1.9044460E+00
 3.8105700E+00 9.0168061E-01 1.8903459E+00
 3.7483806E+00 9.3423924E-01 1.8725107E+00
 3.6903929E+00 9.6722850E-01 1.8512162E+00
 3.6361764E+00 1.0000001E+00 1.8265598E+00
 5.1789542E+00 5.8943794E-01 1.8300360E+00
 5.1097460E+00 6.0298968E-01 1.8362347E+00
 5.0385840E+00 6.1614034E-01 1.8427386E+00
 4.9651437E+00 6.2957926E-01 1.8499617E+00
 4.8895182E+00 6.4349754E-01 1.8580118E+00
 4.8118655E+00 6.5802269E-01 1.8668993E+00
 4.7324839E+00 6.7328440E-01 1.8765370E+00
 4.6517429E+00 6.8945029E-01 1.8867373E+00
 4.5700694E+00 7.0671661E-01 1.8971903E+00
 4.4879270E+00 7.2529654E-01 1.9074584E+00
 4.4058041E+00 7.4539961E-01 1.9169819E+00
 4.3242003E+00 7.6720615E-01 1.9251070E+00
 4.2436165E+00 7.9083983E-01 1.9311340E+00
 4.1645468E+00 8.1634307E-01 1.9343852E+00
 4.0874809E+00 8.4366197E-01 1.9342771E+00
 4.0129091E+00 8.7264553E-01 1.9303834E+00
 3.9413190E+00 9.0306302E-01 1.9224708E+00
 3.8731606E+00 9.3463580E-01 1.9105019E+00
 3.8087640E+00 9.6706756E-01 1.8945917E+00
 3.7481415E+00 1.0000001E+00 1.8748883E+00
 3.6903929E+00 1.0327716E+00 1.8512162E+00
 5.1774727E+00 6.2560041E-01 1.8469532E+00
 5.1067911E+00 6.4056638E-01 1.8530651E+00
 5.0342183E+00 6.5519784E-01 1.8595116E+00
 4.9595440E+00 6.7016025E-01 1.8666483E+00
 4.8827822E+00 6.8570593E-01 1.8745872E+00
 4.8041338E+00 7.0196471E-01 1.8833129E+00
 4.7239156E+00 7.1907766E-01 1.8927135E+00
 4.6425324E+00 7.3720952E-01 1.9025649E+00
 4.5604420E+00 7.5654544E-01 1.9125169E+00
 4.4781354E+00 7.7727317E-01 1.9220913E+00
 4.3961216E+00 7.9956134E-01 1.9306944E+00
 4.3149133E+00 8.2353396E-01 1.9376533E+00
 4.2350160E+00 8.4924638E-01 1.9422709E+00
 4.1569198E+00 8.7666776E-01 1.9438970E+00
 4.0811012E+00 9.0567624E-01 1.9419985E+00
 4.0080237E+00 9.3607121E-01 1.9362146E+00
 3.9381185E+00 9.6760234E-01 1.9263772E+00
 3.8717079E+00 1.0000001E+00 1.9124862E+00
 3.8087640E+00 1.0329325E+00 1.8945917E+00
 3.7483806E+00 1.0657609E+00 1.8725106E+00
 5.1761685E+00 6.6370350E-01 1.8627901E+00
 5.1041927E+00 6.8003183E-01 1.8686486E+00
 5.0304000E+00 6.9612441E-01 1.8748725E+00
 4.9546097E+00 7.1264658E-01 1.8817698E+00
 4.8768615E+00 7.2984491E-01 1.8894232E+00
 4.7973758E+00 7.4785986E-01 1.8977965E+00
 4.7165052E+00 7.6683078E-01 1.9067475E+00
 4.6346849E+00 7.8691556E-01 1.9160177E+00
 4.5524021E+00 8.0827938E-01 1.9252201E+00
 4.4701706E+00 8.3107662E-01 1.9338432E+00
 4.3885149E+00 8.5542782E-01 1.9412709E+00
 4.3079543E+00 8.8139638E-01 1.9468258E+00
 4.2289913E+00 9.0896998E-01 1.9498290E+00
 4.1521027E+00 9.3805214E-01 1.9496719E+00
 4.0777379E+00 9.6847007E-01 1.9458806E+00
 4.0063072E+00 1.0000001E+00 1.9381577E+00
 3.9381185E+00 1.0323978E+00 1.9263772E+00
 3.8731606E+00 1.0653643E+00 1.9105019E+00
 3.8105700E+00 1.0983195E+00 1.8903459E+00
 5.1749455E+00 7.0377217E-01 1.8773539E+00
 5.1018047E+00 7.2142652E-01 1.8828072E+00
 5.0269488E+00 7.3897852E-01 1.8886516E+00
 4.9502204E+00 7.5705887E-01 1.8951376E+00
 4.8716820E+00 7.7590566E-01 1.9023178E+00
 4.7915838E+00 7.9565696E-01 1.9101302E+00
 4.7103087E+00 8.1644744E-01 1.9184041E+00
 4.6283214E+00 8.3841962E-01 1.9268492E+00
 4.5461326E+00 8.6171183E-01 1.9350481E+00
 4.4642724E+00 8.8643783E-01 1.9424667E+00
 4.3832734E+00 9.1266513E-01 1.9484808E+00
 4.3036523E+00 9.4039599E-01 1.9524245E+00
 4.2258985E+00 9.6955641E-01 1.9536527E+00
 4.1504612E+00 1.0000001E+00 1.9516093E+00
 4.0777379E+00 1.0315300E+00 1.9458806E+00
 4.0080237E+00 1.0639289E+00 1.9362146E+00
 3.9413190E+00 1.0969371E+00 1.9224709E+00
 3.8768384E+00 1.1300558E+00 1.9044460E+00
 5.1738304E+00 7.4571933E-01 1.8904169E+00
 5.0996692E+00 7.6466339E-01 1.8953160E+00
 5.0239254E+00 7.8365133E-01 1.9006175E+00
 4.9464596E+00 8.0326032E-01 1.9065120E+00
 4.8673584E+00 8.2371226E-01 1.9130211E+00
 4.7868995E+00 8.4513824E-01 1.9200576E+00
 4.7054938E+00 8.6766133E-01 1.9274239E+00
 4.6236299E+00 8.9140296E-01 1.9348032E+00
 4.5418355E+00 9.1646785E-01 1.9417569E+00
 4.4606494E+00 9.4292464E-01 1.9477408E+00
 4.3806022E+00 9.7078667E-01 1.9521373E+00
 4.3021979E+00 1.0000001E+00 1.9543078E+00
 4.2258985E+00 1.0304437E+00 1.9536527E+00
 4.1521027E+00 1.0619480E+00 1.9496719E+00
 4.0811012E+00 1.0943239E+00 1.9419985E+00
 4.0129091E+00 1.1273546E+00 1.9303834E+00
 3.9468268E+00 1.1606315E+00 1.9145798E+00
 5.1728521E+00 7.8937758E-01 1.9017429E+00
 5.0978416E+00 8.0955763E-01 1.9059396E+00
 5.0214061E+00 8.2992874E-01 1.9105316E+00
 4.9434256E+00 8.5100191E-01 1.9156517E+00
 4.8640077E+00 8.7297610E-01 1.9212916E+00
 4.7834558E+00 8.9597018E-01 1.9273404E+00
 4.7022033E+00 9.2009048E-01 1.9335779E+00
 4.6207566E+00 9.4543157E-01 1.9396679E+00
 4.5396521E+00 9.7206074E-01 1.9451610E+00
 4.4594279E+00 1.0000001E+00 1.9495163E+00
 4.3806023E+00 1.0292135E+00 1.9521374E+00
 4.3036523E+00 1.0596041E+00 1.9524246E+00
 4.2289913E+00 1.0910301E+00 1.9498291E+00
 4.1569198E+00 1.1233324E+00 1.9438970E+00
 4.0874809E+00 1.1563381E+00 1.9342772E+00
 4.0200724E+00 1.1897309E+00 1.9206614E+00
 5.1720393E+00 8.3452631E-01 1.9111106E+00
 5.0963702E+00 8.5586082E-01 1.9144599E+00
 5.0194582E+00 8.7752812E-01 1.9181782E+00
 4.9411996E+00 8.9996240E-01 1.9223456E+00
 4.8617225E+00 9.2333357E-01 1.9269267E+00
 4.7813504E+00 9.4774368E-01 1.9317903E+00
 4.7005341E+00 9.7327772E-01 1.9366988E+00
 4.6197891E+00 1.0000001E+00 1.9413054E+00
 4.5396521E+00 1.0279394E+00 1.9451611E+00
 4.4606494E+00 1.0570755E+00 1.9477409E+00
 4.3832734E+00 1.0873350E+00 1.9484809E+00
 4.3079543E+00 1.1186038E+00 1.9468259E+00
 4.2350160E+00 1.1507538E+00 1.9422710E+00
 4.1645468E+00 1.1836571E+00 1.9343853E+00
 4.0960678E+00 1.2170876E+00 1.9227937E+00
 5.1714112E+00 8.8089367E-01 1.9183243E+00
 5.0952919E+00 9.0326980E-01 1.9206900E+00
 5.0181311E+00 9.2611165E-01 1.9233807E+00
 4.9398403E+00 9.4976583E-01 1.9264308E+00
 4.8605642E+00 9.7436816E-01 1.9297820E+00
 4.7806421E+00 1.0000001E+00 1.9332873E+00
 4.7005341E+00 1.0267225E+00 1.9366988E+00
 4.6207567E+00 1.0545686E+00 1.9396680E+00
 4.5418356E+00 1.0835323E+00 1.9417571E+00
 4.4642725E+00 1.1135623E+00 1.9424669E+00
 4.3885149E+00 1.1445723E+00 1.9412711E+00
 4.3149134E+00 1.1764662E+00 1.9376535E+00
 4.2436165E+00 1.2091603E+00 1.9311341E+00
 4.1742952E+00 1.2425156E+00 1.9212800E+00
 5.1709837E+00 9.2816496E-01 1.9232265E+00
 5.0946338E+00 9.5144071E-01 1.9244878E+00
 5.0174589E+00 9.7530223E-01 1.9260142E+00
 4.9393832E+00 1.0000001E+00 1.9278042E+00
 4.8605642E+00 1.0256320E+00 1.9297820E+00
 4.7813504E+00 1.0522565E+00 1.9317904E+00
 4.7022034E+00 1.0799097E+00 1.9335780E+00
 4.6236300E+00 1.1085972E+00 1.9348035E+00
 4.5461326E+00 1.1382884E+00 1.9350483E+00
 4.4701707E+00 1.1689236E+00 1.9338434E+00
 4.3961217E+00 1.2004388E+00 1.9306946E+00
 4.3242003E+00 1.2327940E+00 1.9251072E+00
 4.2542485E+00 1.2659312E+00 1.9166070E+00
 5.1707673E+00 9.7599245E-01 1.9257063E+00
 5.0944126E+00 1.0000001E+00 1.9257639E+00
 5.0174589E+00 1.0246979E+00 1.9260143E+00
 4.9398403E+00 1.0502344E+00 1.9264308E+00
 4.8617225E+00 1.0766666E+00 1.9269269E+00
 4.7834558E+00 1.1040300E+00 1.9273406E+00
 4.7054939E+00 1.1323389E+00 1.9274242E+00
 4.6283215E+00 1.1615806E+00 1.9268495E+00
 4.5524022E+00 1.1917208E+00 1.9252204E+00
 4.4781355E+00 1.2227270E+00 1.9220916E+00
 4.4058042E+00 1.2546006E+00 1.9169822E+00
 4.3354311E+00 1.2873581E+00 1.9093988E+00
 5.1707672E+00 1.0240077E+00 1.9257063E+00
 5.0946338E+00 1.0485594E+00 1.9244879E+00
 5.0181311E+00 1.0738885E+00 1.9233808E+00
 4.9411996E+00 1.1000378E+00 1.9223458E+00
 4.8640077E+00 1.1270241E+00 1.9212918E+00
 4.7868995E+00 1.1548620E+00 1.9200579E+00
 4.7103088E+00 1.1835528E+00 1.9184045E+00
 4.6346850E+00 1.2130847E+00 1.9160181E+00
 4.5604421E+00 1.2434548E+00 1.9125173E+00
 4.4879271E+00 1.2747037E+00 1.9074588E+00
 4.4173489E+00 1.3069151E+00 1.9003486E+00
 5.1709837E+00 1.0718352E+00 1.9232266E+00
 5.0952918E+00 1.0967304E+00 1.9206902E+00
 5.0194582E+00 1.1224721E+00 1.9181784E+00
 4.9434255E+00 1.1489983E+00 1.9156519E+00
 4.8673584E+00 1.1762880E+00 1.9130214E+00
 4.7915839E+00 1.2043433E+00 1.9101306E+00
 4.7165053E+00 1.2331695E+00 1.9067479E+00
 4.6425325E+00 1.2627907E+00 1.9025654E+00
 4.5700695E+00 1.2932837E+00 1.8971908E+00
 4.4995079E+00 1.3247919E+00 1.8901468E+00
 5.1714112E+00 1.1191065E+00 1.9183245E+00
 5.0963701E+00 1.1441394E+00 1.9144601E+00
 5.0214061E+00 1.1700715E+00 1.9105319E+00
 4.9464595E+00 1.1967399E+00 1.9065123E+00
 4.8716820E+00 1.2240946E+00 1.9023182E+00
 4.7973759E+00 1.2521404E+00 1.8977970E+00
 4.7239157E+00 1.2809226E+00 1.8927140E+00
 4.6517430E+00 1.3105500E+00 1.8867379E+00
 4.5814235E+00 1.3412196E+00 1.8794185E+00
 5.1720393E+00 1.1654739E+00 1.9111108E+00
 5.0978415E+00 1.1904426E+00 1.9059399E+00
 5.0239253E+00 1.2163489E+00 1.9006178E+00
 4.9502203E+00 1.2429414E+00 1.8951380E+00
 4.8768615E+00 1.2701554E+00 1.8894237E+00
 4.8041338E+00 1.2980356E+00 1.8833134E+00
 4.7324840E+00 1.3267159E+00 1.8765376E+00
 4.6626295E+00 1.3564407E+00 1.8686833E+00
 5.1728521E+00 1.2106226E+00 1.9017432E+00
 5.0996692E+00 1.2353368E+00 1.8953163E+00
 5.0269487E+00 1.2610217E+00 1.8886520E+00
 4.9546096E+00 1.2873537E+00 1.8817702E+00
 4.8827822E+00 1.3142944E+00 1.8745877E+00
 4.8118656E+00 1.3419777E+00 1.8668998E+00
 4.7426904E+00 1.3706856E+00 1.8583351E+00
 5.1738304E+00 1.2542809E+00 1.8904172E+00
 5.1018046E+00 1.2785737E+00 1.8828075E+00
 5.0303999E+00 1.3038759E+00 1.8748729E+00
 4.9595439E+00 1.3298401E+00 1.8666488E+00
 4.8895182E+00 1.3565028E+00 1.8580124E+00
 4.8212100E+00 1.3841561E+00 1.8486420E+00
 5.1749455E+00 1.2962281E+00 1.8773542E+00
 5.1041926E+00 1.3199684E+00 1.8686490E+00
 5.0342182E+00 1.3448025E+00 1.8595120E+00
 4.9651436E+00 1.3704211E+00 1.8499622E+00
 4.8978481E+00 1.3970138E+00 1.8397578E+00
 5.1761684E+00 1.3362968E+00 1.8627904E+00
 5.1067910E+00 1.3594339E+00 1.8530655E+00
 5.0385839E+00 1.3838600E+00 1.8427391E+00
 4.9723295E+00 1.4093841E+00 1.8317403E+00
 5.1774726E+00 1.3743999E+00 1.8469536E+00
 5.1097459E+00 1.3970106E+00 1.8362351E+00
 5.0444416E+00 1.4213504E+00 1.8245782E+00
 5.1789541E+00 1.4105624E+00 1.8300364E+00
 5.1141236E+00 1.4330847E+00 1.8181420E+00
 5.1810549E+00 1.4448907E+00 1.8121898E+00
 5.2465381E+00 1.4587373E+00 1.8054649E+00
 5.2466014E+00 1.4259876E+00 1.8232684E+00
 5.2466274E+00 1.3912279E+00 1.8403643E+00
 5.2466469E+00 1.3543142E+00 1.8565948E+00
 5.2466644E+00 1.3153410E+00 1.8717075E+00
 5.2466811E+00 1.2744336E+00 1.8854496E+00
 5.2466963E+00 1.2317434E+00 1.8975796E+00
 5.2467095E+00 1.1874630E+00 1.9078706E+00
 5.2467203E+00 1.1418398E+00 1.9161154E+00
 5.2467282E+00 1.0951648E+00 1.9221390E+00
 5.2467331E+00 1.0477667E+00 1.9258087E+00
 5.2467347E+00 1.0000001E+00 1.9270413E+00
 5.2467331E+00 9.5223348E-01 1.9258087E+00
 5.2467282E+00 9.0483536E-01 1.9221389E+00
 5.2467203E+00 8.5816037E-01 1.9161152E+00
 5.2467096E+00 8.1253722E-01 1.9078704E+00
 5.2466963E+00 7.6825675E-01 1.8975794E+00
 5.2466812E+00 7.2556661E-01 1.8854493E+00
 5.2466644E+00 6.8465927E-01 1.8717072E+00
 5.2466470E+00 6.4568609E-01 1.8565944E+00
 5.2466275E+00 6.0877235E-01 1.8403640E+00
 5.2466015E+00 5.7401266E-01 1.8232681E+00
 5.2465382E+00 5.4126296E-01 1.8054645E+00
 5.3053271E+00 5.2067276E-01 1.7949175E+00
 5.3702690E+00 5.2964909E-01 1.8023779E+00
 5.4383115E+00 5.3902585E-01 1.8104226E+00
 5.5091456E+00 5.4890345E-01 1.8190139E+00
 5.5825048E+00 5.5936308E-01 1.8280318E+00
 5.6581207E+00 5.7054060E-01 1.8373350E+00
 5.7357542E+00 5.8259124E-01 1.8467405E+00
 5.8151052E+00 5.9567973E-01 1.8560216E+00
 5.8958259E+00 6.0997364E-01 1.8649119E+00
 5.9775176E+00 6.2563389E-01 1.8731124E+00
 6.0597365E+00 6.4280768E-01 1.8802979E+00
 6.1419954E+00 6.6162006E-01 1.8861252E+00
 6.2237680E+00 6.8216633E-01 1.8902406E+00
 6.3045025E+00 7.0450304E-01 1.8922930E+00
 6.3836418E+00 7.2863944E-01 1.8919511E+00
 6.4606468E+00 7.5452945E-01 1.8889264E+00
 6.5350144E+00 7.8206773E-01 1.8829963E+00
 6.6062907E+00 8.1109082E-01 1.8740238E+00
 6.6740800E+00 8.4138483E-01 1.8619681E+00
 6.7380475E+00 8.7269684E-01 1.8468875E+00
 6.7978811E+00 9.0472947E-01 1.8289505E+00
 6.8532782E+00 9.3714502E-01 1.8084319E+00
 6.9038720E+00 9.6948797E-01 1.7857579E+00
 5.3120380E+00 1.4460444E+00 1.8142424E+00
 5.3789111E+00 1.4352783E+00 1.8222175E+00
 5.4484752E+00 1.4244285E+00 1.8305462E+00
 5.5204020E+00 1.4131191E+00 1.8392965E+00
 5.5946376E+00 1.4011155E+00 1.8484227E+00
 5.6709843E+00 1.3882826E+00 1.8577632E+00
 5.7491855E+00 1.3744707E+00 1.8671121E+00
 5.8289234E+00 1.3595286E+00 1.8762186E+00
 5.9098221E+00 1.3433070E+00 1.8847946E+00
 5.9914594E+00 1.3256683E+00 1.8925237E+00
 6.0733699E+00 1.3064952E+00 1.8990679E+00
 6.1550501E+00 1.2856986E+00 1.9040775E+00
 6.2359641E+00 1.2632249E+00 1.9071996E+00
 6.3155612E+00 1.2390642E+00 1.9080939E+00
 6.3932963E+00 1.2132565E+00 1.9064499E+00
 6.4686531E+00 1.1858954E+00 1.9020112E+00
 6.5411601E+00 1.1571263E+00 1.8945957E+00
 6.6104040E+00 1.1271374E+00 1.8841119E+00
 6.6760369E+00 1.0961446E+00 1.8705641E+00
 6.7378045E+00 1.0643830E+00 1.8540387E+00
 6.7956593E+00 1.0321450E+00 1.8346376E+00
 6.8500771E+00 1.0000001E+00 1.8122986E+00
 5.3142324E+00 1.4116813E+00 1.8321972E+00
 5.3833642E+00 1.3991111E+00 1.8405241E+00
 5.4543851E+00 1.3867591E+00 1.8489781E+00
 5.5276159E+00 1.3738834E+00 1.8578088E+00
 5.6029714E+00 1.3602399E+00 1.8669402E+00
 5.6803086E+00 1.3456642E+00 1.8762068E+00
 5.7593518E+00 1.3300171E+00 1.8853757E+00
 5.8397562E+00 1.3131580E+00 1.8941730E+00
 5.9211169E+00 1.2949565E+00 1.9022879E+00
 6.0029833E+00 1.2753005E+00 1.9093855E+00
 6.0848650E+00 1.2541041E+00 1.9151146E+00
 6.1662384E+00 1.2313162E+00 1.9191195E+00
 6.2465557E+00 1.2069264E+00 1.9210500E+00
 6.3252644E+00 1.1809717E+00 1.9205788E+00
 6.4018300E+00 1.1535391E+00 1.9174204E+00
 6.4757588E+00 1.1247639E+00 1.9113538E+00
 6.5466151E+00 1.0948199E+00 1.9022399E+00
 6.6140430E+00 1.0639008E+00 1.8900289E+00
 6.6778201E+00 1.0322069E+00 1.8747404E+00
 6.7380325E+00 1.0000001E+00 1.8563788E+00
 6.7956593E+00 9.6785516E-01 1.8346376E+00
 5.3157660E+00 1.3754470E+00 1.8492103E+00
 5.3863618E+00 1.3613822E+00 1.8575329E+00
 5.4587795E+00 1.3474595E+00 1.8659878E+00
 5.5332275E+00 1.3329683E+00 1.8747523E+00
 5.6097007E+00 1.3176151E+00 1.8837491E+00
 5.6880160E+00 1.3012462E+00 1.8927829E+00
 5.7678810E+00 1.2837263E+00 1.9015996E+00
 5.8489180E+00 1.2649319E+00 1.9099009E+00
 5.9306920E+00 1.2447547E+00 1.9173559E+00
 6.0127246E+00 1.2231114E+00 1.9236142E+00
 6.0945020E+00 1.1999516E+00 1.9283160E+00
 6.1754836E+00 1.1752644E+00 1.9311051E+00
 6.2551140E+00 1.1490840E+00 1.9316409E+00
 6.3328449E+00 1.1214924E+00 1.9296169E+00
 6.4081592E+00 1.0926173E+00 1.9247792E+00
 6.4805965E+00 1.0626227E+00 1.9169469E+00
 6.5497801E+00 1.0316894E+00 1.9060205E+00
 6.6154785E+00 1.0000001E+00 1.8919685E+00
 6.6778201E+00 9.6779322E-01 1.8747404E+00
 6.7378045E+00 9.3561711E-01 1.8540387E+00
 5.3171062E+00 1.3372562E+00 1.8651373E+00
 5.3889896E+00 1.3217341E+00 1.8732830E+00
 5.4626157E+00 1.3062520E+00 1.8815661E+00
 5.5381659E+00 1.2901071E+00 1.8901068E+00
 5.6156104E+00 1.2730230E+00 1.8987918E+00
 5.6947486E+00 1.2548494E+00 1.9074033E+00
 5.7752548E+00 1.2354672E+00 1.9156632E+00
 5.8567220E+00 1.2147725E+00 1.9232529E+00
 5.9386867E+00 1.1926846E+00 1.9298258E+00
 6.0206468E+00 1.1691532E+00 1.9350218E+00
 6.1020706E+00 1.1441664E+00 1.9384801E+00
 6.1824081E+00 1.1177554E+00 1.9398525E+00
 6.2611053E+00 1.0899970E+00 1.9388171E+00
 6.3376289E+00 1.0610123E+00 1.9350967E+00
 6.4114933E+00 1.0309566E+00 1.9284748E+00
 6.4822952E+00 1.0000001E+00 1.9188092E+00
 6.5497801E+00 9.6831074E-01 1.9060205E+00
 6.6140430E+00 9.3609936E-01 1.8900289E+00
 6.6760369E+00 9.0385551E-01 1.8705641E+00
 5.3183612E+00 1.2970879E+00 1.8797867E+00
 5.3914024E+00 1.2801346E+00 1.8875964E+00
 5.4660814E+00 1.2630878E+00 1.8955431E+00
 5.5425571E+00 1.2452885E+00 1.9036813E+00
 5.6207785E+00 1.2264810E+00 1.9118633E+00
 5.7005171E+00 1.2065320E+00 1.9198470E+00
 5.7814189E+00 1.1853408E+00 1.9273345E+00
 5.8630488E+00 1.1628298E+00 1.9339912E+00
 5.9449199E+00 1.1389493E+00 1.9394608E+00
 6.0265124E+00 1.1136857E+00 1.9433818E+00
 6.1072849E+00 1.0870670E+00 1.9454005E+00
 6.1866876E+00 1.0591651E+00 1.9451864E+00
 6.2641800E+00 1.0300938E+00 1.9424449E+00
 6.3392585E+00 1.0000001E+00 1.9369342E+00
 6.4114933E+00 9.6904349E-01 1.9284748E+00
 6.4805965E+00 9.3737739E-01 1.9169469E+00
 6.5466151E+00 9.0518018E-01 1.9022399E+00
 6.6104040E+00 8.7286270E-01 1.8841119E+00
 5.3195063E+00 1.2550309E+00 1.8929281E+00
 5.3935610E+00 1.2366735E+00 1.9002444E+00
 5.4691181E+00 1.2180796E+00 1.9076825E+00
 5.5463197E+00 1.1986539E+00 1.9152316E+00
 5.6250923E+00 1.1781702E+00 1.9227111E+00
 5.7051819E+00 1.1565163E+00 1.9298583E+00
 5.7862079E+00 1.1336161E+00 1.9363593E+00
 5.8677125E+00 1.1094214E+00 1.9418700E+00
 5.9491914E+00 1.0839172E+00 1.9460319E+00
 6.0301151E+00 1.0571279E+00 1.9484903E+00
 6.1099419E+00 1.0291199E+00 1.9489078E+00
 6.1881343E+00 1.0000001E+00 1.9469797E+00
 6.2641800E+00 9.6990627E-01 1.9424449E+00
 6.3376289E+00 9.3898778E-01 1.9350967E+00
 6.4081592E+00 9.0738282E-01 1.9247792E+00
 6.4757588E+00 8.7523620E-01 1.9113538E+00
 6.5411601E+00 8.4287382E-01 1.8945957E+00
 5.3205115E+00 1.2112525E+00 1.9043236E+00
 5.3954087E+00 1.1915368E+00 1.9109880E+00
 5.4716484E+00 1.1714440E+00 1.9177416E+00
 5.5493550E+00 1.1504560E+00 1.9245125E+00
 5.6284350E+00 1.1283830E+00 1.9310918E+00
 5.7086107E+00 1.1051390E+00 1.9371999E+00
 5.7894803E+00 1.0806759E+00 1.9425135E+00
 5.8705686E+00 1.0549779E+00 1.9466858E+00
 5.9513617E+00 1.0280657E+00 1.9493643E+00
 6.0313297E+00 1.0000001E+00 1.9502093E+00
 6.1099419E+00 9.7088020E-01 1.9489078E+00
 6.1866876E+00 9.4083503E-01 1.9451864E+00
 6.2611053E+00 9.1000309E-01 1.9388172E+00
 6.3328449E+00 8.7850773E-01 1.9296169E+00
 6.4018300E+00 8.4646103E-01 1.9174205E+00
 6.4686531E+00 8.1410476E-01 1.9020112E+00
 5.3213470E+00 1.1659745E+00 1.9137495E+00
 5.3968966E+00 1.1449753E+00 1.9196055E+00
 5.4736050E+00 1.1234672E+00 1.9255007E+00
 5.5515817E+00 1.1010205E+00 1.9313099E+00
 5.6307146E+00 1.0774879E+00 1.9368012E+00
 5.7107069E+00 1.0528129E+00 1.9416847E+00
 5.7911402E+00 1.0269778E+00 1.9456336E+00
 5.8715302E+00 1.0000001E+00 1.9483064E+00
 5.9513617E+00 9.7193443E-01 1.9493643E+00
 6.0301151E+00 9.4287224E-01 1.9484903E+00
 6.1072849E+00 9.1293310E-01 1.9454005E+00
 6.1824081E+00 8.8224475E-01 1.9398525E+00
 6.2551140E+00 8.5091606E-01 1.9316410E+00
 6.3252644E+00 8.1902840E-01 1.9205788E+00
 6.3932963E+00 7.8674359E-01 1.9064499E+00
 5.3219928E+00 1.1194701E+00 1.9210086E+00
 5.3979869E+00 1.0972952E+00 1.9259073E+00
 5.4749379E+00 1.0744916E+00 1.9307799E+00
 5.5529414E+00 1.0507290E+00 1.9354580E+00
 5.6318699E+00 1.0259068E+00 1.9396939E+00
 5.7114120E+00 1.0000001E+00 1.9431932E+00
 5.7911402E+00 9.7302229E-01 1.9456336E+00
 5.8705686E+00 9.4502218E-01 1.9466858E+00
 5.9491914E+00 9.1608292E-01 1.9460319E+00
 6.0265124E+00 8.8631440E-01 1.9433818E+00
 6.1020706E+00 8.5583367E-01 1.9384801E+00
 6.1754836E+00 8.2473567E-01 1.9311051E+00
 6.2465556E+00 7.9307370E-01 1.9210500E+00
 6.3155612E+00 7.6093586E-01 1.9080939E+00
 5.3224324E+00 1.0720558E+00 1.9259419E+00
 5.3986523E+00 1.0488442E+00 1.9297490E+00
 5.4756130E+00 1.0249000E+00 1.9334524E+00
 5.5533986E+00 1.0000001E+00 1.9368526E+00
 5.6318699E+00 9.7409336E-01 1.9396939E+00
 5.7107069E+00 9.4718726E-01 1.9416846E+00
 5.7894803E+00 9.1932417E-01 1.9425135E+00
 5.8677125E+00 8.9057872E-01 1.9418700E+00
 5.9449199E+00 8.6105085E-01 1.9394608E+00
 6.0206468E+00 8.3084688E-01 1.9350219E+00
 6.0945020E+00 8.0004852E-01 1.9283160E+00
 6.1662384E+00 7.6868393E-01 1.9191195E+00
 6.2359641E+00 7.3677520E-01 1.9071997E+00
 5.3226550E+00 1.0240816E+00 1.9284374E+00
 5.3988760E+00 1.0000001E+00 1.9310398E+00
 5.4756130E+00 9.7510013E-01 1.9334524E+00
 5.5529414E+00 9.4927111E-01 1.9354580E+00
 5.6307146E+00 9.2251224E-01 1.9368012E+00
 5.7086107E+00 8.9486110E-01 1.9371999E+00
 5.7862079E+00 8.6638398E-01 1.9363593E+00
 5.8630488E+00 8.3717029E-01 1.9339912E+00
 5.9386867E+00 8.0731553E-01 1.9298258E+00
 6.0127246E+00 7.7688871E-01 1.9236142E+00
 6.0848650E+00 7.4589598E-01 1.9151147E+00
 6.1550501E+00 7.1430153E-01 1.9040775E+00
 5.3226550E+00 9.7591849E-01 1.9284374E+00
 5.3986523E+00 9.5115596E-01 1.9297490E+00
 5.4749379E+00 9.2550848E-01 1.9307799E+00
 5.5515817E+00 8.9897966E-01 1.9313098E+00
 5.6284350E+00 8.7161712E-01 1.9310917E+00
 5.7051819E+00 8.4348386E-01 1.9298582E+00
 5.7814189E+00 8.1465928E-01 1.9273345E+00
 5.8567220E+00 7.8522760E-01 1.9232529E+00
 5.9306920E+00 7.5524545E-01 1.9173559E+00
 6.0029833E+00 7.2469963E-01 1.9093855E+00
 6.0733699E+00 6.9350489E-01 1.8990679E+00
 5.3224324E+00 9.2794435E-01 1.9259418E+00
 5.3979869E+00 9.0270493E-01 1.9259073E+00
 5.4736050E+00 8.7653295E-01 1.9255006E+00
 5.5493550E+00 8.4954418E-01 1.9245124E+00
 5.6250923E+00 8.2182992E-01 1.9227111E+00
 5.7005171E+00 7.9346817E-01 1.9198470E+00
 5.7752548E+00 7.6453297E-01 1.9156631E+00
 5.8489180E+00 7.3506823E-01 1.9099009E+00
 5.9211169E+00 7.0504357E-01 1.9022879E+00
 5.9914594E+00 6.7433182E-01 1.8925238E+00
 5.3219928E+00 8.8053009E-01 1.9210085E+00
 5.3968966E+00 8.5502480E-01 1.9196054E+00
 5.4716485E+00 8.2855616E-01 1.9177415E+00
 5.5463197E+00 8.0134621E-01 1.9152315E+00
 5.6207785E+00 7.7351913E-01 1.9118632E+00
 5.6947486E+00 7.4515077E-01 1.9074032E+00
 5.7678811E+00 7.1627386E-01 1.9015996E+00
 5.8397562E+00 6.8684214E-01 1.8941730E+00
 5.9098221E+00 6.5669314E-01 1.8847946E+00
 5.3213470E+00 8.3402566E-01 1.9137493E+00
 5.3954087E+00 8.0846331E-01 1.9109878E+00
 5.4691181E+00 7.8192052E-01 1.9076824E+00
 5.5425571E+00 7.5471168E-01 1.9036812E+00
 5.6156104E+00 7.2697713E-01 1.8987917E+00
 5.6880160E+00 6.9875393E-01 1.8927828E+00
 5.7593519E+00 6.6998304E-01 1.8853757E+00
 5.8289234E+00 6.4047151E-01 1.8762185E+00
 5.3205115E+00 7.8874765E-01 1.9043234E+00
 5.3935610E+00 7.6332666E-01 1.9002442E+00
 5.4660815E+00 7.3691241E-01 1.8955430E+00
 5.5381660E+00 7.0989302E-01 1.8901067E+00
 5.6097007E+00 6.8238508E-01 1.8837490E+00
 5.6803086E+00 6.5433594E-01 1.8762067E+00
 5.7491855E+00 6.2552943E-01 1.8671121E+00
 5.3195063E+00 7.4496929E-01 1.8929279E+00
 5.3914024E+00 7.1986560E-01 1.8875962E+00
 5.4626157E+00 6.9374813E-01 1.8815660E+00
 5.5332276E+00 6.6703184E-01 1.8747522E+00
 5.6029714E+00 6.3976028E-01 1.8669401E+00
 5.6709843E+00 6.1171754E-01 1.8577632E+00
 5.3183613E+00 7.0291227E-01 1.8797864E+00
 5.3889896E+00 6.7826613E-01 1.8732828E+00
 5.4587795E+00 6.5254072E-01 1.8659876E+00
 5.5276159E+00 6.2611679E-01 1.8578086E+00
 5.5946376E+00 5.9888464E-01 1.8484226E+00
 5.3171063E+00 6.6274399E-01 1.8651370E+00
 5.3863618E+00 6.3861805E-01 1.8575327E+00
 5.4543852E+00 6.1324114E-01 1.8489779E+00
 5.5204020E+00 5.8688110E-01 1.8392964E+00
 5.3157660E+00 6.2455323E-01 1.8492100E+00
 5.3833643E+00 6.0088911E-01 1.8405239E+00
 5.4484752E+00 5.7557168E-01 1.8305460E+00
 5.3142325E+00 5.8831896E-01 1.8321969E+00
 5.3789112E+00 5.6472192E-01 1.8222172E+00
 5.3120381E+00 5.5395586E-01 1.8142421E+00
 5.2102009E+00 1.5097265E+00 1.7735390E+00
 5.1698922E+00 1.5342279E+00 1.7562924E+00
 5.1278743E+00 1.5594495E+00 1.7375509E+00
 5.0842781E+00 1.5852672E+00 1.7172653E+00
 5.0392672E+00 1.6115637E+00 1.6953895E+00
 4.9930821E+00 1.6382213E+00 1.6718615E+00
 4.9459650E+00 1.6651231E+00 1.6466007E+00
 4.8981914E+00 1.6921179E+00 1.6195362E+00
 4.8500779E+00 1.7190227E+00 1.5906086E+00
 4.8019716E+00 1.7456195E+00 1.5597793E+00
 4.7542392E+00 1.7716597E+00 1.5270367E+00
 4.7072537E+00 1.7968705E+00 1.4924049E+00
 4.6613813E+00 1.8209641E+00 1.4559516E+00
 4.6169674E+00 1.8436509E+00 1.4177942E+00
 4.5743251E+00 1.8646543E+00 1.3781020E+00
 4.5337247E+00 1.8837261E+00 1.3370952E+00
 4.4953859E+00 1.9006612E+00 1.2950377E+00
 4.4594733E+00 1.9153082E+00 1.2522260E+00
 4.4260958E+00 1.9275763E+00 1.2089745E+00
 4.3953195E+00 1.9374354E+00 1.1656029E+00
 4.3672022E+00 1.9449082E+00 1.1224538E+00
 4.3417985E+00 1.9500656E+00 1.0798714E+00
 4.3192397E+00 1.9530265E+00 1.0383532E+00
 3.5729306E+00 1.0897400E+00 1.7870662E+00
 3.5634964E+00 1.1482506E+00 1.7725189E+00
 3.5572813E+00 1.2083108E+00 1.7546850E+00
 3.5552803E+00 1.2698871E+00 1.7336896E+00
 3.5580352E+00 1.3325329E+00 1.7094651E+00
 3.5659513E+00 1.3956135E+00 1.6819706E+00
 3.5793470E+00 1.4583790E+00 1.6512514E+00
 3.5984348E+00 1.5200017E+00 1.6174591E+00
 3.6232884E+00 1.5796134E+00 1.5808555E+00
 3.6538214E+00 1.6363512E+00 1.5418080E+00
 3.6897773E+00 1.6894070E+00 1.5007788E+00
 3.7307342E+00 1.7380769E+00 1.4583059E+00
 3.7761237E+00 1.7818051E+00 1.4149772E+00
 3.8252625E+00 1.8202174E+00 1.3713999E+00
 3.8773936E+00 1.8531403E+00 1.3281671E+00
 3.9317328E+00 1.8806036E+00 1.2858269E+00
 3.9875165E+00 1.9028252E+00 1.2448554E+00
 4.0440451E+00 1.9201821E+00 1.2056374E+00
 4.1007117E+00 1.9331682E+00 1.1684586E+00
 4.1570255E+00 1.9423495E+00 1.1334942E+00
 4.2125734E+00 1.9483221E+00 1.1007389E+00
 4.2668800E+00 1.9516862E+00 1.0697949E+00
 3.6260090E+00 1.1249710E+00 1.8119484E+00
 3.6196721E+00 1.1851576E+00 1.7970822E+00
 3.6164599E+00 1.2460410E+00 1.7787483E+00
 3.6175411E+00 1.3079140E+00 1.7571131E+00
 3.6234611E+00 1.3704059E+00 1.7321182E+00
 3.6345672E+00 1.4328746E+00 1.7037319E+00
 3.6511015E+00 1.4945439E+00 1.6720235E+00
 3.6731883E+00 1.5545649E+00 1.6371826E+00
 3.7008068E+00 1.6120713E+00 1.5995163E+00
 3.7337751E+00 1.6662311E+00 1.5594415E+00
 3.7717480E+00 1.7162989E+00 1.5174685E+00
 3.8142308E+00 1.7616630E+00 1.4741773E+00
 3.8606058E+00 1.8018846E+00 1.4301875E+00
 3.9101698E+00 1.8367217E+00 1.3861239E+00
 3.9621788E+00 1.8661377E+00 1.3425825E+00
 4.0158951E+00 1.8902913E+00 1.3000987E+00
 4.0706325E+00 1.9095110E+00 1.2591227E+00
 4.1257962E+00 1.9242561E+00 1.2200001E+00
 4.1809151E+00 1.9350735E+00 1.1829373E+00
 4.2356019E+00 1.9425594E+00 1.1479083E+00
 4.2894752E+00 1.9473464E+00 1.1142165E+00
 3.6840074E+00 1.1589914E+00 1.8341481E+00
 3.6806048E+00 1.2198981E+00 1.8187118E+00
 3.6803887E+00 1.2811527E+00 1.7997160E+00
 3.6845306E+00 1.3429805E+00 1.7772814E+00
 3.6935454E+00 1.4049979E+00 1.7513531E+00
 3.7077162E+00 1.4665329E+00 1.7219224E+00
 3.7272057E+00 1.5267841E+00 1.6890963E+00
 3.7520500E+00 1.5848969E+00 1.6531112E+00
 3.7821369E+00 1.6400257E+00 1.6143276E+00
 3.8171970E+00 1.6913902E+00 1.5732163E+00
 3.8568105E+00 1.7383277E+00 1.5303374E+00
 3.9004282E+00 1.7803360E+00 1.4863107E+00
 3.9474057E+00 1.8171045E+00 1.4417819E+00
 3.9970442E+00 1.8485276E+00 1.3973852E+00
 4.0486365E+00 1.8747005E+00 1.3537083E+00
 4.1015134E+00 1.8958978E+00 1.3112615E+00
 4.1550858E+00 1.9125374E+00 1.2704503E+00
 4.2088803E+00 1.9251387E+00 1.2315385E+00
 4.2625179E+00 1.9342918E+00 1.1945157E+00
 4.3155676E+00 1.9406509E+00 1.1587502E+00
 3.7466469E+00 1.1921001E+00 1.8530756E+00
 3.7461432E+00 1.2531867E+00 1.8368481E+00
 3.7489318E+00 1.3143413E+00 1.8170059E+00
 3.7561238E+00 1.3756873E+00 1.7936143E+00
 3.7681618E+00 1.4367861E+00 1.7666241E+00
 3.7852528E+00 1.4969392E+00 1.7360604E+00
 3.8074758E+00 1.5553365E+00 1.7020773E+00
 3.8347796E+00 1.6111401E+00 1.6649658E+00
 3.8669674E+00 1.6635512E+00 1.6251429E+00
 3.9036964E+00 1.7118670E+00 1.5831326E+00
 3.9444922E+00 1.7555296E+00 1.5395391E+00
 3.9887772E+00 1.7941621E+00 1.4950125E+00
 4.0359076E+00 1.8275887E+00 1.4502112E+00
 4.0852165E+00 1.8558359E+00 1.4057631E+00
 4.1360594E+00 1.8791159E+00 1.3622298E+00
 4.1878569E+00 1.8977943E+00 1.3200752E+00
 4.2401374E+00 1.9123522E+00 1.2796183E+00
 4.2925150E+00 1.9233573E+00 1.2409186E+00
 4.3445362E+00 1.9314734E+00 1.2034358E+00
 3.8136566E+00 1.2240627E+00 1.8683195E+00
 3.8160370E+00 1.2848776E+00 1.8511120E+00
 3.8218232E+00 1.3454775E+00 1.8302659E+00