# TIME = 4.700000
variables = x, y, z
zone N=5762 E=11520 F=FEPOINT ET=TRIANGLE
 5.4038164E+00 1.4877517E+00 1.7888666E+00
 5.4038164E+00 1.4877516E+00 2.1113382E-01
 5.4038164E+00 5.1224886E-01 1.7888661E+00
 5.4038165E+00 5.1224911E-01 2.1113456E-01
 3.6958138E+00 1.0000001E+00 1.7724364E+00
 7.1046196E+00 1.0000001E+00 1.7602566E+00
 3.6958138E+00 1.0000001E+00 2.2756396E-01
 7.1046197E+00 1.0000001E+00 2.3974360E-01
 4.4538091E+00 1.9550956E+00 1.0000001E+00
 4.4538091E+00 4.4904664E-02 1.0000001E+00
 6.3494826E+00 1.9454877E+00 1.0000001E+00
 6.3494826E+00 5.4512283E-02 1.0000001E+00
 5.3444766E+00 1.4782203E+00 1.7932483E+00
 5.2788981E+00 1.4678386E+00 1.7984233E+00
 5.2102110E+00 1.4572318E+00 1.8042600E+00
 5.1386312E+00 1.4463832E+00 1.8109283E+00
 5.0644319E+00 1.4353089E+00 1.8185259E+00
 4.9879123E+00 1.4239530E+00 1.8271263E+00
 4.9093708E+00 1.4122145E+00 1.8367293E+00
 4.8291656E+00 1.3999346E+00 1.8472356E+00
 4.7477113E+00 1.3868986E+00 1.8584164E+00
 4.6654698E+00 1.3728414E+00 1.8698954E+00
 4.5829279E+00 1.3574636E+00 1.8811468E+00
 4.5005734E+00 1.3404579E+00 1.8915171E+00
 4.4188763E+00 1.3215435E+00 1.9002705E+00
 4.3382815E+00 1.3005047E+00 1.9066561E+00
 4.2592223E+00 1.2772232E+00 1.9099828E+00
 4.1821465E+00 1.2516995E+00 1.9096917E+00
 4.1075384E+00 1.2240554E+00 1.9054057E+00
 4.0359107E+00 1.1945207E+00 1.8969527E+00
 3.9677719E+00 1.1634082E+00 1.8843607E+00
 3.9035890E+00 1.1310852E+00 1.8678343E+00
 3.8437863E+00 1.0979654E+00 1.8477377E+00
 3.7887034E+00 1.0644846E+00 1.8245472E+00
 3.7386998E+00 1.0312138E+00 1.7988916E+00
 5.3376659E+00 5.5546588E-01 1.8124530E+00
 5.2699841E+00 5.6772679E-01 1.8181157E+00
 5.1996413E+00 5.7978440E-01 1.8242133E+00
 5.1269061E+00 5.9194148E-01 1.8310380E+00
 5.0518252E+00 6.0440725E-01 1.8387895E+00
 4.9746319E+00 6.1727882E-01 1.8475314E+00
 4.8956198E+00 6.3068157E-01 1.8572391E+00
 4.8151607E+00 6.4477873E-01 1.8677724E+00
 4.7336915E+00 6.5978269E-01 1.8788556E+00
 4.6516913E+00 6.7594309E-01 1.8900645E+00
 4.5696552E+00 6.9352673E-01 1.9008315E+00
 4.4880693E+00 7.1278887E-01 1.9104755E+00
 4.4073948E+00 7.3394016E-01 1.9182542E+00
 4.3280642E+00 7.5711509E-01 1.9234350E+00
 4.2504974E+00 7.8234921E-01 1.9253689E+00
 4.1751278E+00 8.0957017E-01 1.9235569E+00
 4.1024177E+00 8.3860582E-01 1.9176909E+00
 4.0328422E+00 8.6920530E-01 1.9076652E+00
 3.9668481E+00 9.0106055E-01 1.8935596E+00
 3.9047678E+00 9.3381003E-01 1.8755844E+00
 3.8466691E+00 9.6701285E-01 1.8539703E+00
 3.7921291E+00 1.0000001E+00 1.8287843E+00
 5.3353056E+00 5.9011250E-01 1.8304110E+00
 5.2650680E+00 6.0426825E-01 1.8363537E+00
 5.1930708E+00 6.1780461E-01 1.8425320E+00
 5.1189623E+00 6.3142708E-01 1.8494133E+00
 5.0428004E+00 6.4540946E-01 1.8571921E+00
 4.9647225E+00 6.5991585E-01 1.8659362E+00
 4.8850229E+00 6.7508332E-01 1.8755911E+00
 4.8040882E+00 6.9108336E-01 1.8859804E+00
 4.7223787E+00 7.0812223E-01 1.8967831E+00
 4.6403918E+00 7.2642983E-01 1.9075292E+00
 4.5586331E+00 7.4623540E-01 1.9176117E+00
 4.4775899E+00 7.6773865E-01 1.9263252E+00
 4.3977177E+00 7.9108032E-01 1.9329248E+00
 4.3194388E+00 8.1631851E-01 1.9366996E+00
 4.2431606E+00 8.4341662E-01 1.9370460E+00
 4.1692962E+00 8.7224676E-01 1.9335252E+00
 4.0982702E+00 9.0260747E-01 1.9258926E+00
 4.0304737E+00 9.3424527E-01 1.9140892E+00
 3.9661496E+00 9.6685165E-01 1.8981810E+00
 3.9051774E+00 1.0000001E+00 1.8782232E+00
 3.8466691E+00 1.0329874E+00 1.8539704E+00
 5.3337375E+00 6.2651558E-01 1.8473807E+00
 5.2618837E+00 6.4216965E-01 1.8532330E+00
 5.1883878E+00 6.5721035E-01 1.8593404E+00
 5.1130305E+00 6.7234161E-01 1.8661236E+00
 5.0357830E+00 6.8792045E-01 1.8737832E+00
 4.9568047E+00 7.0412746E-01 1.8823631E+00
 4.8763934E+00 7.2111684E-01 1.8917831E+00
 4.7949629E+00 7.3905973E-01 1.9018283E+00
 4.7129973E+00 7.5815174E-01 1.9121353E+00
 4.6310126E+00 7.7859578E-01 1.9221919E+00
 4.5495242E+00 8.0057762E-01 1.9313582E+00
 4.4690202E+00 8.2423826E-01 1.9389127E+00
 4.3899494E+00 8.4965035E-01 1.9441173E+00
 4.3127212E+00 8.7680356E-01 1.9462923E+00
 4.2377223E+00 9.0560424E-01 1.9448841E+00
 4.1653276E+00 9.3588934E-01 1.9395124E+00
 4.0958746E+00 9.6744504E-01 1.9299789E+00
 4.0295522E+00 1.0000001E+00 1.9162216E+00
 3.9661496E+00 1.0331486E+00 1.8981810E+00
 3.9047678E+00 1.0661903E+00 1.8755844E+00
 5.3324546E+00 6.6475857E-01 1.8632106E+00
 5.2592791E+00 6.8177282E-01 1.8687680E+00
 5.1845329E+00 6.9825586E-01 1.8746232E+00
 5.1080610E+00 7.1491453E-01 1.8811502E+00
 5.0298595E+00 7.3211065E-01 1.8885183E+00
 4.9501009E+00 7.5003915E-01 1.8967474E+00
 4.8691110E+00 7.6885617E-01 1.9057256E+00
 4.7873292E+00 7.8872794E-01 1.9152015E+00
 4.7052626E+00 8.0983088E-01 1.9247725E+00
 4.6234424E+00 8.3233411E-01 1.9338919E+00
 4.5423896E+00 8.5637468E-01 1.9418977E+00
 4.4625884E+00 8.8203432E-01 1.9480657E+00
 4.3844748E+00 9.0932308E-01 1.9516778E+00
 4.3084359E+00 9.3817561E-01 1.9520948E+00
 4.2348189E+00 9.6846131E-01 1.9488156E+00
 4.1639164E+00 1.0000001E+00 1.9415067E+00
 4.0958746E+00 1.0325553E+00 1.9299789E+00
 4.0304737E+00 1.0657550E+00 1.9140893E+00
 3.9668481E+00 1.0989397E+00 1.8935597E+00
 5.3312859E+00 7.0487666E-01 1.8777248E+00
 5.2569414E+00 7.2315724E-01 1.8828200E+00
 5.1811235E+00 7.4104147E-01 1.8882589E+00
 5.1037171E+00 7.5920894E-01 1.8943592E+00
 5.0247471E+00 7.7800919E-01 1.9012521E+00
 4.9444113E+00 7.9763442E-01 1.9089276E+00
 4.8630619E+00 8.1823705E-01 1.9172424E+00
 4.7811629E+00 8.3996970E-01 1.9259113E+00
 4.6992393E+00 8.6298311E-01 1.9344990E+00
 4.6178312E+00 8.8740669E-01 1.9424352E+00
 4.5374580E+00 9.1332687E-01 1.9490493E+00
 4.4585916E+00 9.4076976E-01 1.9536294E+00
 4.3816447E+00 9.6969453E-01 1.9554895E+00
 4.3069642E+00 1.0000002E+00 1.9540368E+00
 4.2348189E+00 1.0315390E+00 1.9488156E+00
 4.1653276E+00 1.0641110E+00 1.9395125E+00
 4.0982701E+00 1.0973928E+00 1.9258927E+00
 4.0328422E+00 1.1307950E+00 1.9076654E+00
 5.3302087E+00 7.4679348E-01 1.8907114E+00
 5.2548408E+00 7.6626568E-01 1.8951943E+00
 5.1781294E+00 7.8550459E-01 1.9000571E+00
 5.0999902E+00 8.0513857E-01 1.9055559E+00
 5.0204736E+00 8.2549337E-01 1.9117821E+00
 4.9398019E+00 8.4674982E-01 1.9186951E+00
 4.8583516E+00 8.6904909E-01 1.9261219E+00
 4.7766054E+00 8.9252436E-01 1.9337484E+00
 4.6950992E+00 9.1729502E-01 1.9411162E+00
 4.6143735E+00 9.4344854E-01 1.9476435E+00
 4.5349362E+00 9.7102332E-01 1.9526660E+00
 4.4572359E+00 1.0000002E+00 1.9554967E+00
 4.3816447E+00 1.0303058E+00 1.9554896E+00
 4.3084359E+00 1.0618247E+00 1.9520949E+00
 4.2377223E+00 1.0943961E+00 1.9448842E+00
 4.1692962E+00 1.1277536E+00 1.9335253E+00
 4.1024176E+00 1.1613945E+00 1.9176910E+00
 5.3292518E+00 7.9035327E-01 1.9019498E+00
 5.2530264E+00 8.1094268E-01 1.9056800E+00
 5.1756185E+00 8.3146948E-01 1.9098086E+00
 5.0969682E+00 8.5249891E-01 1.9145308E+00
 5.0171475E+00 8.7432240E-01 1.9198993E+00
 4.9364003E+00 8.9710302E-01 1.9258441E+00
 4.8551214E+00 9.2096524E-01 1.9321668E+00
 4.7738055E+00 9.4601796E-01 1.9385317E+00
 4.6929899E+00 9.7234710E-01 1.9444675E+00
 4.6132053E+00 1.0000002E+00 1.9493943E+00
 4.5349363E+00 1.0289770E+00 1.9526660E+00
 4.4585916E+00 1.0592306E+00 1.9536295E+00
 4.3844748E+00 1.0906772E+00 1.9516779E+00
 4.3127212E+00 1.1231968E+00 1.9462925E+00
 4.2431606E+00 1.1565837E+00 1.9370462E+00
 4.1751277E+00 1.1904302E+00 1.9235571E+00
 5.3284486E+00 8.3534620E-01 1.9112311E+00
 5.2515552E+00 8.5695933E-01 1.9140761E+00
 5.1736665E+00 8.7868081E-01 1.9173175E+00
 5.0947417E+00 9.0100127E-01 1.9210938E+00
 5.0148709E+00 9.2417005E-01 1.9254219E+00
 4.9343144E+00 9.4832712E-01 1.9302064E+00
 4.8534787E+00 9.7357622E-01 1.9352288E+00
 4.7728610E+00 1.0000002E+00 1.9401402E+00
 4.6929899E+00 1.0276533E+00 1.9444676E+00
 4.6143736E+00 1.0565518E+00 1.9476437E+00
 4.5374581E+00 1.0866735E+00 1.9490495E+00
 4.4625885E+00 1.1179660E+00 1.9480660E+00
 4.3899494E+00 1.1503500E+00 1.9441176E+00
 4.3194388E+00 1.1836819E+00 1.9366999E+00
 4.2504974E+00 1.2176512E+00 1.9253692E+00
 5.3278247E+00 8.8151252E-01 1.9183707E+00
 5.2504727E+00 9.0403080E-01 1.9202086E+00
 5.1723325E+00 9.2682407E-01 1.9224208E+00
 5.0933786E+00 9.5029743E-01 1.9250952E+00
 5.0137148E+00 9.7465177E-01 1.9282179E+00
 4.9336116E+00 1.0000002E+00 1.9316731E+00
 4.8534787E+00 1.0264242E+00 1.9352289E+00
 4.7738055E+00 1.0539825E+00 1.9385318E+00
 4.6950993E+00 1.0827054E+00 1.9411164E+00
 4.6178313E+00 1.1125937E+00 1.9424354E+00
 4.5423897E+00 1.1436257E+00 1.9418981E+00
 4.4690203E+00 1.1757621E+00 1.9389131E+00
 4.3977177E+00 1.2089201E+00 1.9329252E+00
 4.3280642E+00 1.2428853E+00 1.9234354E+00
 5.3273988E+00 9.2854977E-01 1.9232188E+00
 5.2498107E+00 9.5182988E-01 1.9239442E+00
 5.1716558E+00 9.7554323E-01 1.9250026E+00
 5.0929197E+00 1.0000002E+00 1.9264399E+00
 5.0137148E+00 1.0253487E+00 1.9282180E+00
 4.9343144E+00 1.0516733E+00 1.9302066E+00
 4.8551214E+00 1.0790352E+00 1.9321670E+00
 4.7766055E+00 1.1074761E+00 1.9337487E+00
 4.6992394E+00 1.1370173E+00 1.9344994E+00
 4.6234426E+00 1.1676663E+00 1.9338923E+00
 4.5495243E+00 1.1994228E+00 1.9313587E+00
 4.4775900E+00 1.2322618E+00 1.9263257E+00
 4.4073949E+00 1.2660603E+00 1.9182547E+00
 5.3271828E+00 9.7612305E-01 1.9256700E+00
 5.2495880E+00 1.0000002E+00 1.9251989E+00
 5.1716558E+00 1.0244572E+00 1.9250026E+00
 5.0933786E+00 1.0497030E+00 1.9250953E+00
 5.0148709E+00 1.0758304E+00 1.9254221E+00
 4.9364003E+00 1.1028974E+00 1.9258443E+00
 4.8583516E+00 1.1309514E+00 1.9261222E+00
 4.7811630E+00 1.1600308E+00 1.9259117E+00
 4.7052628E+00 1.1901696E+00 1.9247730E+00
 4.6310128E+00 1.2214047E+00 1.9221925E+00
 4.5586333E+00 1.2537651E+00 1.9176123E+00
 4.4880694E+00 1.2872116E+00 1.9104761E+00
 5.3271828E+00 1.0238773E+00 1.9256701E+00
 5.2498107E+00 1.0481705E+00 1.9239442E+00
 5.1723325E+00 1.0731763E+00 1.9224209E+00
 5.0947417E+00 1.0989991E+00 1.9210940E+00
 5.0171474E+00 1.1256780E+00 1.9198996E+00
 4.9398019E+00 1.1532507E+00 1.9186954E+00
 4.8630619E+00 1.1817634E+00 1.9172429E+00
 4.7873294E+00 1.2112726E+00 1.9152020E+00
 4.7129975E+00 1.2418488E+00 1.9121359E+00
 4.6403920E+00 1.2735707E+00 1.9075298E+00
 4.5696554E+00 1.3064738E+00 1.9008322E+00
 5.3273987E+00 1.0714506E+00 1.9232189E+00
 5.2504727E+00 1.0959696E+00 1.9202088E+00
 5.1736665E+00 1.1213196E+00 1.9173177E+00
 5.0969682E+00 1.1475015E+00 1.9145311E+00
 5.0204735E+00 1.1745071E+00 1.9117825E+00
 4.9444112E+00 1.2023661E+00 1.9089280E+00
 4.8691111E+00 1.2311443E+00 1.9057261E+00
 4.7949630E+00 1.2609408E+00 1.9018289E+00
 4.7223790E+00 1.2918783E+00 1.8967837E+00
 4.6516915E+00 1.3240575E+00 1.8900653E+00
 5.3278246E+00 1.1184879E+00 1.9183708E+00
 5.2515551E+00 1.1430411E+00 1.9140763E+00
 5.1756184E+00 1.1685309E+00 1.9098089E+00
 5.0999901E+00 1.1948619E+00 1.9055562E+00
 5.0247470E+00 1.2219913E+00 1.9012526E+00
 4.9501008E+00 1.2499614E+00 1.8967480E+00
 4.8763934E+00 1.2788837E+00 1.8917837E+00
 4.8040884E+00 1.3089172E+00 1.8859811E+00
 4.7336918E+00 1.3402179E+00 1.8788564E+00
 5.3284485E+00 1.1646542E+00 1.9112314E+00
 5.2530263E+00 1.1890577E+00 1.9056803E+00
 5.1781293E+00 1.2144959E+00 1.9000575E+00
 5.1037170E+00 1.2407916E+00 1.8943596E+00
 5.0298595E+00 1.2678899E+00 1.8885189E+00
 4.9568047E+00 1.2958731E+00 1.8823637E+00
 4.8850230E+00 1.3249173E+00 1.8755918E+00
 4.8151609E+00 1.3552219E+00 1.8677731E+00
 5.3292518E+00 1.2096471E+00 1.9019501E+00
 5.2548407E+00 1.2337348E+00 1.8951946E+00
 5.1811234E+00 1.2589590E+00 1.8882594E+00
 5.1080609E+00 1.2850860E+00 1.8811507E+00
 5.0357830E+00 1.3120801E+00 1.8737838E+00
 4.9647225E+00 1.3400847E+00 1.8659369E+00
 4.8956199E+00 1.3693191E+00 1.8572398E+00
 5.3302086E+00 1.2532070E+00 1.8907118E+00
 5.2569413E+00 1.2768432E+00 1.8828205E+00
 5.1845328E+00 1.3017446E+00 1.8746237E+00
 5.1130304E+00 1.3276589E+00 1.8661242E+00
 5.0428003E+00 1.3545911E+00 1.8571928E+00
 4.9746319E+00 1.3827218E+00 1.8475321E+00
 5.3312858E+00 1.2951238E+00 1.8777252E+00
 5.2592790E+00 1.3182277E+00 1.8687685E+00
 5.1883877E+00 1.3427902E+00 1.8593409E+00
 5.1189622E+00 1.3685735E+00 1.8494140E+00
 5.0518251E+00 1.3955934E+00 1.8387902E+00
 5.3324545E+00 1.3352419E+00 1.8632110E+00
 5.2618836E+00 1.3578309E+00 1.8532335E+00
 5.1930707E+00 1.3821960E+00 1.8425325E+00
 5.1269060E+00 1.4080591E+00 1.8310387E+00
 5.3337374E+00 1.3734849E+00 1.8473811E+00
 5.2650679E+00 1.3957323E+00 1.8363542E+00
 5.1996412E+00 1.4202162E+00 1.8242139E+00
 5.3353055E+00 1.4098880E+00 1.8304115E+00
 5.2699840E+00 1.4322738E+00 1.8181162E+00
 5.3376658E+00 1.4445347E+00 1.8124535E+00
 5.4039579E+00 1.4588177E+00 1.8060236E+00
 5.4041063E+00 1.4258734E+00 1.8239185E+00
 5.4041891E+00 1.3909165E+00 1.8410868E+00
 5.4042479E+00 1.3538601E+00 1.8573474E+00
 5.4042954E+00 1.3147858E+00 1.8724615E+00
 5.4043376E+00 1.2738319E+00 1.8861787E+00
 5.4043753E+00 1.2311472E+00 1.8982671E+00
 5.4044080E+00 1.1869225E+00 1.9085081E+00
 5.4044347E+00 1.1413964E+00 1.9167039E+00
 5.4044544E+00 1.0948509E+00 1.9226869E+00
 5.4044666E+00 1.0476042E+00 1.9263300E+00
 5.4044706E+00 1.0000002E+00 1.9275533E+00
 5.4044666E+00 9.5239619E-01 1.9263299E+00
 5.4044545E+00 9.0514946E-01 1.9226868E+00
 5.4044348E+00 8.5860392E-01 1.9167037E+00
 5.4044081E+00 8.1307783E-01 1.9085079E+00
 5.4043754E+00 7.6885315E-01 1.8982668E+00
 5.4043377E+00 7.2616855E-01 1.8861784E+00
 5.4042955E+00 6.8521462E-01 1.8724611E+00
 5.4042480E+00 6.4614038E-01 1.8573470E+00
 5.4041892E+00 6.0908402E-01 1.8410864E+00
 5.4041064E+00 5.7412709E-01 1.8239180E+00
 5.4039580E+00 5.4118281E-01 1.8060232E+00
 5.4632375E+00 5.2026252E-01 1.7957443E+00
 5.5287676E+00 5.2911681E-01 1.8035850E+00
 5.5972525E+00 5.3838513E-01 1.8119384E+00
 5.6684410E+00 5.4820121E-01 1.8207469E+00
 5.7420768E+00 5.5865926E-01 1.8298657E+00
 5.8178818E+00 5.6989728E-01 1.8391334E+00
 5.8956114E+00 5.8206182E-01 1.8483591E+00
 5.9749786E+00 5.9530407E-01 1.8573260E+00
 6.0556534E+00 6.0977171E-01 1.8657932E+00
 6.1372513E+00 6.2560287E-01 1.8734993E+00
 6.2193311E+00 6.4292220E-01 1.8801619E+00
 6.3013991E+00 6.6183659E-01 1.8854788E+00
 6.3829203E+00 6.8243000E-01 1.8891309E+00
 6.4633416E+00 7.0475564E-01 1.8907916E+00
 6.5421189E+00 7.2882701E-01 1.8901443E+00
 6.6187398E+00 7.5460934E-01 1.8869060E+00
 6.6927369E+00 7.8201478E-01 1.8808505E+00
 6.7636919E+00 8.1090228E-01 1.8718292E+00
 6.8312328E+00 8.4108195E-01 1.8597842E+00
 6.8950284E+00 8.7232401E-01 1.8447548E+00
 6.9547544E+00 9.0435016E-01 1.8268915E+00
 7.0101239E+00 9.3684862E-01 1.8064379E+00
 7.0607705E+00 9.6933914E-01 1.7837906E+00
 5.4702926E+00 1.4461493E+00 1.8152926E+00
 5.5378411E+00 1.4353305E+00 1.8237405E+00
 5.6079006E+00 1.4244767E+00 1.8324209E+00
 5.6801742E+00 1.4131883E+00 1.8413783E+00
 5.7546217E+00 1.4011763E+00 1.8505688E+00
 5.8310441E+00 1.3882820E+00 1.8598266E+00
 5.9092045E+00 1.3743601E+00 1.8689463E+00
 5.9888119E+00 1.3592774E+00 1.8776917E+00
 6.0695159E+00 1.3429076E+00 1.8858048E+00
 6.1509100E+00 1.3251371E+00 1.8930101E+00
 6.2325332E+00 1.3058700E+00 1.8990150E+00
 6.3138778E+00 1.2850325E+00 1.9035121E+00
 6.3944042E+00 1.2625788E+00 1.9061831E+00
 6.4735668E+00 1.2384979E+00 1.9067114E+00
 6.5508393E+00 1.2128197E+00 1.9048003E+00
 6.6257362E+00 1.1856185E+00 1.9001968E+00
 6.6978223E+00 1.1570114E+00 1.8927133E+00
 6.7667192E+00 1.1271520E+00 1.8822425E+00
 6.8321105E+00 1.0962276E+00 1.8687618E+00
 6.8937888E+00 1.0644732E+00 1.8523115E+00
 6.9517821E+00 1.0322071E+00 1.8329246E+00
 7.0065840E+00 1.0000001E+00 1.8104828E+00
 5.4728831E+00 1.4114640E+00 1.8334142E+00
 5.5429304E+00 1.3986712E+00 1.8422968E+00
 5.6145721E+00 1.3862157E+00 1.8511363E+00
 5.6881483E+00 1.3733249E+00 1.8601666E+00
 5.7636119E+00 1.3596637E+00 1.8693308E+00
 5.8408624E+00 1.3450308E+00 1.8784699E+00
 5.9196719E+00 1.3292905E+00 1.8873590E+00
 5.9997393E+00 1.3123222E+00 1.8957447E+00
 6.0806936E+00 1.2940206E+00 1.9033527E+00
 6.1621046E+00 1.2742969E+00 1.9098942E+00
 6.2434901E+00 1.2530846E+00 1.9150674E+00
 6.3243271E+00 1.2303442E+00 1.9185611E+00
 6.4040713E+00 1.2060684E+00 1.9200607E+00
 6.4821836E+00 1.1802862E+00 1.9192626E+00
 6.5581565E+00 1.1530653E+00 1.9158933E+00
 6.6315353E+00 1.1245084E+00 1.9097316E+00
 6.7019314E+00 1.0947450E+00 1.9006246E+00
 6.7690517E+00 1.0639258E+00 1.8884888E+00
 6.8327780E+00 1.0322418E+00 1.8732776E+00
 6.8933543E+00 1.0000001E+00 1.8548867E+00
 6.9517821E+00 9.6779322E-01 1.8329246E+00
 5.4746053E+00 1.3749658E+00 1.8505231E+00
 5.5462367E+00 1.3605668E+00 1.8594330E+00
 5.6193294E+00 1.3464826E+00 1.8682794E+00
 5.6941007E+00 1.3319547E+00 1.8772307E+00
 5.7705962E+00 1.3165839E+00 1.8862323E+00
 5.8487009E+00 1.3001726E+00 1.8951009E+00
 5.9281901E+00 1.2825886E+00 1.9035960E+00
 6.0087415E+00 1.2637294E+00 1.9114464E+00
 6.0899609E+00 1.2435108E+00 1.9183633E+00
 6.1713946E+00 1.2218714E+00 1.9240472E+00
 6.2525406E+00 1.1987760E+00 1.9281907E+00
 6.3328642E+00 1.1742205E+00 1.9304833E+00
 6.4118199E+00 1.1482344E+00 1.9306194E+00
 6.4888812E+00 1.1208821E+00 1.9283139E+00
 6.5635681E+00 1.0922580E+00 1.9233203E+00
 6.6354733E+00 1.0624774E+00 1.9154476E+00
 6.7043007E+00 1.0316698E+00 1.9045629E+00
 6.7699583E+00 1.0000001E+00 1.8905628E+00
 6.8327780E+00 9.6775848E-01 1.8732776E+00
 6.8937888E+00 9.3552712E-01 1.8523115E+00
 5.4759935E+00 1.3365996E+00 1.8664800E+00
 5.5489246E+00 1.3207091E+00 1.8752009E+00
 5.6232323E+00 1.3050480E+00 1.8838624E+00
 5.6990763E+00 1.2888656E+00 1.8925723E+00
 5.7764826E+00 1.2717752E+00 1.9012385E+00
 5.8553309E+00 1.2535839E+00 1.9096561E+00
 5.9353746E+00 1.2341762E+00 1.9175649E+00
 6.0162705E+00 1.2134689E+00 1.9246790E+00
 6.0976008E+00 1.1914034E+00 1.9306985E+00
 6.1788916E+00 1.1679474E+00 1.9353183E+00
 6.2596266E+00 1.1430988E+00 1.9382309E+00
 6.3392665E+00 1.1168876E+00 1.9391334E+00
 6.4172742E+00 1.0893757E+00 1.9377363E+00
 6.4931477E+00 1.0606519E+00 1.9337781E+00
 6.5664530E+00 1.0308218E+00 1.9270396E+00
 6.6368720E+00 1.0000001E+00 1.9173496E+00
 6.7043007E+00 9.6833046E-01 1.9045629E+00
 6.7690517E+00 9.3607451E-01 1.8884889E+00
 6.8321105E+00 9.0377272E-01 1.8687618E+00
 5.4772468E+00 1.2963397E+00 1.8811131E+00
 5.5513263E+00 1.2790354E+00 1.8894676E+00
 5.6266756E+00 1.2618287E+00 1.8977692E+00
 5.7034182E+00 1.2440096E+00 1.9060589E+00
 5.7815577E+00 1.2252200E+00 1.9142033E+00
 5.8609540E+00 1.2052886E+00 1.9219729E+00
 5.9413402E+00 1.1841202E+00 1.9290913E+00
 6.0223511E+00 1.1616560E+00 1.9352611E+00
 6.1035498E+00 1.1378653E+00 1.9401771E+00
 6.1844480E+00 1.1127469E+00 1.9435343E+00
 6.2645234E+00 1.0863305E+00 1.9450325E+00
 6.3432431E+00 1.0586757E+00 1.9443836E+00
 6.4200919E+00 1.0298664E+00 1.9413199E+00
 6.4946118E+00 1.0000001E+00 1.9356051E+00
 6.5664530E+00 9.6917849E-01 1.9270396E+00
 6.6354733E+00 9.3752285E-01 1.9154476E+00
 6.7019314E+00 9.0525524E-01 1.9006246E+00
 6.7667192E+00 8.7284832E-01 1.8822425E+00
 5.4783984E+00 1.2542661E+00 1.8942095E+00
 5.5534816E+00 1.2356098E+00 1.9020353E+00
 5.6296967E+00 1.2168966E+00 1.9098052E+00
 5.7071409E+00 1.1974823E+00 1.9174914E+00
 5.7857975E+00 1.1770498E+00 1.9249213E+00
 5.8655073E+00 1.1554566E+00 1.9318437E+00
 5.9459839E+00 1.1326333E+00 1.9379695E+00
 6.0268444E+00 1.1085483E+00 1.9429957E+00
 6.1076384E+00 1.0832002E+00 1.9466175E+00
 6.1878716E+00 1.0566178E+00 1.9485372E+00
 6.2670270E+00 1.0288581E+00 1.9484688E+00
 6.3445917E+00 1.0000001E+00 1.9461445E+00
 6.4200919E+00 9.7013384E-01 1.9413199E+00
 6.4931477E+00 9.3934842E-01 1.9337781E+00
 6.5635681E+00 9.0774228E-01 1.9233203E+00
 6.6315353E+00 8.7549186E-01 1.9097316E+00
 6.6978223E+00 8.4298890E-01 1.8927134E+00
 5.4794208E+00 1.2105358E+00 1.9055453E+00
 5.5553427E+00 1.1905912E+00 1.9126881E+00
 5.6322295E+00 1.1704327E+00 1.9197553E+00
 5.7101584E+00 1.1494947E+00 1.9266555E+00
 5.7890961E+00 1.1275116E+00 1.9331813E+00
 5.8688665E+00 1.1043748E+00 1.9390645E+00
 5.9491677E+00 1.0800436E+00 1.9440091E+00
 6.0296046E+00 1.0545150E+00 1.9477125E+00
 6.1097213E+00 1.0278158E+00 1.9498768E+00
 6.1890282E+00 1.0000001E+00 1.9502178E+00
 6.2670270E+00 9.7114218E-01 1.9484688E+00
 6.3432431E+00 9.4132454E-01 1.9443837E+00
 6.4172742E+00 9.1062458E-01 1.9377363E+00
 6.4888812E+00 8.7911814E-01 1.9283140E+00
 6.5581565E+00 8.4693493E-01 1.9158933E+00
 6.6257362E+00 8.1438175E-01 1.9001969E+00
 5.4802794E+00 1.1653600E+00 1.9149087E+00
 5.5568518E+00 1.1442117E+00 1.9212198E+00
 5.6341982E+00 1.1226972E+00 1.9274183E+00
 5.7123811E+00 1.1003417E+00 1.9333567E+00
 5.7913532E+00 1.0769376E+00 1.9387999E+00
 5.8709259E+00 1.0524140E+00 1.9434690E+00
 5.9507865E+00 1.0267602E+00 1.9470671E+00
 6.0305355E+00 1.0000001E+00 1.9492980E+00
 6.1097213E+00 9.7218447E-01 1.9498768E+00
 6.1878716E+00 9.4338247E-01 1.9485372E+00
 6.2645234E+00 9.1366976E-01 1.9450325E+00
 6.3392665E+00 8.8311268E-01 1.9391335E+00
 6.4118199E+00 8.5176583E-01 1.9306195E+00
 6.4821836E+00 8.1971405E-01 1.9192627E+00
 6.5508393E+00 7.8718058E-01 1.9048003E+00
 5.4809466E+00 1.1190001E+00 1.9221122E+00
 5.5579622E+00 1.0967601E+00 1.9274523E+00
 5.6355435E+00 1.0740109E+00 1.9326268E+00
 5.7137415E+00 1.0503785E+00 1.9374423E+00
 5.7924992E+00 1.0257189E+00 1.9416442E+00
 5.8716196E+00 1.0000001E+00 1.9449496E+00
 5.9507865E+00 9.7324012E-01 1.9470671E+00
 6.0296046E+00 9.4548531E-01 1.9477125E+00
 6.1076384E+00 9.1680008E-01 1.9466175E+00
 6.1844480E+00 8.8725337E-01 1.9435343E+00
 6.2596266E+00 8.5690148E-01 1.9382309E+00
 6.3328641E+00 8.2577980E-01 1.9304833E+00
 6.4040713E+00 7.9393191E-01 1.9200608E+00
 6.4735668E+00 7.6150236E-01 1.9067115E+00
 5.4814021E+00 1.0717614E+00 1.9270042E+00
 5.5586412E+00 1.0485689E+00 1.9312492E+00
 5.6362259E+00 1.0247367E+00 1.9352619E+00
 5.7141995E+00 1.0000001E+00 1.9388153E+00
 5.7924992E+00 9.7428139E-01 1.9416442E+00
 5.8709259E+00 9.4758629E-01 1.9434690E+00
 5.9491677E+00 9.1995669E-01 1.9440091E+00
 6.0268444E+00 8.9145202E-01 1.9429957E+00
 6.1035498E+00 8.6213498E-01 1.9401771E+00
 6.1788916E+00 8.3205287E-01 1.9353183E+00
 6.2525406E+00 8.0122428E-01 1.9281907E+00
 6.3243271E+00 7.6965606E-01 1.9185612E+00
 6.3944042E+00 7.3742144E-01 1.9061832E+00
 5.4816331E+00 1.0239814E+00 1.9294777E+00
 5.5588697E+00 1.0000002E+00 1.9325245E+00
 5.6362259E+00 9.7526364E-01 1.9352619E+00
 5.7137416E+00 9.4962183E-01 1.9374423E+00
 5.7913532E+00 9.2306265E-01 1.9387999E+00
 5.8688665E+00 8.9562552E-01 1.9390645E+00
 5.9459839E+00 8.6736698E-01 1.9379695E+00
 6.0223512E+00 8.3834429E-01 1.9352612E+00
 6.0976008E+00 8.0859689E-01 1.9306986E+00
 6.1713946E+00 7.7812890E-01 1.9240472E+00
 6.2434901E+00 7.4691571E-01 1.9150675E+00
 6.3138778E+00 7.1496772E-01 1.9035122E+00
 5.4816331E+00 9.7601887E-01 1.9294777E+00
 5.5586413E+00 9.5143143E-01 1.9312491E+00
 5.6355435E+00 9.2598944E-01 1.9326267E+00
 5.7123811E+00 8.9965860E-01 1.9333566E+00
 5.7890961E+00 8.7248865E-01 1.9331812E+00
 5.8655074E+00 8.4454370E-01 1.9318437E+00
 5.9413402E+00 8.1588014E-01 1.9290913E+00
 6.0162705E+00 7.8653135E-01 1.9246790E+00
 6.0899609E+00 7.5648946E-01 1.9183633E+00
 6.1621046E+00 7.2570341E-01 1.9098943E+00
 6.2325332E+00 6.9413022E-01 1.8990151E+00
 5.4814021E+00 9.2823898E-01 1.9270041E+00
 5.5579622E+00 9.0324019E-01 1.9274522E+00
 5.6341982E+00 8.7730307E-01 1.9274182E+00
 5.7101584E+00 8.5050558E-01 1.9266554E+00
 5.7857975E+00 8.2295045E-01 1.9249212E+00
 5.8609540E+00 7.9471172E-01 1.9219729E+00
 5.9353746E+00 7.6582404E-01 1.9175649E+00
 6.0087415E+00 7.3627087E-01 1.9114464E+00
 6.0806936E+00 7.0597969E-01 1.9033527E+00
 6.1509100E+00 6.7486313E-01 1.8930102E+00
 5.4809466E+00 8.8100019E-01 1.9221121E+00
 5.5568518E+00 8.5578867E-01 1.9212196E+00
 5.6322296E+00 8.2956767E-01 1.9197552E+00
 5.7071410E+00 8.0251803E-01 1.9174913E+00
 5.7815577E+00 7.7478026E-01 1.9142032E+00
 5.8553310E+00 7.4641644E-01 1.9096561E+00
 5.9281901E+00 7.1741164E-01 1.9035960E+00
 5.9997393E+00 6.8767804E-01 1.8957447E+00
 6.0695159E+00 6.5709271E-01 1.8858049E+00
 5.4802795E+00 8.3464038E-01 1.9149085E+00
 5.5553427E+00 8.0940916E-01 1.9126879E+00
 5.6296968E+00 7.8310374E-01 1.9098050E+00
 5.7034183E+00 7.5599076E-01 1.9060587E+00
 5.7764827E+00 7.2822509E-01 1.9012384E+00
 5.8487009E+00 6.9982769E-01 1.8951008E+00
 5.9196719E+00 6.7070982E-01 1.8873590E+00
 5.9888120E+00 6.4072286E-01 1.8776917E+00
 5.4794209E+00 7.8946454E-01 1.9055451E+00
 5.5534817E+00 7.6439055E-01 1.9020351E+00
 5.6266757E+00 7.3817169E-01 1.8977691E+00
 5.6990763E+00 7.1113472E-01 1.8925722E+00
 5.7705962E+00 6.8341643E-01 1.8862322E+00
 5.8408625E+00 6.5496950E-01 1.8784699E+00
 5.9092046E+00 6.2564018E-01 1.8689463E+00
 5.4783985E+00 7.4573425E-01 1.8942092E+00
 5.5513264E+00 7.2096493E-01 1.8894674E+00
 5.6232323E+00 6.9495241E-01 1.8838622E+00
 5.6941008E+00 6.6804561E-01 1.8772305E+00
 5.7636119E+00 6.4033661E-01 1.8693307E+00
 5.8310441E+00 6.1171830E-01 1.8598265E+00
 5.4772469E+00 7.0366073E-01 1.8811128E+00
 5.5489247E+00 6.7929128E-01 1.8752007E+00
 5.6193295E+00 6.5351781E-01 1.8682792E+00
 5.6881484E+00 6.2667545E-01 1.8601664E+00
 5.7546218E+00 5.9882400E-01 1.8505687E+00
 5.4759936E+00 6.6340083E-01 1.8664797E+00
 5.5462368E+00 6.3943365E-01 1.8594327E+00
 5.6145722E+00 6.1378465E-01 1.8511360E+00
 5.6801743E+00 5.8681201E-01 1.8413782E+00
 5.4746054E+00 6.2503465E-01 1.8505228E+00
 5.5429305E+00 6.0132921E-01 1.8422965E+00
 5.6079007E+00 5.7552368E-01 1.8324207E+00
 5.4728832E+00 5.8853643E-01 1.8334139E+00
 5.5378411E+00 5.6466997E-01 1.8237402E+00
 5.4702927E+00 5.5385118E-01 1.8152922E+00
 5.3673109E+00 1.5100536E+00 1.7736526E+00
 5.3267102E+00 1.5345398E+00 1.7560608E+00
 5.2843556E+00 1.5596824E+00 1.7369957E+00
 5.2404416E+00 1.5853574E+00 1.7164267E+00
 5.1950988E+00 1.6114719E+00 1.6943097E+00
 5.1485866E+00 1.6379189E+00 1.6705972E+00
 5.1011551E+00 1.6645921E+00 1.6452237E+00
 5.0530817E+00 1.6913584E+00 1.6181258E+00
 5.0046822E+00 1.7180538E+00 1.5892468E+00
 4.9563055E+00 1.7444787E+00 1.5585448E+00
 4.9083231E+00 1.7703994E+00 1.5260005E+00
 4.8611140E+00 1.7955531E+00 1.4916258E+00
 4.8150499E+00 1.8196575E+00 1.4554716E+00
 4.7704795E+00 1.8424236E+00 1.4176352E+00
 4.7277156E+00 1.8635710E+00 1.3782640E+00
 4.6870245E+00 1.8828444E+00 1.3375546E+00
 4.6486194E+00 1.9000287E+00 1.2957471E+00
 4.6126598E+00 1.9149604E+00 1.2531151E+00
 4.5792576E+00 1.9275334E+00 1.2099551E+00
 4.5484981E+00 1.9377000E+00 1.1665769E+00
 4.5204708E+00 1.9454650E+00 1.1233198E+00
 4.4952335E+00 1.9508861E+00 1.0805109E+00
 4.4728633E+00 1.9540672E+00 1.0386839E+00
 3.7286728E+00 1.0907167E+00 1.7884819E+00
 3.7194166E+00 1.1498653E+00 1.7737643E+00
 3.7133369E+00 1.2103313E+00 1.7557292E+00
 3.7114126E+00 1.2721264E+00 1.7345355E+00
 3.7142204E+00 1.3348553E+00 1.7101696E+00
 3.7221640E+00 1.3979154E+00 1.6826195E+00
 3.7355322E+00 1.4605839E+00 1.6519338E+00
 3.7545085E+00 1.5220664E+00 1.6182538E+00
 3.7791504E+00 1.5815291E+00 1.5818247E+00
 3.8093693E+00 1.6381394E+00 1.5429939E+00
 3.8449191E+00 1.6911122E+00 1.5022012E+00
 3.8853989E+00 1.7397570E+00 1.4599601E+00
 3.9302692E+00 1.7835204E+00 1.4168349E+00
 3.9788804E+00 1.8220186E+00 1.3734114E+00
 4.0305117E+00 1.8550586E+00 1.3302666E+00
 4.0844166E+00 1.8826430E+00 1.2879388E+00
 4.1398690E+00 1.9049592E+00 1.2469030E+00
 4.1962044E+00 1.9223539E+00 1.2075513E+00
 4.2528409E+00 1.9352963E+00 1.1701816E+00
 4.3092872E+00 1.9443381E+00 1.1349695E+00
 4.3651202E+00 1.9500765E+00 1.1018818E+00
 4.4198731E+00 1.9531211E+00 1.0705098E+00
 3.7817660E+00 1.1265804E+00 1.8137623E+00
 3.7757980E+00 1.1877211E+00 1.7987192E+00
 3.7728415E+00 1.2491622E+00 1.7801534E+00
 3.7740490E+00 1.3112535E+00 1.7582919E+00
 3.7800418E+00 1.3737354E+00 1.7331548E+00
 3.7911760E+00 1.4360439E+00 1.7047399E+00
 3.8076626E+00 1.4974601E+00 1.6731131E+00
 3.8295946E+00 1.5571845E+00 1.6384461E+00
 3.8569356E+00 1.6143935E+00 1.6010234E+00
 3.8895042E+00 1.6682897E+00 1.5612363E+00
 3.9269705E+00 1.7181520E+00 1.5195676E+00
 3.9688663E+00 1.7633816E+00 1.4765686E+00
 4.0146089E+00 1.8035391E+00 1.4328318E+00
 4.0635362E+00 1.8383703E+00 1.3889590E+00
 4.1149502E+00 1.8678163E+00 1.3455290E+00
 4.1681638E+00 1.8920073E+00 1.3030681E+00
 4.2225450E+00 1.9112416E+00 1.2620241E+00
 4.2775507E+00 1.9259517E+00 1.2227380E+00
 4.3327354E+00 1.9366674E+00 1.1853879E+00
 4.3877048E+00 1.9439817E+00 1.1498715E+00
 4.4420818E+00 1.9485207E+00 1.1154738E+00
 3.8397202E+00 1.1610099E+00 1.8362728E+00
 3.8368243E+00 1.2229981E+00 1.8206361E+00
 3.8369362E+00 1.2848593E+00 1.8013822E+00
 3.8412238E+00 1.3468786E+00 1.7787114E+00
 3.8503022E+00 1.4088085E+00 1.7526520E+00
 3.8644714E+00 1.4700823E+00 1.7232204E+00
 3.8838648E+00 1.5299736E+00 1.6905138E+00
 3.9084894E+00 1.5876882E+00 1.6547456E+00
 3.9382210E+00 1.6424280E+00 1.6162488E+00
 3.9727959E+00 1.6934486E+00 1.5754642E+00
 4.0118153E+00 1.7401100E+00 1.5329201E+00
 4.0547633E+00 1.7819195E+00 1.4892053E+00
 4.1010378E+00 1.8185619E+00 1.4449367E+00
 4.1499908E+00 1.8499159E+00 1.4007251E+00
 4.2009747E+00 1.8760526E+00 1.3571415E+00
 4.2533876E+00 1.8972184E+00 1.3146846E+00
 4.3067100E+00 1.9138053E+00 1.2737437E+00
 4.3605109E+00 1.9263163E+00 1.2345368E+00
 4.4144056E+00 1.9353393E+00 1.1969552E+00
 4.4679486E+00 1.9415144E+00 1.1603414E+00
 3.9022420E+00 1.1943054E+00 1.8554356E+00
 3.9022827E+00 1.2564505E+00 1.8389721E+00
 3.9053915E+00 1.3181867E+00 1.8188471E+00
 3.9126943E+00 1.3796859E+00 1.7952156E+00
 3.9247457E+00 1.4406464E+00 1.7681046E+00
 3.9417734E+00 1.5004829E+00 1.7375570E+00
 3.9638301E+00 1.5584687E+00 1.7037120E+00
 3.9908402E+00 1.6138302E+00 1.6668333E+00
 4.0226006E+00 1.6658169E+00 1.6273067E+00
 4.0587805E+00 1.7137593E+00 1.5856232E+00
 4.0989333E+00 1.7571181E+00 1.5423534E+00
 4.1425214E+00 1.7955207E+00 1.4981155E+00
 4.1889532E+00 1.8287830E+00 1.4535396E+00
 4.2376256E+00 1.8569134E+00 1.4092309E+00
 4.2879693E+00 1.8801006E+00 1.3657322E+00
 4.3394847E+00 1.8986874E+00 1.3234839E+00
 4.3917518E+00 1.9131414E+00 1.2827523E+00
 4.4443761E+00 1.9240313E+00 1.2434948E+00
 4.4968620E+00 1.9320044E+00 1.2051492E+00
 3.9690208E+00 1.2263209E+00 1.8708197E+00
 3.9718857E+00 1.2881090E+00 1.8533294E+00
 3.9779146E+00 1.3492330E+00 1.8321741E+00