# TIME = 3.300000
variables = x, y, z
zone N=5762 E=11520 F=FEPOINT ET=TRIANGLE
 5.2883052E+00 1.4875502E+00 1.7885529E+00
 5.2883052E+00 1.4875501E+00 2.1144755E-01
 5.2883053E+00 5.1245023E-01 1.7885525E+00
 5.2883053E+00 5.1245037E-01 2.1144814E-01
 3.5815225E+00 1.0000001E+00 1.7716558E+00
 6.9893392E+00 1.0000001E+00 1.7617038E+00
 3.5815225E+00 1.0000001E+00 2.2834462E-01
 6.9893393E+00 1.0000001E+00 2.3829649E-01
 4.3410682E+00 1.9543142E+00 1.0000002E+00
 4.3410682E+00 4.5685905E-02 1.0000002E+00
 6.2331407E+00 1.9461440E+00 1.0000002E+00
 6.2331407E+00 5.3856006E-02 1.0000002E+00
 5.2293786E+00 1.4782273E+00 1.7931373E+00
 5.1642783E+00 1.4680612E+00 1.7985455E+00
 5.0960253E+00 1.4576332E+00 1.8046266E+00
 5.0248833E+00 1.4469239E+00 1.8115212E+00
 4.9511439E+00 1.4359417E+00 1.8192950E+00
 4.8750944E+00 1.4246208E+00 1.8279931E+00
 4.7970034E+00 1.4128519E+00 1.8375945E+00
 4.7171974E+00 1.4004767E+00 1.8479886E+00
 4.6360539E+00 1.3872885E+00 1.8589489E+00
 4.5539976E+00 1.3730374E+00 1.8701177E+00
 4.4714863E+00 1.3574436E+00 1.8810006E+00
 4.3889988E+00 1.3402200E+00 1.8909823E+00
 4.3070219E+00 1.3211033E+00 1.8993633E+00
 4.2260413E+00 1.2998901E+00 1.9054204E+00
 4.1465446E+00 1.2764696E+00 1.9084800E+00
 4.0690353E+00 1.2508468E+00 1.9079910E+00
 3.9940420E+00 1.2231470E+00 1.9035794E+00
 3.9221044E+00 1.1936041E+00 1.8950735E+00
 3.8537380E+00 1.1625338E+00 1.8825003E+00
 3.7893987E+00 1.1303047E+00 1.8660613E+00
 3.7294946E+00 1.0973294E+00 1.8461160E+00
 3.6743708E+00 1.0640471E+00 1.8231459E+00
 3.6243777E+00 1.0310029E+00 1.7977802E+00
 5.2226928E+00 5.5520933E-01 1.8122490E+00
 5.1555700E+00 5.6715971E-01 1.8181105E+00
 5.0857200E+00 5.7899064E-01 1.8244360E+00
 5.0134504E+00 5.9101435E-01 1.8314887E+00
 4.9388196E+00 6.0341625E-01 1.8394213E+00
 4.8620464E+00 6.1628149E-01 1.8482609E+00
 4.7834078E+00 6.2973398E-01 1.8579607E+00
 4.7032504E+00 6.4393531E-01 1.8683719E+00
 4.6219798E+00 6.5909036E-01 1.8792252E+00
 4.5400425E+00 6.7543569E-01 1.8901180E+00
 4.4579127E+00 6.9322205E-01 1.9005150E+00
 4.3760761E+00 7.1268856E-01 1.9097720E+00
 4.2950191E+00 7.3403232E-01 1.9171793E+00
 4.2152204E+00 7.5737742E-01 1.9220280E+00
 4.1371567E+00 7.8275082E-01 1.9236833E+00
 4.0613157E+00 8.1007124E-01 1.9216527E+00
 3.9882016E+00 8.3915513E-01 1.9156314E+00
 3.9183144E+00 8.6973967E-01 1.9055172E+00
 3.8521144E+00 9.0151228E-01 1.8913971E+00
 3.7899551E+00 9.3412901E-01 1.8734999E+00
 3.7319396E+00 9.6717979E-01 1.8520896E+00
 3.6776246E+00 1.0000001E+00 1.8272491E+00
 5.2204946E+00 5.8962511E-01 1.8301256E+00
 5.1510006E+00 6.0337260E-01 1.8362469E+00
 5.0796198E+00 6.1663799E-01 1.8426443E+00
 5.0060153E+00 6.3013138E-01 1.8497566E+00
 4.9302667E+00 6.4407220E-01 1.8577204E+00
 4.8525222E+00 6.5859603E-01 1.8665633E+00
 4.7730759E+00 6.7383264E-01 1.8762091E+00
 4.6923001E+00 6.8995028E-01 1.8864745E+00
 4.6106298E+00 7.0714836E-01 1.8970473E+00
 4.5285374E+00 7.2564572E-01 1.9074802E+00
 4.4465160E+00 7.4565865E-01 1.9171979E+00
 4.3650629E+00 7.6737405E-01 1.9255282E+00
 4.2846678E+00 7.9092125E-01 1.9317542E+00
 4.2058061E+00 8.1634715E-01 1.9351843E+00
 4.1289459E+00 8.4360195E-01 1.9352261E+00
 4.0545578E+00 8.7253974E-01 1.9314482E+00
 3.9831137E+00 9.0293721E-01 1.9236148E+00
 3.9150496E+00 9.3452451E-01 1.9116846E+00
 3.8506719E+00 9.6700542E-01 1.8957616E+00
 3.7899437E+00 1.0000001E+00 1.8759658E+00
 3.7319396E+00 1.0328203E+00 1.8520896E+00
 5.2189901E+00 6.2585233E-01 1.8470564E+00
 5.1479805E+00 6.4104009E-01 1.8530896E+00
 5.0751662E+00 6.5579119E-01 1.8594250E+00
 5.0003272E+00 6.7080262E-01 1.8664471E+00
 4.9234589E+00 6.8636144E-01 1.8742970E+00
 4.8447458E+00 7.0260922E-01 1.8829777E+00
 4.7644966E+00 7.1968875E-01 1.8923877E+00
 4.6831173E+00 7.3776617E-01 1.9023070E+00
 4.6010725E+00 7.5703014E-01 1.9123820E+00
 4.5188596E+00 7.7767372E-01 1.9221241E+00
 4.4369902E+00 7.9987141E-01 1.9309236E+00
 4.3559713E+00 8.2375283E-01 1.9380901E+00
 4.2762942E+00 8.4937834E-01 1.9429099E+00
 4.1984277E+00 8.7672215E-01 1.9447205E+00
 4.1228251E+00 9.0566891E-01 1.9429801E+00
 4.0499270E+00 9.3602761E-01 1.9373220E+00
 3.9801415E+00 9.6755986E-01 1.9275709E+00
 3.9137544E+00 1.0000001E+00 1.9137118E+00
 3.8506719E+00 1.0329947E+00 1.8957616E+00
 3.7899551E+00 1.0658711E+00 1.8734999E+00
 5.2176925E+00 6.6399038E-01 1.8628898E+00
 5.1453816E+00 6.8053669E-01 1.8686554E+00
 5.0713395E+00 6.9674163E-01 1.8747592E+00
 4.9953863E+00 7.1330252E-01 1.8815369E+00
 4.9175412E+00 7.3050336E-01 1.8890999E+00
 4.8380058E+00 7.4849718E-01 1.8974291E+00
 4.7571227E+00 7.6742614E-01 1.9063927E+00
 4.6753276E+00 7.8745021E-01 1.9157356E+00
 4.5931125E+00 8.0873842E-01 1.9250665E+00
 4.5109966E+00 8.3145028E-01 1.9338626E+00
 4.4295045E+00 8.5571175E-01 1.9414916E+00
 4.3491470E+00 8.8159171E-01 1.9472587E+00
 4.2704100E+00 9.0908349E-01 1.9504692E+00
 4.1937467E+00 9.3809807E-01 1.9505022E+00
 4.1195801E+00 9.6847354E-01 1.9468743E+00
 4.0482904E+00 1.0000001E+00 1.9392780E+00
 3.9801415E+00 1.0324403E+00 1.9275709E+00
 3.9150496E+00 1.0654756E+00 1.9116846E+00
 3.8521144E+00 1.0984878E+00 1.8913971E+00
 5.2164819E+00 7.0406928E-01 1.8774388E+00
 5.1430026E+00 7.2192119E-01 1.8827808E+00
 5.0678946E+00 7.3956738E-01 1.8884943E+00
 4.9910047E+00 7.5767181E-01 1.8948567E+00
 4.9123757E+00 7.7650791E-01 1.9019461E+00
 4.8322372E+00 7.9622633E-01 1.9097171E+00
 4.7509610E+00 8.1696507E-01 1.9180084E+00
 4.6690112E+00 8.3886936E-01 1.9265323E+00
 4.5869021E+00 8.6208178E-01 1.9348665E+00
 4.5051678E+00 8.8672117E-01 1.9424648E+00
 4.4243382E+00 9.1286084E-01 1.9486864E+00
 4.3449197E+00 9.4050916E-01 1.9528482E+00
 4.2673818E+00 9.6960041E-01 1.9542894E+00
 4.1921473E+00 1.0000001E+00 1.9524403E+00
 4.1195801E+00 1.0315266E+00 1.9468743E+00
 4.0499270E+00 1.0639725E+00 1.9373220E+00
 3.9831137E+00 1.0970629E+00 1.9236148E+00
 3.9183144E+00 1.1302604E+00 1.9055173E+00
 5.2153722E+00 7.4600567E-01 1.8904802E+00
 5.1408694E+00 7.6511628E-01 1.8952497E+00
 5.0648713E+00 7.8417481E-01 1.9004110E+00
 4.9872457E+00 8.0379015E-01 1.9061795E+00
 4.9080587E+00 8.2421663E-01 1.9125994E+00
 4.8275665E+00 8.4559695E-01 1.9195987E+00
 4.7461677E+00 8.6805795E-01 1.9269885E+00
 4.6643490E+00 8.9172440E-01 1.9344541E+00
 4.5826405E+00 9.1670576E-01 1.9415506E+00
 4.5015830E+00 9.4307626E-01 1.9477215E+00
 4.4217022E+00 9.7085611E-01 1.9523325E+00
 4.3434890E+00 1.0000001E+00 1.9547272E+00
 4.2673818E+00 1.0303997E+00 1.9542894E+00
 4.1937467E+00 1.0619020E+00 1.9505023E+00
 4.1228251E+00 1.0943312E+00 1.9429802E+00
 4.0545578E+00 1.1274604E+00 1.9314483E+00
 3.9882015E+00 1.1608450E+00 1.9156314E+00
 5.2143956E+00 7.8963602E-01 1.9017822E+00
 5.1390392E+00 8.0994627E-01 1.9058336E+00
 5.0623477E+00 8.3036098E-01 1.9102787E+00
 4.9842088E+00 8.5142130E-01 1.9152724E+00
 4.9047091E+00 8.7335460E-01 1.9208266E+00
 4.8241289E+00 8.9629019E-01 1.9268440E+00
 4.7428885E+00 9.2033857E-01 1.9331123E+00
 4.6614908E+00 9.4559843E-01 1.9392966E+00
 4.5804733E+00 9.7214260E-01 1.9449407E+00
 4.5003735E+00 1.0000001E+00 1.9494905E+00
 4.4217022E+00 1.0291440E+00 1.9523326E+00
 4.3449197E+00 1.0594910E+00 1.9528483E+00
 4.2704100E+00 1.0909166E+00 1.9504693E+00
 4.1984277E+00 1.1232780E+00 1.9447206E+00
 4.1289459E+00 1.1563982E+00 1.9352262E+00
 4.0613156E+00 1.1899289E+00 1.9216528E+00
 5.2135822E+00 8.3474259E-01 1.9111266E+00
 5.1375635E+00 8.5616763E-01 1.9143187E+00
 5.0603942E+00 8.7785012E-01 1.9178864E+00
 4.9819786E+00 9.0025221E-01 1.9219297E+00
 4.9024227E+00 9.2356771E-01 1.9264304E+00
 4.8220257E+00 9.4790778E-01 1.9312696E+00
 4.7412240E+00 9.7336204E-01 1.9362172E+00
 4.6605279E+00 1.0000001E+00 1.9409263E+00
 4.5804733E+00 1.0278576E+00 1.9449408E+00
 4.5015830E+00 1.0569239E+00 1.9477217E+00
 4.4243383E+00 1.0871393E+00 1.9486866E+00
 4.3491470E+00 1.1184084E+00 1.9472589E+00
 4.2762942E+00 1.1506218E+00 1.9429101E+00
 4.2058061E+00 1.1836530E+00 1.9351845E+00
 4.1371567E+00 1.2172493E+00 1.9236834E+00
 5.2129531E+00 8.8105655E-01 1.9183206E+00
 5.1364813E+00 9.0348178E-01 1.9205215E+00
 5.0590625E+00 9.2631019E-01 1.9230612E+00
 4.9806160E+00 9.4991379E-01 1.9259916E+00
 4.9012634E+00 9.7444737E-01 1.9292693E+00
 4.8213180E+00 1.0000001E+00 1.9327583E+00
 4.7412240E+00 1.0266382E+00 1.9362173E+00
 4.6614908E+00 1.0544018E+00 1.9392968E+00
 4.5826406E+00 1.0832944E+00 1.9415509E+00
 4.5051679E+00 1.1132790E+00 1.9424650E+00
 4.4295045E+00 1.1442884E+00 1.9414919E+00
 4.3559713E+00 1.1762473E+00 1.9380903E+00
 4.2846678E+00 1.2090789E+00 1.9317544E+00
 4.2152204E+00 1.2426227E+00 1.9220282E+00
 5.2125248E+00 9.2826613E-01 1.9232084E+00
 5.1358207E+00 9.5154895E-01 1.9243019E+00
 5.0583878E+00 9.7536931E-01 1.9256803E+00
 4.9801578E+00 1.0000001E+00 1.9273571E+00
 4.9012634E+00 1.0255528E+00 1.9292694E+00
 4.8220257E+00 1.0520924E+00 1.9312698E+00
 4.7428886E+00 1.0796617E+00 1.9331126E+00
 4.6643490E+00 1.1082758E+00 1.9344544E+00
 4.5869022E+00 1.1379184E+00 1.9348669E+00
 4.5109967E+00 1.1685499E+00 1.9338629E+00
 4.4369903E+00 1.2001288E+00 1.9309240E+00
 4.3650629E+00 1.2326261E+00 1.9255285E+00
 4.2950191E+00 1.2659679E+00 1.9171796E+00
 5.2123078E+00 9.7602675E-01 1.9256806E+00
 5.1355986E+00 1.0000001E+00 1.9255720E+00
 5.0583878E+00 1.0246309E+00 1.9256804E+00
 4.9806160E+00 1.0500864E+00 1.9259918E+00
 4.9024228E+00 1.0764325E+00 1.9264307E+00
 4.8241289E+00 1.1037101E+00 1.9268444E+00
 4.7461678E+00 1.1319423E+00 1.9269890E+00
 4.6690113E+00 1.1611309E+00 1.9265329E+00
 4.5931126E+00 1.1912618E+00 1.9250670E+00
 4.5188597E+00 1.2223265E+00 1.9221246E+00
 4.4465161E+00 1.2543416E+00 1.9171983E+00
 4.3760761E+00 1.2873117E+00 1.9097723E+00
 5.2123078E+00 1.0239734E+00 1.9256807E+00
 5.1358207E+00 1.0484512E+00 1.9243020E+00
 5.0590625E+00 1.0736900E+00 1.9230614E+00
 4.9819786E+00 1.0997480E+00 1.9219301E+00
 4.9047091E+00 1.1266457E+00 1.9208271E+00
 4.8275665E+00 1.1544033E+00 1.9195992E+00
 4.7509611E+00 1.1830352E+00 1.9180090E+00
 4.6753277E+00 1.2125501E+00 1.9157363E+00
 4.6010726E+00 1.2429702E+00 1.9123827E+00
 4.5285375E+00 1.2743546E+00 1.9074808E+00
 4.4579128E+00 1.3067782E+00 1.9005154E+00
 5.2125248E+00 1.0717340E+00 1.9232086E+00
 5.1364813E+00 1.0965184E+00 1.9205217E+00
 5.0603941E+00 1.1221501E+00 1.9178868E+00
 4.9842087E+00 1.1485790E+00 1.9152729E+00
 4.9080588E+00 1.1757837E+00 1.9126001E+00
 4.8322373E+00 1.2037740E+00 1.9097178E+00
 4.7571229E+00 1.2325742E+00 1.9063935E+00
 4.6831175E+00 1.2622342E+00 1.9023077E+00
 4.6106300E+00 1.2928520E+00 1.8970480E+00
 4.5400427E+00 1.3245647E+00 1.8901186E+00
 5.2129531E+00 1.1189436E+00 1.9183209E+00
 5.1375635E+00 1.1438326E+00 1.9143191E+00
 5.0623476E+00 1.1696393E+00 1.9102792E+00
 4.9872456E+00 1.1962102E+00 1.9061801E+00
 4.9123757E+00 1.2234925E+00 1.9019469E+00
 4.8380059E+00 1.2515032E+00 1.8974300E+00
 4.7644968E+00 1.2803117E+00 1.8923886E+00
 4.6923003E+00 1.3100501E+00 1.8864753E+00
 4.6219799E+00 1.3409100E+00 1.8792260E+00
 5.2135821E+00 1.1652576E+00 1.9111270E+00
 5.1390392E+00 1.1900540E+00 1.9058341E+00
 5.0648712E+00 1.2158255E+00 1.9004117E+00
 4.9910047E+00 1.2423286E+00 1.8948574E+00
 4.9175412E+00 1.2694971E+00 1.8891008E+00
 4.8447459E+00 1.2973912E+00 1.8829786E+00
 4.7730761E+00 1.3261678E+00 1.8762100E+00
 4.7032506E+00 1.3560652E+00 1.8683728E+00
 5.2143955E+00 1.2103642E+00 1.9017827E+00
 5.1408693E+00 1.2348840E+00 1.8952502E+00
 5.0678945E+00 1.2604330E+00 1.8884950E+00
 4.9953863E+00 1.2866979E+00 1.8815378E+00
 4.9234589E+00 1.3136390E+00 1.8742979E+00
 4.8525223E+00 1.3414045E+00 1.8665643E+00
 4.7834079E+00 1.3702665E+00 1.8579616E+00
 5.2153722E+00 1.2539946E+00 1.8904807E+00
 5.1430025E+00 1.2780792E+00 1.8827814E+00
 5.0713394E+00 1.3032588E+00 1.8747599E+00
 5.0003272E+00 1.3291978E+00 1.8664479E+00
 4.9302667E+00 1.3559283E+00 1.8577213E+00
 4.8620465E+00 1.3837190E+00 1.8482619E+00
 5.2164818E+00 1.2959310E+00 1.8774393E+00
 5.1453815E+00 1.3194637E+00 1.8686561E+00
 5.0751661E+00 1.3442092E+00 1.8594258E+00
 5.0060153E+00 1.3698691E+00 1.8497575E+00
 4.9388196E+00 1.3965843E+00 1.8394222E+00
 5.2176924E+00 1.3360100E+00 1.8628904E+00
 5.1479804E+00 1.3589603E+00 1.8530903E+00
 5.0796197E+00 1.3833625E+00 1.8426451E+00
 5.0134503E+00 1.4089862E+00 1.8314895E+00
 5.2189900E+00 1.3741480E+00 1.8470570E+00
 5.1510005E+00 1.3966278E+00 1.8362476E+00
 5.0857200E+00 1.4210099E+00 1.8244368E+00
 5.2204945E+00 1.4103753E+00 1.8301262E+00
 5.1555699E+00 1.4328407E+00 1.8181112E+00
 5.2226927E+00 1.4447911E+00 1.8122495E+00
 5.2883977E+00 1.4587797E+00 1.8056144E+00
 5.2884830E+00 1.4259922E+00 1.8234356E+00
 5.2885220E+00 1.3911839E+00 1.8405505E+00
 5.2885501E+00 1.3542349E+00 1.8567896E+00
 5.2885745E+00 1.3152336E+00 1.8719051E+00
 5.2885973E+00 1.2743118E+00 1.8856430E+00
 5.2886180E+00 1.2316196E+00 1.8977646E+00
 5.2886361E+00 1.1873490E+00 1.9080450E+00
 5.2886508E+00 1.1417453E+00 1.9162790E+00
 5.2886616E+00 1.0950974E+00 1.9222938E+00
 5.2886683E+00 1.0477316E+00 1.9259575E+00
 5.2886705E+00 1.0000001E+00 1.9271881E+00
 5.2886683E+00 9.5226853E-01 1.9259574E+00
 5.2886617E+00 9.0490275E-01 1.9222936E+00
 5.2886508E+00 8.5825487E-01 1.9162788E+00
 5.2886362E+00 8.1265119E-01 1.9080446E+00
 5.2886181E+00 7.6838065E-01 1.8977642E+00
 5.2885974E+00 7.2568844E-01 1.8856426E+00
 5.2885745E+00 6.8476671E-01 1.8719046E+00
 5.2885502E+00 6.4576540E-01 1.8567891E+00
 5.2885221E+00 6.0881643E-01 1.8405500E+00
 5.2884831E+00 5.7400819E-01 1.8234351E+00
 5.2883978E+00 5.4122067E-01 1.8056139E+00
 5.3472867E+00 5.2054587E-01 1.7951614E+00
 5.4123649E+00 5.2947800E-01 1.8027372E+00
 5.4805100E+00 5.3881536E-01 1.8108754E+00
 5.5514414E+00 5.4867151E-01 1.8195342E+00
 5.6248852E+00 5.5912953E-01 1.8285844E+00
 5.7005653E+00 5.7032576E-01 1.8378778E+00
 5.7782387E+00 5.8241272E-01 1.8472286E+00
 5.8576085E+00 5.9555126E-01 1.8564132E+00
 5.9383308E+00 6.0990280E-01 1.8651732E+00
 6.0200100E+00 6.2562104E-01 1.8732214E+00
 6.1022029E+00 6.4284595E-01 1.8802461E+00
 6.1844206E+00 6.6169673E-01 1.8859171E+00
 6.2661345E+00 6.8226499E-01 1.8898915E+00
 6.3467923E+00 7.0460613E-01 1.8918256E+00
 6.4258400E+00 7.2873051E-01 1.8913923E+00
 6.5027451E+00 7.5459510E-01 1.8883044E+00
 6.5770140E+00 7.8209935E-01 1.8823381E+00
 6.6482031E+00 8.1108601E-01 1.8733526E+00
 6.7159243E+00 8.4134796E-01 1.8613021E+00
 6.7798440E+00 8.7263850E-01 1.8462391E+00
 6.8396424E+00 9.0466339E-01 1.8283287E+00
 6.8950171E+00 9.3709158E-01 1.8078392E+00
 6.9456014E+00 9.6946065E-01 1.7851909E+00
 5.3541268E+00 1.4460885E+00 1.8145501E+00
 5.4211751E+00 1.4353036E+00 1.8226751E+00
 5.4908706E+00 1.4244581E+00 1.8311119E+00
 5.5628928E+00 1.4131594E+00 1.8399262E+00
 5.6371890E+00 1.4011535E+00 1.8490737E+00
 5.7135596E+00 1.3882997E+00 1.8583902E+00
 5.7917541E+00 1.3744506E+00 1.8676694E+00
 5.8714611E+00 1.3594609E+00 1.8766647E+00
 5.9523107E+00 1.3431883E+00 1.8850977E+00
 6.0338843E+00 1.3255029E+00 1.8926646E+00
 6.1157176E+00 1.3062944E+00 1.8990423E+00
 6.1973061E+00 1.2854783E+00 1.9038942E+00
 6.2781134E+00 1.2630041E+00 1.9068786E+00
 6.3575900E+00 1.2388616E+00 1.9076621E+00
 6.4351957E+00 1.2130885E+00 1.9059383E+00
 6.5104226E+00 1.1857733E+00 1.9014516E+00
 6.5828091E+00 1.1570537E+00 1.8940179E+00
 6.6519522E+00 1.1271076E+00 1.8835413E+00
 6.7175129E+00 1.0961405E+00 1.8700187E+00
 6.7792491E+00 1.0643855E+00 1.8535237E+00
 6.8371389E+00 1.0321458E+00 1.8341367E+00
 6.8916782E+00 1.0000001E+00 1.8117723E+00
 5.3564529E+00 1.4116364E+00 1.8325520E+00
 5.4258449E+00 1.3989897E+00 1.8410573E+00
 5.4970366E+00 1.3866124E+00 1.8496299E+00
 5.5703583E+00 1.3737371E+00 1.8585224E+00
 5.6457383E+00 1.3600879E+00 1.8676658E+00
 5.7230477E+00 1.3454913E+00 1.8768951E+00
 5.8020244E+00 1.3298108E+00 1.8859790E+00
 5.8823345E+00 1.3129125E+00 1.8946494E+00
 5.9635811E+00 1.2946737E+00 1.9026073E+00
 6.0453186E+00 1.2749898E+00 1.9095323E+00
 6.1270588E+00 1.2537812E+00 1.9150892E+00
 6.2082784E+00 1.2310007E+00 1.9189363E+00
 6.2884310E+00 1.2066393E+00 1.9207347E+00
 6.3669678E+00 1.1807324E+00 1.9201642E+00
 6.4433614E+00 1.1533621E+00 1.9169427E+00
 6.5171290E+00 1.1246553E+00 1.9108492E+00
 6.5878478E+00 1.0947730E+00 1.9017407E+00
 6.6551792E+00 1.0638937E+00 1.8895583E+00
 6.7189307E+00 1.0322107E+00 1.8743030E+00
 6.7792455E+00 1.0000001E+00 1.8559437E+00
 6.8371389E+00 9.6785430E-01 1.8341367E+00
 5.3580334E+00 1.3753299E+00 1.8495916E+00
 5.4289268E+00 1.3611539E+00 1.8581021E+00
 5.5015308E+00 1.3471903E+00 1.8666771E+00
 5.5760620E+00 1.3326938E+00 1.8754996E+00
 5.6525347E+00 1.3173347E+00 1.8845002E+00
 5.7307877E+00 1.3009488E+00 1.8934854E+00
 5.8105474E+00 1.2834035E+00 1.9022045E+00
 5.8914499E+00 1.2645824E+00 1.9103669E+00
 5.9730698E+00 1.2443847E+00 1.9176552E+00
 6.0549347E+00 1.2227343E+00 1.9237351E+00
 6.1365340E+00 1.1995857E+00 1.9282636E+00
 6.2173290E+00 1.1749308E+00 1.9308989E+00
 6.2967669E+00 1.1488031E+00 1.9313113E+00
 6.3743053E+00 1.1212805E+00 1.9292008E+00
 6.4494371E+00 1.0924825E+00 1.9243159E+00
 6.5217159E+00 1.0625593E+00 1.9164730E+00
 6.5907868E+00 1.0316744E+00 1.9055639E+00
 6.6564580E+00 1.0000001E+00 1.8915369E+00
 6.7189307E+00 9.6778944E-01 1.8743030E+00
 6.7792491E+00 9.3561462E-01 1.8535237E+00
 5.3593825E+00 1.3370930E+00 1.8655265E+00
 5.4315675E+00 1.3214520E+00 1.8738550E+00
 5.5053826E+00 1.3059248E+00 1.8822546E+00
 5.5810079E+00 1.2897744E+00 1.8908485E+00
 5.6584357E+00 1.2726874E+00 1.8995303E+00
 5.7374910E+00 1.2545035E+00 1.9080847E+00
 5.8178696E+00 1.2351068E+00 1.9162379E+00
 5.8991804E+00 1.2144004E+00 1.9236811E+00
 5.9809710E+00 1.1923106E+00 1.9300823E+00
 6.0627459E+00 1.1687931E+00 1.9350990E+00
 6.1439775E+00 1.1438396E+00 1.9383872E+00
 6.2241187E+00 1.1174818E+00 1.9396132E+00
 6.3026198E+00 1.0897934E+00 1.9384652E+00
 6.3789559E+00 1.0608876E+00 1.9346710E+00
 6.4526549E+00 1.0309058E+00 1.9280139E+00
 6.5233358E+00 1.0000001E+00 1.9183440E+00
 6.5907868E+00 9.6832576E-01 1.9055639E+00
 6.6551792E+00 9.3610644E-01 1.8895584E+00
 6.7175130E+00 9.0385959E-01 1.8700187E+00
 5.3606374E+00 1.2969014E+00 1.8801716E+00
 5.4339807E+00 1.2798365E+00 1.8881542E+00
 5.5088469E+00 1.2627503E+00 1.8962109E+00
 5.5853908E+00 1.2449500E+00 1.9043975E+00
 5.6635839E+00 1.2261461E+00 1.9125709E+00
 5.7432257E+00 1.2061968E+00 1.9204913E+00
 5.8239861E+00 1.1850052E+00 1.9278662E+00
 5.9054473E+00 1.1625000E+00 1.9343725E+00
 5.9871345E+00 1.1386378E+00 1.9396698E+00
 6.0685354E+00 1.1134095E+00 1.9434144E+00
 6.1491135E+00 1.0868444E+00 1.9452701E+00
 6.2283232E+00 1.0590123E+00 1.9449196E+00
 6.3056307E+00 1.0300197E+00 1.9420772E+00
 6.3805442E+00 1.0000001E+00 1.9365034E+00
 6.4526549E+00 9.6909432E-01 1.9280139E+00
 6.5217159E+00 9.3744083E-01 1.9164730E+00
 6.5878478E+00 9.0522714E-01 1.9017407E+00
 6.6519522E+00 8.7289252E-01 1.8835414E+00
 5.3617878E+00 1.2548408E+00 1.8933014E+00
 5.4361447E+00 1.2363884E+00 1.9007795E+00
 5.5118871E+00 1.2177660E+00 1.9083216E+00
 5.5891506E+00 1.1983470E+00 1.9159154E+00
 5.6678855E+00 1.1778757E+00 1.9233828E+00
 5.7478680E+00 1.1562337E+00 1.9304629E+00
 5.8287432E+00 1.1333490E+00 1.9368489E+00
 5.9100721E+00 1.1091789E+00 1.9422092E+00
 5.9913633E+00 1.0837134E+00 1.9462021E+00
 6.0720957E+00 1.0569792E+00 1.9484911E+00
 6.1517337E+00 1.0290413E+00 1.9487554E+00
 6.2297462E+00 1.0000001E+00 1.9467025E+00
 6.3056307E+00 9.6998037E-01 1.9420772E+00
 6.3789559E+00 9.3911253E-01 1.9346710E+00
 6.4494371E+00 9.0751759E-01 1.9243159E+00
 6.5171290E+00 8.7534480E-01 1.9108492E+00
 6.5828091E+00 8.4294643E-01 1.8940180E+00
 5.3628009E+00 1.2110747E+00 1.9046817E+00
 5.4380018E+00 1.1912853E+00 1.9114983E+00
 5.5144248E+00 1.1711777E+00 1.9183512E+00
 5.5921878E+00 1.1502057E+00 1.9251650E+00
 5.6712227E+00 1.1281555E+00 1.9317307E+00
 5.7512840E+00 1.1049367E+00 1.9377712E+00
 5.8319971E+00 1.0805053E+00 1.9429709E+00
 5.9129070E+00 1.0548502E+00 1.9469967E+00
 5.9935137E+00 1.0279950E+00 1.9495131E+00
 6.0732968E+00 1.0000001E+00 1.9501987E+00
 6.1517337E+00 9.7095878E-01 1.9487554E+00
 6.2283232E+00 9.4098781E-01 1.9449196E+00
 6.3026198E+00 9.1020668E-01 1.9384652E+00
 6.3743053E+00 8.7871956E-01 1.9292009E+00
 6.4433614E+00 8.4663800E-01 1.9169428E+00
 6.5104226E+00 8.1422685E-01 1.9014516E+00
 5.3636452E+00 1.1658223E+00 1.9140919E+00
 5.4394995E+00 1.1447731E+00 1.9200928E+00
 5.5163893E+00 1.1232653E+00 1.9260846E+00
 5.5944179E+00 1.1008444E+00 1.9319368E+00
 5.6735003E+00 1.0773448E+00 1.9374158E+00
 5.7533736E+00 1.0527077E+00 1.9422340E+00
 5.8336486E+00 1.0269193E+00 1.9460737E+00
 5.9138619E+00 1.0000001E+00 1.9486072E+00
 5.9935137E+00 9.7200507E-01 1.9495131E+00
 6.0720957E+00 9.4302092E-01 1.9484911E+00
 6.1491135E+00 9.1315568E-01 1.9452701E+00
 6.2241187E+00 8.8251834E-01 1.9396133E+00
 6.2967669E+00 8.5119702E-01 1.9313114E+00
 6.3669678E+00 8.1926773E-01 1.9201642E+00
 6.4351957E+00 7.8691161E-01 1.9059384E+00
 5.3642983E+00 1.1193536E+00 1.9213371E+00
 5.4405978E+00 1.0971538E+00 1.9263761E+00
 5.5177284E+00 1.0743658E+00 1.9313452E+00
 5.5957804E+00 1.0506383E+00 1.9360684E+00
 5.6746550E+00 1.0258580E+00 1.9402955E+00
 5.7540768E+00 1.0000001E+00 1.9437349E+00
 5.8336486E+00 9.7308083E-01 1.9460737E+00
 5.9129070E+00 9.4514991E-01 1.9469967E+00
 5.9913633E+00 9.1628670E-01 1.9462021E+00
 6.0685354E+00 8.8659065E-01 1.9434145E+00
 6.1439775E+00 8.5616050E-01 1.9383873E+00
 6.2173290E+00 8.2506934E-01 1.9308989E+00
 6.2884310E+00 7.9336078E-01 1.9207348E+00
 6.3575900E+00 7.6113845E-01 1.9076621E+00
 5.3647431E+00 1.0719828E+00 1.9262600E+00
 5.4412683E+00 1.0487715E+00 1.9302059E+00
 5.5184068E+00 1.0248573E+00 1.9340078E+00
 5.5962386E+00 1.0000001E+00 1.9374573E+00
 5.6746550E+00 9.7414215E-01 1.9402955E+00
 5.7533736E+00 9.4729244E-01 1.9422340E+00
 5.8319971E+00 9.1949481E-01 1.9429709E+00
 5.9100721E+00 8.9082124E-01 1.9422092E+00
 5.9871345E+00 8.6136233E-01 1.9396698E+00
 6.0627459E+00 8.3120698E-01 1.9350990E+00
 6.1365340E+00 8.0041440E-01 1.9282636E+00
 6.2082784E+00 7.6899940E-01 1.9189363E+00
 6.2781134E+00 7.3699602E-01 1.9068786E+00
 5.3649684E+00 1.0240568E+00 1.9287500E+00
 5.4414937E+00 1.0000001E+00 1.9314926E+00
 5.5184068E+00 9.7514285E-01 1.9340077E+00
 5.5957804E+00 9.4936186E-01 1.9360684E+00
 5.6735003E+00 9.2265536E-01 1.9374157E+00
 5.7512840E+00 8.9506342E-01 1.9377711E+00
 5.8287432E+00 8.6665114E-01 1.9368489E+00
 5.9054473E+00 8.3750013E-01 1.9343725E+00
 5.9809710E+00 8.0768952E-01 1.9300823E+00
 6.0549347E+00 7.7726583E-01 1.9237352E+00
 6.1270588E+00 7.4621887E-01 1.9150892E+00
 6.1973061E+00 7.1452176E-01 1.9038942E+00
 5.3649684E+00 9.7594335E-01 1.9287499E+00
 5.4412683E+00 9.5122863E-01 1.9302058E+00
 5.5177284E+00 9.2563430E-01 1.9313451E+00
 5.5944179E+00 8.9915569E-01 1.9319367E+00
 5.6712227E+00 8.7184464E-01 1.9317306E+00
 5.7478680E+00 8.4376640E-01 1.9304629E+00
 5.8239861E+00 8.1499492E-01 1.9278662E+00
 5.8991804E+00 7.8559970E-01 1.9236811E+00
 5.9730698E+00 7.5561538E-01 1.9176552E+00
 6.0453186E+00 7.2501030E-01 1.9095323E+00
 6.1157176E+00 6.9370574E-01 1.8990423E+00
 5.3647431E+00 9.2801734E-01 1.9262599E+00
 5.4405978E+00 9.0284630E-01 1.9263760E+00
 5.5163894E+00 8.7673483E-01 1.9260845E+00
 5.5921878E+00 8.4979440E-01 1.9251649E+00
 5.6678855E+00 8.2212443E-01 1.9233827E+00
 5.7432257E+00 7.9380332E-01 1.9204912E+00
 5.8178696E+00 7.6489330E-01 1.9162379E+00
 5.8914499E+00 7.3541770E-01 1.9103669E+00
 5.9635811E+00 7.0532637E-01 1.9026073E+00
 6.0338843E+00 6.7449714E-01 1.8926647E+00
 5.3642983E+00 8.8064652E-01 1.9213369E+00
 5.4394995E+00 8.5522702E-01 1.9200926E+00
 5.5144249E+00 8.2882241E-01 1.9183511E+00
 5.5891506E+00 8.0165318E-01 1.9159153E+00
 5.6635839E+00 7.7385401E-01 1.9125708E+00
 5.7374910E+00 7.4549663E-01 1.9080847E+00
 5.8105475E+00 7.1659657E-01 1.9022045E+00
 5.8823345E+00 6.8708763E-01 1.8946494E+00
 5.9523107E+00 6.5681181E-01 1.8850977E+00
 5.3636452E+00 8.3417792E-01 1.9140916E+00
 5.4380018E+00 8.0871486E-01 1.9114981E+00
 5.5118872E+00 7.8223413E-01 1.9083214E+00
 5.5853908E+00 7.5505017E-01 1.9043974E+00
 5.6584358E+00 7.2731275E-01 1.8995302E+00
 5.7307877E+00 6.9905127E-01 1.8934854E+00
 5.8020244E+00 6.7018928E-01 1.8859790E+00
 5.8714611E+00 6.4053921E-01 1.8766648E+00
 5.3628010E+00 7.8892546E-01 1.9046814E+00
 5.4361448E+00 7.6361175E-01 1.9007793E+00
 5.5088469E+00 7.3724984E-01 1.8962107E+00
 5.5810079E+00 7.1022574E-01 1.8908483E+00
 5.6525347E+00 6.8266542E-01 1.8845001E+00
 5.7230477E+00 6.5450881E-01 1.8768951E+00
 5.7917541E+00 6.2554948E-01 1.8676694E+00
 5.3617879E+00 7.4515946E-01 1.8933011E+00
 5.4339807E+00 7.2016373E-01 1.8881539E+00
 5.5053827E+00 6.9407537E-01 1.8822544E+00
 5.5760620E+00 6.6730637E-01 1.8754995E+00
 5.6457383E+00 6.3991226E-01 1.8676657E+00
 5.7135597E+00 6.1170041E-01 1.8583902E+00
 5.3606375E+00 7.0309882E-01 1.8801712E+00
 5.4315676E+00 6.7854825E-01 1.8738547E+00
 5.5015309E+00 6.5280994E-01 1.8666769E+00
 5.5703583E+00 6.2626308E-01 1.8585222E+00
 5.6371890E+00 5.9884663E-01 1.8490736E+00
 5.3593825E+00 6.6290728E-01 1.8655261E+00
 5.4289269E+00 6.3884636E-01 1.8581018E+00
 5.4970367E+00 6.1338780E-01 1.8496297E+00
 5.5628928E+00 5.8684077E-01 1.8399260E+00
 5.3580334E+00 6.2467038E-01 1.8495912E+00
 5.4258449E+00 6.0101053E-01 1.8410569E+00
 5.4908707E+00 5.7554211E-01 1.8311117E+00
 5.3564530E+00 5.8836388E-01 1.8325516E+00
 5.4211751E+00 5.6469663E-01 1.8226748E+00
 5.3541269E+00 5.5391179E-01 1.8145497E+00
 5.2520029E+00 1.5098043E+00 1.7735742E+00
 5.2116322E+00 1.5342827E+00 1.7562319E+00
 5.1695283E+00 1.5594679E+00 1.7373982E+00
 5.1258505E+00 1.5852360E+00 1.7170286E+00
 5.0807500E+00 1.6114751E+00 1.6950787E+00
 5.0344770E+00 1.6380688E+00 1.6714923E+00
 4.9872757E+00 1.6649028E+00 1.6461938E+00
 4.9394220E+00 1.6918318E+00 1.6191145E+00
 4.8912318E+00 1.7186785E+00 1.5901957E+00
 4.8430529E+00 1.7452300E+00 1.5593981E+00
 4.7952533E+00 1.7712423E+00 1.5267078E+00
 4.7482077E+00 1.7964452E+00 1.4921455E+00
 4.7022833E+00 1.8205523E+00 1.4557738E+00
 4.6578267E+00 1.8432737E+00 1.4177044E+00
 4.6151509E+00 1.8643311E+00 1.3781002E+00
 4.5745253E+00 1.8834739E+00 1.3371750E+00
 4.5361679E+00 1.9004933E+00 1.2951862E+00
 4.5002417E+00 1.9152340E+00 1.2524240E+00
 4.4668555E+00 1.9276007E+00 1.2091977E+00
 4.4360803E+00 1.9375580E+00 1.1658250E+00
 4.4079852E+00 1.9451232E+00 1.1226506E+00
 4.3826313E+00 1.9503636E+00 1.0800159E+00
 4.3601412E+00 1.9533945E+00 1.0384295E+00
 3.6143330E+00 1.0900101E+00 1.7874923E+00
 3.6049683E+00 1.1487034E+00 1.7729023E+00
 3.5987942E+00 1.2088713E+00 1.7550114E+00
 3.5968141E+00 1.2705052E+00 1.7339613E+00
 3.5995849E+00 1.3331740E+00 1.7097027E+00
 3.6075095E+00 1.3962522E+00 1.6822012E+00
 3.6208965E+00 1.4589986E+00 1.6515008E+00
 3.6399508E+00 1.5205953E+00 1.6177490E+00
 3.6647430E+00 1.5801836E+00 1.5812022E+00
 3.6951871E+00 1.6369078E+00 1.5422216E+00
 3.7310305E+00 1.6899652E+00 1.5012625E+00
 3.7718579E+00 1.7386539E+00 1.4588556E+00
 3.8171093E+00 1.7824166E+00 1.4155819E+00
 3.8661104E+00 1.8208744E+00 1.3720425E+00
 3.9181136E+00 1.8538465E+00 1.3288264E+00
 3.9723439E+00 1.8813533E+00 1.2864798E+00
 4.0280466E+00 1.9036034E+00 1.2454791E+00
 4.0845314E+00 1.9209655E+00 1.2062124E+00
 4.1411988E+00 1.9339274E+00 1.1689700E+00
 4.1975580E+00 1.9430518E+00 1.1339289E+00
 4.2531888E+00 1.9489371E+00 1.1010740E+00
 4.3076112E+00 1.9521885E+00 1.0699947E+00
 3.6673935E+00 1.1254408E+00 1.8125099E+00
 3.6611921E+00 1.1859217E+00 1.7976001E+00
 3.6580579E+00 1.2469620E+00 1.7792001E+00
 3.6591771E+00 1.3088911E+00 1.7575036E+00
 3.6651233E+00 1.3713775E+00 1.7324768E+00
 3.6762430E+00 1.4338030E+00 1.7040928E+00
 3.6927676E+00 1.4954080E+00 1.6724176E+00
 3.7148130E+00 1.5553575E+00 1.6376345E+00
 3.7423553E+00 1.6127961E+00 1.6000436E+00
 3.7752135E+00 1.6669004E+00 1.5600544E+00
 3.8130478E+00 1.7169302E+00 1.5181688E+00
 3.8553711E+00 1.7622757E+00 1.4749586E+00
 3.9015753E+00 1.8024960E+00 1.4310354E+00
 3.9509682E+00 1.8373438E+00 1.3870181E+00
 4.0028174E+00 1.8667748E+00 1.3434982E+00
 4.0563978E+00 1.8909388E+00 1.3010097E+00
 4.1110376E+00 1.9101557E+00 1.2600032E+00
 4.1661579E+00 1.9248781E+00 1.2208247E+00
 4.2212975E+00 1.9356494E+00 1.1836738E+00
 4.2760664E+00 1.9430668E+00 1.1484972E+00
 4.3300757E+00 1.9477647E+00 1.1145744E+00
 3.7253686E+00 1.1595791E+00 1.8348274E+00
 3.7221438E+00 1.2208203E+00 1.8193407E+00
 3.7220251E+00 1.2822474E+00 1.8002722E+00
 3.7262104E+00 1.3441251E+00 1.7777750E+00
 3.7352503E+00 1.4061174E+00 1.7518184E+00
 3.7494285E+00 1.4675840E+00 1.7223970E+00
 3.7688975E+00 1.5277444E+00 1.6896124E+00
 3.7936856E+00 1.5857599E+00 1.6536936E+00
 3.8236782E+00 1.6407967E+00 1.6149929E+00
 3.8586083E+00 1.6920829E+00 1.5739727E+00
 3.8980624E+00 1.7389603E+00 1.5311839E+00
 3.9415005E+00 1.7809276E+00 1.4872375E+00
 3.9882893E+00 1.8176710E+00 1.4427716E+00
 4.0377431E+00 1.8490792E+00 1.3984145E+00
 4.0891697E+00 1.8752398E+00 1.3547502E+00
 4.1419177E+00 1.8964194E+00 1.3122872E+00
 4.1954189E+00 1.9130294E+00 1.2714285E+00
 4.2492151E+00 1.9255858E+00 1.2324265E+00
 4.3029272E+00 1.9346812E+00 1.1952359E+00
 4.3561090E+00 1.9409705E+00 1.1591963E+00
 3.7879729E+00 1.1927428E+00 1.8538518E+00
 3.7876537E+00 1.2541572E+00 1.8375612E+00
 3.7905342E+00 1.3154793E+00 1.8176389E+00
 3.7977590E+00 1.3768673E+00 1.7941836E+00
 3.8098084E+00 1.4379299E+00 1.7671668E+00
 3.8268910E+00 1.4980024E+00 1.7366143E+00
 3.8490760E+00 1.5562972E+00 1.7026739E+00
 3.8763057E+00 1.6119930E+00 1.6656280E+00
 3.9083824E+00 1.6643023E+00 1.6258848E+00
 3.9449671E+00 1.7125297E+00 1.5839592E+00
 3.9855930E+00 1.7561205E+00 1.5404461E+00
 4.0296930E+00 1.7946973E+00 1.4959874E+00
 4.0766367E+00 1.8280807E+00 1.4512341E+00
 4.1257734E+00 1.8562911E+00 1.4068090E+00
 4.1764784E+00 1.8795346E+00 1.3632701E+00
 4.2281961E+00 1.8981709E+00 1.3210768E+00
 4.2804730E+00 1.9126786E+00 1.2805348E+00
 4.3329234E+00 1.9236291E+00 1.2416684E+00
 4.3850701E+00 1.9316873E+00 1.2039101E+00
 3.8549210E+00 1.2247284E+00 1.8691604E+00
 3.8574631E+00 1.2858473E+00 1.8518728E+00
 3.8633174E+00 1.3466011E+00 1.8309381E+00