# TIME = 8.800000
variables = x, y, z
zone N=5762 E=11520 F=FEPOINT ET=TRIANGLE
 5.7345920E+00 1.4882601E+00 1.7896665E+00
 5.7345920E+00 1.4882601E+00 2.1033403E-01
 5.7345922E+00 5.1174065E-01 1.7896658E+00
 5.7345923E+00 5.1174084E-01 2.1033491E-01
 4.0229808E+00 1.0000002E+00 1.7740619E+00
 7.4349136E+00 1.0000002E+00 1.7565319E+00
 4.0229807E+00 1.0000002E+00 2.2593830E-01
 7.4349138E+00 1.0000002E+00 2.4346820E-01
 4.7755071E+00 1.9557251E+00 1.0000002E+00
 4.7755072E+00 4.4275229E-02 1.0000002E+00
 6.6825014E+00 1.9445832E+00 1.0000002E+00
 6.6825015E+00 5.5416535E-02 1.0000002E+00
 5.6738674E+00 1.4783232E+00 1.7937690E+00
 5.6067142E+00 1.4675138E+00 1.7986252E+00
 5.5364723E+00 1.4565398E+00 1.8041304E+00
 5.4633972E+00 1.4454218E+00 1.8104825E+00
 5.3877437E+00 1.4341873E+00 1.8178235E+00
 5.3098155E+00 1.4227843E+00 1.8262699E+00
 5.2299786E+00 1.4111139E+00 1.8358480E+00
 5.1486991E+00 1.3990100E+00 1.8464623E+00
 5.0665091E+00 1.3862395E+00 1.8578633E+00
 4.9839655E+00 1.3725102E+00 1.8696345E+00
 4.9016025E+00 1.3574948E+00 1.8812040E+00
 4.8198931E+00 1.3408627E+00 1.8918817E+00
 4.7392310E+00 1.3223183E+00 1.9009158E+00
 4.6599380E+00 1.3016367E+00 1.9075610E+00
 4.5823002E+00 1.2786905E+00 1.9111450E+00
 4.5066198E+00 1.2534653E+00 1.9111259E+00
 4.4332589E+00 1.2260592E+00 1.9071302E+00
 4.3626454E+00 1.1966714E+00 1.8989709E+00
 4.2952416E+00 1.1655805E+00 1.8866447E+00
 4.2314938E+00 1.1331197E+00 1.8703118E+00
 4.1718195E+00 1.0996777E+00 1.8502791E+00
 4.1165807E+00 1.0656956E+00 1.8269644E+00
 4.0662354E+00 1.0318144E+00 1.8009822E+00
 5.6669299E+00 5.5601658E-01 1.8132586E+00
 5.5975946E+00 5.6879604E-01 1.8186128E+00
 5.5256752E+00 5.8127740E-01 1.8243843E+00
 5.4514392E+00 5.9369943E-01 1.8308818E+00
 5.3749161E+00 6.0627194E-01 1.8383553E+00
 5.2963735E+00 6.1911853E-01 1.8469232E+00
 5.2161824E+00 6.3238781E-01 1.8565930E+00
 5.1348165E+00 6.4626115E-01 1.8672263E+00
 5.0528133E+00 6.6097025E-01 1.8785227E+00
 4.9707258E+00 6.7678663E-01 1.8900158E+00
 4.8890744E+00 6.9399888E-01 1.9010945E+00
 4.8083110E+00 7.1288065E-01 1.9110470E+00
 4.7288070E+00 7.3365775E-01 1.9191221E+00
 4.6508660E+00 7.5648010E-01 1.9245975E+00
 4.5747624E+00 7.8140410E-01 1.9268434E+00
 4.5007906E+00 8.0838613E-01 1.9253725E+00
 4.4292972E+00 8.3728709E-01 1.9198704E+00
 4.3606687E+00 8.6788246E-01 1.9102006E+00
 4.2952811E+00 8.9987201E-01 1.8963857E+00
 4.2334112E+00 9.3288548E-01 1.8785565E+00
 4.1751311E+00 9.6648199E-01 1.8568697E+00
 4.1201534E+00 1.0000002E+00 1.8313755E+00
 5.6644626E+00 5.9126469E-01 1.8314444E+00
 5.5923472E+00 6.0603931E-01 1.8370746E+00
 5.5185964E+00 6.2006035E-01 1.8429241E+00
 5.4428890E+00 6.3394115E-01 1.8494644E+00
 5.3652895E+00 6.4798005E-01 1.8569486E+00
 5.2859693E+00 6.6239761E-01 1.8655045E+00
 5.2052849E+00 6.7737231E-01 1.8751092E+00
 5.1237011E+00 6.9309976E-01 1.8855850E+00
 5.0417540E+00 7.0980422E-01 1.8965837E+00
 4.9599890E+00 7.2773294E-01 1.9075953E+00
 4.8789117E+00 7.4713255E-01 1.9179755E+00
 4.7989536E+00 7.6822025E-01 1.9269976E+00
 4.7204650E+00 7.9115689E-01 1.9339166E+00
 4.6437299E+00 8.1602758E-01 1.9380369E+00
 4.5690054E+00 8.4283245E-01 1.9387705E+00
 4.4965594E+00 8.7148645E-01 1.9356792E+00
 4.4266814E+00 9.0182317E-01 1.9284897E+00
 4.3596330E+00 9.3359611E-01 1.9170762E+00
 4.2955426E+00 9.6647040E-01 1.9014028E+00
 4.2342689E+00 1.0000002E+00 1.8814229E+00
 4.1751310E+00 1.0335184E+00 1.8568698E+00
 5.6628217E+00 6.2815526E-01 1.8485369E+00
 5.5889155E+00 6.4449201E-01 1.8540557E+00
 5.5135328E+00 6.6004993E-01 1.8598134E+00
 5.4365156E+00 6.7542279E-01 1.8662356E+00
 5.3578640E+00 6.9101024E-01 1.8735851E+00
 5.2777679E+00 7.0707073E-01 1.8819658E+00
 5.1965701E+00 7.2381107E-01 1.8913259E+00
 5.1147407E+00 7.4143031E-01 1.9014465E+00
 5.0328152E+00 7.6014143E-01 1.9119367E+00
 4.9513324E+00 7.8016289E-01 1.9222483E+00
 4.8707833E+00 8.0169785E-01 1.9317112E+00
 4.7915791E+00 8.2490939E-01 1.9395915E+00
 4.7140471E+00 8.4990097E-01 1.9451564E+00
 4.6384469E+00 8.7670466E-01 1.9477400E+00
 4.5650013E+00 9.0527777E-01 1.9467935E+00
 4.4939142E+00 9.3550208E-01 1.9419141E+00
 4.4253424E+00 9.6717721E-01 1.9328382E+00
 4.3593057E+00 1.0000002E+00 1.9193940E+00
 4.2955426E+00 1.0335300E+00 1.9014030E+00
 4.2334112E+00 1.0671150E+00 1.8785567E+00
 5.6615602E+00 6.6672645E-01 1.8643841E+00
 5.5862779E+00 6.8442774E-01 1.8695641E+00
 5.5095962E+00 7.0141427E-01 1.8750311E+00
 5.4314523E+00 7.1827400E-01 1.8811698E+00
 5.3518918E+00 7.3542463E-01 1.8882132E+00
 5.2711202E+00 7.5314925E-01 1.8962369E+00
 5.1894974E+00 7.7166232E-01 1.9051532E+00
 5.1075017E+00 7.9116012E-01 1.9147042E+00
 5.0256712E+00 8.1183746E-01 1.9244606E+00
 4.9445368E+00 8.3388093E-01 1.9338436E+00
 4.8645729E+00 8.5745041E-01 1.9421665E+00
 4.7861680E+00 8.8266006E-01 1.9486970E+00
 4.7096209E+00 9.0956535E-01 1.9527209E+00
 4.6351527E+00 9.3815663E-01 1.9536028E+00
 4.5629206E+00 9.6835497E-01 1.9508254E+00
 4.4930048E+00 1.0000002E+00 1.9440006E+00
 4.4253424E+00 1.0328233E+00 1.9328383E+00
 4.3596329E+00 1.0664044E+00 1.9170765E+00
 4.2952810E+00 1.1001285E+00 1.8963860E+00
 5.6604920E+00 7.0700251E-01 1.8788297E+00
 5.5840598E+00 7.2591449E-01 1.8834892E+00
 5.5063096E+00 7.4423651E-01 1.8884910E+00
 5.4272427E+00 7.6253547E-01 1.8941742E+00
 5.3469547E+00 7.8122359E-01 1.9007323E+00
 5.2656807E+00 8.0058408E-01 1.9082049E+00
 5.1837997E+00 8.2082830E-01 1.9164675E+00
 5.1018009E+00 8.4214049E-01 1.9252261E+00
 5.0202215E+00 8.6469290E-01 1.9340194E+00
 4.9395810E+00 8.8863876E-01 1.9422475E+00
 4.8603327E+00 9.1409796E-01 1.9492174E+00
 4.7828355E+00 9.4114332E-01 1.9542068E+00
 4.7073483E+00 9.6979235E-01 1.9565247E+00
 4.6340285E+00 1.0000003E+00 1.9555637E+00
 4.5629206E+00 1.0316456E+00 1.9508255E+00
 4.4939142E+00 1.0644984E+00 1.9419144E+00
 4.4266813E+00 1.0981773E+00 1.9284901E+00
 4.3606686E+00 1.1321181E+00 1.9102012E+00
 5.6595391E+00 7.4891460E-01 1.8916890E+00
 5.5821247E+00 7.6891190E-01 1.8956746E+00
 5.5034995E+00 7.8847963E-01 1.9000527E+00
 5.4237170E+00 8.0814945E-01 1.9051119E+00
 5.3429136E+00 8.2831365E-01 1.9110030E+00
 5.2613522E+00 8.4924112E-01 1.9177272E+00
 5.1794288E+00 8.7113014E-01 1.9251249E+00
 5.0976379E+00 8.9414737E-01 1.9328710E+00
 5.0165105E+00 9.1843991E-01 1.9404808E+00
 4.9365475E+00 9.4412979E-01 1.9473431E+00
 4.8581734E+00 9.7130305E-01 1.9527686E+00
 4.7817076E+00 1.0000003E+00 1.9560514E+00
 4.7073484E+00 1.0302083E+00 1.9565248E+00
 4.6351527E+00 1.0618439E+00 1.9536030E+00
 4.5650014E+00 1.0947228E+00 1.9467940E+00
 4.4965594E+00 1.1285141E+00 1.9356798E+00
 4.4292971E+00 1.1627135E+00 1.9198711E+00
 5.6586932E+00 7.9231996E-01 1.9027685E+00
 5.5804568E+00 8.1329291E-01 1.9059479E+00
 5.5011520E+00 8.3400963E-01 1.9095548E+00
 5.4208722E+00 8.5496207E-01 1.9138278E+00
 5.3397846E+00 8.7651015E-01 1.9188739E+00
 5.2581736E+00 8.9889933E-01 1.9246572E+00
 5.1764447E+00 9.2230863E-01 1.9309873E+00
 5.0950901E+00 9.4688421E-01 1.9375145E+00
 5.0146253E+00 9.7274946E-01 1.9437402E+00
 4.9355245E+00 1.0000003E+00 1.9490510E+00
 4.8581735E+00 1.0286976E+00 1.9527686E+00
 4.7828356E+00 1.0588573E+00 1.9542069E+00
 4.7096210E+00 1.0904353E+00 1.9527212E+00
 4.6384470E+00 1.1232959E+00 1.9477405E+00
 4.5690055E+00 1.1571682E+00 1.9387712E+00
 4.5007906E+00 1.1916145E+00 1.9253734E+00
 5.6579739E+00 8.3702568E-01 1.9118855E+00
 5.5790923E+00 8.5886050E-01 1.9141413E+00
 5.4993167E+00 8.8061708E-01 1.9168413E+00
 5.4187693E+00 9.0274122E-01 1.9201750E+00
 5.3376397E+00 9.2555238E-01 1.9242077E+00
 5.2562237E+00 9.4926637E-01 1.9288705E+00
 5.1749277E+00 9.7404014E-01 1.9339476E+00
 5.0942313E+00 1.0000004E+00 1.9390724E+00
 5.0146254E+00 1.0272513E+00 1.9437402E+00
 4.9365475E+00 1.0558709E+00 1.9473431E+00
 4.8603327E+00 1.0859027E+00 1.9492175E+00
 4.7861682E+00 1.1173406E+00 1.9486972E+00
 4.7140473E+00 1.1500997E+00 1.9451569E+00
 4.6437300E+00 1.1839731E+00 1.9380376E+00
 4.5747625E+00 1.2185966E+00 1.9268443E+00
 5.6574072E+00 8.8279478E-01 1.9188788E+00
 5.5780781E+00 9.0536511E-01 1.9201087E+00
 5.4980537E+00 9.2803480E-01 1.9217795E+00
 5.4174762E+00 9.5119684E-01 1.9240346E+00
 5.3365476E+00 9.7512426E-01 1.9269020E+00
 5.2555660E+00 1.0000004E+00 1.9302846E+00
 5.1749277E+00 1.0259606E+00 1.9339477E+00
 5.0950901E+00 1.0531166E+00 1.9375147E+00
 5.0165106E+00 1.0815609E+00 1.9404810E+00
 4.9395811E+00 1.1113620E+00 1.9422476E+00
 4.8645731E+00 1.1425503E+00 1.9421667E+00
 4.7915793E+00 1.1750913E+00 1.9395919E+00
 4.7204652E+00 1.2088438E+00 1.9339174E+00
 4.6508662E+00 1.2435206E+00 1.9245985E+00
 5.6570162E+00 9.2935281E-01 1.9236181E+00
 5.5774532E+00 9.5251729E-01 1.9237369E+00
 5.4974098E+00 9.7595506E-01 1.9242737E+00
 5.4170397E+00 1.0000003E+00 1.9253300E+00
 5.3365476E+00 1.0248764E+00 1.9269021E+00
 5.2562236E+00 1.0507344E+00 1.9288707E+00
 5.1764447E+00 1.0776921E+00 1.9309876E+00
 5.0976379E+00 1.1058534E+00 1.9328713E+00
 5.0202216E+00 1.1353079E+00 1.9340197E+00
 4.9445369E+00 1.1661198E+00 1.9338438E+00
 4.8707836E+00 1.1983029E+00 1.9317116E+00
 4.7989540E+00 1.2317804E+00 1.9269983E+00
 4.7288073E+00 1.2663430E+00 1.9191230E+00
 5.6568167E+00 9.7639646E-01 1.9260115E+00
 5.5772421E+00 1.0000003E+00 1.9249544E+00
 5.4974098E+00 1.0240456E+00 1.9242738E+00
 5.4174762E+00 1.0488038E+00 1.9240348E+00
 5.3376396E+00 1.0744483E+00 1.9242080E+00
 5.2581735E+00 1.1011014E+00 1.9246576E+00
 5.1794287E+00 1.1288706E+00 1.9251255E+00
 5.1018009E+00 1.1578603E+00 1.9252266E+00
 5.0256712E+00 1.1881633E+00 1.9244611E+00
 4.9513327E+00 1.2198379E+00 1.9222487E+00
 4.8789121E+00 1.2528681E+00 1.9179761E+00
 4.8083114E+00 1.2871201E+00 1.9110479E+00
 5.6568166E+00 1.0236041E+00 1.9260116E+00
 5.5774531E+00 1.0474833E+00 1.9237370E+00
 5.4980536E+00 1.0719658E+00 1.9217798E+00
 5.4187692E+00 1.0972595E+00 1.9201754E+00
 5.3397845E+00 1.1234906E+00 1.9188744E+00
 5.2613521E+00 1.1507597E+00 1.9177278E+00
 5.1837997E+00 1.1791725E+00 1.9164683E+00
 5.1075018E+00 1.2088407E+00 1.9147049E+00
 5.0328153E+00 1.2398594E+00 1.9119374E+00
 4.9599893E+00 1.2722678E+00 1.9075960E+00
 4.8890748E+00 1.3060018E+00 1.9010954E+00
 5.6570161E+00 1.0706477E+00 1.9236183E+00
 5.5780780E+00 1.0946355E+00 1.9201090E+00
 5.4993165E+00 1.1193836E+00 1.9168418E+00
 5.4208720E+00 1.1450386E+00 1.9138284E+00
 5.3429135E+00 1.1716871E+00 1.9110038E+00
 5.2656805E+00 1.1994167E+00 1.9082057E+00
 5.1894973E+00 1.2283385E+00 1.9051541E+00
 5.1147408E+00 1.2585705E+00 1.9014475E+00
 5.0417541E+00 1.2901966E+00 1.8965846E+00
 4.9707262E+00 1.3232142E+00 1.8900168E+00
 5.6574071E+00 1.1172058E+00 1.9188792E+00
 5.5790921E+00 1.1411401E+00 1.9141418E+00
 5.5011518E+00 1.1659911E+00 1.9095555E+00
 5.4237168E+00 1.1918513E+00 1.9051127E+00
 5.3469545E+00 1.2187772E+00 1.9007333E+00
 5.2711200E+00 1.2468516E+00 1.8962380E+00
 5.1965701E+00 1.2761898E+00 1.8913271E+00
 5.1237012E+00 1.3069012E+00 1.8855861E+00
 5.0528135E+00 1.3390306E+00 1.8785238E+00
 5.6579737E+00 1.1629749E+00 1.9118859E+00
 5.5804566E+00 1.1867077E+00 1.9059485E+00
 5.5034993E+00 1.2115211E+00 1.9000535E+00
 5.4272424E+00 1.2374653E+00 1.8941752E+00
 5.3518916E+00 1.2645763E+00 1.8882143E+00
 5.2777678E+00 1.2929302E+00 1.8819670E+00
 5.2052848E+00 1.3226287E+00 1.8751106E+00
 5.1348166E+00 1.3537398E+00 1.8672277E+00
 5.6586930E+00 1.2076807E+00 1.9027690E+00
 5.5821245E+00 1.2310888E+00 1.8956753E+00
 5.5063093E+00 1.2557643E+00 1.8884920E+00
 5.4314520E+00 1.2817269E+00 1.8811709E+00
 5.3578638E+00 1.3089907E+00 1.8735863E+00
 5.2859692E+00 1.3376034E+00 1.8655058E+00
 5.2161824E+00 1.3676132E+00 1.8565944E+00
 5.6595388E+00 1.2510861E+00 1.8916897E+00
 5.5840595E+00 1.2740863E+00 1.8834900E+00
 5.5095960E+00 1.2985866E+00 1.8750322E+00
 5.4365153E+00 1.3245781E+00 1.8662368E+00
 5.3652893E+00 1.3520210E+00 1.8569499E+00
 5.2963733E+00 1.3808825E+00 1.8469247E+00
 5.6604918E+00 1.2929982E+00 1.8788304E+00
 5.5862777E+00 1.3155731E+00 1.8695650E+00
 5.5135326E+00 1.3399510E+00 1.8598145E+00
 5.4428887E+00 1.3660598E+00 1.8494656E+00
 5.3749159E+00 1.3937291E+00 1.8383568E+00
 5.6615599E+00 1.3332743E+00 1.8643849E+00
 5.5889152E+00 1.3555088E+00 1.8540566E+00
 5.5185962E+00 1.3799406E+00 1.8429253E+00
 5.4514390E+00 1.4063016E+00 1.8308831E+00
 5.6628214E+00 1.3718455E+00 1.8485378E+00
 5.5923469E+00 1.3939616E+00 1.8370756E+00
 5.5256750E+00 1.4187236E+00 1.8243854E+00
 5.6644624E+00 1.4087361E+00 1.8314453E+00
 5.5975944E+00 1.4312049E+00 1.8186138E+00
 5.6669297E+00 1.4439843E+00 1.8132595E+00
 5.7348144E+00 1.4587947E+00 1.8071302E+00
 5.7351029E+00 1.4253058E+00 1.8252830E+00
 5.7353145E+00 1.3898641E+00 1.8426244E+00
 5.7354773E+00 1.3524449E+00 1.8589581E+00
 5.7356028E+00 1.3131452E+00 1.8740598E+00
 5.7357041E+00 1.2721024E+00 1.8877015E+00
 5.7357885E+00 1.2294604E+00 1.8996740E+00
 5.7358590E+00 1.1854024E+00 1.9097810E+00
 5.7359157E+00 1.1401522E+00 1.9178458E+00
 5.7359575E+00 1.0939705E+00 1.9237204E+00
 5.7359832E+00 1.0471484E+00 1.9272920E+00
 5.7359919E+00 1.0000002E+00 1.9284905E+00
 5.7359833E+00 9.5285207E-01 1.9272919E+00
 5.7359576E+00 9.0603004E-01 1.9237201E+00
 5.7359158E+00 8.5984829E-01 1.9178455E+00
 5.7358591E+00 8.1459819E-01 1.9097805E+00
 5.7357887E+00 7.7054018E-01 1.8996735E+00
 5.7357043E+00 7.2789826E-01 1.8877009E+00
 5.7356030E+00 6.8685550E-01 1.8740592E+00
 5.7354775E+00 6.4755579E-01 1.8589574E+00
 5.7353147E+00 6.1013658E-01 1.8426237E+00
 5.7351032E+00 5.7469491E-01 1.8252823E+00
 5.7348146E+00 5.4120608E-01 1.8071295E+00
 5.7953884E+00 5.1969325E-01 1.7970179E+00
 5.8622913E+00 5.2850063E-01 1.8053250E+00
 5.9318824E+00 5.3773859E-01 1.8140565E+00
 6.0038391E+00 5.4755098E-01 1.8231125E+00
 6.0779386E+00 5.5804779E-01 1.8323249E+00
 6.1539542E+00 5.6937116E-01 1.8415202E+00
 6.2316858E+00 5.8165856E-01 1.8505076E+00
 6.3108870E+00 5.9504253E-01 1.8590848E+00
 6.3912677E+00 6.0964726E-01 1.8670405E+00
 6.4724732E+00 6.2558669E-01 1.8741532E+00
 6.5540757E+00 6.4296418E-01 1.8801850E+00
 6.6355811E+00 6.6187131E-01 1.8848766E+00
 6.7164543E+00 6.8238492E-01 1.8879459E+00
 6.7961569E+00 7.0456056E-01 1.8890958E+00
 6.8741804E+00 7.2842401E-01 1.8880294E+00
 6.9500641E+00 7.5396250E-01 1.8844731E+00
 7.0233958E+00 7.8111886E-01 1.8781988E+00
 7.0938026E+00 8.0978972E-01 1.8690449E+00
 7.1609440E+00 8.3982833E-01 1.8569299E+00
 7.2245124E+00 8.7105253E-01 1.8418585E+00
 7.2842071E+00 9.0322564E-01 1.8239316E+00
 7.3397478E+00 9.3604156E-01 1.8033326E+00
 7.3907118E+00 9.6894818E-01 1.7804233E+00
 5.8027400E+00 1.4461152E+00 1.8169502E+00
 5.8716767E+00 1.4352311E+00 1.8259077E+00
 5.9427784E+00 1.4243013E+00 1.8349881E+00
 6.0157375E+00 1.4129603E+00 1.8441756E+00
 6.0905564E+00 1.4009068E+00 1.8534092E+00
 6.1670765E+00 1.3879564E+00 1.8625282E+00
 6.2451045E+00 1.3739568E+00 1.8713415E+00
 6.3243996E+00 1.3587870E+00 1.8796368E+00
 6.4046607E+00 1.3423431E+00 1.8871914E+00
 6.4855174E+00 1.3245355E+00 1.8937730E+00
 6.5665262E+00 1.3052874E+00 1.8991349E+00
 6.6471840E+00 1.2845357E+00 1.9030133E+00
 6.7269577E+00 1.2622350E+00 1.9051269E+00
 6.8053226E+00 1.2383621E+00 1.9051873E+00
 6.8817916E+00 1.2129222E+00 1.9029158E+00
 6.9559298E+00 1.1859547E+00 1.8980649E+00
 7.0273554E+00 1.1575363E+00 1.8904378E+00
 7.0957431E+00 1.1277864E+00 1.8799011E+00
 7.1608353E+00 1.0968729E+00 1.8663852E+00
 7.2224879E+00 1.0650246E+00 1.8498630E+00
 7.2807493E+00 1.0325468E+00 1.8302992E+00
 7.3360172E+00 1.0000002E+00 1.8075469E+00
 5.8056868E+00 1.4108298E+00 1.8353588E+00
 5.8772698E+00 1.3978468E+00 1.8448017E+00
 5.9500282E+00 1.3852105E+00 1.8540628E+00
 6.0242860E+00 1.3722234E+00 1.8633054E+00
 6.1000326E+00 1.3585250E+00 1.8724662E+00
 6.1772195E+00 1.3438696E+00 1.8814051E+00
 6.2556851E+00 1.3281039E+00 1.8899228E+00
 6.3352017E+00 1.3111165E+00 1.8977990E+00
 6.4154643E+00 1.2928236E+00 1.9048011E+00
 6.4960900E+00 1.2731581E+00 1.9106888E+00
 6.5766228E+00 1.2520686E+00 1.9152099E+00
 6.6565541E+00 1.2295191E+00 1.9180990E+00
 6.7353568E+00 1.2054919E+00 1.9190792E+00
 6.8125233E+00 1.1799902E+00 1.9178736E+00
 6.8875943E+00 1.1530411E+00 1.9142220E+00
 6.9601769E+00 1.1246988E+00 1.9078987E+00
 7.0299594E+00 1.0950507E+00 1.8987232E+00
 7.0967465E+00 1.0642307E+00 1.8865546E+00
 7.1605285E+00 1.0324429E+00 1.8712597E+00
 7.2215865E+00 1.0000002E+00 1.8526463E+00
 7.2807493E+00 9.6745360E-01 1.8302992E+00
 5.8077096E+00 1.3738195E+00 1.8526450E+00
 5.8809863E+00 1.3591339E+00 1.8621365E+00
 5.9552417E+00 1.3447960E+00 1.8714050E+00
 6.0306659E+00 1.3301468E+00 1.8805441E+00
 6.1073352E+00 1.3147524E+00 1.8894997E+00
 6.1852028E+00 1.2983587E+00 1.8981163E+00
 6.2641340E+00 1.2808100E+00 1.9061873E+00
 6.3439012E+00 1.2620103E+00 1.9134819E+00
 6.4241921E+00 1.2418942E+00 1.9197601E+00
 6.5046119E+00 1.2204172E+00 1.9247761E+00
 6.5846952E+00 1.1975515E+00 1.9282756E+00
 6.6639330E+00 1.1732854E+00 1.9299951E+00
 6.7418098E+00 1.1476235E+00 1.9296652E+00
 6.8178439E+00 1.1205875E+00 1.9270221E+00
 6.8916209E+00 1.0922173E+00 1.9218210E+00
 6.9628254E+00 1.0625782E+00 1.9138459E+00
 7.0312879E+00 1.0317776E+00 1.9029044E+00
 7.0970607E+00 1.0000002E+00 1.8887987E+00
 7.1605285E+00 9.6755746E-01 1.8712597E+00
 7.2224879E+00 9.3497573E-01 1.8498631E+00
 5.8092522E+00 1.3350857E+00 1.8686644E+00
 5.8838343E+00 1.3188631E+00 1.8779567E+00
 5.9592863E+00 1.3029217E+00 1.8870183E+00
 6.0357238E+00 1.2866230E+00 1.8958847E+00
 6.1131978E+00 1.2695389E+00 1.9044683E+00
 6.1916649E+00 1.2514155E+00 1.9125955E+00
 6.2709856E+00 1.2321113E+00 1.9200451E+00
 6.3509274E+00 1.2115468E+00 1.9265780E+00
 6.4311676E+00 1.1896771E+00 1.9319486E+00
 6.5113017E+00 1.1664790E+00 1.9359090E+00
 6.5908606E+00 1.1419459E+00 1.9382064E+00
 6.6693425E+00 1.1160854E+00 1.9385830E+00
 6.7462539E+00 1.0889173E+00 1.9367792E+00
 6.8211558E+00 1.0604739E+00 1.9325430E+00
 6.8937095E+00 1.0308056E+00 1.9256367E+00
 6.9637344E+00 1.0000002E+00 1.9158354E+00
 7.0312879E+00 9.6822278E-01 1.9029045E+00
 7.0967465E+00 9.3576967E-01 1.8865547E+00
 7.1608353E+00 9.0312750E-01 1.8663853E+00
 5.8105350E+00 1.2946186E+00 1.8832660E+00
 5.8862078E+00 1.2769900E+00 1.8921609E+00
 5.9626471E+00 1.2595267E+00 1.9008270E+00
 6.0399164E+00 1.2416289E+00 1.9092405E+00
 6.1180357E+00 1.2228952E+00 1.9172742E+00
 6.1969477E+00 1.2030933E+00 1.9247303E+00
 6.2765036E+00 1.1821023E+00 1.9313742E+00
 6.3564615E+00 1.1598637E+00 1.9369596E+00
 6.4364900E+00 1.1363529E+00 1.9412391E+00
 6.5161806E+00 1.1115661E+00 1.9439664E+00
 6.5950688E+00 1.0855134E+00 1.9448942E+00
 6.6726715E+00 1.0582145E+00 1.9437729E+00
 6.7485333E+00 1.0296969E+00 1.9403527E+00
 6.8222849E+00 1.0000002E+00 1.9343882E+00
 6.8937095E+00 9.6919483E-01 1.9256367E+00
 6.9628254E+00 9.3742220E-01 1.9138459E+00
 7.0299594E+00 9.0494967E-01 1.8987233E+00
 7.0957431E+00 8.7221399E-01 1.8799012E+00
 5.8116602E+00 1.2524943E+00 1.8962664E+00
 5.8882636E+00 1.2335674E+00 1.9045941E+00
 5.9655088E+00 1.2146630E+00 1.9126907E+00
 6.0434197E+00 1.1952359E+00 1.9204739E+00
 6.1219906E+00 1.1749251E+00 1.9277769E+00
 6.2011491E+00 1.1535315E+00 1.9343791E+00
 6.2807365E+00 1.1309607E+00 1.9400347E+00
 6.3605034E+00 1.1071765E+00 1.9444942E+00
 6.4401152E+00 1.0821734E+00 1.9475117E+00
 6.5191673E+00 1.0559624E+00 1.9488465E+00
 6.5972113E+00 1.0285633E+00 1.9482592E+00
 6.6737977E+00 1.0000002E+00 1.9455091E+00
 6.7485333E+00 9.7030348E-01 1.9403527E+00
 6.8211558E+00 9.3952646E-01 1.9325430E+00
 6.8916209E+00 9.0778304E-01 1.9218210E+00
 6.9601770E+00 8.7530162E-01 1.9078988E+00
 7.0273554E+00 8.4246405E-01 1.8904379E+00
 5.8126487E+00 1.2088590E+00 1.9074706E+00
 5.8900278E+00 1.1887300E+00 1.9150805E+00
 5.9678937E+00 1.1684748E+00 1.9224442E+00
 6.0462425E+00 1.1476085E+00 1.9294259E+00
 6.1250504E+00 1.1258221E+00 1.9358234E+00
 6.2042334E+00 1.1029560E+00 1.9413971E+00
 6.2836263E+00 1.0789450E+00 1.9458945E+00
 6.3629775E+00 1.0537743E+00 1.9490667E+00
 6.4419571E+00 1.0274530E+00 1.9506733E+00
 6.5201745E+00 1.0000002E+00 1.9504812E+00
 6.5972113E+00 9.7143704E-01 1.9482592E+00
 6.6726715E+00 9.4178588E-01 1.9437729E+00
 6.7462539E+00 9.1108305E-01 1.9367793E+00
 6.8178439E+00 8.7941291E-01 1.9270222E+00
 6.8875943E+00 8.4695931E-01 1.9142221E+00
 6.9559298E+00 8.1404570E-01 1.8980650E+00
 5.8134849E+00 1.1639084E+00 1.9166926E+00
 5.8914678E+00 1.1426805E+00 1.9234469E+00
 5.9697558E+00 1.1211796E+00 1.9299254E+00
 6.0483273E+00 1.0989879E+00 1.9359452E+00
 6.1271468E+00 1.0758547E+00 1.9412750E+00
 6.2061250E+00 1.0516636E+00 1.9456621E+00
 6.2850953E+00 1.0263779E+00 1.9488519E+00
 6.3638116E+00 1.0000002E+00 1.9506000E+00
 6.4419571E+00 9.7254743E-01 1.9506733E+00
 6.5191673E+00 9.4403797E-01 1.9488466E+00
 6.5950689E+00 9.1448699E-01 1.9448942E+00
 6.6693425E+00 8.8391498E-01 1.9385830E+00
 6.7418098E+00 8.5237686E-01 1.9296653E+00
 6.8125233E+00 8.2001020E-01 1.9178737E+00
 6.8817916E+00 7.8707812E-01 1.9029159E+00
 5.8141418E+00 1.1178820E+00 1.9237680E+00
 5.8925370E+00 1.0956741E+00 1.9295420E+00
 5.9710363E+00 1.0730524E+00 1.9349965E+00
 6.0496087E+00 1.0496726E+00 1.9399095E+00
 6.1282139E+00 1.0253464E+00 1.9440283E+00
 6.2067629E+00 1.0000002E+00 1.9470932E+00
 6.2850954E+00 9.7362247E-01 1.9488519E+00
 6.3629775E+00 9.4622613E-01 1.9490668E+00
 6.4401152E+00 9.1782698E-01 1.9475117E+00
 6.5161806E+00 8.8843428E-01 1.9439665E+00
 6.5908606E+00 8.5805446E-01 1.9382065E+00
 6.6639330E+00 8.2671496E-01 1.9299952E+00
 6.7353568E+00 7.9450846E-01 1.9190793E+00
 6.8053226E+00 7.6163828E-01 1.9051875E+00
 5.8145945E+00 1.0710574E+00 1.9285637E+00
 5.8931954E+00 1.0480061E+00 1.9332484E+00
 5.9716888E+00 1.0244092E+00 1.9375581E+00
 6.0500411E+00 1.0000002E+00 1.9412400E+00
 6.1282140E+00 9.7465401E-01 1.9440283E+00
 6.2061250E+00 9.4833682E-01 1.9456621E+00
 6.2836263E+00 9.2105540E-01 1.9458945E+00
 6.3605034E+00 8.9282388E-01 1.9444942E+00
 6.4364900E+00 8.6364750E-01 1.9412391E+00
 6.5113017E+00 8.3352138E-01 1.9359091E+00
 6.5846952E+00 8.0244883E-01 1.9282757E+00
 6.6565541E+00 7.7048123E-01 1.9180992E+00
 6.7269577E+00 7.3776533E-01 1.9051270E+00
 5.8148254E+00 1.0237413E+00 1.9309857E+00
 5.8934177E+00 1.0000002E+00 1.9344923E+00
 5.9716889E+00 9.7559124E-01 1.9375580E+00
 6.0496087E+00 9.5032784E-01 1.9399095E+00
 6.1271468E+00 9.2414568E-01 1.9412749E+00
 6.2042334E+00 8.9704441E-01 1.9413971E+00
 6.2807366E+00 8.6903969E-01 1.9400347E+00
 6.3564615E+00 8.4013670E-01 1.9369597E+00
 6.4311676E+00 8.1032329E-01 1.9319487E+00
 6.5046119E+00 7.7958312E-01 1.9247762E+00
 6.5766228E+00 7.4793174E-01 1.9152101E+00
 6.6471840E+00 7.1546459E-01 1.9030134E+00
 5.8148255E+00 9.7625921E-01 1.9309857E+00
 5.8931954E+00 9.5199431E-01 1.9332483E+00
 5.9710363E+00 9.2694808E-01 1.9349964E+00
 6.0483273E+00 9.0101257E-01 1.9359451E+00
 6.1250504E+00 8.7417831E-01 1.9358233E+00
 6.2011492E+00 8.4646893E-01 1.9343791E+00
 6.2765037E+00 8.1789809E-01 1.9313742E+00
 6.3509275E+00 7.8845361E-01 1.9265781E+00
 6.4241921E+00 7.5810618E-01 1.9197602E+00
 6.4960901E+00 7.2684220E-01 1.9106889E+00
 6.5665263E+00 6.9471297E-01 1.8991351E+00
 5.8145946E+00 9.2894311E-01 1.9285635E+00
 5.8925371E+00 9.0432638E-01 1.9295418E+00
 5.9697559E+00 8.7882088E-01 1.9299253E+00
 6.0462426E+00 8.5239192E-01 1.9294258E+00
 6.1219906E+00 8.2507533E-01 1.9277768E+00
 6.1969478E+00 7.9690710E-01 1.9247302E+00
 6.2709856E+00 7.6788909E-01 1.9200451E+00
 6.3439012E+00 7.3799010E-01 1.9134819E+00
 6.4154643E+00 7.0717677E-01 1.9048012E+00
 6.4855175E+00 6.7546479E-01 1.8937731E+00
 5.8141419E+00 8.8211849E-01 1.9237678E+00
 5.8914679E+00 8.5731995E-01 1.9234467E+00
 5.9678938E+00 8.3152570E-01 1.9224440E+00
 6.0434198E+00 8.0476458E-01 1.9204737E+00
 6.1180358E+00 7.7710525E-01 1.9172741E+00
 6.1916650E+00 7.4858493E-01 1.9125954E+00
 6.2641340E+00 7.1919040E-01 1.9061873E+00
 6.3352017E+00 6.8888382E-01 1.8977991E+00
 6.4046607E+00 6.5765720E-01 1.8871915E+00
 5.8134850E+00 8.3609214E-01 1.9166923E+00
 5.8900279E+00 8.1127051E-01 1.9150802E+00
 5.9655089E+00 7.8533747E-01 1.9126905E+00
 6.0399165E+00 7.5837158E-01 1.9092403E+00
 6.1131979E+00 7.3046148E-01 1.9044682E+00
 6.1852029E+00 7.0164170E-01 1.8981163E+00
 6.2556852E+00 6.7189652E-01 1.8899229E+00
 6.3243996E+00 6.4121332E-01 1.8796369E+00
 5.8126489E+00 7.9114153E-01 1.9074702E+00
 5.8882637E+00 7.6643314E-01 1.9045938E+00
 5.9626472E+00 7.4047381E-01 1.9008267E+00
 6.0357240E+00 7.1337749E-01 1.8958845E+00
 6.1073353E+00 6.8524798E-01 1.8894996E+00
 6.1772196E+00 6.5613079E-01 1.8814050E+00
 6.2451046E+00 6.2604355E-01 1.8713415E+00
 5.8116604E+00 7.4750629E-01 1.8962660E+00
 5.8862079E+00 7.2301049E-01 1.8921605E+00
 5.9592864E+00 6.9707875E-01 1.8870180E+00
 6.0306660E+00 6.6985362E-01 1.8805439E+00
 6.1000327E+00 6.4147545E-01 1.8724661E+00
 6.1670766E+00 6.1204397E-01 1.8625282E+00
 5.8105352E+00 7.0538200E-01 1.8832655E+00
 5.8838345E+00 6.8113743E-01 1.8779563E+00
 5.9552418E+00 6.5520450E-01 1.8714047E+00
 6.0242861E+00 6.2777712E-01 1.8633052E+00
 6.0905565E+00 5.9909361E-01 1.8534091E+00
 5.8092524E+00 6.6491487E-01 1.8686639E+00
 5.8809865E+00 6.4086666E-01 1.8621361E+00
 5.9500284E+00 6.1479004E-01 1.8540625E+00
 6.0157376E+00 5.8704017E-01 1.8441753E+00
 5.8077098E+00 6.2618111E-01 1.8526445E+00
 5.8772700E+00 6.0215384E-01 1.8448013E+00
 5.9427785E+00 5.7569927E-01 1.8349878E+00
 5.8056870E+00 5.8917089E-01 1.8353582E+00
 5.8716769E+00 5.6476948E-01 1.8259072E+00
 5.8027402E+00 5.5388545E-01 1.8169496E+00
 5.6972991E+00 1.5108414E+00 1.7739444E+00
 5.6558655E+00 1.5355583E+00 1.7557964E+00
 5.6126846E+00 1.5608156E+00 1.7362106E+00
 5.5679902E+00 1.5864586E+00 1.7152074E+00
 5.5219028E+00 1.6124160E+00 1.6927586E+00
 5.4746754E+00 1.6386134E+00 1.6688250E+00
 5.4265613E+00 1.6649728E+00 1.6433500E+00
 5.3778450E+00 1.6913873E+00 1.6162784E+00
 5.3288490E+00 1.7177197E+00 1.5875561E+00
 5.2799284E+00 1.7437973E+00 1.5571361E+00
 5.2314609E+00 1.7694113E+00 1.5249854E+00
 5.1838320E+00 1.7943195E+00 1.4910947E+00
 5.1374166E+00 1.8182553E+00 1.4554873E+00
 5.0925621E+00 1.8409395E+00 1.4182263E+00
 5.0495742E+00 1.8620965E+00 1.3794202E+00
 5.0087091E+00 1.8814700E+00 1.3392231E+00
 4.9701725E+00 1.8988373E+00 1.2978321E+00
 4.9341258E+00 1.9140203E+00 1.2554800E+00
 4.9006966E+00 1.9268925E+00 1.2124255E+00
 4.8699908E+00 1.9373817E+00 1.1689420E+00
 4.8420964E+00 1.9454650E+00 1.1253387E+00
 4.8170129E+00 1.9511692E+00 1.0819469E+00
 4.7947053E+00 1.9545673E+00 1.0393960E+00
 4.0561142E+00 1.0924789E+00 1.7902990E+00
 4.0468849E+00 1.1526785E+00 1.7752263E+00
 4.0409255E+00 1.2139310E+00 1.7568097E+00
 4.0391292E+00 1.2761834E+00 1.7352361E+00
 4.0420306E+00 1.3390656E+00 1.7105353E+00
 4.0500136E+00 1.4020201E+00 1.6827444E+00
 4.0633333E+00 1.4643681E+00 1.6519457E+00
 4.0821272E+00 1.5253658E+00 1.6182934E+00
 4.1064121E+00 1.5842406E+00 1.5820264E+00
 4.1360769E+00 1.6402276E+00 1.5434722E+00
 4.1708771E+00 1.6926078E+00 1.5030406E+00
 4.2104377E+00 1.7407474E+00 1.4612085E+00
 4.2542674E+00 1.7841335E+00 1.4184999E+00
 4.3017825E+00 1.8224038E+00 1.3754600E+00
 4.3523409E+00 1.8553644E+00 1.3326288E+00
 4.4052796E+00 1.8829950E+00 1.2905164E+00
 4.4599521E+00 1.9054424E+00 1.2495801E+00
 4.5157597E+00 1.9230017E+00 1.2102044E+00
 4.5721673E+00 1.9360900E+00 1.1726814E+00
 4.6287188E+00 1.9452155E+00 1.1371757E+00
 4.6850280E+00 1.9509424E+00 1.1036558E+00
 4.7406302E+00 1.9538592E+00 1.0717652E+00
 4.1095457E+00 1.1290994E+00 1.8158238E+00
 4.1037378E+00 1.1914525E+00 1.8003887E+00
 4.1010233E+00 1.2537478E+00 1.7814055E+00
 4.1023914E+00 1.3162471E+00 1.7591231E+00
 4.1084331E+00 1.3787369E+00 1.7336295E+00
 4.1195112E+00 1.4407351E+00 1.7049909E+00
 4.1358182E+00 1.5016038E+00 1.6733112E+00
 4.1574080E+00 1.5606249E+00 1.6387681E+00
 4.1842094E+00 1.6170574E+00 1.6016289E+00
 4.2160277E+00 1.6701840E+00 1.5622531E+00
 4.2525473E+00 1.7193545E+00 1.5210819E+00
 4.2933416E+00 1.7640244E+00 1.4786200E+00
 4.3378926E+00 1.8037881E+00 1.4354113E+00
 4.3856217E+00 1.8384010E+00 1.3920110E+00
 4.4359257E+00 1.8677896E+00 1.3489575E+00
 4.4882143E+00 1.8920481E+00 1.3067448E+00
 4.5419412E+00 1.9114243E+00 1.2657935E+00
 4.5966248E+00 1.9262962E+00 1.2264133E+00
 4.6518552E+00 1.9371444E+00 1.1887418E+00
 4.7072742E+00 1.9445173E+00 1.1526638E+00
 4.7625537E+00 1.9489981E+00 1.1175642E+00
 4.1676182E+00 1.1641014E+00 1.8383684E+00
 4.1649912E+00 1.2273732E+00 1.8222906E+00
 4.1654285E+00 1.2900892E+00 1.8025762E+00
 4.1698804E+00 1.3524319E+00 1.7794585E+00
 4.1789448E+00 1.4142170E+00 1.7530522E+00
 4.1929479E+00 1.4749896E+00 1.7234486E+00
 4.2120160E+00 1.5341361E+00 1.6907790E+00
 4.2361253E+00 1.5909688E+00 1.6552529E+00
 4.2651271E+00 1.6447899E+00 1.6171745E+00
 4.2987581E+00 1.6949438E+00 1.5769406E+00
 4.3366506E+00 1.7408623E+00 1.5350268E+00
 4.3783487E+00 1.7821014E+00 1.4919647E+00
 4.4233349E+00 1.8183690E+00 1.4483143E+00
 4.4710640E+00 1.8495389E+00 1.4046332E+00
 4.5209991E+00 1.8756535E+00 1.3614450E+00
 4.5726426E+00 1.8969121E+00 1.3192038E+00
 4.6255534E+00 1.9136530E+00 1.2782465E+00
 4.6793420E+00 1.9263275E+00 1.2387283E+00
 4.7336534E+00 1.9354713E+00 1.2005145E+00
 4.7881126E+00 1.9416602E+00 1.1630756E+00
 4.2299762E+00 1.1976682E+00 1.8574164E+00
 4.2303369E+00 1.2610343E+00 1.8404788E+00
 4.2337783E+00 1.3235385E+00 1.8198686E+00
 4.2411870E+00 1.3852480E+00 1.7957915E+00
 4.2531177E+00 1.4459326E+00 1.7683710E+00
 4.2698400E+00 1.5051341E+00 1.7377223E+00
 4.2914106E+00 1.5622564E+00 1.7040098E+00
 4.3177342E+00 1.6166478E+00 1.6674828E+00
 4.3485975E+00 1.6676666E+00 1.6284868E+00
 4.3836874E+00 1.7147336E+00 1.5874578E+00
 4.4226070E+00 1.7573756E+00 1.5449035E+00
 4.4648991E+00 1.7952580E+00 1.5013763E+00
 4.5100761E+00 1.8282045E+00 1.4574420E+00
 4.5576534E+00 1.8562045E+00 1.4136455E+00
 4.6071780E+00 1.8794068E+00 1.3704712E+00
 4.6582408E+00 1.8981048E+00 1.3282930E+00
 4.7104659E+00 1.9127166E+00 1.2873018E+00
 4.7634773E+00 1.9237566E+00 1.2474207E+00
 4.8168478E+00 1.9317932E+00 1.2082270E+00
 4.2962773E+00 1.2296766E+00 1.8725968E+00
 4.2994264E+00 1.2925373E+00 1.8546151E+00
 4.3057001E+00 1.3542956E+00 1.8329672E+00