# TIME = 3.000000
VARIABLES = X, Y, Z, FX, FY, FZ
ZONE N=29232 E=58212 F=FEPOINT ET=TRIANGLE
  0.000E+00  9.502E-01  1.243E-03 3.2326724E+00 1.3862042E-01 2.7880143E+00
  0.000E+00  1.000E+00  0.000E+00 3.2312296E+00 1.6553770E-07 2.7915704E+00
  4.318E-02  9.751E-01  3.108E-04 3.2310784E+00 6.8394972E-02 2.7540642E+00
  0.000E+00  1.050E+00  1.243E-03 3.2326734E+00 -1.3862008E-01 2.7880143E+00
  4.318E-02  1.025E+00  3.108E-04 3.2310789E+00 -6.8394622E-02 2.7540642E+00
  0.000E+00  1.100E+00  4.969E-03 3.2382039E+00 -2.7736884E-01 2.7776291E+00
  4.318E-02  1.075E+00  2.796E-03 3.2345344E+00 -2.0524286E-01 2.7471334E+00
  0.000E+00  1.149E+00  1.117E-02 3.2500936E+00 -4.1626656E-01 2.7608774E+00
  4.318E-02  1.124E+00  7.761E-03 3.2434076E+00 -3.4227351E-01 2.7337051E+00
  0.000E+00  1.198E+00  1.983E-02 3.2677524E+00 -5.5441072E-01 2.7374529E+00
  4.318E-02  1.174E+00  1.519E-02 3.2588692E+00 -4.7916720E-01 2.7139794E+00
  0.000E+00  1.247E+00  3.092E-02 3.2843115E+00 -6.8998033E-01 2.7062929E+00
  4.318E-02  1.223E+00  2.507E-02 3.2770503E+00 -6.1445631E-01 2.6871886E+00
  0.000E+00  1.295E+00  4.443E-02 3.2917911E+00 -8.2253445E-01 2.6674824E+00
  4.318E-02  1.271E+00  3.738E-02 3.2891178E+00 -7.4661271E-01 2.6524775E+00
  0.000E+00  1.342E+00  6.031E-02 3.3032963E+00 -9.5399176E-01 2.6229237E+00
  4.318E-02  1.318E+00  5.207E-02 3.2929181E+00 -8.7662792E-01 2.6111071E+00
  0.000E+00  1.388E+00  7.852E-02 3.3368978E+00 -1.0845615E+00 2.5729182E+00
  4.318E-02  1.365E+00  6.913E-02 3.3215583E+00 -1.0061888E+00 2.5646494E+00
  0.000E+00  1.434E+00  9.903E-02 3.3454577E+00 -1.2115916E+00 2.5156150E+00
  4.318E-02  1.411E+00  8.849E-02 3.3473322E+00 -1.1335290E+00 2.5118090E+00
  0.000E+00  1.478E+00  1.218E-01 3.3633601E+00 -1.3351261E+00 2.4518113E+00
  4.318E-02  1.456E+00  1.101E-01 3.3454452E+00 -1.2569963E+00 2.4518248E+00
  0.000E+00  1.521E+00  1.467E-01 3.3890097E+00 -1.4558069E+00 2.3823554E+00
  4.318E-02  1.500E+00  1.340E-01 3.3793751E+00 -1.3775623E+00 2.3861084E+00
  0.000E+00  1.563E+00  1.738E-01 3.3862322E+00 -1.5727574E+00 2.3068086E+00
  4.318E-02  1.543E+00  1.600E-01 3.3791474E+00 -1.4949136E+00 2.3145740E+00
  0.000E+00  1.604E+00  2.029E-01 3.4071750E+00 -1.6857623E+00 2.2255203E+00
  4.318E-02  1.584E+00  1.881E-01 3.4102014E+00 -1.6083737E+00 2.2371183E+00
  0.000E+00  1.643E+00  2.340E-01 3.4148111E+00 -1.7946199E+00 2.1387465E+00
  4.318E-02  1.623E+00  2.182E-01 3.4012478E+00 -1.7179038E+00 2.1541843E+00
  0.000E+00  1.680E+00  2.669E-01 3.4162789E+00 -1.8989892E+00 2.0466274E+00
  4.318E-02  1.662E+00  2.502E-01 3.4176421E+00 -1.8231447E+00 2.0658784E+00
  0.000E+00  1.716E+00  3.018E-01 3.4175851E+00 -1.9986470E+00 1.9494246E+00
  4.318E-02  1.698E+00  2.841E-01 3.4176123E+00 -1.9238531E+00 1.9724306E+00
  0.000E+00  1.750E+00  3.383E-01 3.4176153E+00 -2.0933369E+00 1.8473778E+00
  4.318E-02  1.733E+00  3.198E-01 3.4163063E+00 -2.0197806E+00 1.8740797E+00
  0.000E+00  1.782E+00  3.765E-01 3.4012213E+00 -2.1828166E+00 1.7407381E+00
  4.318E-02  1.766E+00  3.572E-01 3.4148388E+00 -2.1106917E+00 1.7710796E+00
  0.000E+00  1.812E+00  4.163E-01 3.4101754E+00 -2.2668532E+00 1.6297524E+00
  4.318E-02  1.797E+00  3.962E-01 3.4072029E+00 -2.1963270E+00 1.6636498E+00
  0.000E+00  1.840E+00  4.575E-01 3.3791218E+00 -2.3453383E+00 1.5147842E+00
  4.318E-02  1.826E+00  4.367E-01 3.3862605E+00 -2.2765496E+00 1.5521274E+00
  0.000E+00  1.866E+00  5.000E-01 3.3793500E+00 -2.4178231E+00 1.3958731E+00
  4.318E-02  1.853E+00  4.786E-01 3.3890379E+00 -2.3511043E+00 1.4367107E+00
  0.000E+00  1.890E+00  5.438E-01 3.3454204E+00 -2.4844136E+00 1.2737045E+00
  4.318E-02  1.878E+00  5.217E-01 3.3633887E+00 -2.4196499E+00 1.3176128E+00
  0.000E+00  1.912E+00  5.887E-01 3.3473081E+00 -2.5451952E+00 1.1485965E+00
  4.318E-02  1.901E+00  5.661E-01 3.3454863E+00 -2.4826165E+00 1.1956987E+00
  0.000E+00  1.931E+00  6.347E-01 3.3215345E+00 -2.5987378E+00 1.0195636E+00
  4.318E-02  1.921E+00  6.116E-01 3.3369266E+00 -2.5391678E+00 1.0703350E+00
  0.000E+00  1.948E+00  6.815E-01 3.2928948E+00 -2.6458134E+00 8.8828043E-01
  4.318E-02  1.940E+00  6.580E-01 3.3033254E+00 -2.5885184E+00 9.4147840E-01
  0.000E+00  1.963E+00  7.292E-01 3.2890951E+00 -2.6877335E+00 7.5653715E-01
  4.318E-02  1.956E+00  7.052E-01 3.2918201E+00 -2.6324920E+00 8.1174542E-01
  0.000E+00  1.975E+00  7.775E-01 3.2770280E+00 -2.7229058E+00 6.2262424E-01
  4.318E-02  1.969E+00  7.532E-01 3.2843405E+00 -2.6707924E+00 6.8092980E-01
  0.000E+00  1.985E+00  8.264E-01 3.2588471E+00 -2.7500528E+00 4.8553689E-01
  4.318E-02  1.980E+00  8.019E-01 3.2677816E+00 -2.7015438E+00 5.4713836E-01
  0.000E+00  1.992E+00  8.757E-01 3.2433858E+00 -2.7700409E+00 3.4682357E-01
  4.318E-02  1.989E+00  8.510E-01 3.2501231E+00 -2.7246616E+00 4.1080632E-01
  0.000E+00  1.997E+00  9.253E-01 3.2345129E+00 -2.7836478E+00 2.0797146E-01
  4.318E-02  1.995E+00  9.004E-01 3.2382338E+00 -2.7411939E+00 2.7373067E-01
  0.000E+00  2.000E+00  9.751E-01 3.2310577E+00 -2.7906707E+00 6.9304189E-02
  4.318E-02  1.999E+00  9.502E-01 3.2327037E+00 -2.7514429E+00 1.3680206E-01
  0.000E+00  2.000E+00  1.025E+00 3.2310575E+00 -2.7906707E+00 -6.9303652E-02
  4.318E-02  2.000E+00  1.000E+00 3.2312601E+00 -2.7549524E+00 2.7671439E-07
  0.000E+00  1.997E+00  1.075E+00 3.2345122E+00 -2.7836475E+00 -2.0797091E-01
  4.318E-02  1.999E+00  1.050E+00 3.2327032E+00 -2.7514428E+00 -1.3680152E-01
  0.000E+00  1.992E+00  1.124E+00 3.2433846E+00 -2.7700406E+00 -3.4682301E-01
  4.318E-02  1.995E+00  1.100E+00 3.2382328E+00 -2.7411937E+00 -2.7373014E-01
  0.000E+00  1.985E+00  1.174E+00 3.2588455E+00 -2.7500529E+00 -4.8553634E-01
  4.318E-02  1.989E+00  1.149E+00 3.2501217E+00 -2.7246615E+00 -4.1080579E-01
  0.000E+00  1.975E+00  1.223E+00 3.2770258E+00 -2.7229063E+00 -6.2262370E-01
  4.318E-02  1.980E+00  1.198E+00 3.2677797E+00 -2.7015442E+00 -5.4713784E-01
  0.000E+00  1.963E+00  1.271E+00 3.2890925E+00 -2.6877337E+00 -7.5653661E-01
  4.318E-02  1.969E+00  1.247E+00 3.2843381E+00 -2.6707929E+00 -6.8092927E-01
  0.000E+00  1.948E+00  1.318E+00 3.2928918E+00 -2.6458127E+00 -8.8827990E-01
  4.318E-02  1.956E+00  1.295E+00 3.2918173E+00 -2.6324916E+00 -8.1174489E-01
  0.000E+00  1.931E+00  1.365E+00 3.3215310E+00 -2.5987382E+00 -1.0195631E+00
  4.318E-02  1.940E+00  1.342E+00 3.3033222E+00 -2.5885180E+00 -9.4147788E-01
  0.000E+00  1.912E+00  1.411E+00 3.3473042E+00 -2.5451959E+00 -1.1485960E+00
  4.318E-02  1.921E+00  1.388E+00 3.3369229E+00 -2.5391688E+00 -1.0703345E+00
  0.000E+00  1.890E+00  1.456E+00 3.3454161E+00 -2.4844129E+00 -1.2737040E+00
  4.318E-02  1.901E+00  1.434E+00 3.3454822E+00 -2.4826164E+00 -1.1956982E+00
  0.000E+00  1.866E+00  1.500E+00 3.3793453E+00 -2.4178238E+00 -1.3958726E+00
  4.318E-02  1.878E+00  1.478E+00 3.3633842E+00 -2.4196498E+00 -1.3176123E+00
  0.000E+00  1.840E+00  1.543E+00 3.3791168E+00 -2.3453385E+00 -1.5147837E+00
  4.318E-02  1.853E+00  1.521E+00 3.3890331E+00 -2.3511051E+00 -1.4367102E+00
  0.000E+00  1.812E+00  1.584E+00 3.4101700E+00 -2.2668535E+00 -1.6297519E+00
  4.318E-02  1.826E+00  1.563E+00 3.3862553E+00 -2.2765496E+00 -1.5521269E+00
  0.000E+00  1.782E+00  1.623E+00 3.4012156E+00 -2.1828170E+00 -1.7407376E+00
  4.318E-02  1.797E+00  1.604E+00 3.4071973E+00 -2.1963276E+00 -1.6636494E+00
  0.000E+00  1.750E+00  1.662E+00 3.4176092E+00 -2.0933372E+00 -1.8473773E+00
  4.318E-02  1.766E+00  1.643E+00 3.4148329E+00 -2.1106919E+00 -1.7710791E+00
  0.000E+00  1.716E+00  1.698E+00 3.4175787E+00 -1.9986475E+00 -1.9494241E+00
  4.318E-02  1.733E+00  1.680E+00 3.4163001E+00 -2.0197811E+00 -1.8740793E+00
  0.000E+00  1.680E+00  1.733E+00 3.4162723E+00 -1.8989896E+00 -2.0466270E+00
  4.318E-02  1.698E+00  1.716E+00 3.4176057E+00 -1.9238534E+00 -1.9724302E+00
  0.000E+00  1.643E+00  1.766E+00 3.4148041E+00 -1.7946203E+00 -2.1387461E+00
  4.318E-02  1.662E+00  1.750E+00 3.4176352E+00 -1.8231452E+00 -2.0658780E+00
  0.000E+00  1.604E+00  1.797E+00 3.4071678E+00 -1.6857627E+00 -2.2255199E+00
  4.318E-02  1.623E+00  1.782E+00 3.4012407E+00 -1.7179042E+00 -2.1541839E+00
  0.000E+00  1.563E+00  1.826E+00 3.3862248E+00 -1.5727579E+00 -2.3068082E+00
  4.318E-02  1.584E+00  1.812E+00 3.4101941E+00 -1.6083742E+00 -2.2371180E+00
  0.000E+00  1.521E+00  1.853E+00 3.3890020E+00 -1.4558074E+00 -2.3823550E+00
  4.318E-02  1.543E+00  1.840E+00 3.3791399E+00 -1.4949140E+00 -2.3145737E+00
  0.000E+00  1.478E+00  1.878E+00 3.3633523E+00 -1.3351264E+00 -2.4518110E+00
  4.318E-02  1.500E+00  1.866E+00 3.3793674E+00 -1.3775628E+00 -2.3861082E+00
  0.000E+00  1.434E+00  1.901E+00 3.3454497E+00 -1.2115919E+00 -2.5156146E+00
  4.318E-02  1.456E+00  1.890E+00 3.3454373E+00 -1.2569968E+00 -2.4518246E+00
  0.000E+00  1.388E+00  1.921E+00 3.3368897E+00 -1.0845618E+00 -2.5729179E+00
  4.318E-02  1.411E+00  1.912E+00 3.3473241E+00 -1.1335296E+00 -2.5118088E+00
  0.000E+00  1.342E+00  1.940E+00 3.3032879E+00 -9.5399241E-01 -2.6229235E+00
  4.318E-02  1.365E+00  1.931E+00 3.3215501E+00 -1.0061892E+00 -2.5646491E+00
  0.000E+00  1.295E+00  1.956E+00 3.2917826E+00 -8.2253531E-01 -2.6674823E+00
  4.318E-02  1.318E+00  1.948E+00 3.2929099E+00 -8.7662813E-01 -2.6111068E+00
  0.000E+00  1.247E+00  1.969E+00 3.2843029E+00 -6.8998113E-01 -2.7062928E+00
  4.318E-02  1.271E+00  1.963E+00 3.2891094E+00 -7.4661287E-01 -2.6524772E+00
  0.000E+00  1.198E+00  1.980E+00 3.2677438E+00 -5.5441128E-01 -2.7374528E+00
  4.318E-02  1.223E+00  1.975E+00 3.2770418E+00 -6.1445661E-01 -2.6871883E+00
  0.000E+00  1.149E+00  1.989E+00 3.2500849E+00 -4.1626691E-01 -2.7608773E+00
  4.318E-02  1.174E+00  1.985E+00 3.2588606E+00 -4.7916769E-01 -2.7139792E+00
  0.000E+00  1.100E+00  1.995E+00 3.2381952E+00 -2.7736911E-01 -2.7776291E+00
  4.318E-02  1.124E+00  1.992E+00 3.2433990E+00 -3.4227412E-01 -2.7337050E+00
  0.000E+00  1.050E+00  1.999E+00 3.2326646E+00 -1.3862044E-01 -2.7880141E+00
  4.318E-02  1.075E+00  1.997E+00 3.2345258E+00 -2.0524346E-01 -2.7471333E+00
  0.000E+00  1.000E+00  2.000E+00 3.2312209E+00 -3.0301374E-07 -2.7915704E+00
  4.318E-02  1.025E+00  2.000E+00 3.2310703E+00 -6.8395141E-02 -2.7540642E+00
  0.000E+00  9.502E-01  1.999E+00 3.2326636E+00 1.3861984E-01 -2.7880141E+00
  4.318E-02  9.751E-01  2.000E+00 3.2310698E+00 6.8394552E-02 -2.7540642E+00
  0.000E+00  9.004E-01  1.995E+00 3.2381932E+00 2.7736851E-01 -2.7776291E+00
  4.318E-02  9.253E-01  1.997E+00 3.2345243E+00 2.0524287E-01 -2.7471334E+00
  0.000E+00  8.510E-01  1.989E+00 3.2500819E+00 4.1626631E-01 -2.7608774E+00
  4.318E-02  8.757E-01  1.992E+00 3.2433965E+00 3.4227353E-01 -2.7337050E+00
  0.000E+00  8.019E-01  1.980E+00 3.2677398E+00 5.5441068E-01 -2.7374529E+00
  4.318E-02  8.264E-01  1.985E+00 3.2588572E+00 4.7916711E-01 -2.7139792E+00
  0.000E+00  7.532E-01  1.969E+00 3.2842980E+00 6.8998053E-01 -2.7062929E+00
  4.318E-02  7.775E-01  1.975E+00 3.2770374E+00 6.1445603E-01 -2.6871884E+00
  0.000E+00  7.052E-01  1.956E+00 3.2917768E+00 8.2253472E-01 -2.6674824E+00
  4.318E-02  7.292E-01  1.963E+00 3.2891041E+00 7.4661230E-01 -2.6524773E+00
  0.000E+00  6.580E-01  1.940E+00 3.3032812E+00 9.5399183E-01 -2.6229236E+00
  4.318E-02  6.815E-01  1.948E+00 3.2929036E+00 8.7662756E-01 -2.6111070E+00
  0.000E+00  6.116E-01  1.921E+00 3.3368821E+00 1.0845613E+00 -2.5729181E+00
  4.318E-02  6.347E-01  1.931E+00 3.3215429E+00 1.0061886E+00 -2.5646493E+00
  0.000E+00  5.661E-01  1.901E+00 3.3454411E+00 1.2115913E+00 -2.5156148E+00
  4.318E-02  5.887E-01  1.912E+00 3.3473160E+00 1.1335290E+00 -2.5118090E+00
  0.000E+00  5.217E-01  1.878E+00 3.3633429E+00 1.3351259E+00 -2.4518112E+00
  4.318E-02  5.438E-01  1.890E+00 3.3454284E+00 1.2569963E+00 -2.4518248E+00
  0.000E+00  4.786E-01  1.853E+00 3.3889919E+00 1.4558068E+00 -2.3823552E+00
  4.318E-02  5.000E-01  1.866E+00 3.3793576E+00 1.3775622E+00 -2.3861084E+00
  0.000E+00  4.367E-01  1.826E+00 3.3862139E+00 1.5727573E+00 -2.3068085E+00
  4.318E-02  4.575E-01  1.840E+00 3.3791293E+00 1.4949135E+00 -2.3145739E+00
  0.000E+00  3.962E-01  1.797E+00 3.4071561E+00 1.6857622E+00 -2.2255202E+00
  4.318E-02  4.163E-01  1.812E+00 3.4101828E+00 1.6083736E+00 -2.2371183E+00
  0.000E+00  3.572E-01  1.766E+00 3.4147918E+00 1.7946198E+00 -2.1387464E+00
  4.318E-02  3.765E-01  1.782E+00 3.4012287E+00 1.7179037E+00 -2.1541842E+00
  0.000E+00  3.198E-01  1.733E+00 3.4162593E+00 1.8989891E+00 -2.0466273E+00
  4.318E-02  3.383E-01  1.750E+00 3.4176226E+00 1.8231447E+00 -2.0658783E+00
  0.000E+00  2.841E-01  1.698E+00 3.4175651E+00 1.9986469E+00 -1.9494245E+00
  4.318E-02  3.018E-01  1.716E+00 3.4175924E+00 1.9238530E+00 -1.9724305E+00
  0.000E+00  2.502E-01  1.662E+00 3.4175950E+00 2.0933368E+00 -1.8473777E+00
  4.318E-02  2.669E-01  1.680E+00 3.4162862E+00 2.0197805E+00 -1.8740796E+00
  0.000E+00  2.182E-01  1.623E+00 3.4012008E+00 2.1828165E+00 -1.7407380E+00
  4.318E-02  2.340E-01  1.643E+00 3.4148184E+00 2.1106916E+00 -1.7710795E+00
  0.000E+00  1.881E-01  1.584E+00 3.4101548E+00 2.2668531E+00 -1.6297523E+00
  4.318E-02  2.029E-01  1.604E+00 3.4071823E+00 2.1963269E+00 -1.6636497E+00
  0.000E+00  1.600E-01  1.543E+00 3.3791011E+00 2.3453382E+00 -1.5147841E+00
  4.318E-02  1.738E-01  1.563E+00 3.3862398E+00 2.2765495E+00 -1.5521273E+00
  0.000E+00  1.340E-01  1.500E+00 3.3793292E+00 2.4178230E+00 -1.3958730E+00
  4.318E-02  1.467E-01  1.521E+00 3.3890172E+00 2.3511042E+00 -1.4367106E+00
  0.000E+00  1.101E-01  1.456E+00 3.3453997E+00 2.4844135E+00 -1.2737044E+00
  4.318E-02  1.218E-01  1.478E+00 3.3633679E+00 2.4196498E+00 -1.3176127E+00
  0.000E+00  8.849E-02  1.411E+00 3.3472874E+00 2.5451951E+00 -1.1485964E+00
  4.318E-02  9.903E-02  1.434E+00 3.3454656E+00 2.4826164E+00 -1.1956986E+00
  0.000E+00  6.913E-02  1.365E+00 3.3215140E+00 2.5987377E+00 -1.0195635E+00
  4.318E-02  7.852E-02  1.388E+00 3.3369060E+00 2.5391677E+00 -1.0703349E+00
  0.000E+00  5.207E-02  1.318E+00 3.2928745E+00 2.6458133E+00 -8.8828033E-01
  4.318E-02  6.031E-02  1.342E+00 3.3033049E+00 2.5885183E+00 -9.4147831E-01
  0.000E+00  3.738E-02  1.271E+00 3.2890750E+00 2.6877334E+00 -7.5653705E-01
  4.318E-02  4.443E-02  1.295E+00 3.2917999E+00 2.6324919E+00 -8.1174533E-01
  0.000E+00  2.507E-02  1.223E+00 3.2770081E+00 2.7229056E+00 -6.2262414E-01
  4.318E-02  3.092E-02  1.247E+00 3.2843205E+00 2.6707922E+00 -6.8092971E-01
  0.000E+00  1.519E-02  1.174E+00 3.2588276E+00 2.7500527E+00 -4.8553679E-01
  4.318E-02  1.983E-02  1.198E+00 3.2677619E+00 2.7015437E+00 -5.4713828E-01
  0.000E+00  7.761E-03  1.124E+00 3.2433666E+00 2.7700407E+00 -3.4682347E-01
  4.318E-02  1.117E-02  1.149E+00 3.2501038E+00 2.7246615E+00 -4.1080625E-01
  0.000E+00  2.796E-03  1.075E+00 3.2344941E+00 2.7836476E+00 -2.0797137E-01
  4.318E-02  4.969E-03  1.100E+00 3.2382148E+00 2.7411938E+00 -2.7373060E-01
  0.000E+00  3.108E-04  1.025E+00 3.2310394E+00 2.7906706E+00 -6.9304119E-02
  4.318E-02  1.243E-03  1.050E+00 3.2326851E+00 2.7514428E+00 -1.3680198E-01
  0.000E+00  3.108E-04  9.751E-01 3.2310396E+00 2.7906705E+00 6.9303719E-02
  4.318E-02  0.000E+00  1.000E+00 3.2312420E+00 2.7549523E+00 -1.9119300E-07
  0.000E+00  2.796E-03  9.253E-01 3.2344948E+00 2.7836474E+00 2.0797099E-01
  4.318E-02  1.243E-03  9.502E-01 3.2326856E+00 2.7514427E+00 1.3680159E-01
  0.000E+00  7.761E-03  8.757E-01 3.2433678E+00 2.7700405E+00 3.4682310E-01
  4.318E-02  4.969E-03  9.004E-01 3.2382158E+00 2.7411936E+00 2.7373020E-01
  0.000E+00  1.519E-02  8.264E-01 3.2588293E+00 2.7500527E+00 4.8553642E-01
  4.318E-02  1.117E-02  8.510E-01 3.2501052E+00 2.7246614E+00 4.1080585E-01
  0.000E+00  2.507E-02  7.775E-01 3.2770102E+00 2.7229062E+00 6.2262377E-01
  4.318E-02  1.983E-02  8.019E-01 3.2677638E+00 2.7015440E+00 5.4713789E-01
  0.000E+00  3.738E-02  7.292E-01 3.2890776E+00 2.6877335E+00 7.5653668E-01
  4.318E-02  3.092E-02  7.532E-01 3.2843228E+00 2.6707928E+00 6.8092933E-01
  0.000E+00  5.207E-02  6.815E-01 3.2928775E+00 2.6458126E+00 8.8827996E-01
  4.318E-02  4.443E-02  7.052E-01 3.2918027E+00 2.6324915E+00 8.1174495E-01
  0.000E+00  6.913E-02  6.347E-01 3.3215174E+00 2.5987381E+00 1.0195631E+00
  4.318E-02  6.031E-02  6.580E-01 3.3033082E+00 2.5885179E+00 9.4147793E-01
  0.000E+00  8.849E-02  5.887E-01 3.3472913E+00 2.5451958E+00 1.1485960E+00
  4.318E-02  7.852E-02  6.116E-01 3.3369097E+00 2.5391686E+00 1.0703346E+00
  0.000E+00  1.101E-01  5.438E-01 3.3454039E+00 2.4844128E+00 1.2737040E+00
  4.318E-02  9.903E-02  5.661E-01 3.3454697E+00 2.4826162E+00 1.1956983E+00
  0.000E+00  1.340E-01  5.000E-01 3.3793339E+00 2.4178237E+00 1.3958727E+00
  4.318E-02  1.218E-01  5.217E-01 3.3633724E+00 2.4196497E+00 1.3176124E+00
  0.000E+00  1.600E-01  4.575E-01 3.3791061E+00 2.3453384E+00 1.5147837E+00
  4.318E-02  1.467E-01  4.786E-01 3.3890221E+00 2.3511049E+00 1.4367103E+00
  0.000E+00  1.881E-01  4.163E-01 3.4101602E+00 2.2668533E+00 1.6297520E+00
  4.318E-02  1.738E-01  4.367E-01 3.3862451E+00 2.2765494E+00 1.5521270E+00
  0.000E+00  2.182E-01  3.765E-01 3.4012066E+00 2.1828169E+00 1.7407377E+00
  4.318E-02  2.029E-01  3.962E-01 3.4071879E+00 2.1963275E+00 1.6636494E+00
  0.000E+00  2.502E-01  3.383E-01 3.4176011E+00 2.0933371E+00 1.8473774E+00
  4.318E-02  2.340E-01  3.572E-01 3.4148244E+00 2.1106918E+00 1.7710792E+00
  0.000E+00  2.841E-01  3.018E-01 3.4175715E+00 1.9986473E+00 1.9494242E+00
  4.318E-02  2.669E-01  3.198E-01 3.4162924E+00 2.0197809E+00 1.8740793E+00
  0.000E+00  3.198E-01  2.669E-01 3.4162659E+00 1.8989894E+00 2.0466271E+00
  4.318E-02  3.018E-01  2.841E-01 3.4175989E+00 1.9238533E+00 1.9724302E+00
  0.000E+00  3.572E-01  2.340E-01 3.4147987E+00 1.7946202E+00 2.1387462E+00
  4.318E-02  3.383E-01  2.502E-01 3.4176294E+00 1.8231450E+00 2.0658780E+00
  0.000E+00  3.962E-01  2.029E-01 3.4071633E+00 1.6857625E+00 2.2255200E+00
  4.318E-02  3.765E-01  2.182E-01 3.4012357E+00 1.7179041E+00 2.1541839E+00
  0.000E+00  4.367E-01  1.738E-01 3.3862213E+00 1.5727577E+00 2.3068083E+00
  4.318E-02  4.163E-01  1.881E-01 3.4101901E+00 1.6083740E+00 2.2371180E+00
  0.000E+00  4.786E-01  1.467E-01 3.3889995E+00 1.4558072E+00 2.3823551E+00
  4.318E-02  4.575E-01  1.600E-01 3.3791368E+00 1.4949139E+00 2.3145737E+00
  0.000E+00  5.217E-01  1.218E-01 3.3633507E+00 1.3351264E+00 2.4518110E+00
  4.318E-02  5.000E-01  1.340E-01 3.3793654E+00 1.3775626E+00 2.3861082E+00
  0.000E+00  5.661E-01  9.903E-02 3.3454491E+00 1.2115919E+00 2.5156147E+00
  4.318E-02  5.438E-01  1.101E-01 3.3454363E+00 1.2569966E+00 2.4518246E+00
  0.000E+00  6.116E-01  7.852E-02 3.3368902E+00 1.0845618E+00 2.5729180E+00
  4.318E-02  5.887E-01  8.849E-02 3.3473240E+00 1.1335293E+00 2.5118088E+00
  0.000E+00  6.580E-01  6.031E-02 3.3032895E+00 9.5399207E-01 2.6229235E+00
  4.318E-02  6.347E-01  6.913E-02 3.3215511E+00 1.0061891E+00 2.5646492E+00
  0.000E+00  7.052E-01  4.443E-02 3.2917853E+00 8.2253477E-01 2.6674823E+00
  4.318E-02  6.815E-01  5.207E-02 3.2929118E+00 8.7662825E-01 2.6111069E+00
  0.000E+00  7.532E-01  3.092E-02 3.2843066E+00 6.8998065E-01 2.7062927E+00
  4.318E-02  7.292E-01  3.738E-02 3.2891124E+00 7.4661304E-01 2.6524773E+00
  0.000E+00  8.019E-01  1.983E-02 3.2677485E+00 5.5441104E-01 2.7374528E+00
  4.318E-02  7.775E-01  2.507E-02 3.2770458E+00 6.1445665E-01 2.6871885E+00
  0.000E+00  8.510E-01  1.117E-02 3.2500906E+00 4.1626689E-01 2.7608773E+00
  4.318E-02  8.264E-01  1.519E-02 3.2588657E+00 4.7916754E-01 2.7139793E+00
  0.000E+00  9.004E-01  4.969E-03 3.2382019E+00 2.7736917E-01 2.7776291E+00
  4.318E-02  8.757E-01  7.761E-03 3.2434051E+00 3.4227386E-01 2.7337051E+00
  4.318E-02  9.253E-01  2.796E-03 3.2345329E+00 2.0524321E-01 2.7471334E+00
  1.000E+01  1.050E+00  1.243E-03 3.2326734E+00 -1.3862008E-01 2.7880143E+00
  1.000E+01  1.000E+00  5.551E-16 3.2312296E+00 1.6553770E-07 2.7915704E+00
  9.957E+00  1.025E+00  3.108E-04 3.2310781E+00 -7.0221978E-02 2.8276443E+00
  1.000E+01  9.502E-01  1.243E-03 3.2326724E+00 1.3862042E-01 2.7880143E+00
  9.957E+00  9.751E-01  3.108E-04 3.2310776E+00 7.0222292E-02 2.8276443E+00
  1.000E+01  9.004E-01  4.969E-03 3.2382019E+00 2.7736917E-01 2.7776291E+00
  9.957E+00  9.253E-01  2.796E-03 3.2345321E+00 2.1072677E-01 2.8205282E+00
  1.000E+01  8.510E-01  1.117E-02 3.2500906E+00 4.1626689E-01 2.7608773E+00
  9.957E+00  8.757E-01  7.761E-03 3.2434042E+00 3.5141854E-01 2.8067410E+00
  1.000E+01  8.019E-01  1.983E-02 3.2677485E+00 5.5441104E-01 2.7374528E+00
  9.957E+00  8.264E-01  1.519E-02 3.2588648E+00 4.9196969E-01 2.7864880E+00
  1.000E+01  7.532E-01  3.092E-02 3.2843066E+00 6.8998065E-01 2.7062927E+00
  9.957E+00  7.775E-01  2.507E-02 3.2770450E+00 6.3087342E-01 2.7589815E+00
  1.000E+01  7.052E-01  4.443E-02 3.2917853E+00 8.2253477E-01 2.6674823E+00
  9.957E+00  7.292E-01  3.738E-02 3.2891117E+00 7.6656074E-01 2.7233432E+00
  1.000E+01  6.580E-01  6.031E-02 3.3032895E+00 9.5399207E-01 2.6229235E+00
  9.957E+00  6.815E-01  5.207E-02 3.2929111E+00 9.0004954E-01 2.6808673E+00
  1.000E+01  6.116E-01  7.852E-02 3.3368902E+00 1.0845618E+00 2.5729180E+00
  9.957E+00  6.347E-01  6.913E-02 3.3215501E+00 1.0330717E+00 2.6331678E+00
  1.000E+01  5.661E-01  9.903E-02 3.3454491E+00 1.2115919E+00 2.5156147E+00
  9.957E+00  5.887E-01  8.849E-02 3.3473232E+00 1.1638140E+00 2.5789160E+00
  1.000E+01  5.217E-01  1.218E-01 3.3633507E+00 1.3351264E+00 2.4518110E+00
  9.957E+00  5.438E-01  1.101E-01 3.3454353E+00 1.2905797E+00 2.5173290E+00
  1.000E+01  4.786E-01  1.467E-01 3.3889995E+00 1.4558072E+00 2.3823551E+00
  9.957E+00  5.000E-01  1.340E-01 3.3793644E+00 1.4143669E+00 2.4498567E+00
  1.000E+01  4.367E-01  1.738E-01 3.3862213E+00 1.5727577E+00 2.3068083E+00
  9.957E+00  4.575E-01  1.600E-01 3.3791361E+00 1.5348534E+00 2.3764114E+00
  1.000E+01  3.962E-01  2.029E-01 3.4071633E+00 1.6857625E+00 2.2255200E+00
  9.957E+00  4.163E-01  1.881E-01 3.4101891E+00 1.6513446E+00 2.2968860E+00
  1.000E+01  3.572E-01  2.340E-01 3.4147987E+00 1.7946202E+00 2.1387462E+00
  9.957E+00  3.765E-01  2.182E-01 3.4012349E+00 1.7638008E+00 2.2117365E+00
  1.000E+01  3.198E-01  2.669E-01 3.4162659E+00 1.8989894E+00 2.0466271E+00
  9.957E+00  3.383E-01  2.502E-01 3.4176284E+00 1.8718533E+00 2.1210712E+00
  1.000E+01  2.841E-01  3.018E-01 3.4175715E+00 1.9986473E+00 1.9494242E+00
  9.957E+00  3.018E-01  2.841E-01 3.4175979E+00 1.9752519E+00 2.0251269E+00
  1.000E+01  2.502E-01  3.383E-01 3.4176011E+00 2.0933371E+00 1.8473774E+00
  9.957E+00  2.669E-01  3.198E-01 3.4162916E+00 2.0737427E+00 1.9241487E+00
  1.000E+01  2.182E-01  3.765E-01 3.4012066E+00 2.1828169E+00 1.7407377E+00
  9.957E+00  2.340E-01  3.572E-01 3.4148234E+00 2.1670820E+00 1.8183965E+00
  1.000E+01  1.881E-01  4.163E-01 3.4101602E+00 2.2668533E+00 1.6297520E+00
  9.957E+00  2.029E-01  3.962E-01 3.4071870E+00 2.2550058E+00 1.7080969E+00
  1.000E+01  1.600E-01  4.575E-01 3.3791061E+00 2.3453384E+00 1.5147837E+00
  9.957E+00  1.738E-01  4.367E-01 3.3862440E+00 2.3373707E+00 1.5935948E+00
  1.000E+01  1.340E-01  5.000E-01 3.3793339E+00 2.4178237E+00 1.3958727E+00
  9.957E+00  1.467E-01  4.786E-01 3.3890212E+00 2.4139185E+00 1.4750948E+00
  1.000E+01  1.101E-01  5.438E-01 3.3454039E+00 2.4844128E+00 1.2737040E+00
  9.957E+00  1.218E-01  5.217E-01 3.3633714E+00 2.4842942E+00 1.3528150E+00
  1.000E+01  8.849E-02  5.887E-01 3.3472913E+00 2.5451958E+00 1.1485960E+00
  9.957E+00  9.903E-02  5.661E-01 3.3454690E+00 2.5489437E+00 1.2276440E+00
  1.000E+01  6.913E-02  6.347E-01 3.3215174E+00 2.5987381E+00 1.0195631E+00
  9.957E+00  7.852E-02  6.116E-01 3.3369088E+00 2.6070066E+00 1.0989309E+00
  1.000E+01  5.207E-02  6.815E-01 3.2928775E+00 2.6458126E+00 8.8827996E-01
  9.957E+00  6.031E-02  6.580E-01 3.3033072E+00 2.6576742E+00 9.6663149E-01
  1.000E+01  3.738E-02  7.292E-01 3.2890776E+00 2.6877335E+00 7.5653668E-01
  9.957E+00  4.443E-02  7.052E-01 3.2918019E+00 2.7028233E+00 8.3343248E-01
  1.000E+01  2.507E-02  7.775E-01 3.2770102E+00 2.7229062E+00 6.2262377E-01
  9.957E+00  3.092E-02  7.532E-01 3.2843220E+00 2.7421478E+00 6.9912198E-01
  1.000E+01  1.519E-02  8.264E-01 3.2588293E+00 2.7500527E+00 4.8553642E-01
  9.957E+00  1.983E-02  8.019E-01 3.2677629E+00 2.7737206E+00 5.6175617E-01
  1.000E+01  7.761E-03  8.757E-01 3.2433678E+00 2.7700405E+00 3.4682310E-01
  9.957E+00  1.117E-02  8.510E-01 3.2501044E+00 2.7974556E+00 4.2178180E-01
  1.000E+01  2.796E-03  9.253E-01 3.2344948E+00 2.7836474E+00 2.0797099E-01
  9.957E+00  4.969E-03  9.004E-01 3.2382150E+00 2.8144297E+00 2.8104384E-01
  1.000E+01  3.108E-04  9.751E-01 3.2310396E+00 2.7906705E+00 6.9303719E-02
  9.957E+00  1.243E-03  9.502E-01 3.2326848E+00 2.8249526E+00 1.4045675E-01
  1.000E+01  3.108E-04  1.025E+00 3.2310394E+00 2.7906706E+00 -6.9304119E-02
  9.957E+00  0.000E+00  1.000E+00 3.2312412E+00 2.8285560E+00 -1.8401233E-07
  1.000E+01  2.796E-03  1.075E+00 3.2344941E+00 2.7836476E+00 -2.0797137E-01
  9.957E+00  1.243E-03  1.050E+00 3.2326843E+00 2.8249528E+00 -1.4045712E-01
  1.000E+01  7.761E-03  1.124E+00 3.2433666E+00 2.7700407E+00 -3.4682347E-01
  9.957E+00  4.969E-03  1.100E+00 3.2382140E+00 2.8144299E+00 -2.8104422E-01
  1.000E+01  1.519E-02  1.174E+00 3.2588276E+00 2.7500527E+00 -4.8553679E-01
  9.957E+00  1.117E-02  1.149E+00 3.2501030E+00 2.7974558E+00 -4.2178218E-01
  1.000E+01  2.507E-02  1.223E+00 3.2770081E+00 2.7229056E+00 -6.2262414E-01
  9.957E+00  1.983E-02  1.198E+00 3.2677610E+00 2.7737202E+00 -5.6175654E-01
  1.000E+01  3.738E-02  1.271E+00 3.2890750E+00 2.6877334E+00 -7.5653705E-01
  9.957E+00  3.092E-02  1.247E+00 3.2843197E+00 2.7421473E+00 -6.9912235E-01
  1.000E+01  5.207E-02  1.318E+00 3.2928745E+00 2.6458133E+00 -8.8828033E-01
  9.957E+00  4.443E-02  1.295E+00 3.2917991E+00 2.7028236E+00 -8.3343284E-01
  1.000E+01  6.913E-02  1.365E+00 3.3215140E+00 2.5987377E+00 -1.0195635E+00
  9.957E+00  6.031E-02  1.342E+00 3.3033039E+00 2.6576747E+00 -9.6663185E-01
  1.000E+01  8.849E-02  1.411E+00 3.3472874E+00 2.5451951E+00 -1.1485964E+00
  9.957E+00  7.852E-02  1.388E+00 3.3369051E+00 2.6070057E+00 -1.0989313E+00
  1.000E+01  1.101E-01  1.456E+00 3.3453997E+00 2.4844135E+00 -1.2737044E+00
  9.957E+00  9.903E-02  1.434E+00 3.3454649E+00 2.5489439E+00 -1.2276444E+00
  1.000E+01  1.340E-01  1.500E+00 3.3793292E+00 2.4178230E+00 -1.3958730E+00
  9.957E+00  1.218E-01  1.478E+00 3.3633669E+00 2.4842943E+00 -1.3528153E+00
  1.000E+01  1.600E-01  1.543E+00 3.3791011E+00 2.3453382E+00 -1.5147841E+00
  9.957E+00  1.467E-01  1.521E+00 3.3890163E+00 2.4139178E+00 -1.4750951E+00
  1.000E+01  1.881E-01  1.584E+00 3.4101548E+00 2.2668531E+00 -1.6297523E+00
  9.957E+00  1.738E-01  1.563E+00 3.3862388E+00 2.3373708E+00 -1.5935952E+00
  1.000E+01  2.182E-01  1.623E+00 3.4012008E+00 2.1828165E+00 -1.7407380E+00
  9.957E+00  2.029E-01  1.604E+00 3.4071814E+00 2.2550053E+00 -1.7080972E+00
  1.000E+01  2.502E-01  1.662E+00 3.4175950E+00 2.0933368E+00 -1.8473777E+00
  9.957E+00  2.340E-01  1.643E+00 3.4148174E+00 2.1670818E+00 -1.8183968E+00
  1.000E+01  2.841E-01  1.698E+00 3.4175651E+00 1.9986469E+00 -1.9494245E+00
  9.957E+00  2.669E-01  1.680E+00 3.4162853E+00 2.0737423E+00 -1.9241489E+00
  1.000E+01  3.198E-01  1.733E+00 3.4162593E+00 1.8989891E+00 -2.0466273E+00
  9.957E+00  3.018E-01  1.716E+00 3.4175914E+00 1.9752516E+00 -2.0251271E+00
  1.000E+01  3.572E-01  1.766E+00 3.4147918E+00 1.7946198E+00 -2.1387464E+00
  9.957E+00  3.383E-01  1.750E+00 3.4176216E+00 1.8718529E+00 -2.1210714E+00
  1.000E+01  3.962E-01  1.797E+00 3.4071561E+00 1.6857622E+00 -2.2255202E+00
  9.957E+00  3.765E-01  1.782E+00 3.4012278E+00 1.7638005E+00 -2.2117367E+00
  1.000E+01  4.367E-01  1.826E+00 3.3862139E+00 1.5727573E+00 -2.3068085E+00
  9.957E+00  4.163E-01  1.812E+00 3.4101818E+00 1.6513442E+00 -2.2968862E+00
  1.000E+01  4.786E-01  1.853E+00 3.3889919E+00 1.4558068E+00 -2.3823552E+00
  9.957E+00  4.575E-01  1.840E+00 3.3791286E+00 1.5348530E+00 -2.3764117E+00
  1.000E+01  5.217E-01  1.878E+00 3.3633429E+00 1.3351259E+00 -2.4518112E+00
  9.957E+00  5.000E-01  1.866E+00 3.3793567E+00 1.4143665E+00 -2.4498569E+00
  1.000E+01  5.661E-01  1.901E+00 3.3454411E+00 1.2115913E+00 -2.5156148E+00
  9.957E+00  5.438E-01  1.890E+00 3.3454275E+00 1.2905794E+00 -2.5173292E+00
  1.000E+01  6.116E-01  1.921E+00 3.3368821E+00 1.0845613E+00 -2.5729181E+00
  9.957E+00  5.887E-01  1.912E+00 3.3473151E+00 1.1638137E+00 -2.5789162E+00
  1.000E+01  6.580E-01  1.940E+00 3.3032812E+00 9.5399183E-01 -2.6229236E+00
  9.957E+00  6.347E-01  1.931E+00 3.3215419E+00 1.0330713E+00 -2.6331679E+00
  1.000E+01  7.052E-01  1.956E+00 3.2917768E+00 8.2253472E-01 -2.6674824E+00
  9.957E+00  6.815E-01  1.948E+00 3.2929029E+00 9.0004887E-01 -2.6808673E+00
  1.000E+01  7.532E-01  1.969E+00 3.2842980E+00 6.8998053E-01 -2.7062929E+00
  9.957E+00  7.292E-01  1.963E+00 3.2891034E+00 7.6656000E-01 -2.7233432E+00
  1.000E+01  8.019E-01  1.980E+00 3.2677398E+00 5.5441068E-01 -2.7374529E+00
  9.957E+00  7.775E-01  1.975E+00 3.2770366E+00 6.3087280E-01 -2.7589815E+00
  1.000E+01  8.510E-01  1.989E+00 3.2500819E+00 4.1626631E-01 -2.7608774E+00
  9.957E+00  8.264E-01  1.985E+00 3.2588563E+00 4.9196925E-01 -2.7864880E+00
  1.000E+01  9.004E-01  1.995E+00 3.2381932E+00 2.7736851E-01 -2.7776291E+00
  9.957E+00  8.757E-01  1.992E+00 3.2433956E+00 3.5141821E-01 -2.8067409E+00
  1.000E+01  9.502E-01  1.999E+00 3.2326636E+00 1.3861984E-01 -2.7880141E+00
  9.957E+00  9.253E-01  1.997E+00 3.2345235E+00 2.1072644E-01 -2.8205282E+00
  1.000E+01  1.000E+00  2.000E+00 3.2312209E+00 -3.0301374E-07 -2.7915704E+00
  9.957E+00  9.751E-01  2.000E+00 3.2310690E+00 7.0221873E-02 -2.8276442E+00
  1.000E+01  1.050E+00  1.999E+00 3.2326646E+00 -1.3862044E-01 -2.7880141E+00
  9.957E+00  1.025E+00  2.000E+00 3.2310695E+00 -7.0222497E-02 -2.8276442E+00
  1.000E+01  1.100E+00  1.995E+00 3.2381952E+00 -2.7736911E-01 -2.7776291E+00
  9.957E+00  1.075E+00  1.997E+00 3.2345250E+00 -2.1072706E-01 -2.8205281E+00
  1.000E+01  1.149E+00  1.989E+00 3.2500849E+00 -4.1626691E-01 -2.7608773E+00
  9.957E+00  1.124E+00  1.992E+00 3.2433981E+00 -3.5141883E-01 -2.8067408E+00
  1.000E+01  1.198E+00  1.980E+00 3.2677438E+00 -5.5441128E-01 -2.7374528E+00
  9.957E+00  1.174E+00  1.985E+00 3.2588597E+00 -4.9196987E-01 -2.7864879E+00