# TIME = 7.000000
VARIABLES = X, Y, Z, FX, FY, FZ
ZONE N=29232 E=58212 F=FEPOINT ET=TRIANGLE
  0.000E+00  9.502E-01  1.243E-03 3.2239609E+00 1.7047484E-01 3.4287016E+00
  0.000E+00  1.000E+00  0.000E+00 3.2225156E+00 -4.1695191E-07 3.4330749E+00
  4.318E-02  9.751E-01  3.108E-04 3.2223684E+00 8.4298815E-02 3.3944893E+00
  0.000E+00  1.050E+00  1.243E-03 3.2239613E+00 -1.7047567E-01 3.4287016E+00
  4.318E-02  1.025E+00  3.108E-04 3.2223686E+00 -8.4299634E-02 3.3944892E+00
  0.000E+00  1.100E+00  4.969E-03 3.2294944E+00 -3.4110894E-01 3.4159299E+00
  4.318E-02  1.075E+00  2.796E-03 3.2258264E+00 -2.5297036E-01 3.3859467E+00
  0.000E+00  1.149E+00  1.117E-02 3.2413809E+00 -5.1192542E-01 3.3953285E+00
  4.318E-02  1.124E+00  7.761E-03 3.2346989E+00 -4.2186589E-01 3.3693958E+00
  0.000E+00  1.198E+00  1.983E-02 3.2590309E+00 -6.8181518E-01 3.3665211E+00
  4.318E-02  1.174E+00  1.519E-02 3.2501527E+00 -5.9059257E-01 3.3450830E+00
  0.000E+00  1.247E+00  3.092E-02 3.2755912E+00 -8.4853883E-01 3.3282004E+00
  4.318E-02  1.223E+00  2.507E-02 3.2683272E+00 -7.5734152E-01 3.3120622E+00
  0.000E+00  1.295E+00  4.443E-02 3.2831021E+00 -1.0115540E+00 3.2804713E+00
  4.318E-02  1.271E+00  3.738E-02 3.2804108E+00 -9.2022929E-01 3.2692795E+00
  0.000E+00  1.342E+00  6.031E-02 3.2946346E+00 -1.1732203E+00 3.2256729E+00
  4.318E-02  1.318E+00  5.207E-02 3.2842561E+00 -1.0804780E+00 3.2182889E+00
  0.000E+00  1.388E+00  7.852E-02 3.3282047E+00 -1.3337949E+00 3.1641761E+00
  4.318E-02  1.365E+00  6.913E-02 3.3128803E+00 -1.2401667E+00 3.1610279E+00
  0.000E+00  1.434E+00  9.903E-02 3.3367964E+00 -1.4900166E+00 3.0937045E+00
  4.318E-02  1.411E+00  8.849E-02 3.3386413E+00 -1.3971183E+00 3.0959001E+00
  0.000E+00  1.478E+00  1.218E-01 3.3547104E+00 -1.6419393E+00 3.0152387E+00
  4.318E-02  1.456E+00  1.101E-01 3.3368146E+00 -1.5492965E+00 3.0219673E+00
  0.000E+00  1.521E+00  1.467E-01 3.3803392E+00 -1.7903527E+00 2.9298217E+00
  4.318E-02  1.500E+00  1.340E-01 3.3707087E+00 -1.6978986E+00 2.9409693E+00
  0.000E+00  1.563E+00  1.738E-01 3.3776116E+00 -1.9341785E+00 2.8369142E+00
  4.318E-02  1.543E+00  1.600E-01 3.3705250E+00 -1.8425386E+00 2.8528004E+00
  0.000E+00  1.604E+00  2.029E-01 3.3985324E+00 -2.0731519E+00 2.7369458E+00
  4.318E-02  1.584E+00  1.881E-01 3.4015409E+00 -1.9823824E+00 2.7573333E+00
  0.000E+00  1.643E+00  2.340E-01 3.4061764E+00 -2.2070250E+00 2.6302314E+00
  4.318E-02  1.623E+00  2.182E-01 3.3926345E+00 -2.1173824E+00 2.6551139E+00
  0.000E+00  1.680E+00  2.669E-01 3.4076493E+00 -2.3353784E+00 2.5169432E+00
  4.318E-02  1.662E+00  2.502E-01 3.4090079E+00 -2.2470958E+00 2.5462735E+00
  0.000E+00  1.716E+00  3.018E-01 3.4089581E+00 -2.4579376E+00 2.3974031E+00
  4.318E-02  1.698E+00  2.841E-01 3.4089871E+00 -2.3712226E+00 2.4310955E+00
  0.000E+00  1.750E+00  3.383E-01 3.4089788E+00 -2.5743873E+00 2.2719058E+00
  4.318E-02  1.733E+00  3.198E-01 3.4076780E+00 -2.4894569E+00 2.3098743E+00
  0.000E+00  1.782E+00  3.765E-01 3.3926053E+00 -2.6844294E+00 2.1407603E+00
  4.318E-02  1.766E+00  3.572E-01 3.4062051E+00 -2.6015082E+00 2.1829227E+00
  0.000E+00  1.812E+00  4.163E-01 3.4015117E+00 -2.7877776E+00 2.0042700E+00
  4.318E-02  1.797E+00  3.962E-01 3.3985608E+00 -2.7070571E+00 2.0505114E+00
  0.000E+00  1.840E+00  4.575E-01 3.3704959E+00 -2.8842986E+00 1.8628820E+00
  4.318E-02  1.826E+00  4.367E-01 3.3776399E+00 -2.8059343E+00 1.9130558E+00
  0.000E+00  1.866E+00  5.000E-01 3.3706796E+00 -2.9734405E+00 1.7166451E+00
  4.318E-02  1.853E+00  4.786E-01 3.3803670E+00 -2.8978259E+00 1.7708003E+00
  0.000E+00  1.890E+00  5.438E-01 3.3367853E+00 -3.0553334E+00 1.5664021E+00
  4.318E-02  1.878E+00  5.217E-01 3.3547382E+00 -2.9823108E+00 1.6240076E+00
  0.000E+00  1.912E+00  5.887E-01 3.3386123E+00 -3.1300826E+00 1.4125441E+00
  4.318E-02  1.901E+00  5.661E-01 3.3368236E+00 -3.0599196E+00 1.4737438E+00
  0.000E+00  1.931E+00  6.347E-01 3.3128511E+00 -3.1959293E+00 1.2538594E+00
  4.318E-02  1.921E+00  6.116E-01 3.3282318E+00 -3.1296212E+00 1.3192283E+00
  0.000E+00  1.948E+00  6.815E-01 3.2842269E+00 -3.2538230E+00 1.0924073E+00
  4.318E-02  1.940E+00  6.580E-01 3.2946616E+00 -3.1904477E+00 1.1604076E+00
  0.000E+00  1.963E+00  7.292E-01 3.2803820E+00 -3.3053762E+00 9.3038930E-01
  4.318E-02  1.956E+00  7.052E-01 3.2831285E+00 -3.2446468E+00 1.0005067E+00
  0.000E+00  1.975E+00  7.775E-01 3.2682983E+00 -3.3486310E+00 7.6570310E-01
  4.318E-02  1.969E+00  7.532E-01 3.2756172E+00 -3.2918534E+00 8.3927147E-01
  0.000E+00  1.985E+00  8.264E-01 3.2501237E+00 -3.3820164E+00 5.9711300E-01
  4.318E-02  1.980E+00  8.019E-01 3.2590566E+00 -3.3297557E+00 6.7436843E-01
  0.000E+00  1.992E+00  8.757E-01 3.2346697E+00 -3.4065978E+00 4.2652329E-01
  4.318E-02  1.989E+00  8.510E-01 3.2414066E+00 -3.3582493E+00 5.0633401E-01
  0.000E+00  1.997E+00  9.253E-01 3.2257971E+00 -3.4233315E+00 2.5576288E-01
  4.318E-02  1.995E+00  9.004E-01 3.2295200E+00 -3.3786260E+00 3.3738305E-01
  0.000E+00  2.000E+00  9.751E-01 3.2223393E+00 -3.4319683E+00 8.5229781E-02
  4.318E-02  1.999E+00  9.502E-01 3.2239869E+00 -3.3912582E+00 1.6861328E-01
  0.000E+00  2.000E+00  1.025E+00 3.2223390E+00 -3.4319682E+00 -8.5230241E-02
  4.318E-02  2.000E+00  1.000E+00 3.2225411E+00 -3.3955838E+00 -1.8650056E-07
  0.000E+00  1.997E+00  1.075E+00 3.2257962E+00 -3.4233312E+00 -2.5576333E-01
  4.318E-02  1.999E+00  1.050E+00 3.2239863E+00 -3.3912581E+00 -1.6861366E-01
  0.000E+00  1.992E+00  1.124E+00 3.2346682E+00 -3.4065973E+00 -4.2652373E-01
  4.318E-02  1.995E+00  1.100E+00 3.2295188E+00 -3.3786257E+00 -3.3738344E-01
  0.000E+00  1.985E+00  1.174E+00 3.2501216E+00 -3.3820163E+00 -5.9711343E-01
  4.318E-02  1.989E+00  1.149E+00 3.2414048E+00 -3.3582490E+00 -5.0633441E-01
  0.000E+00  1.975E+00  1.223E+00 3.2682956E+00 -3.3486315E+00 -7.6570354E-01
  4.318E-02  1.980E+00  1.198E+00 3.2590542E+00 -3.3297560E+00 -6.7436883E-01
  0.000E+00  1.963E+00  1.271E+00 3.2803788E+00 -3.3053762E+00 -9.3038974E-01
  4.318E-02  1.969E+00  1.247E+00 3.2756142E+00 -3.2918539E+00 -8.3927187E-01
  0.000E+00  1.948E+00  1.318E+00 3.2842232E+00 -3.2538218E+00 -1.0924077E+00
  4.318E-02  1.956E+00  1.295E+00 3.2831250E+00 -3.2446461E+00 -1.0005071E+00
  0.000E+00  1.931E+00  1.365E+00 3.3128468E+00 -3.1959296E+00 -1.2538598E+00
  4.318E-02  1.940E+00  1.342E+00 3.2946575E+00 -3.1904469E+00 -1.1604080E+00
  0.000E+00  1.912E+00  1.411E+00 3.3386074E+00 -3.1300832E+00 -1.4125446E+00
  4.318E-02  1.921E+00  1.388E+00 3.3282271E+00 -3.1296221E+00 -1.3192287E+00
  0.000E+00  1.890E+00  1.456E+00 3.3367799E+00 -3.0553323E+00 -1.5664025E+00
  4.318E-02  1.901E+00  1.434E+00 3.3368184E+00 -3.0599191E+00 -1.4737442E+00
  0.000E+00  1.866E+00  1.500E+00 3.3706737E+00 -2.9734409E+00 -1.7166455E+00
  4.318E-02  1.878E+00  1.478E+00 3.3547325E+00 -2.9823104E+00 -1.6240080E+00
  0.000E+00  1.840E+00  1.543E+00 3.3704895E+00 -2.8842985E+00 -1.8628824E+00
  4.318E-02  1.853E+00  1.521E+00 3.3803608E+00 -2.8978264E+00 -1.7708007E+00
  0.000E+00  1.812E+00  1.584E+00 3.4015049E+00 -2.7877775E+00 -2.0042704E+00
  4.318E-02  1.826E+00  1.563E+00 3.3776333E+00 -2.8059339E+00 -1.9130562E+00
  0.000E+00  1.782E+00  1.623E+00 3.3925981E+00 -2.6844294E+00 -2.1407607E+00
  4.318E-02  1.797E+00  1.604E+00 3.3985537E+00 -2.7070573E+00 -2.0505118E+00
  0.000E+00  1.750E+00  1.662E+00 3.4089711E+00 -2.5743871E+00 -2.2719062E+00
  4.318E-02  1.766E+00  1.643E+00 3.4061976E+00 -2.6015080E+00 -2.1829231E+00
  0.000E+00  1.716E+00  1.698E+00 3.4089501E+00 -2.4579376E+00 -2.3974035E+00
  4.318E-02  1.733E+00  1.680E+00 3.4076701E+00 -2.4894570E+00 -2.3098747E+00
  0.000E+00  1.680E+00  1.733E+00 3.4076408E+00 -2.3353783E+00 -2.5169436E+00
  4.318E-02  1.698E+00  1.716E+00 3.4089789E+00 -2.3712225E+00 -2.4310959E+00
  0.000E+00  1.643E+00  1.766E+00 3.4061676E+00 -2.2070249E+00 -2.6302317E+00
  4.318E-02  1.662E+00  1.750E+00 3.4089992E+00 -2.2470958E+00 -2.5462739E+00
  0.000E+00  1.604E+00  1.797E+00 3.3985233E+00 -2.0731517E+00 -2.7369462E+00
  4.318E-02  1.623E+00  1.782E+00 3.3926255E+00 -2.1173823E+00 -2.6551143E+00
  0.000E+00  1.563E+00  1.826E+00 3.3776022E+00 -1.9341783E+00 -2.8369145E+00
  4.318E-02  1.584E+00  1.812E+00 3.4015316E+00 -1.9823823E+00 -2.7573337E+00
  0.000E+00  1.521E+00  1.853E+00 3.3803295E+00 -1.7903526E+00 -2.9298220E+00
  4.318E-02  1.543E+00  1.840E+00 3.3705155E+00 -1.8425384E+00 -2.8528008E+00
  0.000E+00  1.478E+00  1.878E+00 3.3547005E+00 -1.6419391E+00 -3.0152390E+00
  4.318E-02  1.500E+00  1.866E+00 3.3706989E+00 -1.6978985E+00 -2.9409697E+00
  0.000E+00  1.434E+00  1.901E+00 3.3367862E+00 -1.4900162E+00 -3.0937047E+00
  4.318E-02  1.456E+00  1.890E+00 3.3368045E+00 -1.5492964E+00 -3.0219677E+00
  0.000E+00  1.388E+00  1.921E+00 3.3281945E+00 -1.3337946E+00 -3.1641764E+00
  4.318E-02  1.411E+00  1.912E+00 3.3386310E+00 -1.3971183E+00 -3.0959005E+00
  0.000E+00  1.342E+00  1.940E+00 3.2946242E+00 -1.1732202E+00 -3.2256732E+00
  4.318E-02  1.365E+00  1.931E+00 3.3128698E+00 -1.2401665E+00 -3.1610282E+00
  0.000E+00  1.295E+00  1.956E+00 3.2830914E+00 -1.0115542E+00 -3.2804717E+00
  4.318E-02  1.318E+00  1.948E+00 3.2842455E+00 -1.0804776E+00 -3.2182892E+00
  0.000E+00  1.247E+00  1.969E+00 3.2755803E+00 -8.4853896E-01 -3.3282008E+00
  4.318E-02  1.271E+00  1.963E+00 3.2804002E+00 -9.2022874E-01 -3.2692797E+00
  0.000E+00  1.198E+00  1.980E+00 3.2590199E+00 -6.8181514E-01 -3.3665214E+00
  4.318E-02  1.223E+00  1.975E+00 3.2683164E+00 -7.5734103E-01 -3.3120625E+00
  0.000E+00  1.149E+00  1.989E+00 3.2413699E+00 -5.1192515E-01 -3.3953289E+00
  4.318E-02  1.174E+00  1.985E+00 3.2501418E+00 -5.9059223E-01 -3.3450832E+00
  0.000E+00  1.100E+00  1.995E+00 3.2294833E+00 -3.4110854E-01 -3.4159302E+00
  4.318E-02  1.124E+00  1.992E+00 3.2346879E+00 -4.2186567E-01 -3.3693960E+00
  0.000E+00  1.050E+00  1.999E+00 3.2239501E+00 -1.7047529E-01 -3.4287017E+00
  4.318E-02  1.075E+00  1.997E+00 3.2258154E+00 -2.5297016E-01 -3.3859470E+00
  0.000E+00  1.000E+00  2.000E+00 3.2225046E+00 -9.2962821E-08 -3.4330752E+00
  4.318E-02  1.025E+00  2.000E+00 3.2223576E+00 -8.4299374E-02 -3.3944895E+00
  0.000E+00  9.502E-01  1.999E+00 3.2239497E+00 1.7047510E-01 -3.4287017E+00
  4.318E-02  9.751E-01  2.000E+00 3.2223574E+00 8.4299154E-02 -3.3944895E+00
  0.000E+00  9.004E-01  1.995E+00 3.2294826E+00 3.4110836E-01 -3.4159302E+00
  4.318E-02  9.253E-01  1.997E+00 3.2258148E+00 2.5296994E-01 -3.3859470E+00
  0.000E+00  8.510E-01  1.989E+00 3.2413687E+00 5.1192498E-01 -3.3953289E+00
  4.318E-02  8.757E-01  1.992E+00 3.2346870E+00 4.2186546E-01 -3.3693960E+00
  0.000E+00  8.019E-01  1.980E+00 3.2590183E+00 6.8181498E-01 -3.3665214E+00
  4.318E-02  8.264E-01  1.985E+00 3.2501405E+00 5.9059203E-01 -3.3450832E+00
  0.000E+00  7.532E-01  1.969E+00 3.2755784E+00 8.4853882E-01 -3.3282008E+00
  4.318E-02  7.775E-01  1.975E+00 3.2683147E+00 7.5734084E-01 -3.3120625E+00
  0.000E+00  7.052E-01  1.956E+00 3.2830891E+00 1.0115540E+00 -3.2804717E+00
  4.318E-02  7.292E-01  1.963E+00 3.2803981E+00 9.2022858E-01 -3.2692797E+00
  0.000E+00  6.580E-01  1.940E+00 3.2946215E+00 1.1732201E+00 -3.2256732E+00
  4.318E-02  6.815E-01  1.948E+00 3.2842430E+00 1.0804774E+00 -3.2182892E+00
  0.000E+00  6.116E-01  1.921E+00 3.3281914E+00 1.3337945E+00 -3.1641764E+00
  4.318E-02  6.347E-01  1.931E+00 3.3128670E+00 1.2401664E+00 -3.1610282E+00
  0.000E+00  5.661E-01  1.901E+00 3.3367828E+00 1.4900161E+00 -3.0937047E+00
  4.318E-02  5.887E-01  1.912E+00 3.3386279E+00 1.3971182E+00 -3.0959006E+00
  0.000E+00  5.217E-01  1.878E+00 3.3546968E+00 1.6419391E+00 -3.0152390E+00
  4.318E-02  5.438E-01  1.890E+00 3.3368010E+00 1.5492963E+00 -3.0219677E+00
  0.000E+00  4.786E-01  1.853E+00 3.3803255E+00 1.7903526E+00 -2.9298220E+00
  4.318E-02  5.000E-01  1.866E+00 3.3706951E+00 1.6978985E+00 -2.9409697E+00
  0.000E+00  4.367E-01  1.826E+00 3.3775979E+00 1.9341784E+00 -2.8369145E+00
  4.318E-02  4.575E-01  1.840E+00 3.3705113E+00 1.8425384E+00 -2.8528008E+00
  0.000E+00  3.962E-01  1.797E+00 3.3985187E+00 2.0731518E+00 -2.7369462E+00
  4.318E-02  4.163E-01  1.812E+00 3.4015272E+00 1.9823823E+00 -2.7573336E+00
  0.000E+00  3.572E-01  1.766E+00 3.4061628E+00 2.2070250E+00 -2.6302317E+00
  4.318E-02  3.765E-01  1.782E+00 3.3926208E+00 2.1173824E+00 -2.6551143E+00
  0.000E+00  3.198E-01  1.733E+00 3.4076357E+00 2.3353784E+00 -2.5169435E+00
  4.318E-02  3.383E-01  1.750E+00 3.4089943E+00 2.2470958E+00 -2.5462738E+00
  0.000E+00  2.841E-01  1.698E+00 3.4089447E+00 2.4579377E+00 -2.3974034E+00
  4.318E-02  3.018E-01  1.716E+00 3.4089736E+00 2.3712227E+00 -2.4310959E+00
  0.000E+00  2.502E-01  1.662E+00 3.4089655E+00 2.5743874E+00 -2.2719062E+00
  4.318E-02  2.669E-01  1.680E+00 3.4076646E+00 2.4894570E+00 -2.3098747E+00
  0.000E+00  2.182E-01  1.623E+00 3.3925922E+00 2.6844295E+00 -2.1407606E+00
  4.318E-02  2.340E-01  1.643E+00 3.4061919E+00 2.6015084E+00 -2.1829230E+00
  0.000E+00  1.881E-01  1.584E+00 3.4014988E+00 2.7877778E+00 -2.0042703E+00
  4.318E-02  2.029E-01  1.604E+00 3.3985478E+00 2.7070573E+00 -2.0505117E+00
  0.000E+00  1.600E-01  1.543E+00 3.3704833E+00 2.8842988E+00 -1.8628823E+00
  4.318E-02  1.738E-01  1.563E+00 3.3776272E+00 2.8059346E+00 -1.9130561E+00
  0.000E+00  1.340E-01  1.500E+00 3.3706673E+00 2.9734407E+00 -1.7166453E+00
  4.318E-02  1.467E-01  1.521E+00 3.3803546E+00 2.8978262E+00 -1.7708006E+00
  0.000E+00  1.101E-01  1.456E+00 3.3367733E+00 3.0553337E+00 -1.5664023E+00
  4.318E-02  1.218E-01  1.478E+00 3.3547261E+00 2.9823111E+00 -1.6240079E+00
  0.000E+00  8.849E-02  1.411E+00 3.3386008E+00 3.1300829E+00 -1.4125444E+00
  4.318E-02  9.903E-02  1.434E+00 3.3368119E+00 3.0599200E+00 -1.4737441E+00
  0.000E+00  6.913E-02  1.365E+00 3.3128400E+00 3.1959297E+00 -1.2538596E+00
  4.318E-02  7.852E-02  1.388E+00 3.3282205E+00 3.1296215E+00 -1.3192285E+00
  0.000E+00  5.207E-02  1.318E+00 3.2842163E+00 3.2538233E+00 -1.0924075E+00
  4.318E-02  6.031E-02  1.342E+00 3.2946508E+00 3.1904481E+00 -1.1604078E+00
  0.000E+00  3.738E-02  1.271E+00 3.2803718E+00 3.3053765E+00 -9.3038951E-01
  4.318E-02  4.443E-02  1.295E+00 3.2831181E+00 3.2446472E+00 -1.0005069E+00
  0.000E+00  2.507E-02  1.223E+00 3.2682886E+00 3.3486314E+00 -7.6570329E-01
  4.318E-02  3.092E-02  1.247E+00 3.2756072E+00 3.2918538E+00 -8.3927165E-01
  0.000E+00  1.519E-02  1.174E+00 3.2501145E+00 3.3820168E+00 -5.9711317E-01
  4.318E-02  1.983E-02  1.198E+00 3.2590472E+00 3.3297562E+00 -6.7436860E-01
  0.000E+00  7.761E-03  1.124E+00 3.2346611E+00 3.4065981E+00 -4.2652344E-01
  4.318E-02  1.117E-02  1.149E+00 3.2413978E+00 3.3582498E+00 -5.0633416E-01
  0.000E+00  2.796E-03  1.075E+00 3.2257891E+00 3.4233319E+00 -2.5576303E-01
  4.318E-02  4.969E-03  1.100E+00 3.2295117E+00 3.3786265E+00 -3.3738317E-01
  0.000E+00  3.108E-04  1.025E+00 3.2223318E+00 3.4319687E+00 -8.5229925E-02
  4.318E-02  1.243E-03  1.050E+00 3.2239792E+00 3.3912587E+00 -1.6861337E-01
  0.000E+00  3.108E-04  9.751E-01 3.2223321E+00 3.4319686E+00 8.5230113E-02
  4.318E-02  0.000E+00  1.000E+00 3.2225340E+00 3.3955842E+00 1.1438159E-07
  0.000E+00  2.796E-03  9.253E-01 3.2257900E+00 3.4233315E+00 2.5576323E-01
  4.318E-02  1.243E-03  9.502E-01 3.2239798E+00 3.3912585E+00 1.6861360E-01
  0.000E+00  7.761E-03  8.757E-01 3.2346626E+00 3.4065977E+00 4.2652365E-01
  4.318E-02  4.969E-03  9.004E-01 3.2295129E+00 3.3786260E+00 3.3738338E-01
  0.000E+00  1.519E-02  8.264E-01 3.2501165E+00 3.3820167E+00 5.9711338E-01
  4.318E-02  1.117E-02  8.510E-01 3.2413996E+00 3.3582494E+00 5.0633436E-01
  0.000E+00  2.507E-02  7.775E-01 3.2682912E+00 3.3486318E+00 7.6570349E-01
  4.318E-02  1.983E-02  8.019E-01 3.2590496E+00 3.3297563E+00 6.7436880E-01
  0.000E+00  3.738E-02  7.292E-01 3.2803750E+00 3.3053765E+00 9.3038970E-01
  4.318E-02  3.092E-02  7.532E-01 3.2756102E+00 3.2918542E+00 8.3927185E-01
  0.000E+00  5.207E-02  6.815E-01 3.2842201E+00 3.2538220E+00 1.0924077E+00
  4.318E-02  4.443E-02  7.052E-01 3.2831217E+00 3.2446464E+00 1.0005071E+00
  0.000E+00  6.913E-02  6.347E-01 3.3128443E+00 3.1959298E+00 1.2538598E+00
  4.318E-02  6.031E-02  6.580E-01 3.2946549E+00 3.1904471E+00 1.1604080E+00
  0.000E+00  8.849E-02  5.887E-01 3.3386056E+00 3.1300833E+00 1.4125446E+00
  4.318E-02  7.852E-02  6.116E-01 3.3282251E+00 3.1296223E+00 1.3192287E+00
  0.000E+00  1.101E-01  5.438E-01 3.3367787E+00 3.0553324E+00 1.5664025E+00
  4.318E-02  9.903E-02  5.661E-01 3.3368171E+00 3.0599193E+00 1.4737442E+00
  0.000E+00  1.340E-01  5.000E-01 3.3706732E+00 2.9734410E+00 1.7166455E+00
  4.318E-02  1.218E-01  5.217E-01 3.3547318E+00 2.9823105E+00 1.6240080E+00
  0.000E+00  1.600E-01  4.575E-01 3.3704897E+00 2.8842985E+00 1.8628824E+00
  4.318E-02  1.467E-01  4.786E-01 3.3803608E+00 2.8978265E+00 1.7708007E+00
  0.000E+00  1.881E-01  4.163E-01 3.4015057E+00 2.7877775E+00 2.0042704E+00
  4.318E-02  1.738E-01  4.367E-01 3.3776339E+00 2.8059339E+00 1.9130562E+00
  0.000E+00  2.182E-01  3.765E-01 3.3925995E+00 2.6844294E+00 2.1407607E+00
  4.318E-02  2.029E-01  3.962E-01 3.3985549E+00 2.7070573E+00 2.0505119E+00
  0.000E+00  2.502E-01  3.383E-01 3.4089732E+00 2.5743870E+00 2.2719062E+00
  4.318E-02  2.340E-01  3.572E-01 3.4061994E+00 2.6015079E+00 2.1829231E+00
  0.000E+00  2.841E-01  3.018E-01 3.4089527E+00 2.4579375E+00 2.3974035E+00
  4.318E-02  2.669E-01  3.198E-01 3.4076725E+00 2.4894568E+00 2.3098747E+00
  0.000E+00  3.198E-01  2.669E-01 3.4076441E+00 2.3353781E+00 2.5169436E+00
  4.318E-02  3.018E-01  2.841E-01 3.4089819E+00 2.3712223E+00 2.4310959E+00
  0.000E+00  3.572E-01  2.340E-01 3.4061715E+00 2.2070247E+00 2.6302317E+00
  4.318E-02  3.383E-01  2.502E-01 3.4090029E+00 2.2470955E+00 2.5462739E+00
  0.000E+00  3.962E-01  2.029E-01 3.3985278E+00 2.0731514E+00 2.7369462E+00
  4.318E-02  3.765E-01  2.182E-01 3.3926298E+00 2.1173820E+00 2.6551143E+00
  0.000E+00  4.367E-01  1.738E-01 3.3776073E+00 1.9341780E+00 2.8369146E+00
  4.318E-02  4.163E-01  1.881E-01 3.4015364E+00 1.9823820E+00 2.7573336E+00
  0.000E+00  4.786E-01  1.467E-01 3.3803352E+00 1.7903522E+00 2.9298220E+00
  4.318E-02  4.575E-01  1.600E-01 3.3705209E+00 1.8425381E+00 2.8528008E+00
  0.000E+00  5.217E-01  1.218E-01 3.3547067E+00 1.6419387E+00 3.0152390E+00
  4.318E-02  5.000E-01  1.340E-01 3.3707049E+00 1.6978981E+00 2.9409696E+00
  0.000E+00  5.661E-01  9.903E-02 3.3367930E+00 1.4900159E+00 3.0937048E+00
  4.318E-02  5.438E-01  1.101E-01 3.3368111E+00 1.5492958E+00 3.0219676E+00
  0.000E+00  6.116E-01  7.852E-02 3.3282017E+00 1.3337943E+00 3.1641764E+00
  4.318E-02  5.887E-01  8.849E-02 3.3386381E+00 1.3971177E+00 3.0959004E+00
  0.000E+00  6.580E-01  6.031E-02 3.2946319E+00 1.1732196E+00 3.2256731E+00
  4.318E-02  6.347E-01  6.913E-02 3.3128775E+00 1.2401660E+00 3.1610281E+00
  0.000E+00  7.052E-01  4.443E-02 3.2830998E+00 1.0115533E+00 3.2804715E+00
  4.318E-02  6.815E-01  5.207E-02 3.2842536E+00 1.0804773E+00 3.2182891E+00
  0.000E+00  7.532E-01  3.092E-02 3.2755893E+00 8.4853806E-01 3.3282006E+00
  4.318E-02  7.292E-01  3.738E-02 3.2804087E+00 9.2022855E-01 3.2692797E+00
  0.000E+00  8.019E-01  1.983E-02 3.2590293E+00 6.8181439E-01 3.3665212E+00
  4.318E-02  7.775E-01  2.507E-02 3.2683255E+00 7.5734075E-01 3.3120624E+00
  0.000E+00  8.510E-01  1.117E-02 3.2413798E+00 5.1192461E-01 3.3953286E+00
  4.318E-02  8.264E-01  1.519E-02 3.2501514E+00 5.9059178E-01 3.3450831E+00
  0.000E+00  9.004E-01  4.969E-03 3.2294936E+00 3.4110812E-01 3.4159299E+00
  4.318E-02  8.757E-01  7.761E-03 3.2346980E+00 4.2186508E-01 3.3693959E+00
  4.318E-02  9.253E-01  2.796E-03 3.2258258E+00 2.5296954E-01 3.3859468E+00
  1.000E+01  1.050E+00  1.243E-03 3.2239613E+00 -1.7047567E-01 3.4287016E+00
  1.000E+01  1.000E+00  5.551E-16 3.2225156E+00 -4.1695191E-07 3.4330749E+00
  9.957E+00  1.025E+00  3.108E-04 3.2223642E+00 -8.6172442E-02 3.4698996E+00
  1.000E+01  9.502E-01  1.243E-03 3.2239609E+00 1.7047484E-01 3.4287016E+00
  9.957E+00  9.751E-01  3.108E-04 3.2223640E+00 8.6171597E-02 3.4698996E+00
  1.000E+01  9.004E-01  4.969E-03 3.2294936E+00 3.4110812E-01 3.4159299E+00
  9.957E+00  9.253E-01  2.796E-03 3.2258214E+00 2.5858952E-01 3.4611672E+00
  1.000E+01  8.510E-01  1.117E-02 3.2413798E+00 5.1192461E-01 3.3953286E+00
  9.957E+00  8.757E-01  7.761E-03 3.2346934E+00 4.3123725E-01 3.4442485E+00
  1.000E+01  8.019E-01  1.983E-02 3.2590293E+00 6.8181439E-01 3.3665212E+00
  9.957E+00  8.264E-01  1.519E-02 3.2501467E+00 6.0371239E-01 3.4193954E+00
  1.000E+01  7.532E-01  3.092E-02 3.2755893E+00 8.4853806E-01 3.3282006E+00
  9.957E+00  7.775E-01  2.507E-02 3.2683209E+00 7.7416589E-01 3.3856413E+00
  1.000E+01  7.052E-01  4.443E-02 3.2830998E+00 1.0115533E+00 3.2804715E+00
  9.957E+00  7.292E-01  3.738E-02 3.2804044E+00 9.4067244E-01 3.3419083E+00
  1.000E+01  6.580E-01  6.031E-02 3.2946319E+00 1.1732196E+00 3.2256731E+00
  9.957E+00  6.815E-01  5.207E-02 3.2842492E+00 1.1044812E+00 3.2897847E+00
  1.000E+01  6.116E-01  7.852E-02 3.3282017E+00 1.3337943E+00 3.1641764E+00
  9.957E+00  6.347E-01  6.913E-02 3.3128727E+00 1.2677173E+00 3.2312511E+00
  1.000E+01  5.661E-01  9.903E-02 3.3367930E+00 1.4900159E+00 3.0937048E+00
  9.957E+00  5.887E-01  8.849E-02 3.3386335E+00 1.4281557E+00 3.1646769E+00
  1.000E+01  5.217E-01  1.218E-01 3.3547067E+00 1.6419387E+00 3.0152390E+00
  9.957E+00  5.438E-01  1.101E-01 3.3368064E+00 1.5837144E+00 3.0891014E+00
  1.000E+01  4.786E-01  1.467E-01 3.3803352E+00 1.7903522E+00 2.9298220E+00
  9.957E+00  5.000E-01  1.340E-01 3.3707002E+00 1.7356179E+00 3.0063039E+00
  1.000E+01  4.367E-01  1.738E-01 3.3776073E+00 1.9341780E+00 2.8369146E+00
  9.957E+00  4.575E-01  1.600E-01 3.3705164E+00 1.8834711E+00 2.9161767E+00
  1.000E+01  3.962E-01  2.029E-01 3.3985278E+00 2.0731514E+00 2.7369462E+00
  9.957E+00  4.163E-01  1.881E-01 3.4015317E+00 2.0264214E+00 2.8185883E+00
  1.000E+01  3.572E-01  2.340E-01 3.4061715E+00 2.2070247E+00 2.6302317E+00
  9.957E+00  3.765E-01  2.182E-01 3.3926252E+00 2.1644204E+00 2.7140984E+00
  1.000E+01  3.198E-01  2.669E-01 3.4076441E+00 2.3353781E+00 2.5169436E+00
  9.957E+00  3.383E-01  2.502E-01 3.4089981E+00 2.2970154E+00 2.6028399E+00
  1.000E+01  2.841E-01  3.018E-01 3.4089527E+00 2.4579375E+00 2.3974035E+00
  9.957E+00  3.018E-01  2.841E-01 3.4089771E+00 2.4238995E+00 2.4851034E+00
  1.000E+01  2.502E-01  3.383E-01 3.4089732E+00 2.5743870E+00 2.2719062E+00
  9.957E+00  2.669E-01  3.198E-01 3.4076680E+00 2.5447609E+00 2.3611895E+00
  1.000E+01  2.182E-01  3.765E-01 3.3925995E+00 2.6844294E+00 2.1407607E+00
  9.957E+00  2.340E-01  3.572E-01 3.4061946E+00 2.6593009E+00 2.2314174E+00
  1.000E+01  1.881E-01  4.163E-01 3.4015057E+00 2.7877775E+00 2.0042704E+00
  9.957E+00  2.029E-01  3.962E-01 3.3985503E+00 2.7671952E+00 2.0960649E+00
  1.000E+01  1.600E-01  4.575E-01 3.3704897E+00 2.8842985E+00 1.8628824E+00
  9.957E+00  1.738E-01  4.367E-01 3.3776290E+00 2.8682681E+00 1.9555556E+00
  1.000E+01  1.340E-01  5.000E-01 3.3706732E+00 2.9734410E+00 1.7166455E+00
  9.957E+00  1.467E-01  4.786E-01 3.3803561E+00 2.9622025E+00 1.8101400E+00
  1.000E+01  1.101E-01  5.438E-01 3.3367787E+00 3.0553324E+00 1.5664025E+00
  9.957E+00  1.218E-01  5.217E-01 3.3547270E+00 3.0485630E+00 1.6600863E+00
  1.000E+01  8.849E-02  5.887E-01 3.3386056E+00 3.1300833E+00 1.4125446E+00
  9.957E+00  9.903E-02  5.661E-01 3.3368127E+00 3.1278966E+00 1.5064846E+00
  1.000E+01  6.913E-02  6.347E-01 3.3128443E+00 3.1959298E+00 1.2538598E+00
  9.957E+00  7.852E-02  6.116E-01 3.3282204E+00 3.1991477E+00 1.3485363E+00
  1.000E+01  5.207E-02  6.815E-01 3.2842201E+00 3.2538220E+00 1.0924077E+00
  9.957E+00  6.031E-02  6.580E-01 3.2946500E+00 3.2613237E+00 1.1861872E+00
  1.000E+01  3.738E-02  7.292E-01 3.2803750E+00 3.3053765E+00 9.3038970E-01
  9.957E+00  4.443E-02  7.052E-01 3.2831171E+00 3.3167276E+00 1.0227341E+00
  1.000E+01  2.507E-02  7.775E-01 3.2682912E+00 3.3486318E+00 7.6570349E-01
  9.957E+00  3.092E-02  7.532E-01 3.2756056E+00 3.3649841E+00 8.5791701E-01
  1.000E+01  1.519E-02  8.264E-01 3.2501165E+00 3.3820167E+00 5.9711338E-01
  9.957E+00  1.983E-02  8.019E-01 3.2590449E+00 3.4037282E+00 6.8935067E-01
  1.000E+01  7.761E-03  8.757E-01 3.2346626E+00 3.4065977E+00 4.2652365E-01
  9.957E+00  1.117E-02  8.510E-01 3.2413950E+00 3.4328543E+00 5.1758331E-01
  1.000E+01  2.796E-03  9.253E-01 3.2257900E+00 3.4233315E+00 2.5576323E-01
  9.957E+00  4.969E-03  9.004E-01 3.2295084E+00 3.4536837E+00 3.4487891E-01
  1.000E+01  3.108E-04  9.751E-01 3.2223321E+00 3.4319686E+00 8.5230113E-02
  9.957E+00  1.243E-03  9.502E-01 3.2239752E+00 3.4665969E+00 1.7235965E-01
  1.000E+01  3.108E-04  1.025E+00 3.2223318E+00 3.4319687E+00 -8.5229925E-02
  9.957E+00  0.000E+00  1.000E+00 3.2225294E+00 3.4710187E+00 1.0585189E-07
  1.000E+01  2.796E-03  1.075E+00 3.2257891E+00 3.4233319E+00 -2.5576303E-01
  9.957E+00  1.243E-03  1.050E+00 3.2239746E+00 3.4665971E+00 -1.7235944E-01
  1.000E+01  7.761E-03  1.124E+00 3.2346611E+00 3.4065981E+00 -4.2652344E-01
  9.957E+00  4.969E-03  1.100E+00 3.2295072E+00 3.4536842E+00 -3.4487872E-01
  1.000E+01  1.519E-02  1.174E+00 3.2501145E+00 3.3820168E+00 -5.9711317E-01
  9.957E+00  1.117E-02  1.149E+00 3.2413932E+00 3.4328547E+00 -5.1758312E-01
  1.000E+01  2.507E-02  1.223E+00 3.2682886E+00 3.3486314E+00 -7.6570329E-01
  9.957E+00  1.983E-02  1.198E+00 3.2590425E+00 3.4037280E+00 -6.8935048E-01
  1.000E+01  3.738E-02  1.271E+00 3.2803718E+00 3.3053765E+00 -9.3038951E-01
  9.957E+00  3.092E-02  1.247E+00 3.2756026E+00 3.3649837E+00 -8.5791683E-01
  1.000E+01  5.207E-02  1.318E+00 3.2842163E+00 3.2538233E+00 -1.0924075E+00
  9.957E+00  4.443E-02  1.295E+00 3.2831135E+00 3.3167284E+00 -1.0227339E+00
  1.000E+01  6.913E-02  1.365E+00 3.3128400E+00 3.1959297E+00 -1.2538596E+00
  9.957E+00  6.031E-02  1.342E+00 3.2946459E+00 3.2613246E+00 -1.1861870E+00
  1.000E+01  8.849E-02  1.411E+00 3.3386008E+00 3.1300829E+00 -1.4125444E+00
  9.957E+00  7.852E-02  1.388E+00 3.3282157E+00 3.1991469E+00 -1.3485362E+00
  1.000E+01  1.101E-01  1.456E+00 3.3367733E+00 3.0553337E+00 -1.5664023E+00
  9.957E+00  9.903E-02  1.434E+00 3.3368075E+00 3.1278973E+00 -1.5064845E+00
  1.000E+01  1.340E-01  1.500E+00 3.3706673E+00 2.9734407E+00 -1.7166453E+00
  9.957E+00  1.218E-01  1.478E+00 3.3547213E+00 3.0485636E+00 -1.6600861E+00
  1.000E+01  1.600E-01  1.543E+00 3.3704833E+00 2.8842988E+00 -1.8628823E+00
  9.957E+00  1.467E-01  1.521E+00 3.3803499E+00 2.9622022E+00 -1.8101399E+00
  1.000E+01  1.881E-01  1.584E+00 3.4014988E+00 2.7877778E+00 -2.0042703E+00
  9.957E+00  1.738E-01  1.563E+00 3.3776224E+00 2.8682688E+00 -1.9555554E+00
  1.000E+01  2.182E-01  1.623E+00 3.3925922E+00 2.6844295E+00 -2.1407606E+00
  9.957E+00  2.029E-01  1.604E+00 3.3985432E+00 2.7671952E+00 -2.0960648E+00
  1.000E+01  2.502E-01  1.662E+00 3.4089655E+00 2.5743874E+00 -2.2719062E+00
  9.957E+00  2.340E-01  1.643E+00 3.4061871E+00 2.6593013E+00 -2.2314173E+00
  1.000E+01  2.841E-01  1.698E+00 3.4089447E+00 2.4579377E+00 -2.3974034E+00
  9.957E+00  2.669E-01  1.680E+00 3.4076600E+00 2.5447611E+00 -2.3611894E+00
  1.000E+01  3.198E-01  1.733E+00 3.4076357E+00 2.3353784E+00 -2.5169435E+00
  9.957E+00  3.018E-01  1.716E+00 3.4089688E+00 2.4238999E+00 -2.4851033E+00
  1.000E+01  3.572E-01  1.766E+00 3.4061628E+00 2.2070250E+00 -2.6302317E+00
  9.957E+00  3.383E-01  1.750E+00 3.4089895E+00 2.2970157E+00 -2.6028398E+00
  1.000E+01  3.962E-01  1.797E+00 3.3985187E+00 2.0731518E+00 -2.7369462E+00
  9.957E+00  3.765E-01  1.782E+00 3.3926162E+00 2.1644208E+00 -2.7140984E+00
  1.000E+01  4.367E-01  1.826E+00 3.3775979E+00 1.9341784E+00 -2.8369145E+00
  9.957E+00  4.163E-01  1.812E+00 3.4015224E+00 2.0264218E+00 -2.8185883E+00
  1.000E+01  4.786E-01  1.853E+00 3.3803255E+00 1.7903526E+00 -2.9298220E+00
  9.957E+00  4.575E-01  1.840E+00 3.3705069E+00 1.8834714E+00 -2.9161766E+00
  1.000E+01  5.217E-01  1.878E+00 3.3546968E+00 1.6419391E+00 -3.0152390E+00
  9.957E+00  5.000E-01  1.866E+00 3.3706904E+00 1.7356183E+00 -3.0063038E+00
  1.000E+01  5.661E-01  1.901E+00 3.3367828E+00 1.4900161E+00 -3.0937047E+00
  9.957E+00  5.438E-01  1.890E+00 3.3367963E+00 1.5837149E+00 -3.0891014E+00
  1.000E+01  6.116E-01  1.921E+00 3.3281914E+00 1.3337945E+00 -3.1641764E+00
  9.957E+00  5.887E-01  1.912E+00 3.3386232E+00 1.4281562E+00 -3.1646769E+00
  1.000E+01  6.580E-01  1.940E+00 3.2946215E+00 1.1732201E+00 -3.2256732E+00
  9.957E+00  6.347E-01  1.931E+00 3.3128622E+00 1.2677177E+00 -3.2312511E+00
  1.000E+01  7.052E-01  1.956E+00 3.2830891E+00 1.0115540E+00 -3.2804717E+00
  9.957E+00  6.815E-01  1.948E+00 3.2842386E+00 1.1044814E+00 -3.2897847E+00
  1.000E+01  7.532E-01  1.969E+00 3.2755784E+00 8.4853882E-01 -3.3282008E+00
  9.957E+00  7.292E-01  1.963E+00 3.2803937E+00 9.4067250E-01 -3.3419083E+00
  1.000E+01  8.019E-01  1.980E+00 3.2590183E+00 6.8181498E-01 -3.3665214E+00
  9.957E+00  7.775E-01  1.975E+00 3.2683101E+00 7.7416600E-01 -3.3856412E+00
  1.000E+01  8.510E-01  1.989E+00 3.2413687E+00 5.1192498E-01 -3.3953289E+00
  9.957E+00  8.264E-01  1.985E+00 3.2501358E+00 6.0371266E-01 -3.4193954E+00
  1.000E+01  9.004E-01  1.995E+00 3.2294826E+00 3.4110836E-01 -3.4159302E+00
  9.957E+00  8.757E-01  1.992E+00 3.2346824E+00 4.3123765E-01 -3.4442485E+00
  1.000E+01  9.502E-01  1.999E+00 3.2239497E+00 1.7047510E-01 -3.4287017E+00
  9.957E+00  9.253E-01  1.997E+00 3.2258103E+00 2.5858995E-01 -3.4611673E+00
  1.000E+01  1.000E+00  2.000E+00 3.2225046E+00 -9.2962821E-08 -3.4330752E+00
  9.957E+00  9.751E-01  2.000E+00 3.2223529E+00 8.6171979E-02 -3.4698997E+00
  1.000E+01  1.050E+00  1.999E+00 3.2239501E+00 -1.7047529E-01 -3.4287017E+00
  9.957E+00  1.025E+00  2.000E+00 3.2223531E+00 -8.6172132E-02 -3.4698997E+00
  1.000E+01  1.100E+00  1.995E+00 3.2294833E+00 -3.4110854E-01 -3.4159302E+00
  9.957E+00  1.075E+00  1.997E+00 3.2258109E+00 -2.5859010E-01 -3.4611673E+00
  1.000E+01  1.149E+00  1.989E+00 3.2413699E+00 -5.1192515E-01 -3.3953289E+00
  9.957E+00  1.124E+00  1.992E+00 3.2346834E+00 -4.3123779E-01 -3.4442485E+00
  1.000E+01  1.198E+00  1.980E+00 3.2590199E+00 -6.8181514E-01 -3.3665214E+00
  9.957E+00  1.174E+00  1.985E+00 3.2501372E+00 -6.0371279E-01 -3.4193955E+00