# TIME = 0.000000
VARIABLES = X, Y, Z
ZONE N=2562 E=5120 F=FEPOINT ET=TRIANGLE
1.0508616797714363	0.6494682911939809	-0.19068799755005397
-1.0508616797714363	0.6494682911939809	-0.19068799755005397
1.0508616797714363	-0.6494682911939809	-0.19068799755005397
-1.0508616797714363	-0.6494682911939809	-0.19068799755005397
0.49707539795473893	0.	0.09877349168684699
0.4966259097162315	0.	-0.4795556349591884
-0.49707539795473893	6.087417950401679e-17	0.09877349168684699
-0.4966259097162315	6.081913307076254e-17	-0.4795556349591884
5.615541295879076e-17	0.9170874900075409	0.15316565172891322
5.615541295879076e-17	-0.9170874900075409	0.15316565172891322
5.612718039507225e-17	0.9166264172518996	-0.5341551922232307
5.612718039507225e-17	-0.9166264172518996	-0.5341551922232307
1.0589159975024955	0.628548538344124	-0.1402007318418846
1.059619062865808	0.6017516588826447	-0.08776024043905838
1.0517338307683346	0.5688727622824191	-0.03530190947696201
1.0344946621337243	0.5301383214074782	0.014819904064219756
1.007827491816468	0.48626721822879815	0.06010138614220127
0.972460751256392	0.4384336471511052	0.09827148194857475
0.9298635717826232	0.38812044311744887	0.12768921257544652
0.8820045329297377	0.3368957956394763	0.14762992797079794
0.8310046226960094	0.28618346479935564	0.1583595095734001
0.7788019365294495	0.23709984116430916	0.16098211770800996
0.7269305963360128	0.19039396983915766	0.15713534823682987
0.6764500501703098	0.14648009667335563	0.14864885241616088
0.6279951800842373	0.10552115578546933	0.13726312246352196
0.5818864260307115	0.06751963137993597	0.12445357977481683
0.5382437817263559	0.03238916421041855	0.11135711410031641
1.0947706157462913	-0.5631868418962446	-0.1384982126782582
1.094629490035733	-0.532829030270125	-0.08441934823212036
1.0849057701743072	-0.4965358898445351	-0.030614859298485567
1.0648786042192504	-0.45475747134943295	0.02033426467514902
1.0346622271950812	-0.40844837333008716	0.0657653733393097
0.9952909324163431	-0.3589812422408101	0.10337751973382671
0.9485874317627428	-0.30794997677414016	0.13165559857128023
0.8968350438507328	-0.25692038946205337	0.1501271267448713
0.842365941847547	-0.2072114649687977	0.15936196215879908
0.7872073033441663	-0.15977254530826765	0.1607350215115126
0.7328866561358388	-0.11517234692686265	0.15606172733141752
0.6804056068071613	-0.07366833176683754	0.14723905590080716
0.6303294171423358	-0.03530444553488625	0.1359815487339293
0.5829175247459963	0.	0.12367897303341296
1.1285862150549257	-0.4912623335057322	-0.13689307288157343
1.1271301603788628	-0.45720762892555145	-0.08132324973179582
1.1150843261816776	-0.41755733335949	-0.026369087910365553
1.0918336047997133	-0.3730149303316331	0.025184029228736797
1.057745525344421	-0.3247695600223907	0.07056146973374244
1.014207077738635	-0.2743530145602552	0.10749555557636213
0.9634057939768018	-0.2234004402233049	0.13465399056044422
0.9079129968672179	-0.17339593805663778	0.1518436894234291
0.8502220319377817	-0.12548636417314565	0.15992343020092983
0.7923994879054752	-0.08041319166945195	0.160487362980918
0.7359310588194224	-0.03855023654936939	0.15546071475299872
0.6817439733551285	0.	0.1467443313938403
0.6303294171423358	0.03530444553488625	0.1359815487339293
1.15929429640503	-0.4128784346351833	-0.13543595956388615
1.1559891598923897	-0.3751311969697104	-0.078578550378113
1.1411284046643666	-0.3323522252566195	-0.022719645901110135
1.114274482241038	-0.28551126007672856	0.029189861771404153
1.0761094985228712	-0.23600577682282753	0.07432460664000404
1.0284011321260245	-0.18546169343271607	0.11051567053026581
0.9736845669157383	-0.13547036670361046	0.1366579203051307
0.9147669054411669	-0.08735251573974578	0.15283995360062472
0.8542393743454125	-0.042026478605575214	0.16016796278032755
0.7941561073252036	0.	0.1603869243267385
0.7359310588194224	0.03855023654936939	0.15546071475299872
0.6804056068071613	0.07366833176683754	0.14723905590080716
1.185751365496199	-0.32845638836465424	-0.13418102360205666
1.1800343102487412	-0.28720058304049334	-0.07629493488836687
1.1619049302989017	-0.2417166458526423	-0.019818377936964806
1.1311780562685405	-0.19322831407092944	0.03218769922749894
1.0888975464552673	-0.1432862446636627	0.076916757194331
1.0372102341162008	-0.09352518619318544	0.11235891594664235
0.9789506125700846	-0.045401025214240456	0.13765984622589725
0.9170874900075409	0.	0.15316565172891322
0.8542393743454125	0.042026478605575214	0.16016796278032755
0.7923994879054752	0.08041319166945195	0.160487362980918
0.7328866561358388	0.11517234692686265	0.15606172733141752
1.2068274926256048	-0.2387818207119161	-0.13318158907669309
1.1981581519621318	-0.1944077569299575	-0.07457585190665375
1.1764033283069517	-0.14683964457995946	-0.017799178195129398
1.1416969919152935	-0.09751258334603403	0.03404454557693537
1.0954650017443264	-0.0480501038109706	0.07823878485368796
1.0401975540738304	0.	0.11297845165421486
0.9789506125700846	0.045401025214240456	0.13765984622589725
0.9147669054411669	0.08735251573974578	0.15283995360062472
0.8502220319377817	0.12548636417314565	0.15992343020092983
0.7872073033441663	0.15977254530826765	0.1607350215115126
1.2215190823823843	-0.14501313816619035	-0.13248513171126539
1.209441607526013	-0.09811933001588785	-0.07350637474829683
1.1838590531805535	-0.04925672982720243	-0.016762626409288026
1.145269063668836	0.	0.03467353985666785
1.0954650017443264	0.0480501038109706	0.07823878485368796
1.0372102341162008	0.09352518619318544	0.11235891594664235
0.9736845669157383	0.13547036670361046	0.1366579203051307
0.9079129968672179	0.17339593805663778	0.1518436894234291
0.842365941847547	0.2072114649687977	0.15936196215879908
1.2290689535987505	-0.0486364572285022	-0.13212719158537178
1.2132741971262677	0.	-0.07314326704799802
1.1838590531805535	0.04925672982720243	-0.016762626409288026
1.1416969919152935	0.09751258334603403	0.03404454557693537
1.0888975464552673	0.1432862446636627	0.076916757194331
1.0284011321260245	0.18546169343271607	0.11051567053026581
0.9634057939768018	0.2234004402233049	0.13465399056044422
0.8968350438507328	0.25692038946205337	0.1501271267448713
1.2290689535987505	0.0486364572285022	-0.13212719158537178
1.209441607526013	0.09811933001588785	-0.07350637474829683
1.1764033283069517	0.14683964457995946	-0.017799178195129398
1.1311780562685405	0.19322831407092944	0.03218769922749894
1.0761094985228712	0.23600577682282753	0.07432460664000404
1.014207077738635	0.2743530145602552	0.10749555557636213
0.9485874317627428	0.30794997677414016	0.13165559857128023
1.2215190823823843	0.14501313816619035	-0.13248513171126539
1.1981581519621318	0.1944077569299575	-0.07457585190665375
1.1619049302989017	0.2417166458526423	-0.019818377936964806
1.114274482241038	0.28551126007672856	0.029189861771404153
1.057745525344421	0.3247695600223907	0.07056146973374244
0.9952909324163431	0.3589812422408101	0.10337751973382671
1.2068274926256048	0.2387818207119161	-0.13318158907669309
1.1800343102487412	0.28720058304049334	-0.07629493488836687
1.1411284046643666	0.3323522252566195	-0.022719645901110135
1.0918336047997133	0.3730149303316331	0.025184029228736797
1.0346622271950812	0.40844837333008716	0.0657653733393097
1.185751365496199	0.32845638836465424	-0.13418102360205666
1.1559891598923897	0.3751311969697104	-0.078578550378113
1.1150843261816776	0.41755733335949	-0.026369087910365553
1.0648786042192504	0.45475747134943295	0.02033426467514902
1.15929429640503	0.4128784346351833	-0.13543595956388615
1.1271301603788628	0.45720762892555145	-0.08132324973179582
1.0849057701743072	0.4965358898445351	-0.030614859298485567
1.1285862150549257	0.4912623335057322	-0.13689307288157343
1.094629490035733	0.532829030270125	-0.08441934823212036
1.0947706157462913	0.5631868418962446	-0.1384982126782582
1.086647265016111	0.5876368374357417	-0.19068799755005397
1.120809655754084	0.519523865521966	-0.19068799755005397
1.1523791901180547	0.4451309172157454	-0.19068799755005397
1.180292756112859	0.3647305048196341	-0.19068799755005397
1.203463386319377	0.2789179253242289	-0.19068799755005397
1.220875084952723	0.18863551685765678	-0.19068799755005397
1.2316919856644468	0.09515347459996712	-0.19068799755005397
1.2353620243792807	0.	-0.19068799755005397
1.2316919856644468	-0.09515347459996712	-0.19068799755005397
1.220875084952723	-0.18863551685765678	-0.19068799755005397
1.203463386319377	-0.2789179253242289	-0.19068799755005397
1.180292756112859	-0.3647305048196341	-0.19068799755005397
1.1523791901180547	-0.4451309172157454	-0.19068799755005397
1.120809655754084	-0.519523865521966	-0.19068799755005397
1.086647265016111	-0.5876368374357417	-0.19068799755005397
1.0588527149094396	-0.6285109752310332	-0.24116936532900335
1.0594890128690775	-0.6016778042267473	-0.293591157519485
1.0515367361762322	-0.5687661557040624	-0.3460170989262675
1.0342337103082937	-0.5300045937356344	-0.39609282193562045
1.0075094382995977	-0.4861137604196471	-0.44131683969198354
0.9720953790103748	-0.43826891918014893	-0.4794216865593921
0.9294623015511811	-0.3879529549129819	-0.5087711767060042
0.8815787685932001	-0.33673316811370124	-0.5286455191371289
0.8305642614518368	-0.28603181208506406	-0.5393147405292894
0.7783543250590226	-0.23696356953533187	-0.541885844248893
0.7264803842664717	-0.19027605258045172	-0.5379976638430508
0.6759995715701986	-0.14638254896990444	-0.5294798067717722
0.6275451256993154	-0.10544553377375755	-0.5180718300313689
0.5814366947413613	-0.06746744646975669	-0.5052477417636413
0.5377941921898011	-0.03236210987217788	-0.4921429318986839
1.0947029684309213	0.5631520418410019	-0.24287157762670553
1.0944906973079873	0.5327614706116227	-0.2969305090837717
1.0846960461874782	0.4964399041015473	-0.3507005136208447
1.0646020358604158	0.45463936255560367	-0.40160116243518584
1.034326999044385	0.40831603700887303	-0.4469723165199637
0.9949081561204242	0.35884318259841413	-0.48451740175636
0.9481697219262996	0.3078143712093563	-0.5127263238112939
0.8963945980307958	0.25679421295682975	-0.5311316951322013
0.8419129188235033	0.20710002698227273	-0.5403074561556372
0.7867489899541588	0.15967952546894543	-0.5416309708296643
0.7324275428930873	0.11510019777633547	-0.5369184613156758
0.6799479799279863	0.07361878395532158	-0.528066484888258
0.629874064277761	0.03527894144136097	-0.5167883892810815
0.5824649498591421	0.	-0.504472484158765
1.12851432830027	0.49123104191775313	-0.2444763292850212
1.1269830330709356	0.4571479483935488	-0.3000250553350589
1.1148628268117426	0.41747439013799614	-0.35494281354258495
1.0915429212479693	0.37291562096404657	-0.40644533404901145
1.0573951631292169	0.32466198501521376	-0.4517609631611854
1.0138095895070582	0.27424549007439925	-0.48862665287266027
0.9629748574141597	0.22330051201194842	-0.515715671776697
0.9074613569708817	0.17330968251920278	-0.5328400289751483
0.8497600231975605	0.12541817516504097	-0.5408622620307968
0.7919342818490855	0.0803659822702168	-0.5413785699108679
0.7354671839374669	0.038525937416706915	-0.5363146290044885
0.6812837543002491	0.	-0.5275705650305877
0.629874064277761	-0.03527894144136097	-0.5167883892810815
1.1592184605481133	0.41285142597138674	-0.24593298824669493
1.1558344366317725	0.3750809875698577	-0.30276834376519446
1.140896449933754	0.3322846687304978	-0.3585892605166151
1.1139716693346597	0.28543367013291715	-0.41044654430436484
1.0757468545813829	0.2359262439637286	-0.4555179990171667
1.0279924212079181	0.18538798657200917	-0.4916400854653241
0.9732443119504561	0.13540911329196526	-0.5177133030147948
0.9143081253308497	0.08730870611286795	-0.5338312325480605
0.8537727011414825	0.0420035194304192	-0.5411034082458378
0.7936886940749487	0.	-0.5412765466211643
0.7354671839374669	-0.038525937416706915	-0.5363146290044885
0.6799479799279863	-0.07361878395532158	-0.528066484888258
1.1856720271602015	0.32843441142744895	-0.24718760258734984
1.1798731435099141	0.28716135775614704	-0.3050506700312908
1.1616644593350092	0.2416666195266484	-0.361488087715713
1.1308660411457914	0.19317501551567606	-0.41344068066079753
1.0885261476080212	0.1432373728976572	-0.45810588735452973
1.0367944730140841	0.09348769703890566	-0.4934791628516706
0.978505528430782	0.04538038344133438	-0.5187120079341654
0.9166264172518996	0.	-0.5341551922232307
0.8537727011414825	-0.0420035194304192	-0.5411034082458378
0.7919342818490855	-0.0803659822702168	-0.5413785699108679
0.7324275428930873	-0.11510019777633547	-0.5369184613156758
1.2067453054662942	0.23876555923323808	-0.24818677515207932
1.197991977569795	0.19438079421988413	-0.3067689129326918
1.1761568156796607	0.1468088746682252	-0.36350554838390847
1.1413791380892842	0.09748543538302802	-0.4152952297786928
1.0950891836178878	0.04803361939571254	-0.4594256265838292
1.0397793871022627	0.	-0.4940972821587226
0.978505528430782	-0.04538038344133438	-0.5187120079341654
0.9143081253308497	-0.08730870611286795	-0.5338312325480605
0.8497600231975605	-0.12541817516504097	-0.5408622620307968
0.7867489899541588	-0.15967952546894543	-0.5416309708296643
1.2214348619086215	0.1450031398981532	-0.24888313762358935
1.2092723252422697	0.09810559651758492	-0.30783771588842584
1.1836093520621318	0.04924634053255237	-0.36454127340926645
1.144949214556924	0.	-0.4159234384964087
1.0950891836178878	-0.04803361939571254	-0.4594256265838292
1.0367944730140841	-0.09348769703890566	-0.4934791628516706
0.9732443119504561	-0.13540911329196526	-0.5177133030147948
0.9074613569708817	-0.17330968251920278	-0.5328400289751483
0.8419129188235033	-0.20710002698227273	-0.5403074561556372
1.2289837034123365	0.04863308372611806	-0.24924089056001528
1.213103840527846	0.	-0.3082006221790061
1.1836093520621318	-0.04924634053255237	-0.36454127340926645
1.1413791380892842	-0.09748543538302802	-0.4152952297786928
1.0885261476080212	-0.1432373728976572	-0.45810588735452973
1.0279924212079181	-0.18538798657200917	-0.4916400854653241
0.9629748574141597	-0.22330051201194842	-0.515715671776697
0.8963945980307958	-0.25679421295682975	-0.5311316951322013
1.2289837034123365	-0.04863308372611806	-0.24924089056001528
1.2092723252422697	-0.09810559651758492	-0.30783771588842584
1.1761568156796607	-0.1468088746682252	-0.36350554838390847
1.1308660411457914	-0.19317501551567606	-0.41344068066079753
1.0757468545813829	-0.2359262439637286	-0.4555179990171667
1.0138095895070582	-0.27424549007439925	-0.48862665287266027
0.9481697219262996	-0.3078143712093563	-0.5127263238112939
1.2214348619086215	-0.1450031398981532	-0.24888313762358935
1.197991977569795	-0.19438079421988413	-0.3067689129326918
1.1616644593350092	-0.2416666195266484	-0.361488087715713
1.1139716693346597	-0.28543367013291715	-0.41044654430436484
1.0573951631292169	-0.32466198501521376	-0.4517609631611854
0.9949081561204242	-0.35884318259841413	-0.48451740175636
1.2067453054662942	-0.23876555923323808	-0.24818677515207932
1.1798731435099141	-0.28716135775614704	-0.3050506700312908
1.140896449933754	-0.3322846687304978	-0.3585892605166151
1.0915429212479693	-0.37291562096404657	-0.40644533404901145
1.034326999044385	-0.40831603700887303	-0.4469723165199637
1.1856720271602015	-0.32843441142744895	-0.24718760258734984
1.1558344366317725	-0.3750809875698577	-0.30276834376519446
1.1148628268117426	-0.41747439013799614	-0.35494281354258495
1.0646020358604158	-0.45463936255560367	-0.40160116243518584
1.1592184605481133	-0.41285142597138674	-0.24593298824669493
1.1269830330709356	-0.4571479483935488	-0.3000250553350589
1.0846960461874782	-0.4964399041015473	-0.3507005136208447
1.12851432830027	-0.49123104191775313	-0.2444763292850212
1.0944906973079873	-0.5327614706116227	-0.2969305090837717
1.0947029684309213	-0.5631520418410019	-0.24287157762670553
1.0180814887761123	0.6970810585739421	-0.15941562305398754
0.9780121947255918	0.7441608128288929	-0.12646576107998916
0.930186772685604	0.7895455235679095	-0.09244237354445244
0.874482985695963	0.8319544543499565	-0.05814203899964129
0.8112235311235347	0.8701017260952386	-0.024504351380274132
0.7412270091783637	0.9028398031961895	0.007480226057821391
0.6657805904779558	0.9293043530252073	0.03689164463637614
0.586528381737038	0.9490227409556541	0.06300342193366296
0.5052957016513557	0.9619556904579389	0.08537390275588817
0.42389101683251557	0.9684641914853879	0.10387978995387205
0.34393319999126754	0.9692153283746114	0.11868793316649555
0.26673649263923527	0.9650618184075858	0.13017952130236168
0.19326437844516478	0.9569228391171766	0.13885654058647678
0.12413869716756036	0.9456931791221584	0.14525439144917512
0.059686280136650595	0.9321827258504648	0.1498781955991458
0.5219758163750564	0.08749827901421767	0.1084316142668559
0.5031592364948193	0.1458073190842864	0.10683135470229148
0.4815757425346318	0.20701917209493992	0.1069286657237155
0.45708364322652234	0.27067541816581436	0.10900945536586275
0.4296517630759466	0.3361677002987151	0.11319371894513544
0.3993805746147351	0.4027721807248304	0.11936092038964728
0.36650470755863335	0.46970346116316364	0.12710531738515385
0.33137240660671746	0.5361718422591772	0.1357427974338118
0.2944079109404301	0.601423604315282	0.14437767051760758
0.2560716286317872	0.6647591176827653	0.152020056921216
0.21683056591639732	0.7255315712036604	0.15772571907719352
0.17714147234668828	0.7831455368550949	0.16072468827451483
0.13744576049773458	0.8370682728747466	0.1605099512986018
0.09816389209214196	0.8868556211010108	0.15687150955420204
0.5656676554107088	0.1260529497927384	0.12276271795428614
0.5466499630619395	0.18786322540321285	0.12235006011780204
0.5245989468974479	0.25257358403242514	0.12349420618778055
0.4993713095695785	0.3196373218974816	0.1263504599379244
0.4709482770481611	0.3883558121780456	0.13087541388175883
0.439453342490954	0.45791901403407076	0.13676895692581884
0.4051486394456526	0.5274590618942322	0.14345858536388037
0.36841006055146075	0.5960999928893898	0.1501424093130918
0.3296911713667304	0.6629918121745245	0.1558899300035194
0.2894888675810349	0.7273294794681568	0.15977911816957308
0.24831921519854733	0.7883679885766992	0.16103475676479678
0.20670189143187814	0.8454457585626896	0.1591330206332524
0.16514681772311526	0.898018024713839	0.1538504541783722
0.6117881594166849	0.16763030216598027	0.13669088962574258
0.5925057360864929	0.23305682568511737	0.13723873497901468
0.5698998757512957	0.30133443794244336	0.1390567768339625
0.5438266289835094	0.3718176762549837	0.14213985265492204
0.5142775380532586	0.4437046831084612	0.14626636994925962
0.48139460480102125	0.5160795794423437	0.15096786550256702
0.4454630810359862	0.5879630413961672	0.15554986894805956
0.4068881430471532	0.6583588791074287	0.1591716627404648
0.366163736969403	0.7262937770268201	0.16097145481433447
0.32384435714210236	0.790853493359805	0.1602051257189663
0.2805208511120798	0.8512241995014516	0.1563606064658329
0.23679726649385438	0.906739103467166	0.1492194574772367
0.6601884334347995	0.21227866484340122	0.148887841413842
0.6405414833487687	0.2813844130025721	0.14995056188111214
0.6172455228317891	0.3532256531193112	0.15183237324049756
0.5901527557503149	0.42703861229832407	0.15435582600252584
0.5592622737947295	0.5018934028407881	0.1571348778784327
0.5247324614264441	0.5767367027445013	0.1595799551537703
0.4868770583782533	0.6504450252929102	0.1609570828210237
0.4461465767247429	0.7218802114916325	0.16049515679128853
0.40310256598177796	0.7899499018858975	0.1575160304293811
0.35838912518963445	0.853670698489998	0.15155036600205526
0.31269939447313577	0.9122341479099586	0.14240673106500354
0.7104893075610894	0.25992248804067153	0.1576569195887815
0.6903044229280898	0.332670445316783	0.1585566542838886
0.6660929535602153	0.40793521670958455	0.15966902861792995
0.6377013634484294	0.48480549156137187	0.16066263718065824
0.6051370658538682	0.5621896287969292	0.16103785200472828
0.5685859332343436	0.6388670069336568	0.1601695755420316
0.5284133183165884	0.7135550033055604	0.15739521102374932
0.4851495410874295	0.7849884298638397	0.15212949172409387
0.43946317986150363	0.8520086858377588	0.14397332094730667
0.392120375680948	0.9136509406631934	0.13278389738604798
0.7619512175626654	0.31026870562090847	0.1610453778953289
0.740934952291092	0.3864494074047998	0.1609119852078737
0.715450292341323	0.46477584906393704	0.16028022823335525
0.6853434249765464	0.5441549889950748	0.1587202357028539
0.6506483797418297	0.6233083271454898	0.15570658008926536
0.6116093534273791	0.7008419597318232	0.15068927716102162
0.5686860755423835	0.7753409713764576	0.14319040157427365
0.5225351017371309	0.8454795933682889	0.13289985994431974
0.47396824417185635	0.9101322010741176	0.11974005090764991
0.813364603116932	0.36269878338179556	0.1570803735690778
0.7910673221594001	0.4418483618938033	0.15496181614300328
0.763801917775816	0.5225708119487988	0.15162587110564624
0.7314403320284222	0.6035722167246095	0.14663256280889653
0.6940824926578006	0.683391573673623	0.1395378852751952
0.6520822462082007	0.7605013292457955	0.12997305665891995
0.6060453040305984	0.8334334228169081	0.1177238708765782
0.5567930083502916	0.9009099992505932	0.1027855822096195
0.8630252080763481	0.41619000292784764	0.1441162905092813
0.8388468749479187	0.4975298317487614	0.13915291836839985
0.8091848040033844	0.5796470518493756	0.13237198992341404
0.7739850843890304	0.6610621834820851	0.12342367511020641
0.7334716887480203	0.7401833857566416	0.11204018497137998
0.68816334582005	0.8154387362869678	0.09809939902413493
0.6388499681010362	0.8854221580303064	0.08166712432863536
0.9088602037633684	0.46932028223970046	0.12121993302753517
0.8821225663711857	0.551760754772851	0.11284006789305757
0.8494484002859022	0.6339915259931842	0.10228159433134493
0.8109207866643179	0.7144093885983527	0.08936497572883133
0.7669442570462809	0.7913878690100625	0.0740484733580239
0.7182379011514392	0.8634287769079708	0.056458845803202484
0.9487159926166485	0.5203983861163531	0.08846550535660051
0.9187951055051393	0.602627887154704	0.07653350900449366
0.8826437666862551	0.6835582822942682	0.06237054687418766
0.8405376015993509	0.7615616185393231	0.04600066133876052
0.7930930231363198	0.8350932651449776	0.027597684434902583
0.9807361151850098	0.5677011149853621	0.047014404981087735
0.9472124552938178	0.6483478482130411	0.03187013799625432
0.9074023022990235	0.7266277079898665	0.014744124746983264
0.8617994885932038	0.8009990182203145	-0.004157057889210146
1.003701001799393	0.609751296776164	-0.0010704386243898015
0.966468672778679	0.6875654271917987	-0.01869580116131517
0.9231633322529047	0.7620875354965548	-0.03782925463396976
1.0172102996407804	0.6455383224864086	-0.05321208836092932
0.9765056144190561	0.7195376864795497	-0.07236567608924982
1.0216638976795163	0.6746177511651565	-0.10677010153693924
1.0588527149094396	0.6285109752310332	-0.24116936532900335
1.0594890128690775	0.6016778042267473	-0.293591157519485
1.0515367361762322	0.5687661557040624	-0.3460170989262675
1.0342337103082937	0.5300045937356344	-0.39609282193562045
1.0075094382995977	0.4861137604196471	-0.44131683969198354
0.9720953790103748	0.43826891918014893	-0.4794216865593921
0.9294623015511811	0.3879529549129819	-0.5087711767060042
0.8815787685932001	0.33673316811370124	-0.5286455191371289
0.8305642614518368	0.28603181208506406	-0.5393147405292894
0.7783543250590226	0.23696356953533187	-0.541885844248893
0.7264803842664717	0.19027605258045172	-0.5379976638430508
0.6759995715701986	0.14638254896990444	-0.5294798067717722
0.6275451256993154	0.10544553377375755	-0.5180718300313689
0.5814366947413613	0.06746744646975669	-0.5052477417636413
0.5377941921898011	0.03236210987217788	-0.4921429318986839
0.4802871170504822	0.05180803115997571	-0.4754226949111836
0.46163362052479867	0.10670550458358324	-0.4725836048805872
0.4404683750469459	0.16446759060044708	-0.4714687349963081
0.41665715009448256	0.22472179600160821	-0.4724577576955331
0.3901576397857022	0.2869492872127082	-0.4758030072380278
0.3610436269820869	0.35050848425108727	-0.48154886651377554
0.3295135396677768	0.41468327128368954	-0.48946831747952935
0.29587936662419295	0.4787428702175077	-0.49903918778815776
0.2605334531460629	0.5419953450328582	-0.5094766573678876
0.22390716046427164	0.6038155325384137	-0.5198207397971226
0.18643380434179033	0.6636436307488499	-0.5290607420862562
0.14852811136906202	0.7209706525393713	-0.5362688287083178
0.1105794231984518	0.775325513126599	-0.5407117358151614
0.07295278389840976	0.8262805053956431	-0.5419204691777032
0.035989034096240165	0.8734714806844331	-0.539710146639017
1.021562040276187	0.6745504934177411	-0.2745896451017417
0.9763675743464045	0.7194359717192343	-0.30897777863320436
0.9229932709110348	0.7619471468736743	-0.3434916712966837
0.8616036812761694	0.8008170252268387	-0.3771351864564217
0.792879266388538	0.8348681883693101	-0.40885617999310697
0.7180150289629504	0.8631608513908056	-0.4376796894225502
0.6386273544766483	0.8851136238743161	-0.4628481169214029
0.5565794525446407	0.9005644587035255	-0.483926688245088
0.4737715060707592	0.9097544169436648	-0.5008428081244368
0.3919466548155225	0.9132461664103043	-0.5138513099337285
0.3125533179070348	0.9118080005167688	-0.5234426099743751
0.236681715348073	0.906296637454438	-0.5302281590277313
0.16506328742663354	0.897563812438456	-0.5348362850974021
0.09811279804904058	0.886394015123869	-0.5378384105307067
1.017042478043257	0.6454318201509717	-0.3281196185934034
0.9662672622497772	0.6874221396541416	-0.3626097020619538
0.9071735017254918	0.7264444895476047	-0.3960171250678928
0.8402894896073352	0.7613368188755617	-0.42723597233517646
0.7666860727330833	0.7911214559930068	-0.4552423806092133
0.687904992041682	0.8151326001350977	-0.47924994450905306
0.6057960956944393	0.8330907115456248	-0.4988316163412371
0.5223035144681051	0.8451048772786055	-0.5139668895650312
0.43925594627023656	0.8516069119739905	-0.5250033998744652
0.35821124811955646	0.8532470013630875	-0.5325481547521281
0.280375602006409	0.8507834495421783	-0.5373310634646299
0.20659111057924118	0.8449926461052123	-0.5400809417262973
0.13737000610651073	0.8366069156295701	-0.5414397722588429
1.0034689230560183	0.6096103082601885	-0.3802188567267781
0.9469515463450318	0.6481692612924621	-0.41312357925207904
0.8823622578018945	0.6833402693917735	-0.4435826247023715
0.8106281069002161	0.7141515419938931	-0.47053234226660245
0.7331781165596815	0.7398871272102491	-0.4931611575222189
0.6517975721606484	0.7601693235934041	-0.5110486452036574
0.5684191736038837	0.7749770799130323	-0.5242234056670694
0.484907663945779	0.7845970644361436	-0.533124399919571
0.40289115290671773	0.7895356010304949	-0.5384781820832393
0.323667285986459	0.7904210716148359	-0.5411400190098736
0.24817864956315178	0.7879217184515653	-0.5419476907219964
0.17703830005166973	0.7826894103405048	-0.5416204063526309
0.9804452064605149	0.5675327218725791	-0.42824836674704797
0.9184822720437819	0.6024227030318026	-0.45772328281345104
0.8491233484706545	0.6337489213849391	-0.483423735622168
0.7736580619903292	0.6607828730079001	-0.5045170230187794
0.6937635067017107	0.6830775010427498	-0.520583870635744
0.6113077542723269	0.7004963578509891	-0.5316912142419754
0.5281366434940629	0.7131813891344968	-0.5383582717842644
0.4459007848157984	0.7214825118913927	-0.541425252505284
0.3659531053322158	0.7258759845698166	-0.5418746579553909
0.28931610390420565	0.7268954174740316	-0.5406611153693842
0.21669721008615536	0.7250853524492347	-0.5385915030000896
0.9483749726159914	0.5202113267019904	-0.4696345234433108
0.8817680999616437	0.5515390388105499	-0.49395926076779867
0.8088271567583277	0.5793908567624517	-0.5134405975244478
0.7310895725545823	0.6032827759269226	-0.5276522603880607
0.6503136933706805	0.6229877041967288	-0.5366813359684022
0.5682753016288723	0.6385179791571208	-0.5411049972794381
0.48659668900894215	0.6500704649015859	-0.5418596378209158
0.406642821463644	0.6579619404266147	-0.5400478771209808
0.32948422792217336	0.6625756596619906	-0.5367458267059094
0.25590534700043327	0.6643274524056073	-0.5328608441976184
0.9084802644941337	0.46912408792474114	-0.502318960035539
0.8384621986902244	0.49730167578909334	-0.5202001982270437
0.7634226048891609	0.5223112972257419	-0.5326232886715798
0.6849784505678465	0.5438652034100501	-0.5396721958881233
0.6047941928317955	0.5618710899602253	-0.5419503598030625
0.5244182355620696	0.5763913351481385	-0.5404599196701534
0.4451826116519151	0.587592852172644	-0.5364042024122266
0.368167376211564	0.5957073213834317	-0.5309774459835914
0.29420608149881	0.6010113022482337	-0.5251987555047257
0.8626177913537434	0.41599352805621365	-0.525145856467825
0.7906633456124199	0.44162272196338687	-0.5359411849429807
0.7150583874927239	0.46452125708080455	-0.5412139686726306
0.6373290263371358	0.4845224263421114	-0.5415570380382778
0.5589159023898721	0.5015825620578919	-0.5379971908496388
0.4810794540536967	0.5157417217606868	-0.531805336123888
0.40486924244464306	0.5270953176638425	-0.5242778272754843
0.33113267834167526	0.5357839537598736	-0.5165493061420426
0.812940264142733	0.3625095604563158	-0.538045771084922
0.7405201964897931	0.3862330832414788	-0.5418318662791365
0.6656947172275124	0.40769132488665727	-0.5405498857150316
0.5897770360673668	0.42676673893934036	-0.535205064608497
0.5139293426343468	0.4434042695640686	-0.5270915287529182
0.4391374717932754	0.4575898705631772	-0.5175769461922405
0.3662258054693022	0.46934602707300666	-0.5079018855940409
0.7615178559320537	0.3100922395308276	-0.5419554334467777
0.6898843285639411	0.33246799408721733	-0.5394279951452284
0.6168440072243355	0.35299588132278237	-0.5326725296033942
0.5434484300957986	0.37155909930399167	-0.5229565881861264