# TIME = 0.000000
VARIABLES = X, Y, Z
ZONE N=1442 E=2880 F=FEPOINT ET=TRIANGLE
1.0508617095523125	0.6494682430331206	-0.19068797903554577
-1.0508617095523127	0.6494682430331206	-0.19068797903554577
1.0508617095523125	-0.6494682430331206	-0.19068797903554577
-1.0508617095523127	-0.6494682430331206	-0.19068797903554577
0.4964070638490855	0.	0.0985703830026909
0.4959578197300081	0.	-0.47935257112961627
-0.4964070638490855	6.079233218169184e-17	0.0985703830026909
-0.4959578197300081	6.073731564444545e-17	-0.47935257112961627
5.613935253362545e-17	0.9168252033600519	0.15321147674430374
5.613935253362545e-17	-0.9168252033600519	0.15321147674430374
5.611111337746839e-17	0.9163640229417189	-0.5342007838174065
5.611111337746839e-17	-0.9163640229417189	-0.5342007838174065
1.0600294614837356	0.6202836636534907	-0.1228214085222667
1.0553511339000794	0.580490365227391	-0.05259009352527249
1.0344357506582122	0.5301082101201028	0.014902570110779263
0.9968399163264453	0.4706440403336421	0.07380354925475902
0.9445875779492365	0.40499916893150656	0.11900371207632245
0.881778294609795	0.3368093827186088	0.14768674589517847
0.8133610665173546	0.26950033674163093	0.1600790556817598
0.7437522843911439	0.2055680366840264	0.15899511173615655
0.6760239970827182	0.14638780473813634	0.14857122764809355
0.6118553703249064	0.09245278987485468	0.13296370466609597
0.5519337988955655	0.04374170949384629	0.11553189280730586
1.1071679695768835	-0.5300730501071912	-0.11982601132847961
1.0999671036318106	-0.4840248800918442	-0.04694958395413178
1.0742319713671296	-0.4281683188559026	0.02211816015183451
1.0300689737798743	-0.3647495080226611	0.08101158934247857
0.9705126465232176	-0.297224790214219	0.12464646984395586
0.9007256607287651	-0.22936437447167754	0.15083420683070942
0.8263574134023568	-0.1642838921016058	0.16072699413022803
0.752032951036544	-0.10392842916914159	0.15791350617623512
0.6807048756865293	-0.04913379964099198	0.14688230992178494
0.6138367511615122	0.	0.13173310039579958
1.1497699503553362	-0.42814283733353964	-0.1171215211592708
1.1388701947567181	-0.3758577422276977	-0.04205239504838961
1.1072884675317847	-0.3152457074821652	0.028044707617751394
1.0559493162295308	-0.249275868246776	0.08649170812352512
0.9890406377589375	-0.18173943524683753	0.12848945799518088
0.9127167265851469	-0.1162089443300004	0.15263156762052546
0.8331136766212813	-0.055209005848578685	0.1609267219547543
0.7548657500042795	0.	0.157489101167147
0.6807048756865293	0.04913379964099198	0.14688230992178494
1.1851583987794632	-0.3152290180977419	-0.11487680526952417
1.1693291848478466	-0.2572733371289132	-0.03823252580394917
1.1311000138782872	-0.19321490698990765	0.032274311189209384
1.0724474626669207	-0.12658524365068746	0.08992087783084432
0.9987155272258937	-0.061172417441431585	0.13043027949931957
0.9168252033600519	0.	0.15321147674430374
0.8331136766212813	0.055209005848578685	0.1609267219547543
0.752032951036544	0.10392842916914159	0.15791350617623512
1.2106506092878149	-0.1932056084645247	-0.11326099965125475
1.1888208310194492	-0.13078093786762582	-0.0357948023401916
1.1435965397945635	-0.0651165272948167	0.034480378024102955
1.0781213042713949	0.	0.09108828922723204
0.9987155272258937	0.061172417441431585	0.13043027949931957
0.9127167265851469	0.1162089443300004	0.15263156762052546
0.8263574134023568	0.1642838921016058	0.16072699413022803
1.2240294271250212	-0.06511354527430295	-0.1124133569194938
1.195537870617754	0.	-0.03495597405651182
1.1435965397945635	0.0651165272948167	0.034480378024102955
1.0724474626669207	0.12658524365068746	0.08992087783084432
0.9890406377589375	0.18173943524683753	0.12848945799518088
0.9007256607287651	0.22936437447167754	0.15083420683070942
1.2240294271250212	0.06511354527430295	-0.1124133569194938
1.1888208310194492	0.13078093786762582	-0.0357948023401916
1.1311000138782872	0.19321490698990765	0.032274311189209384
1.0559493162295308	0.249275868246776	0.08649170812352512
0.9705126465232176	0.297224790214219	0.12464646984395586
1.2106506092878149	0.1932056084645247	-0.11326099965125475
1.1693291848478466	0.2572733371289132	-0.03823252580394917
1.1072884675317847	0.3152457074821652	0.028044707617751394
1.0300689737798743	0.3647495080226611	0.08101158934247857
1.1851583987794632	0.3152290180977419	-0.11487680526952417
1.1388701947567181	0.3758577422276977	-0.04205239504838961
1.0742319713671296	0.4281683188559026	0.02211816015183451
1.1497699503553362	0.42814283733353964	-0.1171215211592708
1.0999671036318106	0.4840248800918442	-0.04694958395413178
1.1071679695768835	0.5300730501071912	-0.11982601132847961
1.0982604586740794	0.5656353031987469	-0.19068797903554577
1.1422084487185948	0.47061575726658217	-0.19068797903554577
1.18029273450374	0.36473057479380816	-0.19068797903554577
1.2099532096422534	0.2492640403029425	-0.19068797903554577
1.2288600171809303	0.12657957768068687	-0.19068797903554577
1.2353620243927435	0.	-0.19068797903554577
1.2288600171809303	-0.12657957768068687	-0.19068797903554577
1.2099532096422534	-0.2492640403029425	-0.19068797903554577
1.18029273450374	-0.36473057479380816	-0.19068797903554577
1.1422084487185948	-0.47061575726658217	-0.19068797903554577
1.0982604586740794	-0.5656353031987469	-0.19068797903554577
1.0599441300416574	-0.6202337313625117	-0.2585440127693997
1.0551761898498973	-0.5803941381686211	-0.32874125559185774
1.0341746674974046	-0.5299744151241543	-0.39617544223522844
0.9965047435868121	-0.4704857932070904	-0.454997835588996
0.944196817008371	-0.4048316271810158	-0.5001083202896239
0.8813525163453434	-0.33664674987166576	-0.5287020888112547
0.8129175549743443	-0.2693533829284839	-0.541015782437705
0.7433025680832229	-0.20544373817708494	-0.539869841649523
0.6755734763515785	-0.14629024793378448	-0.5294019661805996
0.6114055177534137	-0.0923848160900617	-0.513766632161338
0.5514841196783206	-0.04370607163704986	-0.4963197882883221
1.1070748906688197	0.5300284872025067	-0.26153845774730905
1.0997771210397487	0.48394128095416206	-0.3343778693866425
1.073950463714954	0.4280561152896434	-0.4033829437079803
1.029711059269959	0.36462276977043834	-0.46219374317513556
0.9701000717659279	0.29709843694502425	-0.5057366358570882
0.9002809544538364	0.22925113269227698	-0.5318354687419925
0.825898645934252	0.16419268688700073	-0.5416522491360996
0.7515714408622083	0.10386465001239296	-0.5387804621076039
0.6802458438819117	0.04910066637351806	-0.5277088767643987
0.6133820205087035	0.	-0.5125345261866772
1.1496695834436377	0.42810546344467104	-0.2642420529938841
1.1386665094586967	0.37579052061052676	-0.33927155497478734
1.1069893149643955	0.31516053856230647	-0.4093027197366993
1.055573164622675	0.2491870708803207	-0.467664272738415
0.9886121422587189	0.18166069780446917	-0.5095691992761737
0.9122597912949496	0.11615076640233207	-0.5336239231891895
0.8326468417847606	0.055178069509465494	-0.5418460486345561
0.754400084542148	0.	-0.5383534468543075
0.6802458438819117	-0.04910066637351806	-0.5277088767643987
1.1850517890698613	0.31520066199436186	-0.26648590941957256
1.1691143869911031	0.25722607775821704	-0.3430886702975409
1.1307878467859411	0.19316158249607604	-0.4135272283181508
1.0720594486046353	0.12653944480615278	-0.47108719365814594
0.9982784478246275	0.06114564585046255	-0.511504583686874
0.9163640229417189	0.	-0.5342007838174065
0.8326468417847606	-0.055178069509465494	-0.5418460486345561
0.7515714408622083	-0.10386465001239296	-0.5387804621076039
1.2105393467681846	0.1931878522740602	-0.26810123505574374
1.1885988024950458	0.1307565127415705	-0.3455245492255851
1.1432774259014353	0.06509835691058682	-0.41573056006422876
1.0777291693119058	0.	-0.4722524251327657
0.9982784478246275	-0.06114564585046255	-0.511504583686874
0.9122597912949496	-0.11615076640233207	-0.5336239231891895
0.825898645934252	-0.16419268688700073	-0.5416522491360996
1.2239156932179032	0.06510749507833034	-0.2689485734141374
1.19531336888194	0.	-0.3463626544969563
1.1432774259014353	-0.06509835691058682	-0.41573056006422876
1.0720594486046353	-0.12653944480615278	-0.47108719365814594
0.9886121422587189	-0.18166069780446917	-0.5095691992761737
0.9002809544538364	-0.22925113269227698	-0.5318354687419925
1.2239156932179032	-0.06510749507833034	-0.2689485734141374
1.1885988024950458	-0.1307565127415705	-0.3455245492255851
1.1307878467859411	-0.19316158249607604	-0.4135272283181508
1.055573164622675	-0.2491870708803207	-0.467664272738415
0.9701000717659279	-0.29709843694502425	-0.5057366358570882
1.2105393467681846	-0.1931878522740602	-0.26810123505574374
1.1691143869911031	-0.25722607775821704	-0.3430886702975409
1.1069893149643955	-0.31516053856230647	-0.4093027197366993
1.029711059269959	-0.36462276977043834	-0.46219374317513556
1.1850517890698613	-0.31520066199436186	-0.26648590941957256
1.1386665094586967	-0.37579052061052676	-0.33927155497478734
1.073950463714954	-0.4280561152896434	-0.4033829437079803
1.1496695834436377	-0.42810546344467104	-0.2642420529938841
1.0997771210397487	-0.48394128095416206	-0.3343778693866425
1.1070748906688197	-0.5300284872025067	-0.26153845774730905
1.0055617655709976	0.7128859765114797	-0.14857350756191226
0.9469976985267897	0.7746763113396898	-0.10381744477579918
0.8744639211176587	0.8319364290612129	-0.05808335832444296
0.7885532504277629	0.8816293995641673	-0.013536459226935853
0.6913937924495439	0.9211575338893808	0.02750942632330547
0.5864723718314544	0.9489321193706982	0.0630942216800593
0.478033093427415	0.9646869094227538	0.09205912171518382
0.37027614161063194	0.9693954971987859	0.1142271888682119
0.26668355919338915	0.9648701534259965	0.13025538920612623
0.1696786946679053	0.9532604850266989	0.14128202080437507
0.08062032707923074	0.9366500974596369	0.1485607354341741
0.5296957089778405	0.11936283484514656	0.11245212765380137
0.5026720269401976	0.20054118551968347	0.11193470671547058
0.4704288467058852	0.28633071953467015	0.11468725164910508
0.4328504331110825	0.3752964408182313	0.1209386544135968
0.39023464623914916	0.4656450434365594	0.13014663436685017
0.34328375618472673	0.5554447570984834	0.14089160120085703
0.29298481122773856	0.6428227708577147	0.15108068865550772
0.2404537171879103	0.726056051433112	0.1584313535982598
0.18682551563584898	0.8035952718861911	0.1610418664908018
0.13320304068914823	0.874119037058783	0.1578100944967701
0.5896105922241327	0.17433963786507772	0.13198466260258912
0.5619375014973451	0.2618658555841179	0.13324778156610959
0.528373948665803	0.3538008461171278	0.1370520230286259
0.48883521273130603	0.44840283011234766	0.14309572274927806
0.4436909402327457	0.5435744922188369	0.15029476659537955
0.39373117259501433	0.6370703921821599	0.1568633059029778
0.34004964764347506	0.7266730529367874	0.16070442116797923
0.28391639348253983	0.8103264638603122	0.15997330157579712
0.22667993120203628	0.886279806107412	0.15355886159182242
0.6536226364431755	0.2348240488862912	0.14907196364029915
0.6250535417457717	0.32882087099746893	0.1510524834549815
0.5898246795999098	0.4268010943023889	0.15430084921540763
0.5478706201694206	0.5266339703591291	0.15798541340483382
0.4996226363590691	0.6258002829942464	0.16065282817332122
0.4459820975395233	0.7216142199153552	0.16050862806072685
0.3882313641428299	0.8114693740037414	0.1559130791823082
0.32791260615270174	0.8931049543722069	0.14586708322111247
0.7208683562227071	0.30061034348443366	0.15966600269657014
0.690922188706835	0.40085841967857533	0.1605798613426588
0.6533815443087146	0.5042746293204147	0.1610406829737881
0.6082082222658954	0.6082082222658953	0.15987899483455628
0.5559494041909485	0.709610119707785	0.15564585864251151
0.49773879801198223	0.8053581887698154	0.14701155532353938
0.4352025820155225	0.8926520777549768	0.1331986565619894
0.78930731088405	0.3707309844364589	0.15899113585563485
0.7570893042484508	0.47634522917249256	0.1565926186620959
0.7161663999616397	0.5837119070230867	0.1519216612771562
0.6666230378084198	0.6895827897776602	0.14385174647317112
0.6092892486444382	0.7904425265592742	0.13139831690433545
0.5457235313241872	0.8829991121893304	0.11406679299396776
0.8553594256828072	0.4430287390711143	0.1427047786429385
0.8195170751081621	0.5521595142436677	0.13492899215140486
0.7738437510587086	0.6609415265547607	0.12350383386755831
0.718758231439339	0.7656553826492916	0.10776502533270509
0.6555939923793161	0.8626499232788566	0.08749967981798303
0.9141939415684087	0.5140566629903988	0.108493228400091
0.8732015552184761	0.623900759597902	0.0942665080142575
0.8215839708014542	0.7308244628559241	0.0759267527386757
0.7603281877357667	0.8310114111707655	0.053496887165727175
0.9608847711373842	0.5796327622706763	0.05729919596862605
0.9136175330713031	0.6869166035667327	0.03703871816830032
0.8556233033516188	0.7887301863280225	0.01321937246431318
0.9919507729318292	0.6359360987302133	-0.006684949181406313
0.938206282506385	0.7376770816999839	-0.03123360952848473
1.0063730255107128	0.680549748485125	-0.07735861178674823
1.0599441300416574	0.6202337313625117	-0.2585440127693997
1.0551761898498973	0.5803941381686211	-0.32874125559185774
1.0341746674974046	0.5299744151241543	-0.39617544223522844
0.9965047435868121	0.4704857932070904	-0.454997835588996
0.944196817008371	0.4048316271810158	-0.5001083202896239
0.8813525163453434	0.33664674987166576	-0.5287020888112547
0.8129175549743443	0.2693533829284839	-0.541015782437705
0.7433025680832229	0.20544373817708494	-0.539869841649523
0.6755734763515785	0.14629024793378448	-0.5294019661805996
0.6114055177534137	0.0923848160900617	-0.513766632161338
0.5514841196783206	0.04370607163704986	-0.4963197882883221
0.47364667592271964	0.06967055326316908	-0.47409724880917026
0.44713311518017534	0.144695333227603	-0.47140434141421117
0.4160331993299692	0.22438527312903447	-0.47224027036549165
0.3802077603615175	0.30759449935483757	-0.47724937419452224
0.33986195103965733	0.39279162745084906	-0.48642494294931105
0.2955789162064462	0.47825672558368704	-0.4988782520653265
0.24823934394405248	0.5623235217190514	-0.512858286104484
0.19885951003896074	0.6435229677122054	-0.5260747406642886
0.14844769678823344	0.7205803791763888	-0.5362185838377809
0.0979412530115228	0.7923609401621786	-0.5414754504750103
0.04819964609235205	0.8578745174141348	-0.5408460419807095
1.0062368556808072	0.6804576649920817	-0.30398760879209136
0.9380257005088423	0.7375350967192406	-0.35008213512301534
0.8554093226620937	0.788532934770639	-0.39449399478671604
0.7600955503511811	0.8307571468617818	-0.4347219519070963
0.6553593858394375	0.8623412210698987	-0.4686704310926366
0.5455029963469876	0.8826422791449472	-0.4951831430291181
0.4350093740035374	0.892255785222569	-0.5142648072176643
0.3277561128444976	0.8926787281574755	-0.5268898608397357
0.22656560004925236	0.8858327908318027	-0.5345462748154998
0.13313293836752546	0.8736590042130203	-0.5387699334832193
0.9917286704235356	0.6357937096051715	-0.3746096481962685
0.9133593894001455	0.6867225145005698	-0.4182856060466991
0.8213050326559073	0.7305763387108164	-0.45711751881413965
0.7184762103682268	0.7653549604187382	-0.4888955146169905
0.6090213279170972	0.7900949479057722	-0.5124697814718252
0.4974995357543554	0.8049710543547105	-0.5280296993668123
0.38803127529074444	0.8110511543786851	-0.5368864971062404
0.28376193157995266	0.8098856137713502	-0.5409114775566227
0.18671954565097987	0.8031394616693005	-0.5419536571701794
0.9605854490282026	0.5794522027424528	-0.43851879502438634
0.8728794163704257	0.6236705920371669	-0.47542453403097346
0.7735166180612746	0.6606621215942442	-0.5045969968933552
0.6663088752739829	0.689257806894301	-0.5248822996307705
0.5556636252354946	0.7092453533508811	-0.5366209958644195
0.4457363242885804	0.7212165504265267	-0.5414384718237225
0.3398514147889739	0.7262494369307982	-0.541599694411444
0.24030714955495616	0.7256134867761996	-0.5393017955898528
0.9138339547608736	0.5138542402783377	-0.489622166428378
0.8191499158272243	0.5519121362495168	-0.515989840770761
0.7158098786965644	0.5834213241256728	-0.5329176242165751
0.6078779745540985	0.6078779745540984	-0.5408184074127395
0.49933085166951297	0.6254348092786672	-0.5415470336677023
0.3934866065795313	0.6366746760737011	-0.5377241331194996
0.2927931379506625	0.6424022304667193	-0.5319184903985795
0.8549591774747716	0.44282143269955015	-0.5237395588849619
0.7566963740099978	0.47609800543886643	-0.5375614836841839
0.6530111758077938	0.5039887818854195	-0.5419527143452284
0.5475347954662756	0.5263111629475777	-0.5388528435974375
0.44339902991357566	0.5432168671489335	-0.5311302510052586
0.3430430899317533	0.5550553509409935	-0.5217060827867875
0.7888852450831869	0.3705327436908161	-0.5399404864589405
0.6905177225282053	0.4006237569686074	-0.5414726761428293
0.5894489224656381	0.4265291939197059	-0.5351498576580027
0.48849736002324257	0.448092921770004	-0.5239142706410397
0.3899428671946675	0.4652968799222457	-0.5109462851601895
0.7204372810126362	0.30043058019499475	-0.540546824264576
0.6246445382668923	0.3286057072215938	-0.5318901990310968
0.5279948540329374	0.35354700316706383	-0.5178604348719432
0.43250887803329136	0.37500030063854595	-0.5017300334288542
0.6531886089167949	0.23466811777957888	-0.5299040219983453
0.5615249173729407	0.2616735891942619	-0.5140510254335589
0.47004362780565995	0.2860962526101773	-0.49547467619510915
0.5891744520605391	0.17421067729486048	-0.5127863813340474
0.5022535281038724	0.20037422525876314	-0.4927207550660803
0.5292560872903551	0.11926376949500635	-0.4932384157223804
1.0055116446755599	0.7128504436534185	-0.2327983151075899
0.9468999005168172	0.7745963092428108	-0.2775410746500569
0.874324882938102	0.8318041526758638	-0.32325153676697577
0.7883836609116893	0.8814397927073733	-0.3677645346569208
0.6912075066691363	0.9209093416840807	-0.4087680681978906
0.5862846700280523	0.9486284115087988	-0.4443052509745254
0.4778584567819201	0.9643344867806174	-0.4732214256024609
0.37012642692216874	0.9690035390665945	-0.4953431226022088
0.2665669518747982	0.9644482641962301	-0.5113301944119811
0.16959995573714018	0.9528181271250274	-0.5223219258339634
0.08058115892397504	0.9361950403075925	-0.5295723606822688
0.08685301934794816	1.009061210437632	0.12557498210497137
0.09308574245014097	1.0814736647019916	0.08614851555777217
0.09877059627049192	1.147519475996508	0.02750942632330547
0.10318961755919061	1.1988601308137532	-0.05012006772428107
0.1056256137753934	1.2271615434232772	-0.14204829568795538
0.10561953172836899	1.2270908820188426	-0.23932227219050042
0.10317219729405049	1.1986577416409014	-0.33120963816209825
0.09874398400146593	1.1472102939305806	-0.4087680681978906
0.09305263490904295	1.0810890200415086	-0.4673216935246691
0.08681592765185742	1.008630277903156	-0.5066626850098331
0.18279922717979602	1.0269724947766419	0.11148927072863346
0.19549081823872094	1.098273804695046	0.0630942216800593
0.20637614885346817	1.1594284207863157	-0.005741335889028815
0.2138320189590298	1.201315565333617	-0.09276931335925248
0.21648945583749868	1.216244895908271	-0.19068797903554577
0.21380706731025892	1.2011753861210037	-0.28858448859183333
0.20632967790191473	1.1591673453554998	-0.37555245187277553
0.19542825096207778	1.0979222996904252	-0.4443052509745254
0.18272623983863898	1.0265624493240895	-0.49261152012471604
0.2868198636839203	1.037723873397806	0.09205912171518382
0.30539116795580945	1.104915650348161	0.03351572476006847
0.319969165345688	1.157659263501466	-0.04556167470697708
0.3280598238592707	1.1869315570637635	-0.14033812195270903
0.3280402695245815	1.1868608088183765	-0.2410320611986357
0.3199133474351456	1.1574573124130263	-0.3357648047197197
0.30530635936631084	1.1046088099819245	-0.4147671085386717
0.2867150816938369	1.037344768648173	-0.4732214256024609
0.3967124016526516	1.0386065521876848	0.06624040966608913
0.41951304207683315	1.0982993119235382	-0.0029076448005987427
0.43519944131560934	1.1393669067405225	-0.09107068277910149
0.4408044861972401	1.1540410461764887	-0.19068797903554577
0.4351477640955799	1.1392316140247143	-0.290282333845408
0.4194170326040166	1.098047955881279	-0.37838345794140743
0.39658359605135574	1.038269334745258	-0.4474466013688132
0.5089852580597786	1.0271496321994833	0.03351572476006847
0.5332818732786583	1.0761810631929822	-0.04556167470697708
0.5467663319610759	1.1033931064757547	-0.14033812195270903
0.5467337414057126	1.1033273376234645	-0.2410320611986357
0.5331888434397849	1.0759933257956995	-0.3357648047197197
0.5088439104166866	1.026864387828816	-0.4147671085386717
0.6191285286428113	1.00177105306713	-0.005741335889028815
0.6414960993962788	1.0379624146876814	-0.09276931335925248
0.6494682430331207	1.0508617095523125	-0.19068797903554577
0.6414212444450047	1.0378412968413702	-0.28858448859183333
0.6189891157696681	1.0015454782885842	-0.37555245187277553
0.7223270913754479	0.9623706580584566	-0.05012006772428107
0.7393790776037016	0.9850892363356367	-0.14204829568795538
0.739336503287131	0.9850325137392467	-0.23932227219050042
0.7222051495585551	0.962208192566065	-0.33120963816209825
0.8144172864398442	0.9105462730172887	-0.0973874168823352
0.8235746538575754	0.9207845137897966	-0.19068797903554577
0.814326809447075	0.9104451166568682	-0.283968457666639
0.892687118245394	0.8492733468015896	-0.14500341715957327
0.8926388386002355	0.849227415125207	-0.23636778374006104
0.9561867241347967	0.7821932497152501	-0.19068797903554577
-1.0982604586740794	0.5656353031987469	-0.19068797903554577
-1.1422084487185948	0.47061575726658234	-0.19068797903554577
-1.1802927345037397	0.3647305747938084	-0.19068797903554577
-1.2099532096422534	0.24926404030294236	-0.19068797903554577
-1.2288600171809303	0.12657957768068692	-0.19068797903554577
-1.2353620243927435	1.5128821489607679e-16	-0.19068797903554577
-1.2288600171809303	-0.12657957768068692	-0.19068797903554577
-1.2099532096422534	-0.24926404030294236	-0.19068797903554577
-1.1802927345037397	-0.3647305747938084	-0.19068797903554577
-1.1422084487185948	-0.47061575726658234	-0.19068797903554577
-1.0982604586740794	-0.5656353031987469	-0.19068797903554577
-1.0600294614837356	-0.620283663653491	-0.1228214085222667
-1.0553511339000794	-0.5804903652273911	-0.05259009352527249
-1.0344357506582122	-0.5301082101201027	0.014902570110779263
-0.9968399163264453	-0.47064404033364227	0.07380354925475902
-0.9445875779492365	-0.40499916893150656	0.11900371207632245
-0.881778294609795	-0.3368093827186089	0.14768674589517847
-0.8133610665173546	-0.26950033674163093	0.1600790556817598
-0.7437522843911439	-0.20556803668402635	0.15899511173615655
-0.6760239970827182	-0.1463878047381363	0.14857122764809355
-0.6118553703249064	-0.0924527898748546	0.13296370466609597
-0.5519337988955655	-0.04374170949384631	0.11553189280730586
-1.1071679695768835	0.5300730501071912	-0.11982601132847961
-1.0999671036318108	0.484024880091844	-0.04694958395413178
-1.0742319713671296	0.42816831885590273	0.02211816015183451
-1.0300689737798743	0.36474950802266126	0.08101158934247857
-0.9705126465232176	0.2972247902142189	0.12464646984395586
-0.9007256607287653	0.22936437447167735	0.15083420683070942
-0.8263574134023568	0.1642838921016059	0.16072699413022803
-0.7520329510365441	0.10392842916914147	0.15791350617623512
-0.6807048756865293	0.049133799640991974	0.14688230992178494
-0.6138367511615122	7.517332125089563e-17	0.13173310039579958
-1.1497699503553362	0.42814283733353986	-0.1171215211592708
-1.1388701947567181	0.37585774222769763	-0.04205239504838961
-1.1072884675317844	0.3152457074821653	0.028044707617751394
-1.055949316229531	0.2492758682467758	0.08649170812352512
-0.9890406377589375	0.18173943524683764	0.12848945799518088
-0.9127167265851469	0.11620894433000048	0.15263156762052546
-0.8331136766212813	0.05520900584857862	0.1609267219547543
-0.7548657500042795	9.24443924528707e-17	0.157489101167147
-0.6807048756865293	-0.049133799640991974	0.14688230992178494
-1.1851583987794632	0.3152290180977418	-0.11487680526952417
-1.1693291848478466	0.2572733371289132	-0.03823252580394917
-1.1311000138782872	0.1932149069899077	0.032274311189209384
-1.0724474626669207	0.12658524365068757	0.08992087783084432
-0.9987155272258937	0.06117241744143166	0.13043027949931957
-0.9168252033600519	1.122787050672509e-16	0.15321147674430374
-0.8331136766212813	-0.05520900584857862	0.1609267219547543
-0.7520329510365441	-0.10392842916914147	0.15791350617623512
-1.2106506092878149	0.19320560846452453	-0.11326099965125475
-1.1888208310194492	0.13078093786762598	-0.0357948023401916
-1.1435965397945635	0.06511652729481691	0.034480378024102955
-1.0781213042713949	1.3203178043685334e-16	0.09108828922723204
-0.9987155272258937	-0.06117241744143166	0.13043027949931957
-0.9127167265851469	-0.11620894433000048	0.15263156762052546
-0.8263574134023568	-0.1642838921016059	0.16072699413022803
-1.2240294271250212	0.06511354527430306	-0.1124133569194938
-1.195537870617754	1.4641116265114748e-16	-0.03495597405651182
-1.1435965397945635	-0.06511652729481691	0.034480378024102955
-1.0724474626669207	-0.12658524365068757	0.08992087783084432
-0.9890406377589375	-0.18173943524683764	0.12848945799518088
-0.9007256607287653	-0.22936437447167735	0.15083420683070942
-1.2240294271250212	-0.06511354527430306	-0.1124133569194938
-1.1888208310194492	-0.13078093786762598	-0.0357948023401916
-1.1311000138782872	-0.1932149069899077	0.032274311189209384
-1.055949316229531	-0.2492758682467758	0.08649170812352512
-0.9705126465232176	-0.2972247902142189	0.12464646984395586
-1.2106506092878149	-0.19320560846452453	-0.11326099965125475
-1.1693291848478466	-0.2572733371289132	-0.03823252580394917
-1.1072884675317844	-0.3152457074821653	0.028044707617751394
-1.0300689737798743	-0.36474950802266126	0.08101158934247857
-1.1851583987794632	-0.3152290180977418	-0.11487680526952417
-1.1388701947567181	-0.37585774222769763	-0.04205239504838961
-1.0742319713671296	-0.42816831885590273	0.02211816015183451
-1.1497699503553362	-0.42814283733353986	-0.1171215211592708
-1.0999671036318108	-0.484024880091844	-0.04694958395413178
-1.1071679695768835	-0.5300730501071912	-0.11982601132847961
-1.0599441300416574	0.6202337313625119	-0.2585440127693997
-1.0551761898498973	0.5803941381686213	-0.32874125559185774
-1.0341746674974046	0.5299744151241541	-0.39617544223522844
-0.9965047435868121	0.47048579320709055	-0.454997835588996
-0.944196817008371	0.4048316271810158	-0.5001083202896239
-0.8813525163453434	0.3366467498716659	-0.5287020888112547
-0.8129175549743443	0.2693533829284839	-0.541015782437705
-0.7433025680832229	0.2054437381770849	-0.539869841649523
-0.6755734763515786	0.14629024793378445	-0.5294019661805996
-0.6114055177534137	0.09238481609006162	-0.513766632161338
-0.5514841196783206	0.043706071637049884	-0.4963197882883221
-1.1070748906688197	-0.5300284872025067	-0.26153845774730905
-1.099777121039749	-0.4839412809541619	-0.3343778693866425
-1.073950463714954	-0.42805611528964344	-0.4033829437079803
-1.029711059269959	-0.3646227697704385	-0.46219374317513556
-0.9701000717659279	-0.29709843694502414	-0.5057366358570882
-0.9002809544538365	-0.2292511326922768	-0.5318354687419925
-0.825898645934252	-0.16419268688700084	-0.5416522491360996
-0.7515714408622083	-0.10386465001239284	-0.5387804621076039
-0.6802458438819117	-0.049100666373518044	-0.5277088767643987
-0.6133820205087035	7.511763280705199e-17	-0.5125345261866772
-1.1496695834436377	-0.42810546344467126	-0.2642420529938841
-1.1386665094586967	-0.3757905206105267	-0.33927155497478734
-1.1069893149643952	-0.3151605385623066	-0.4093027197366993
-1.055573164622675	-0.24918707088032052	-0.467664272738415
-0.9886121422587189	-0.18166069780446925	-0.5095691992761737
-0.9122597912949496	-0.11615076640233214	-0.5336239231891895
-0.8326468417847606	-0.055178069509465424	-0.5418460486345561
-0.754400084542148	9.238736488110343e-17	-0.5383534468543075
-0.6802458438819117	0.049100666373518044	-0.5277088767643987
-1.1850517890698613	-0.31520066199436175	-0.26648590941957256
-1.1691143869911031	-0.25722607775821704	-0.3430886702975409
-1.1307878467859411	-0.19316158249607612	-0.4135272283181508
-1.0720594486046353	-0.1265394448061529	-0.47108719365814594
-0.9982784478246275	-0.061145645850462636	-0.511504583686874
-0.9163640229417189	1.1222222675493677e-16	-0.5342007838174065
-0.8326468417847606	0.055178069509465424	-0.5418460486345561
-0.7515714408622083	0.10386465001239284	-0.5387804621076039
-1.2105393467681846	-0.19318785227406005	-0.26810123505574374
-1.1885988024950458	-0.13075651274157066	-0.3455245492255851
-1.1432774259014353	-0.06509835691058703	-0.41573056006422876
-1.0777291693119058	1.3198375775455614e-16	-0.4722524251327657
-0.9982784478246275	0.061145645850462636	-0.511504583686874
-0.9122597912949496	0.11615076640233214	-0.5336239231891895
-0.825898645934252	0.16419268688700084	-0.5416522491360996
-1.2239156932179032	-0.06510749507833044	-0.2689485734141374
-1.19531336888194	1.4638366911793072e-16	-0.3463626544969563
-1.1432774259014353	0.06509835691058703	-0.41573056006422876
-1.0720594486046353	0.1265394448061529	-0.47108719365814594
-0.9886121422587189	0.18166069780446925	-0.5095691992761737
-0.9002809544538365	0.2292511326922768	-0.5318354687419925
-1.2239156932179032	0.06510749507833044	-0.2689485734141374
-1.1885988024950458	0.13075651274157066	-0.3455245492255851
-1.1307878467859411	0.19316158249607612	-0.4135272283181508
-1.055573164622675	0.24918707088032052	-0.467664272738415
-0.9701000717659279	0.29709843694502414	-0.5057366358570882
-1.2105393467681846	0.19318785227406005	-0.26810123505574374
-1.1691143869911031	0.25722607775821704	-0.3430886702975409
-1.1069893149643952	0.3151605385623066	-0.4093027197366993