# TIME=0.000000
VARIABLES=X,Y,Z
ZONE N=1442 E=2880 F=FEPOINT ET=TRIANGLE
1.0449452998382032	0.6458117008000577	-0.2601946689317093
-1.0449452998382034	0.6458117008000577	-0.2601946689317093
1.0449452998382032	-0.6458117008000577	-0.2601946689317093
-1.0449452998382034	-0.6458117008000577	-0.2601946689317093
0.49973381780711024	0.	0.07837083709103418
0.49973794400154736	0.	-0.598763766288485
-0.49973381780711024	6.119974204031641e-17	0.07837083709103418
-0.49973794400154736	6.120024735339742e-17	-0.598763766288485
5.64706881189488e-17	0.922236324110199	0.0990447950021098
5.64706881189488e-17	-0.922236324110199	0.0990447950021098
5.647092473349068e-17	0.9222401883189167	-0.6194369746097901
5.647092473349068e-17	-0.9222401883189167	-0.6194369746097901
1.0543536507222748	0.6169624232340074	-0.19243007794521116
1.0507407520602223	0.5779544488370176	-0.12192626534860794
1.0317178763192782	0.5287154049118267	-0.05329030041473928
0.9966016703571612	0.470531555827614	0.008092838296857538
0.9469516179278167	0.4060127692042568	0.05735707382956708
0.886330227661447	0.3385480666606781	0.0915640900827806
0.8192924417515774	0.27146564795305705	0.11047772281529858
0.7501426996200835	0.20733430367880168	0.11628933525972442
0.6821049927358451	0.14770459764508176	0.11256205348626003
0.6171450981358287	0.09325208022600201	0.10305260909342825
0.5562361127063905	0.04408267531482164	0.09091116955738848
1.101269650643323	-0.5272491426301602	-0.18943395289530887
1.0952862532167658	-0.481965138438308	-0.11623256049382032
1.071669520073696	-0.4271469747778045	-0.045867906879050936
1.0302032670632935	-0.3647970615460705	0.01577050090142563
0.9733650723360635	-0.29809836117371347	0.06378125958796713
0.9057379756187602	-0.23064073032509982	0.09574537251248186
0.8326122826841355	-0.16552739068167727	0.11225589297210085
0.7585822786932598	-0.1048335242644274	0.11624280737718026
0.6868233813069062	-0.049575438066088745	0.11164860832069749
0.6191142275695496	0.	0.10223229310041024
1.143673969548697	-0.4258728610499546	-0.18672820224688513
1.1341406787893196	-0.3742968749738875	-0.11128417267812779
1.1048776337736643	-0.3145593416290153	-0.039755125237450575
1.0563987132976507	-0.2493819565245194	0.021642602505506252
0.9922593335452934	-0.18233088107030662	0.06821545787600532
0.9180255042201699	-0.11688486866301545	0.09822568879217541
0.8395342555775567	-0.055634486537583634	0.11306003954739355
0.7614668052127221	0.	0.11617794421015039
0.6868233813069062	0.049575438066088745	0.11164860832069749
1.1789007970954757	-0.31356461810148684	-0.184481988832256
1.1645701807934215	-0.2562262711099022	-0.10742095340192538
1.1288114190325491	-0.19282396840372487	-0.0353829245064318
1.0731092799078257	-0.12666336057446093	0.025334099181918604
1.0021310428922245	-0.06138162150847848	0.07047615442261197
0.922236324110199	0.	0.0990447950021098
0.8395342555775567	0.055634486537583634	0.11306003954739355
0.7585822786932598	0.1048335242644274	0.11624280737718026
1.2042780712718342	-0.1921886262936198	-0.18286484403641864
1.1840470455423104	-0.130255778713623	-0.10495392785957128
1.1413765479470357	-0.06499012068662623	-0.03309911065555429
1.0788582679499337	0.	0.02659402723922869
1.0021310428922245	0.06138162150847848	0.07047615442261197
0.9180255042201699	0.11688486866301545	0.09822568879217541
0.8326122826841355	0.16552739068167727	0.11225589297210085
1.2175970776364164	-0.06477136961221111	-0.1820164094610878
1.1907597428761523	0.	-0.10410471442721068
1.1413765479470357	0.06499012068662623	-0.03309911065555429
1.0731092799078257	0.12666336057446093	0.025334099181918604
0.9922593335452934	0.18233088107030662	0.06821545787600532
0.9057379756187602	0.23064073032509982	0.09574537251248186
1.2175970776364164	0.06477136961221111	-0.1820164094610878
1.1840470455423104	0.130255778713623	-0.10495392785957128
1.1288114190325491	0.19282396840372487	-0.0353829245064318
1.0563987132976507	0.2493819565245194	0.021642602505506252
0.9733650723360635	0.29809836117371347	0.06378125958796713
1.2042780712718342	0.1921886262936198	-0.18286484403641864
1.1645701807934215	0.2562262711099022	-0.10742095340192538
1.1048776337736643	0.3145593416290153	-0.039755125237450575
1.0302032670632935	0.3647970615460705	0.01577050090142563
1.1789007970954757	0.31356461810148684	-0.184481988832256
1.1341406787893196	0.3742968749738875	-0.11128417267812779
1.071669520073696	0.4271469747778045	-0.045867906879050936
1.143673969548697	0.4258728610499546	-0.18672820224688513
1.0952862532167658	0.481965138438308	-0.11623256049382032
1.101269650643323	0.5272491426301602	-0.18943395289530887
1.0920771913732947	0.5624507450670077	-0.2601946689317093
1.1357777517961467	0.46796616444899714	-0.2601946689317093
1.1736476209398576	0.3626771214267975	-0.2601946689317093
1.2031411059581303	0.24786066992982775	-0.2601946689317093
1.2219414671216395	0.12586692763721263	-0.2601946689317093
1.2284068676721958	0.	-0.2601946689317093
1.2219414671216395	-0.12586692763721263	-0.2601946689317093
1.2031411059581303	-0.24786066992982775	-0.2601946689317093
1.1736476209398576	-0.3626771214267975	-0.2601946689317093
1.1357777517961467	-0.46796616444899714	-0.2601946689317093
1.0920771913732947	-0.5624507450670077	-0.2601946689317093
1.0543543597240232	-0.6169628381113462	-0.3279593428082969
1.050742206916951	-0.5779552490733434	-0.39846342315941197
1.0317200101178912	-0.528716498400874	-0.46709975923480973
0.9966044432616216	-0.4705328650157167	-0.5284834649962074
0.9469548654238091	-0.4060141615930715	-0.5777484607752635
0.8863339926283941	-0.3385495047502763	-0.611955924134043
0.8192962983630052	-0.27146692580876125	-0.6308701606264834
0.7501466231966686	-0.2073353881284932	-0.6366821760946714
0.6821089249303708	-0.14770544913160724	-0.6329551111200665
0.6171491357923156	-0.09325269032542234	-0.6234457321462253
0.5562400480203102	-0.04408298719526561	-0.6113042037996602
1.1012704248511103	0.5272495132935956	-0.33095547561565564
1.095287815728937	0.4819658259995668	-0.4041570160360618
1.0716718636387932	0.42714790887803095	-0.4745221061914803
1.0302062361231326	0.36479811289616754	-0.5361613251865104
0.9733685414828488	0.29809942361883374	-0.5841726540310028
0.9057417314501668	0.23064168672498797	-0.6161374292586976
0.8326161568718424	0.16552816088912614	-0.6326484742536581
0.7585862155868965	0.10483406832991136	-0.6366357116208244
0.6868273810381351	0.049575726769754365	-0.6320416776021804
0.6191181933656384	0.	-0.6226254002216466
1.1436748043061011	0.42587317189074797	-0.3336612332349327
1.1341423211810036	0.37429741700724034	-0.40910539462494744
1.1048800894951092	0.31456004077442046	-0.4806350657394993
1.0564018386229632	0.24938269431388943	-0.5420334383028006
0.9922630099920481	0.18233155662935993	-0.5886069281561627
0.9180293131829114	0.11688535362787507	-0.618617864836577
0.8395381705538968	0.05563474597631057	-0.6334526741265732
0.7614707435525986	0.	-0.6365708699065276
0.6868273810381351	-0.049575726769754365	-0.6320416776021804
1.1789017027484614	0.3135648589875166	-0.3359073623940231
1.1645718753605983	0.2562266439449928	-0.4129687205879065
1.128814008977945	0.1928244108191193	-0.48500737014055784
1.0731125086334048	0.12666374167379524	-0.5457249279851344
1.0021346781193288	0.061381844170111194	-0.5908677570480738
0.9222401883189167	0.	-0.6194369746097901
0.8395381705538968	-0.05563474597631057	-0.6334526741265732
0.7585862155868965	-0.10483406832991136	-0.6366357116208244
1.2042789942763081	0.19218877359428574	-0.3375246010623997
1.1840488091675136	0.13025597272818948	-0.4154357710378663
1.1413791997919867	0.0649902716830031	-0.4872912153077802
1.078861532009873	0.	-0.5469848620952552
1.0021346781193288	-0.061381844170111194	-0.5908677570480738
0.9180293131829114	-0.11688535362787507	-0.618617864836577
0.8326161568718424	-0.16552816088912614	-0.6326484742536581
1.2175980204189898	0.06477141976453132	-0.3383730376696686
1.1907615741896829	0.	-0.41628491119735084
1.1413791997919867	-0.0649902716830031	-0.4872912153077802
1.0731125086334048	-0.12666374167379524	-0.5457249279851344
0.9922630099920481	-0.18233155662935993	-0.5886069281561627
0.9057417314501668	-0.23064168672498797	-0.6161374292586976
1.2175980204189898	-0.06477141976453132	-0.3383730376696686
1.1840488091675136	-0.13025597272818948	-0.4154357710378663
1.128814008977945	-0.1928244108191193	-0.48500737014055784
1.0564018386229632	-0.24938269431388943	-0.5420334383028006
0.9733685414828488	-0.29809942361883374	-0.5841726540310028
1.2042789942763081	-0.19218877359428574	-0.3375246010623997
1.1645718753605983	-0.2562266439449928	-0.4129687205879065
1.1048800894951092	-0.31456004077442046	-0.4806350657394993
1.0302062361231326	-0.36479811289616754	-0.5361613251865104
1.1789017027484614	-0.3135648589875166	-0.3359073623940231
1.1341423211810036	-0.37429741700724034	-0.40910539462494744
1.0716718636387932	-0.42714790887803095	-0.4745221061914803
1.1436748043061011	-0.42587317189074797	-0.3336612332349327
1.095287815728937	-0.4819658259995668	-0.4041570160360618
1.1012704248511103	-0.5272495132935956	-0.33095547561565564
0.9999969950259104	0.7089408713772922	-0.21816413625286543
0.9421099938675512	0.7706780027670006	-0.17340877563203672
0.8705519254424963	0.8282146840767681	-0.1274657000688339
0.7858175410631563	0.8785707832903877	-0.08236285152829857
0.6898752177044922	0.9191343069202429	-0.04030786540185722
0.5860315088717057	0.9482187882014226	-0.0032304235192197606
0.4783865151347014	0.9654001263510641	0.02764308626818013
0.3710739970278301	0.9714843097414554	0.05198636774837267
0.2675915647079853	0.9681553481445233	0.07027180103446683
0.17043286172721245	0.9574974203599967	0.0834683776266551
0.08104518660305916	0.9415861319414799	0.09270803029346295
0.5337281916070442	0.12027152364501319	0.08867567168842808
0.5064830071863178	0.20206157745635267	0.08829804347257739
0.4740727095534048	0.28854858920469967	0.09030021235175353
0.4363539823253128	0.3783341403323143	0.09477993998223842
0.3935643749399932	0.4696182213193513	0.10116463177048525
0.3463366190502056	0.5603843927270868	0.10813546202541727
0.2956167119361597	0.6485972876284648	0.11383009799895999
0.24253562736991982	0.7323424316307902	0.11629008287383936
0.18829706453831982	0.8099248663013341	0.11397010027610052
0.13409586992953593	0.8799780552300493	0.10608953200251271
0.5946856584220307	0.17584026423568824	0.10240055901121001
0.5668016999132799	0.26413259784019716	0.10324094580382005
0.5330169654183906	0.35690982463461435	0.10572209612234731
0.4932051020155087	0.4524112785041191	0.10946962492448489
0.44767976490066647	0.5484612797251981	0.11344616164271049
0.39719214298411487	0.6426703596639904	0.11604832707389925
0.342845877101208	0.7326484880264688	0.11547509550592738
0.2859766306863781	0.8162065918360938	0.11023255344840567
0.22802968510812072	0.8915571132948357	0.09954062383112952
0.6595020304469597	0.23693631218316735	0.11282436320916903
0.6306686295485328	0.33177479084387806	0.11381655218044957
0.5950824590977821	0.4306056588126681	0.11523421833726431
0.5526383506077067	0.5312168932571304	0.11625163542258056
0.5037415306875727	0.6309593871837301	0.11554776129345927
0.44930920851353984	0.7269975987624714	0.11157968519192552
0.3906922472201089	0.8166130368673151	0.10302976451466007
0.3295346512895353	0.8975227672916861	0.08921714847350214
0.7269894364802358	0.3031629039107968	0.11618281588675251
0.6966368834424711	0.4041739645230102	0.11563774128368184
0.6585244776445273	0.5082439039718443	0.11394301978710761
0.6126029509647768	0.6126029509647767	0.11001997348141365
0.5594474705936759	0.7140750283848571	0.1026200851151157
0.5002677742575348	0.8094501577637836	0.0906880728696495
0.4367972591581092	0.8959229495822667	0.07372907493410705
0.7948125014447696	0.37331672599483856	0.1082064076884792
0.7619814656962465	0.4794232778953079	0.10409208255527976
0.7202591208413845	0.5870476819348351	0.09723623701113689
0.6697690931295509	0.6928372011647506	0.08666454579731936
0.6114243199009001	0.7932123950939586	0.07160966823970834
0.5468932253912419	0.8848917167105907	0.05180696626509306
0.8592896848927715	0.44506439534581216	0.08523056146949562
0.8226494976930382	0.5542700217430299	0.07578105587636376
0.7760479027533836	0.6628240970140346	0.0624726060812973
0.7199880126951764	0.7669654040122852	0.044801683814162566
0.6559095447256561	0.8630651363688556	0.022726257610968578
0.9158025205590997	0.5149611764754614	0.0456071164402059
0.8739593495232099	0.6244422021085306	0.03003282337240183
0.8214752487288928	0.7307277511951515	0.010349289398761747
0.7594324633369808	0.8300324165620403	-0.013304869116125322
0.9599116865884315	0.579045770258757	-0.009321082232576923
0.9119324334177072	0.6856496369326442	-0.03044759683313634
0.8533284256526702	0.7866147234742157	-0.05501877572209779
0.9886952656744898	0.6338490046514405	-0.07538240910527212
0.9345368602182079	0.7347919499591942	-0.1003343545757951
1.0015392679392925	0.6772809680070325	-0.14686364703999133
1.0543543597240232	0.6169628381113462	-0.3279593428082969
1.050742206916951	0.5779552490733434	-0.39846342315941197
1.0317200101178912	0.528716498400874	-0.46709975923480973
0.9966044432616216	0.4705328650157167	-0.5284834649962074
0.9469548654238091	0.4060141615930715	-0.5777484607752635
0.8863339926283941	0.3385495047502763	-0.611955924134043
0.8192962983630052	0.27146692580876125	-0.6308701606264834
0.7501466231966686	0.2073353881284932	-0.6366821760946714
0.6821089249303708	0.14770544913160724	-0.6329551111200665
0.6171491357923156	0.09325269032542234	-0.6234457321462253
0.5562400480203102	0.04408298719526561	-0.6113042037996602
0.47709295102876426	0.07017747942889688	-0.5947830620048111
0.45030486946890563	0.14572173460147347	-0.5927289816695711
0.41900806632178944	0.22598975167439384	-0.5933675898704182
0.3830536879427235	0.30989690283210697	-0.5971753060056743
0.3426022385008708	0.3959586838638442	-0.6040551601852355
0.2981671203719211	0.4824445278302368	-0.6131432556589256
0.25056362722656655	0.567588598318636	-0.6228416506953662
0.2007818377592452	0.6497437516175391	-0.6311232689447552
0.1498601552185885	0.7274365975841967	-0.6360095177973003
0.09880956435864466	0.79938572261292	-0.6360273889914049
0.04857497537183195	0.8645547619928665	-0.6304749564222083
1.0015403472253253	0.6772816978634769	-0.3735258798732939
0.9345383556203061	0.7347931257388456	-0.420055320765142
0.8533302212008431	0.7866163786454101	-0.4653712104089042
0.7594343834533529	0.830034515180297	-0.5070855764218484
0.6559114949351719	0.8630677025120918	-0.5431170893828826
0.5468950641390191	0.8848946918666207	-0.5721982167997577
0.43679886900828707	0.8959262515757879	-0.594120728636697
0.32953598386947586	0.8975263967152722	-0.6096090163661675
0.22803067427641752	0.8915609807738915	-0.6199327728539458
0.1340964590517805	0.8799819212301531	-0.6264818994551575
0.9886970858242023	0.6338501715429222	-0.44500736799665774
0.9119346240163504	0.685651283966031	-0.48994265871879916
0.8214775585863873	0.7307298058851439	-0.530739978936812
0.7199904287699895	0.7669679777298506	-0.5651927389920137
0.6114266028369465	0.7932153567902966	-0.592001260776744
0.500269883786069	0.8094535710522116	-0.6110798998181822
0.39069398101933817	0.8166166608016623	-0.6234219394536586
0.2859779737923957	0.8162104251982202	-0.6306249819683941
0.1882979754385707	0.8099287843696572	-0.6343627370721423
0.9599141670284297	0.5790472665300385	-0.5110694498228582
0.8739620961379566	0.6244441645592577	-0.5504236615612284
0.7760506488405485	0.6628264424526845	-0.5828639926266823
0.6697717155462481	0.6928399139024141	-0.6070564494238635
0.5594499461585423	0.7140781881793777	-0.623012249281567
0.449311375424691	0.7270011048984993	-0.631972187673383
0.3428475657424491	0.7326520965880259	-0.6358678445778155
0.24253689549049054	0.7323462607527729	-0.6366829549215339
0.9158055320649072	0.5149628698629971	-0.5659982263075988
0.8226525774058078	0.5542720967366553	-0.5961727074699218
0.7202620972704907	0.5870501078753844	-0.6176283814030862
0.6126058202222915	0.6126058202222914	-0.6304123960521258
0.5037440070951351	0.6309624889978607	-0.6359405225704144
0.3971942799584513	0.6426738173609506	-0.6364412723947391
0.2956183432778464	0.6486008668706068	-0.6342231324569699
0.8592931024201326	0.4450661654354283	-0.6056224155431522
0.7619848538203383	0.4794254096342427	-0.6244843050822164
0.6585277507910382	0.5082464301600385	-0.6343356467729235
0.5526413101292402	0.5312197380612105	-0.6366445367756021
0.44768235645214816	0.5484644546858587	-0.6338392145602233
0.3463387165956391	0.560387786626719	-0.6285285643835753
0.7948160729814788	0.37331840351549744	-0.6285988312177822
0.6966403014063796	0.4041759475532751	-0.6360305175146426
0.5950857396323442	0.4306080326294808	-0.6356271964638907
0.49320810034743806	0.45241402883897164	-0.6298627283127791
0.3935669326922983	0.46962127334124293	-0.6215577417362559
0.7269931639078347	0.30316445829070704	-0.6365756341859867
0.630672111576877	0.3317766226287037	-0.6342095869252996
0.5330203700489051	0.3569121043858394	-0.6261152182262475
0.4363569705790482	0.3783367312526539	-0.6151730127886095
0.6595058078067813	0.23693766925814908	-0.6332174166574063
0.5668052666674934	0.26413425996657475	-0.623634044188214
0.4740760739777919	0.2885506369916548	-0.6106932340048943
0.5946894571307882	0.17584138746094555	-0.6227936649244452
0.5064866596027333	0.2020630345891922	-0.608691040402366
0.5337320252656679	0.12027238753035979	-0.6090686698923964
0.9999974212408403	0.708941173539384	-0.3022251422917758
0.9421108220244965	0.7706786802275356	-0.3469806076422793
0.8705530763919317	0.8282157790524901	-0.39292395698955146
0.7858189133715059	0.8785723175778763	-0.4380269939567968
0.6898767446969337	0.9191363413622744	-0.48008231245592586
0.5860330647539825	0.9482213056715326	-0.5171601576713102
0.47838796896253905	0.9654030602246869	-0.5480339320054983
0.3710752762752582	0.9714876588546097	-0.572377574834649
0.2675925349393739	0.9681588584745624	-0.5906633965714152
0.17043353686141843	0.9575012132861618	-0.6038601680523951
0.0810455242739575	0.9415900550151178	-0.6130999212310018
0.08711477899684146	1.0121023425725766	0.06484784430469913
0.09312360163059874	1.0819135140876717	0.021273904855197305
0.09855365690151284	1.1449990685026405	-0.04030786540185722
0.10274386935602187	1.1936814145649568	-0.11943368547895693
0.10504496523598349	1.2204155513069717	-0.2116470303394729
0.1050450158788248	1.2204161396770183	-0.3087423501545554
0.1027440123139594	1.1936830754546446	-0.40095599411451494
0.09855387504341055	1.145001602881146	-0.48008231245592586
0.09312387666610546	1.0819167094605564	-0.5416647420433501
0.08711509103586573	1.0121059678521338	-0.5852392528464961
0.18315809264409535	1.0289886135909636	0.048931800407276196
0.19534386389803599	1.0974482104072194	-0.0032304235192197606
0.2057043159053127	1.1556540397910333	-0.0744199521683773
0.21275760340226724	1.1952794621426222	-0.16233458749349625
0.21527060819286914	1.2093973696814824	-0.2601946689317093
0.212757810589377	1.1952806261268614	-0.3580549239774895
0.20570468847892856	1.1556561329226351	-0.4459699160756711
0.1953443825255349	1.0974511240734548	-0.5171601576713102
0.18315870348195937	1.0289920452995918	-0.5693229559023416
0.2870319167139313	1.0384910883627751	0.02764308626818013
0.30478732029677	1.1027309089446526	-0.03409805183183519
0.3186167267494561	1.1527660949126952	-0.11483062545913701
0.3262598838893861	1.180419313272543	-0.2099386322213375
0.3262600464661976	1.1804199014809549	-0.31045075109404924
0.31861718210613454	1.1527677424085605	-0.4055589443619825
0.3047880249425642	1.102733458377143	-0.48629226390362235
0.28703278901065715	1.0384942443615455	-0.5480339320054983
0.39647226334930497	1.0379778619469764	0.00008657469085479672
0.41818126862047544	1.0948126840382295	-0.07152802303741525
0.43302259986799735	1.1336678619551421	-0.1606307519621548
0.43832273248935083	1.1475437310740209	-0.2601946689317093
0.43302302880412885	1.1336689849244912	-0.35975876538516555
0.41818204544795823	1.0948147177988146	-0.4488618937417875
0.39647335518267207	1.0379807204038438	-0.5204770737266634
0.5079788453379493	1.0251186569586515	-0.03409805183183519
0.5310278092431014	1.0716322848604716	-0.11483062545913701
0.5437664322369752	1.097339206514835	-0.2099386322213375
0.5437667031983074	1.0973397533240452	-0.31045075109404924
0.5310285681708006	1.0716338164025305	-0.4055589443619825
0.5079800197475558	1.0251210269573425	-0.48629226390362235
0.6171130295311354	0.9985099068363377	-0.0744199521683773
0.6382728525123502	1.0327470920661943	-0.16233458749349625
0.6458117008000579	1.0449452998382032	-0.2601946689317093
0.6382734740737207	1.0327480977735426	-0.3580549239774895
0.6171141472521311	0.9985117153469895	-0.4459699160756711
0.7192068549534454	0.9582135054130773	-0.11943368547895693
0.7353145390307588	0.9796739719331687	-0.2116470303394729
0.7353148935305431	0.9796744442401792	-0.3087423501545554
0.7192078556586873	0.9582148386724464	-0.40095599411451494
0.8102768410501919	0.9059171140088154	-0.16696518758422726
0.8189378828742145	0.9156004459029685	-0.2601946689317093
0.8102775919551255	0.9059179535461139	-0.3534243074677614
0.88776429372686	0.8445899324572785	-0.21459873352499512
0.8877646959976683	0.8445903151645773	-0.3057906420903154
0.9508033398400321	0.7777894583325595	-0.2601946689317093
-1.0920771913732947	0.5624507450670078	-0.2601946689317093
-1.1357777517961467	0.4679661644489973	-0.2601946689317093
-1.1736476209398574	0.3626771214267977	-0.2601946689317093
-1.2031411059581303	0.24786066992982758	-0.2601946689317093
-1.2219414671216395	0.12586692763721266	-0.2601946689317093
-1.2284068676721958	1.5043645385453808e-16	-0.2601946689317093
-1.2219414671216395	-0.12586692763721266	-0.2601946689317093
-1.2031411059581303	-0.24786066992982758	-0.2601946689317093
-1.1736476209398574	-0.3626771214267977	-0.2601946689317093
-1.1357777517961467	-0.4679661644489973	-0.2601946689317093
-1.0920771913732947	-0.5624507450670078	-0.2601946689317093
-1.0543536507222748	-0.6169624232340075	-0.19243007794521116
-1.0507407520602223	-0.5779544488370177	-0.12192626534860794
-1.0317178763192782	-0.5287154049118266	-0.05329030041473928
-0.9966016703571612	-0.4705315558276142	0.008092838296857538
-0.9469516179278167	-0.4060127692042568	0.05735707382956708
-0.8863302276614469	-0.33854806666067816	0.0915640900827806
-0.8192924417515774	-0.27146564795305705	0.11047772281529858
-0.7501426996200835	-0.20733430367880162	0.11628933525972442
-0.6821049927358452	-0.14770459764508173	0.11256205348626003
-0.6171450981358287	-0.09325208022600193	0.10305260909342825
-0.5562361127063905	-0.04408267531482166	0.09091116955738848
-1.101269650643323	0.5272491426301602	-0.18943395289530887
-1.0952862532167658	0.4819651384383078	-0.11623256049382032
-1.071669520073696	0.4271469747778046	-0.045867906879050936
-1.0302032670632935	0.3647970615460706	0.01577050090142563
-0.9733650723360635	0.29809836117371336	0.06378125958796713
-0.9057379756187605	0.23064073032509963	0.09574537251248186
-0.8326122826841355	0.16552739068167738	0.11225589297210085
-0.7585822786932598	0.10483352426442727	0.11624280737718026
-0.6868233813069062	0.04957543806608874	0.11164860832069749
-0.6191142275695496	7.581962570996349e-17	0.10223229310041024
-1.143673969548697	0.42587286104995487	-0.18672820224688513
-1.1341406787893196	0.3742968749738874	-0.11128417267812779
-1.104877633773664	0.3145593416290154	-0.039755125237450575
-1.056398713297651	0.2493819565245192	0.021642602505506252
-0.9922593335452934	0.1823308810703067	0.06821545787600532
-0.9180255042201699	0.1168848686630155	0.09822568879217541
-0.8395342555775567	0.05563448653758356	0.11306003954739355
-0.7614668052127221	9.325278856607212e-17	0.11617794421015039
-0.6868233813069062	-0.04957543806608874	0.11164860832069749
-1.1789007970954757	0.31356461810148667	-0.184481988832256
-1.1645701807934215	0.2562262711099022	-0.10742095340192538
-1.1288114190325491	0.19282396840372495	-0.0353829245064318
-1.0731092799078257	0.12666336057446104	0.025334099181918604
-1.0021310428922245	0.061381621508478555	0.07047615442261197
-0.922236324110199	1.129413762378976e-16	0.0990447950021098
-0.8395342555775567	-0.05563448653758356	0.11306003954739355
-0.7585822786932598	-0.10483352426442727	0.11624280737718026
-1.2042780712718342	0.19218862629361963	-0.18286484403641864
-1.1840470455423104	0.13025577871362318	-0.10495392785957128
-1.1413765479470357	0.06499012068662643	-0.03309911065555429
-1.0788582679499337	1.3212203245785439e-16	0.02659402723922869
-1.0021310428922245	-0.061381621508478555	0.07047615442261197
-0.9180255042201699	-0.1168848686630155	0.09822568879217541
-0.8326122826841355	-0.16552739068167738	0.11225589297210085
-1.2175970776364164	0.06477136961221122	-0.1820164094610878
-1.1907597428761523	1.4582601076668053e-16	-0.10410471442721068
-1.1413765479470357	-0.06499012068662643	-0.03309911065555429
-1.0731092799078257	-0.12666336057446104	0.025334099181918604
-0.9922593335452934	-0.1823308810703067	0.06821545787600532
-0.9057379756187605	-0.23064073032509963	0.09574537251248186
-1.2175970776364164	-0.06477136961221122	-0.1820164094610878
-1.1840470455423104	-0.13025577871362318	-0.10495392785957128
-1.1288114190325491	-0.19282396840372495	-0.0353829245064318
-1.056398713297651	-0.2493819565245192	0.021642602505506252
-0.9733650723360635	-0.29809836117371336	0.06378125958796713
-1.2042780712718342	-0.19218862629361963	-0.18286484403641864
-1.1645701807934215	-0.2562262711099022	-0.10742095340192538
-1.104877633773664	-0.3145593416290154	-0.039755125237450575
-1.0302032670632935	-0.3647970615460706	0.01577050090142563
-1.1789007970954757	-0.31356461810148667	-0.184481988832256
-1.1341406787893196	-0.3742968749738874	-0.11128417267812779
-1.071669520073696	-0.4271469747778046	-0.045867906879050936
-1.143673969548697	-0.42587286104995487	-0.18672820224688513
-1.0952862532167658	-0.4819651384383078	-0.11623256049382032
-1.101269650643323	-0.5272491426301602	-0.18943395289530887
-1.0543543597240232	0.6169628381113463	-0.3279593428082969
-1.050742206916951	0.5779552490733435	-0.39846342315941197
-1.0317200101178912	0.528716498400874	-0.46709975923480973
-0.9966044432616216	0.47053286501571684	-0.5284834649962074
-0.9469548654238091	0.4060141615930715	-0.5777484607752635
-0.886333992628394	0.3385495047502764	-0.611955924134043
-0.8192962983630052	0.27146692580876125	-0.6308701606264834
-0.7501466231966686	0.20733538812849314	-0.6366821760946714
-0.6821089249303709	0.1477054491316072	-0.6329551111200665
-0.6171491357923156	0.09325269032542226	-0.6234457321462253
-0.5562400480203102	0.044082987195265634	-0.6113042037996602
-1.1012704248511103	-0.5272495132935956	-0.33095547561565564
-1.0952878157289372	-0.4819658259995665	-0.4041570160360618
-1.0716718636387932	-0.42714790887803106	-0.4745221061914803
-1.0302062361231326	-0.3647981128961677	-0.5361613251865104
-0.9733685414828488	-0.2980994236188336	-0.5841726540310028
-0.9057417314501669	-0.23064168672498778	-0.6161374292586976
-0.8326161568718424	-0.16552816088912625	-0.6326484742536581
-0.7585862155868965	-0.10483406832991124	-0.6366357116208244
-0.6868273810381351	-0.04957572676975436	-0.6320416776021804
-0.6191181933656384	7.582011137991213e-17	-0.6226254002216466
-1.1436748043061011	-0.4258731718907482	-0.3336612332349327
-1.1341423211810036	-0.37429741700724023	-0.40910539462494744
-1.104880089495109	-0.31456004077442057	-0.4806350657394993
-1.0564018386229632	-0.24938269431388924	-0.5420334383028006
-0.9922630099920481	-0.18233155662936	-0.5886069281561627
-0.9180293131829114	-0.11688535362787512	-0.618617864836577
-0.8395381705538968	-0.055634745976310504	-0.6334526741265732
-0.7614707435525986	9.325327087360449e-17	-0.6365708699065276
-0.6868273810381351	0.04957572676975436	-0.6320416776021804
-1.1789017027484614	-0.3135648589875165	-0.3359073623940231
-1.1645718753605983	-0.2562266439449928	-0.4129687205879065
-1.128814008977945	-0.19282441081911939	-0.48500737014055784
-1.0731125086334048	-0.12666374167379535	-0.5457249279851344
-1.0021346781193288	-0.06138184417011127	-0.5908677570480738
-0.9222401883189167	1.1294184946698136e-16	-0.6194369746097901
-0.8395381705538968	0.055634745976310504	-0.6334526741265732
-0.7585862155868965	0.10483406832991124	-0.6366357116208244
-1.2042789942763081	-0.19218877359428557	-0.3375246010623997
-1.1840488091675136	-0.13025597272818965	-0.4154357710378663
-1.1413791997919867	-0.06499027168300332	-0.4872912153077802
-1.078861532009873	1.3212243218991006e-16	-0.5469848620952552
-1.0021346781193288	0.06138184417011127	-0.5908677570480738
-0.9180293131829114	0.11688535362787512	-0.618617864836577
-0.8326161568718424	0.16552816088912625	-0.6326484742536581
-1.2175980204189898	-0.06477141976453143	-0.3383730376696686
-1.1907615741896829	1.4582623503790588e-16	-0.41628491119735084
-1.1413791997919867	0.06499027168300332	-0.4872912153077802
-1.0731125086334048	0.12666374167379535	-0.5457249279851344
-0.9922630099920481	0.18233155662936	-0.5886069281561627
-0.9057417314501669	0.23064168672498778	-0.6161374292586976
-1.2175980204189898	0.06477141976453143	-0.3383730376696686
-1.1840488091675136	0.13025597272818965	-0.4154357710378663
-1.128814008977945	0.19282441081911939	-0.48500737014055784
-1.0564018386229632	0.24938269431388924	-0.5420334383028006
-0.9733685414828488	0.2980994236188336	-0.5841726540310028
-1.2042789942763081	0.19218877359428557	-0.3375246010623997
-1.1645718753605983	0.2562266439449928	-0.4129687205879065
-1.104880089495109	0.31456004077442057	-0.4806350657394993