# TIME = 0.000000
VARIABLES = X, Y, Z
ZONE N=2562 E=5120 F=FEPOINT ET=TRIANGLE
1.036904786841467	0.6408424562472007	-0.3300756394559016
-1.036904786841467	0.6408424562472007	-0.3300756394559016
1.036904786841467	-0.6408424562472007	-0.3300756394559016
-1.036904786841467	-0.6408424562472007	-0.3300756394559016
0.50371476375548	0.	0.058157007617270856
0.5033263907833401	0.	-0.7178671969189833
-0.50371476375548	6.168726731164137e-17	0.058157007617270856
-0.5033263907833401	6.163970533992072e-17	-0.7178671969189833
5.669994192328662e-17	0.9259803228614704	0.04469380971307972
5.669994192328662e-17	-0.9259803228614704	0.04469380971307972
5.667715179571638e-17	0.925608131833231	-0.7045776126126496
5.667715179571638e-17	-0.925608131833231	-0.7045776126126496
1.0451980350240027	0.6204058667013759	-0.27967157836623396
1.0470234011994357	0.5945986540263853	-0.22701872342008006
1.0412136075552607	0.5631824742418824	-0.17367010257208151
1.0269441443458704	0.5262689743993902	-0.12156044494243522
1.0039260787027755	0.4843848233572936	-0.07281564509395042
0.9725287457986163	0.43846430247071094	-0.029465354526499024
0.9337798033274549	0.38975505874134814	0.006877546513715563
0.8892216960540835	0.33965250699668437	0.03527816501133559
0.8406630329849986	0.28950965245880483	0.05559483171607667
0.7899037012122029	0.2404796820705276	0.06841811332728372
0.7385164537831733	0.19342847877917735	0.07486958644398763
0.6877303520676912	0.14892275997424098	0.07634032302919486
0.638413349701875	0.10727170632166091	0.0742495165419456
0.5911211559795265	0.06859119025146794	0.06987220699154546
0.5461712460081032	0.03286620444963915	0.06424801141411197
1.0806130801571006	-0.5559037292123379	-0.2779686779006786
1.0817211552046981	-0.5265456845417014	-0.22364594563256282
1.0742841976159472	-0.49167464555327633	-0.1688540645929783
1.0574910013443795	-0.45160258816425214	-0.1157281749172911
1.0311875090159806	-0.4070766764122614	-0.06654994426297207
0.995988181584958	-0.35923272586690236	-0.023408660624651658
0.9532279780742967	-0.3094564864336733	0.01214940294891751
0.9047504579687122	-0.2591879539287728	0.03936939262979807
0.8525983692520356	-0.2097285138751442	0.05835251120188007
0.7987080305642846	-0.16210674679883869	0.06992748355794912
0.7446969345645469	-0.11702831943380633	0.07539381212667537
0.6917742229892053	-0.07489922548706819	0.07623521145183106
0.6407556554560419	-0.03588841409587896	0.0738828374727005
0.5921349781987066	0.	0.06956592226495141
1.1140163953028295	-0.484920236150038	-0.27636288352327554
1.113940663358489	-0.4518574583140413	-0.2205177884708613
1.1043893777779887	-0.4135524755823626	-0.1644827905514789
1.084618727432086	-0.3705500336964627	-0.11057847389862518
1.0546709763178939	-0.32382555230911075	-0.06120621669922383
1.0154566237286178	-0.2746910290710076	-0.018461913783567662
0.9686415368542022	-0.22461453637159468	0.01622741040595857
0.9163599116466535	-0.1750091550905591	0.042320491617647664
0.8608512373120111	-0.12705515477884394	0.06016188176889313
0.8041416512763622	-0.08160479369364432	0.07078621129653133
0.7478512041771814	-0.03917464887405324	0.07561956524323854
0.6931402859053777	0.	0.07618477864871037
0.6407556554560419	0.03588841409587896	0.0738828374727005
1.1443520666351976	-0.40755681401093063	-0.27490491958597224
1.142557567134117	-0.3707724973871905	-0.21774257409589548
1.1303849666436927	-0.32922321232653845	-0.16071858194159805
1.10722411195175	-0.2837047392083213	-0.10630967443856708
1.0733755683811086	-0.23540618792618487	-0.05698689146731223
1.030083553382779	-0.1857651010093879	-0.014794764996124815
0.9793442717012485	-0.13625781092197362	0.019004939426295768
0.9235464879574368	-0.08819089174064736	0.0440996797687437
0.8650711306225085	-0.042559374404002925	0.061055443934872604
0.8059789849334397	0.	0.0710637875483119
0.7478512041771814	0.03917464887405324	0.07561956524323854
0.6917742229892053	0.07489922548706819	0.07623521145183106
1.1704898373279753	-0.3242289031017867	-0.27364904960393804
1.1664065760527642	-0.2838838208306043	-0.21543202287751553
1.1511329032998827	-0.23947568949955483	-0.15772134462371076
1.1242642739619375	-0.19204729885271948	-0.10310559462185453
1.0864126130575522	-0.14295925634785925	-0.05406603940166076
1.0391692728199955	-0.09370183259861566	-0.012538879111187274
0.984830968966228	-0.045673739900335936	0.020411195653286095
0.9259803228614704	0.	0.04469380971307972
0.8650711306225085	0.042559374404002925	0.061055443934872604
0.8041416512763622	0.08160479369364432	0.07078621129653133
0.7446969345645469	0.11702831943380633	0.07539381212667537
1.191312662914482	-0.23571207022222737	-0.2726487345242296
1.1843859829123786	-0.19217314667534452	-0.2136917152042986
1.1656167543158047	-0.14549325541819555	-0.15563280666335122
1.1348737857956237	-0.0969298118575016	-0.10111679007969616
1.093111748117938	-0.04794688364340573	-0.05257160909422531
1.0422517801346238	0.	-0.011777464199240669
0.984830968966228	0.045673739900335936	0.020411195653286095
0.9235464879574368	0.08819089174064736	0.0440996797687437
0.8608512373120111	0.12705515477884394	0.06016188176889313
0.7987080305642846	0.16210674679883869	0.06992748355794912
1.2058282460250507	-0.14315039410148747	-0.2719515904777334
1.1955810230002537	-0.09699485136488624	-0.21260861619176627
1.17306674447016	-0.048807695093775805	-0.1545598328607215
1.1384775960805362	0.	-0.10044234715006495
1.093111748117938	0.04794688364340573	-0.05257160909422531
1.0391692728199955	0.09370183259861566	-0.012538879111187274
0.9793442717012485	0.13625781092197362	0.019004939426295768
0.9163599116466535	0.1750091550905591	0.042320491617647664
0.8525983692520356	0.2097285138751442	0.05835251120188007
1.213287853197263	-0.04801197085412241	-0.27159327377496134
1.1993838457308375	0.	-0.21224081006453416
1.17306674447016	0.048807695093775805	-0.1545598328607215
1.1348737857956237	0.0969298118575016	-0.10111679007969616
1.0864126130575522	0.14295925634785925	-0.05406603940166076
1.030083553382779	0.1857651010093879	-0.014794764996124815
0.9686415368542022	0.22461453637159468	0.01622741040595857
0.9047504579687122	0.2591879539287728	0.03936939262979807
1.213287853197263	0.04801197085412241	-0.27159327377496134
1.1955810230002537	0.09699485136488624	-0.21260861619176627
1.1656167543158047	0.14549325541819555	-0.15563280666335122
1.1242642739619375	0.19204729885271948	-0.10310559462185453
1.0733755683811086	0.23540618792618487	-0.05698689146731223
1.0154566237286178	0.2746910290710076	-0.018461913783567662
0.9532279780742967	0.3094564864336733	0.01214940294891751
1.2058282460250507	0.14315039410148747	-0.2719515904777334
1.1843859829123786	0.19217314667534452	-0.2136917152042986
1.1511329032998827	0.23947568949955483	-0.15772134462371076
1.10722411195175	0.2837047392083213	-0.10630967443856708
1.0546709763178939	0.32382555230911075	-0.06120621669922383
0.995988181584958	0.35923272586690236	-0.023408660624651658
1.191312662914482	0.23571207022222737	-0.2726487345242296
1.1664065760527642	0.2838838208306043	-0.21543202287751553
1.1303849666436927	0.32922321232653845	-0.16071858194159805
1.084618727432086	0.3705500336964627	-0.11057847389862518
1.0311875090159806	0.4070766764122614	-0.06654994426297207
1.1704898373279753	0.3242289031017867	-0.27364904960393804
1.142557567134117	0.3707724973871905	-0.21774257409589548
1.1043893777779887	0.4135524755823626	-0.1644827905514789
1.0574910013443795	0.45160258816425214	-0.1157281749172911
1.1443520666351976	0.40755681401093063	-0.27490491958597224
1.113940663358489	0.4518574583140413	-0.2205177884708613
1.0742841976159472	0.49167464555327633	-0.1688540645929783
1.1140163953028295	0.484920236150038	-0.27636288352327554
1.0817211552046981	0.5265456845417014	-0.22364594563256282
1.0806130801571006	0.5559037292123379	-0.2779686779006786
1.0722150901424656	0.5798322095007119	-0.3300756394559016
1.1059237571992542	0.5126238718260964	-0.3300756394559016
1.1370740045919245	0.4392189645097046	-0.3300756394559016
1.1646168399193324	0.35988638051474126	-0.3300756394559016
1.1874797321893196	0.2752135104664655	-0.3300756394559016
1.2046601794427434	0.18613017694256503	-0.3300756394559016
1.215333416789465	0.09388970517867168	-0.3300756394559016
1.2189547123267923	0.	-0.3300756394559016
1.215333416789465	-0.09388970517867168	-0.3300756394559016
1.2046601794427434	-0.18613017694256503	-0.3300756394559016
1.1874797321893196	-0.2752135104664655	-0.3300756394559016
1.1646168399193324	-0.35988638051474126	-0.3300756394559016
1.1370740045919245	-0.4392189645097046	-0.3300756394559016
1.1059237571992542	-0.5126238718260964	-0.3300756394559016
1.0722150901424656	-0.5798322095007119	-0.3300756394559016
1.0451508996935073	-0.6203778882374021	-0.38047576961224105
1.046926549672368	-0.5945436525932093	-0.43311640592497946
1.0410657181311396	-0.5631024822679144	-0.4864434286075822
1.0267467896364384	-0.5261678377785745	-0.5385223337821275
1.0036827975846514	-0.4842674425222614	-0.587228089233527
0.972245418247835	-0.43833656432676327	-0.630533476063284
0.9334636442114175	-0.38962309549433455	-0.6668284710488513
0.8888805653409709	-0.3395222066425248	-0.6951810144399972
0.8403038823887873	-0.28938596727198235	-0.7154530554096978
0.7895327765423328	-0.2403667571069585	-0.7282366709128533
0.7381379491792797	-0.1933293427756841	-0.7346550903476471
0.6873472134627092	-0.14883979423289334	-0.7360995567897255
0.6380275257561735	-0.10720687686122672	-0.7339889276003344
0.5907337048551848	-0.06854623206732238	-0.7295974972685465
0.5457829774730051	-0.03284284014192584	-0.7239639021835087
1.0805627014841293	0.5558778127278055	-0.38217850297426537
1.0816177393028388	0.5264953451390051	-0.4364881861178689
1.0741267284852012	0.4916025756306088	-0.4912570418356831
1.0572815820741055	0.45151315545574977	-0.5443505624293069
1.0309306566004337	0.40697528008352873	-0.5934880125879334
0.9956906834562684	0.35912542432890676	-0.6365829156784848
0.9528979959364867	0.3093493608401098	-0.6720922071191283
0.9043963671859444	0.2590865159414446	-0.6992643286093042
0.852227852717901	0.20963737145114641	-0.7182033010491412
0.7983271932978493	0.1620294516071552	-0.7297399451483643
0.7443100806704898	0.11696752576192904	-0.7351747591678853
0.6913845855282953	0.07485703897147816	-0.7359913889606374
0.6403650348753712	0.03586653562624063	-0.7336205320071358
0.5917450033346365	0.	-0.729290537692943
1.1139628726687598	0.48489693828075897	-0.383784046676807
1.113830951571497	0.45181295496583973	-0.43961528633167635
1.104222979305912	0.4134901655842359	-0.4956259789666509
1.0843983501805259	0.3704747438310693	-0.5494963556636041
1.0544021260441268	0.32374300468018574	-0.5988266825703275
1.015147066668437	0.27460729083401136	-0.6415236017559978
0.9683003267429597	0.22453541447972236	-0.6761637425815821
0.915995948251216	0.1749396442733465	-0.7022094166661029
0.8604726689809421	0.12699928094627733	-0.7200075436879879
0.8037543601067083	0.08156549114545668	-0.7305949855420266
0.7474599224977554	0.03915415238716287	-0.7353981988776287
0.6927482787950107	0.	-0.7359399331582629
0.6403650348753712	-0.03586653562624063	-0.7336205320071358
1.1442956212627686	0.407536711197449	-0.3852416857451911
1.1424420885648456	0.37073502332132713	-0.4423895235383517
1.1302106297343237	0.32917243691902404	-0.4993881999913367
1.1069942967135968	0.28364585350351906	-0.5537619968144291
1.0730969425804822	0.2353450814136878	-0.6030418171014296
1.0297647598366304	0.1857076098329615	-0.6451861325291429
0.9789951100613202	0.13620923147745212	-0.678936779417026
0.923176285813597	0.08815554056167017	-0.7039848181202417
0.8646883594341298	0.042540543001889725	-0.7208985048847093
0.8055896387071819	0.	-0.7308713011525898
0.7474599224977554	-0.03915415238716287	-0.7353981988776287
0.6913845855282953	-0.07485703897147816	-0.7359913889606374
1.1704308007847808	0.32421254981700587	-0.3864973492882222
1.1662862051840563	0.28385452457762783	-0.44469915208714583
1.150952096671297	0.23943807543090775	-0.5023838189923651
1.1240273265137337	0.19200682338938627	-0.5569635646861066
1.0861269908965363	0.14292167179550358	-0.6059597409701951
1.0388446666264726	0.09367256287711646	-0.6474391073106198
0.9844776811566369	0.04565735538762899	-0.6803407321064479
0.925608131833231	0.	-0.7045776126126496
0.8646883594341298	-0.042540543001889725	-0.7208985048847093
0.8037543601067083	-0.08156549114545668	-0.7305949855420266
0.7443100806704898	-0.11696752576192904	-0.7351747591678853
1.191251520602162	0.23569997265836887	-0.3874974965199184
1.1842618116063215	0.19215299919727902	-0.4464389101830034
1.1654313591460894	0.1454701142384889	-0.5044712087020538
1.1346323109391934	0.09690918743856175	-0.5589508483498018
1.0928226025323062	0.04793420092384465	-0.6074525518817279
1.0419251895440924	0.	-0.6481995247668206
0.9844776811566369	-0.04565735538762899	-0.6803407321064479
0.923176285813597	-0.08815554056167017	-0.7039848181202417
0.8604726689809421	-0.12699928094627733	-0.7200075436879879
0.7983271932978493	-0.1620294516071552	-0.7297399451483643
1.205765599252555	0.14314295696423224	-0.3881946126172635
1.1954545075994563	0.09698458744946799	-0.44752152233197917
1.1728789209189172	0.04879988033416072	-0.5055436679321693
1.1382345739752098	0.	-0.559624773153167
1.0928226025323062	-0.04793420092384465	-0.6074525518817279
1.0388446666264726	-0.09367256287711646	-0.6474391073106198
0.9789951100613202	-0.13620923147745212	-0.678936779417026
0.915995948251216	-0.1749396442733465	-0.7022094166661029
0.852227852717901	-0.20963737145114641	-0.7182033010491412
1.2132244484002537	0.04800946181287718	-0.38855277679063355
1.1992565198528335	0.	-0.44788919268416777
1.1728789209189172	-0.04879988033416072	-0.5055436679321693
1.1346323109391934	-0.09690918743856175	-0.5589508483498018
1.0861269908965363	-0.14292167179550358	-0.6059597409701951
1.0297647598366304	-0.1857076098329615	-0.6451861325291429
0.9683003267429597	-0.22453541447972236	-0.6761637425815821
0.9043963671859444	-0.2590865159414446	-0.6992643286093042
1.2132244484002537	-0.04800946181287718	-0.38855277679063355
1.1954545075994563	-0.09698458744946799	-0.44752152233197917
1.1654313591460894	-0.1454701142384889	-0.5044712087020538
1.1240273265137337	-0.19200682338938627	-0.5569635646861066
1.0730969425804822	-0.2353450814136878	-0.6030418171014296
1.015147066668437	-0.27460729083401136	-0.6415236017559978
0.9528979959364867	-0.3093493608401098	-0.6720922071191283
1.205765599252555	-0.14314295696423224	-0.3881946126172635
1.1842618116063215	-0.19215299919727902	-0.4464389101830034
1.150952096671297	-0.23943807543090775	-0.5023838189923651
1.1069942967135968	-0.28364585350351906	-0.5537619968144291
1.0544021260441268	-0.32374300468018574	-0.5988266825703275
0.9956906834562684	-0.35912542432890676	-0.6365829156784848
1.191251520602162	-0.23569997265836887	-0.3874974965199184
1.1662862051840563	-0.28385452457762783	-0.44469915208714583
1.1302106297343237	-0.32917243691902404	-0.4993881999913367
1.0843983501805259	-0.3704747438310693	-0.5494963556636041
1.0309306566004337	-0.40697528008352873	-0.5934880125879334
1.1704308007847808	-0.32421254981700587	-0.3864973492882222
1.1424420885648456	-0.37073502332132713	-0.4423895235383517
1.104222979305912	-0.4134901655842359	-0.4956259789666509
1.0572815820741055	-0.45151315545574977	-0.5443505624293069
1.1442956212627686	-0.407536711197449	-0.3852416857451911
1.113830951571497	-0.45181295496583973	-0.43961528633167635
1.0741267284852012	-0.4916025756306088	-0.4912570418356831
1.1139628726687598	-0.48489693828075897	-0.383784046676807
1.0816177393028388	-0.5264953451390051	-0.4364881861178689
1.0805627014841293	-0.5558778127278055	-0.38217850297426537
1.0046853770662136	0.6879087321595438	-0.29887185278798584
0.9655437236746813	0.7346736636890172	-0.2659236568557397
0.9190115611533352	0.780059968086667	-0.2317410227863286
0.8649240175852116	0.8228603653524449	-0.19701060406253856
0.8035155873356646	0.8618343436326242	-0.16256022653031
0.7354763306236002	0.8958352803842343	-0.1292876716971135
0.6619424258835181	0.9239469978901207	-0.0980608818999119
0.5844103856396183	0.9455957517010951	-0.06961115413328023
0.5045880115189667	0.9606084267711359	-0.044446603166207056
0.4242149706525403	0.9692043290724811	-0.02280842511070837
0.3448949904834472	0.9719256863386846	-0.004677975078694752
0.2679725987895462	0.9695340930384789	0.010172358296621588
0.19447101991033178	0.9628973636826113	0.02210752025949511
0.12508404785724728	0.9528948955853869	0.0315561247972242
0.06020908956523837	0.9403479845518863	0.03895176785173022
0.5295083271756392	0.08876094619348301	0.0628826114473643
0.5103354110747675	0.14788685713286168	0.062121783428294386
0.4884490777470367	0.20997387275680052	0.06216831906413992
0.46370707843410836	0.27459767861217876	0.0631549708012774
0.4360570085842396	0.34117928604656855	0.06508727012808538
0.4055576547697465	0.4090017176695004	0.06779196081765422
0.3723896886297709	0.47724550883945654	0.07089025153902448
0.3368503915808418	0.5450354085576536	0.07381240402801185
0.29933348862653286	0.6114856935976255	0.07585951784786042
0.260302026474721	0.6757411837263234	0.07630281234894785
0.2202609498532396	0.7370098968585801	0.07449581290540139
0.17973125483221367	0.7945950103640161	0.06997047918712167
0.1392287228397842	0.8479268195687699	0.06249431003614666
0.09924151453138859	0.8965913344809711	0.052079713785177194
0.574572729080048	0.12803734963141547	0.0691987322076024
0.5552380733096273	0.19081463892240885	0.06903167343127264
0.5328869024505061	0.25656390587869937	0.06949229851398492
0.5073640701999554	0.3247533238653627	0.07060543165502381
0.4786206113192528	0.394682612279804	0.07224751838027531
0.44673576451747526	0.4655074408173606	0.07411045059461728
0.4119253685875904	0.5362816194642356	0.07569998808329016
0.37453370075134346	0.6060082507533125	0.07638046235331099
0.33501219263341203	0.67369210941813	0.07546268910804722
0.2938911874489216	0.7383901362896702	0.07231505273627073
0.25174995403430644	0.7992599554875838	0.06646754731103499
0.20918598967938218	0.8556061412890248	0.057680774255906876
0.16678358782806696	0.9069182813268591	0.04596568777465475
0.621924642407917	0.1704077042463681	0.07408821071736524
0.6023346371368663	0.23692293590019	0.07424272367973744
0.5793869361566869	0.3063507191115098	0.07472815577348696
0.5529154459125115	0.3780317573800015	0.07544278219304042
0.522877428144291	0.45112443455639234	0.07612992338857603
0.4893772312407793	0.5246373622982162	0.07636586909281848
0.45267323137556637	0.5974796592777749	0.07558868232472252
0.4131693725586573	0.6685221224736311	0.07317112465566347
0.371392281366339	0.7366647091399593	0.0685236167340844
0.3279600705421879	0.8009043904909141	0.06119930078863978
0.2835446927148335	0.8603998708910083	0.050970576674616845
0.23883035494142843	0.9145241629128189	0.037857788513443076
0.6711927883732959	0.21581703306602107	0.07635199984306804
0.6511936542122159	0.28606382085285514	0.07637988580769052
0.6274500973495503	0.3590653350052228	0.07631803374074597
0.5997873286973617	0.4340102558623075	0.07593735267573652
0.5681758735582088	0.5098926495743439	0.07486985676832418
0.5327554063476422	0.5855547712656941	0.07262619503729517
0.49384391722060295	0.6597524235322492	0.06865345362472991
0.45192774083836895	0.7312343300498187	0.06242546666688761
0.40763463145668494	0.7988312759563496	0.05354190464292713
0.3616933344228666	0.8615412124253689	0.04180664920427752
0.31488209130813516	0.91860170289284	0.027261901323915885
0.7217400209764785	0.26403840279412333	0.07454318113277857
0.7010878046954391	0.33786715606556905	0.07382466917101398
0.6762533576347897	0.4141577515913376	0.07249135320103141
0.6470617011591897	0.4919215859985959	0.07021253415929811
0.6135100923161072	0.5699684096786969	0.06656157271542176
0.5757963107686525	0.6469686359838203	0.06106163673250308
0.5343272266253739	0.7215409845754267	0.05326173291221271
0.489703449129566	0.7923568076958138	0.04282535762203794
0.44268184190302023	0.8582488628123411	0.02960416862567315
0.394117510197518	0.9183043173884566	0.01367377066227667
0.7725843246635634	0.31459853711258506	0.06709542259422029
0.7509183019110763	0.3916564225855903	0.06489161665167219
0.7245859888973604	0.4707106444914817	0.061497906802461276
0.6934304206746483	0.5505759728328556	0.056537438798126734
0.6575048373663187	0.6298766784472482	0.04960319651483324
0.6171008596406765	0.7071346659418238	0.040321595850716645
0.5727525328655292	0.7808851390756256	0.02842780128288537
0.5252073669731803	0.8498034095437691	0.013831115062526374
0.47536824460347976	0.9128205361894046	-0.0033520864634968006
0.8223618358593694	0.36671086524149227	0.05254516901524623
0.7991972203915881	0.44638929300754204	0.048105562127246024
0.7708603230922528	0.5273999653083701	0.04193851259897711
0.7372478038832319	0.6083644444805669	0.03369780306206337
0.6985112274248297	0.6877520928537477	0.02308197461405005
0.655080890631861	0.763998546174166	0.00989730387496396
0.6076537285844079	0.8356453280528844	-0.005887820055930803
0.5571414937233298	0.9014738604206409	-0.024114989203489024
0.8693737167062733	0.41925154249882424	0.029820297273275904
0.8441340778422898	0.5006657332404626	0.022530601126016507
0.8132463739641809	0.5825564948369453	0.013115902140087664
0.7767100787939689	0.6633896065650857	0.0013388650710714374
0.7348247175114111	0.7415487955283837	-0.012929967933606946
0.6881971909446869	0.8154788410467332	-0.029668109143840944
0.6377036569713698	0.883833413685182	-0.0486805146639226
0.9117489903268627	0.4708120035403973	-0.0014769263241558733
0.8838476136640273	0.5528397583406122	-0.011947681521572783
0.8499263306483306	0.6343482325332076	-0.024715477761729623
0.8101400099307232	0.7137215356809626	-0.03985444575360255
0.7649748983687918	0.789355744050816	-0.057297330138882094
0.7152286809485722	0.8598112466787211	-0.07682125371786278
0.9477077341449177	0.5198453269442086	-0.040892565869446874
0.9166629353282787	0.601229419530054	-0.05449865657294402
0.8794060003062372	0.6810508131331768	-0.07031101672913014
0.8362853320139961	0.7577088874994191	-0.08822766881873319
0.7879856313492268	0.8297153985398833	-0.10800806872521593
0.9758544428217067	0.5648753489095227	-0.08712772927051683
0.9414012677194514	0.6443702073592432	-0.10344539706625705
0.9007749831667786	0.7213206973078576	-0.12164042866695156
0.8545261077480358	0.7942387787525096	-0.14146377054854337
0.9954059210556526	0.6047120109417461	-0.13824274953032187
0.9575631025318585	0.6812298237898414	-0.1565604804602643
0.9138263638977018	0.7543797042231215	-0.17626300837934544
1.0062801148667857	0.638601848144807	-0.19198926644088382
0.965350473751406	0.7113180265105387	-0.21145303096989612
1.009033036578474	0.6662774318775531	-0.2461617771856525
1.0451508996935073	0.6203778882374021	-0.38047576961224105
1.046926549672368	0.5945436525932093	-0.43311640592497946
1.0410657181311396	0.5631024822679144	-0.4864434286075822
1.0267467896364384	0.5261678377785745	-0.5385223337821275
1.0036827975846514	0.4842674425222614	-0.587228089233527
0.972245418247835	0.43833656432676327	-0.630533476063284
0.9334636442114175	0.38962309549433455	-0.6668284710488513
0.8888805653409709	0.3395222066425248	-0.6951810144399972
0.8403038823887873	0.28938596727198235	-0.7154530554096978
0.7895327765423328	0.2403667571069585	-0.7282366709128533
0.7381379491792797	0.1933293427756841	-0.7346550903476471
0.6873472134627092	0.14883979423289334	-0.7360995567897255
0.6380275257561735	0.10720687686122672	-0.7339889276003344
0.5907337048551848	0.06854623206732238	-0.7295974972685465
0.5457829774730051	0.03284284014192584	-0.7239639021835087
0.4865295833456281	0.05248139897862579	-0.7157555671290754
0.4674712240897281	0.10805485265153067	-0.7142782759316566
0.445976355217536	0.16652422912219209	-0.7136925766223763
0.42191941374188435	0.2275599696357579	-0.71421231607718
0.395246764519017	0.2906921864048484	-0.7159518541539714
0.3659981345715144	0.35531842082273296	-0.718867893660013
0.3343194712061341	0.42073139729969716	-0.722715958688108
0.30046360272970135	0.48616032002465615	-0.7270388009921874
0.26477411422144886	0.5508173160118889	-0.7311995824241155
0.22765965984085337	0.6139349829602875	-0.7344579271213214
0.18956552994062756	0.674791554025206	-0.7360737591964274
0.15095092656408962	0.7327312454402058	-0.7354134926991247
0.1122704770507602	0.7871823049043307	-0.7320328736478449
0.07395922316681071	0.837679674870826	-0.7257201406072457
0.03641815164389566	0.8838863736970098	-0.7164958569888975
1.0089570850718976	0.6662272801254157	-0.41397872641615996
0.9652472901553795	0.7112419957280514	-0.4486766805300454
0.9136988069567138	0.7542744037292687	-0.4838518070834003
0.854378520607863	0.7941016039735208	-0.5186318959286393
0.7878234729441416	0.8295446526273321	-0.5520648152632368
0.7150583787694179	0.8596065181312353	-0.5832261748371641
0.6375321705461858	0.8835957399147494	-0.6113395635486236
0.556975561187677	0.9012053759419769	-0.6358774405509968
0.4752140302682288	0.9125244078430332	-0.656613441458732
0.3939801548419886	0.9179842757441871	-0.6736142190838829
0.31476565225352987	0.9182620166521926	-0.6871796755295108
0.23873758102952428	0.9141689150041302	-0.6977556802896657
0.16671609410280638	0.9065512710345948	-0.7058467086826751
0.09919999828991098	0.8962162585611324	-0.7119466289235334
1.006154591957523	0.6385221892499772	-0.4681328036159195
0.9574116437956178	0.681122072971198	-0.5035440471041053
0.9006019462920717	0.7211821332031078	-0.5384424045371577
0.836096312293319	0.757537627862562	-0.5718296605144454
0.7647765417817188	0.7891510655552075	-0.6027317597262403
0.6879968655388402	0.8152414655794374	-0.6303309623839162
0.6074586008423594	0.8353769884075468	-0.6540812800704756
0.5250242501770558	0.8495071203302569	-0.6737712668223713
0.44251642337633607	0.8579281578523084	-0.6895176541033801
0.36155004398116614	0.8611998994701038	-0.7016966517862256
0.28342679974623586	0.8600421315378601	-0.7108401398214763
0.20909544248492815	0.8552357879218127	-0.7175334449018643
0.13916647204011637	0.8475477015139509	-0.7223330906413625
0.9952308728715814	0.6046056686574958	-0.5218508938614954
0.9412031365900321	0.6442345905916372	-0.5566240966583019
0.879190527627939	0.6808839415827078	-0.5897304234072949
0.8099138834163597	0.7135223215190754	-0.620156340563108
0.7345955488774065	0.7413175298666971	-0.6470485278240455
0.6548562626744109	0.7637365702329102	-0.6698436245029993
0.5725396354761741	0.7805948768804266	-0.6883434516413217
0.4895084556720762	0.7920413016609416	-0.7027132116357047
0.40746257404605235	0.7984940994010059	-0.7134053280714622
0.327814809926496	0.8005496525965091	-0.721041938963998
0.2516337788667598	0.7988911206268255	-0.7262933632060293
0.17964551593539196	0.7942159572067217	-0.7297827600115566
0.9756327552742137	0.5647470246172471	-0.5729286644641711
0.9164223851420975	0.6010716452345833	-0.6055275711658767
0.8496738241141343	0.6341597725833338	-0.6352776756812228
0.7764531463443587	0.6631701600543293	-0.6612977944857863
0.6982576061029393	0.6875023780487824	-0.683007111781358
0.616858195298935	0.706856597348088	-0.7002146354562352
0.5341021339485532	0.721237025533924	-0.713125810030309
0.45172578250557854	0.7309075546544822	-0.7222644550556699
0.3712177063553244	0.7363184357892073	-0.7283417629739136
0.29374690541271725	0.7380276333058213	-0.732116512533973
0.22014898166144536	0.7366352427696884	-0.7342841308394266
0.947444352750638	0.5197008545693536	-0.6191193400089218
0.8835707823654912	0.5526666025320567	-0.648029586865088
0.8129636928075056	0.5823540005510052	-0.6730571846576997
0.7369670822170609	0.6081327976996688	-0.6936036488563356
0.657233546804218	0.6296167874343782	-0.7094759475307909
0.5755415250027903	0.6466823569710426	-0.7209046795052392
0.49361149250934255	0.659441914966292	-0.7284710907710752
0.41296413424239187	0.6681900398849507	-0.7329678943146157
0.334837756906516	0.673341328236446	-0.7352429639987448
0.26016116232894604	0.6753755019608001	-0.73607042348495
0.9114509039080144	0.4706580766750263	-0.6584859741239277
0.843828331924574	0.5004843917828713	-0.6824566659868523
0.7705547334565225	0.5271908898657058	-0.7018282399302869
0.693132467859903	0.5503394016413623	-0.7163931762977565
0.6132266665334235	0.5697050990263678	-0.7263870718567285
0.5324928333936433	0.5852661757034765	-0.7324259964706649
0.45243669838327927	0.5971674613348786	-0.7353676454648037
0.3743276080600469	0.6056747857778106	-0.7361431983261052
0.29916126668986814	0.6111338744581188	-0.7356101214697054
0.8690484509468	0.4190946845575722	-0.6897334245592175
0.7988702328993584	0.4462066550906994	-0.7079817236539483
0.7242643724640699	0.4705017137628824	-0.7213396639478213
0.6467521089518317	0.49168622190675815	-0.7300238042991096
0.5678846701105424	0.5096313176445563	-0.734655358531724
0.48910987634631015	0.5243507442095974	-0.736130673930733
0.4116867779442088	0.5359710006328187	-0.7354489535071659
0.3366447211495626	0.5447026267935761	-0.7335497888225391
0.822016872262238	0.3665570377002997	-0.7124109738989052
0.7505762247575151	0.3914780054210717	-0.724722856515138
0.6759206748841529	0.4139540067397352	-0.7322918752791965
0.5994699490157989	0.43378059773148353	-0.7357120681333429
0.522580751616926	0.45086847011147707	-0.7358841187438998
0.4464649102391944	0.46522520533963224	-0.73384919430936
0.37214956111497766	0.47693776729482484	-0.7306179760853123
0.7722258732046532	0.31445257465774473	-0.7269189701317111
0.7007357610237706	0.33769749972101293	-0.7336175106911981
0.6271098525884184	0.35887062613569576	-0.7360851305004942