# TIME = 0.000000
VARIABLES = X, Y, Z
ZONE N=2562 E=5120 F=FEPOINT ET=TRIANGLE
1.008826987899642	0.6234894206857541	-0.49774776962847717
-1.008826987899642	0.6234894206857541	-0.49774776962847717
1.008826987899642	-0.6234894206857541	-0.49774776962847717
-1.008826987899642	-0.6234894206857541	-0.49774776962847717
0.5106486873940939	0.	0.008291132172040725
0.5103482397689677	0.	-1.003506933781134
-0.5106486873940939	6.253642805059744e-17	0.008291132172040725
-0.5103482397689677	6.249963382835522e-17	-1.003506933781134
5.664884090714221e-17	0.9251457799356244	-0.08603378259719774
5.664884090714221e-17	-0.9251457799356244	-0.08603378259719774
5.663256701573907e-17	0.9248800071199119	-0.9093050440467737
5.663256701573907e-17	-0.9248800071199119	-0.9093050440467737
1.0172569858169402	0.6038206931084544	-0.44699323370575966
1.020218220901742	0.5793761440923334	-0.39366263157472636
1.0166472103880824	0.5498947451539911	-0.33892086595751
1.0057023750950884	0.5153833929589721	-0.2842677883836278
0.9869220488595973	0.4761805400273967	-0.23142236171811817
0.9603481083123449	0.4329726655991644	-0.18212845374902548
0.9265729847399263	0.3867469684057988	-0.1379174366748581
0.88668199836951	0.33868242868054915	-0.09988822110525103
0.8421016493217032	0.29000508677590814	-0.0685695382384587
0.7943967137808428	0.24184754277606332	-0.04390331709335431
0.745075227887666	0.19514631958176124	-0.025342598364789016
0.6954464038693399	0.15059361211411082	-0.012019818372436833
0.64654940143288	0.10863879576663223	-0.0029288892751302247
0.5991441316375266	0.0695221422977179	0.002924082614874413
0.5537410980683757	0.03332172514444839	0.0064222676552803705
1.0517513309434527	-0.5410562742684041	-0.4452751630127089
1.054136217047702	-0.5131182591141499	-0.39022738754591224
1.0491817481011225	-0.4801858439911661	-0.3339278246429894
1.0360314596985611	-0.442438269474306	-0.27804903460975755
1.0143065970364904	-0.400412684186467	-0.22445955029447076
0.9842298871568622	-0.35499174767353786	-0.17498948649700113
0.9466449974829293	-0.3073193837773066	-0.13116295868242173
0.9029099199519096	-0.2586606866823166	-0.09397545382152464
0.8546928146988463	-0.2102437212069827	-0.06378454851341339
0.8037314509126894	-0.16312630626152202	-0.04033955625572002
0.7516266693458299	-0.11811731977466278	-0.022925784876861248
0.6997102666138562	-0.07575847045625696	-0.010561990235998086
0.6489955797847389	-0.03634992826888538	-0.0021893113052560208
0.6001897104484093	0.	0.003188105319375882
1.0842886411490547	-0.4719800409920125	-0.44365475638678337
1.085641205048471	-0.4403781024342805	-0.38703871052054567
1.0788190396786324	-0.4039773412726294	-0.3293870046712971
1.0629967224652803	-0.3631630741443222	-0.2725374245785801
1.037934137440755	-0.3186866832068055	-0.2184834470939876
1.0040871528733917	-0.271615475102245	-0.16910036835386888
0.9625845031579521	-0.22320999427453703	-0.12585817945367384
0.9150624252319113	-0.1747613572566518	-0.08961161109504615
0.8634084301181727	-0.1274325771646219	-0.06053125112375501
0.8094940761382957	-0.08214796108949496	-0.0381844380991302
0.7549689983611727	-0.039547499898907074	-0.02171933753288566
0.7011496028179939	0.	-0.010079678290357543
0.6489955797847389	0.03634992826888538	-0.0021893113052560208
1.1138399147622042	-0.39669002242769047	-0.4421832590699921
1.1136314300207677	-0.3613856477388332	-0.38420764332827173
1.1044264461934383	-0.3216628256069133	-0.3254697537918965
1.0854895345287119	-0.2781356745961565	-0.267953176353526
1.0567791866653904	-0.23176637063561853	-0.2137387049475272
1.0190293940841693	-0.18377159571368976	-0.1646979705736032
0.9736688480654989	-0.1354681797136155	-0.1222011740745157
0.9225937339471144	-0.08809991177713124	-0.08693557566674719
0.8678676811440905	-0.042696957819371405	-0.05888584245227942
0.811442879392048	0.	-0.03746351640622408
0.7549689983611727	0.039547499898907074	-0.02171933753288566
0.6997102666138562	0.07575847045625696	-0.010561990235998086
1.1393034610799695	-0.3155901911368086	-0.4409155227189398
1.1369640437024684	-0.2767180016813195	-0.38184898799375067
1.1248753561506466	-0.2340132062449238	-0.32234582225658137
1.1024588417690189	-0.18832248570161872	-0.2645027407218401
1.0699278262296357	-0.14079005024913818	-0.2104399756028638
1.0283210783486654	-0.09272365153713051	-0.1619733033388904
0.9793563896879064	-0.045419844036069704	-0.12033510100711915
0.9251457799356244	0.	-0.08603378259719774
0.8678676811440905	0.042696957819371405	-0.05888584245227942
0.8094940761382957	0.08214796108949496	-0.0381844380991302
0.7516266693458299	0.11811731977466278	-0.022925784876861248
1.1595902646173106	-0.2294355045415207	-0.4399056143513933
1.154557749769507	-0.1873333516207491	-0.38007145983653506
1.139156255557181	-0.14219043389463135	-0.3201663894939101
1.1130304080924163	-0.09506416431360323	-0.26235676869916436
1.0766887385410369	-0.04722652533547062	-0.2087475651079638
1.0314752269064131	0.	-0.16105071943298363
0.9793563896879064	0.045419844036069704	-0.12033510100711915
0.9225937339471144	0.08809991177713124	-0.08693557566674719
0.8634084301181727	0.1274325771646219	-0.06053125112375501
0.8037314509126894	0.16312630626152202	-0.04033955625572002
1.1737327744271773	-0.1393401670453092	-0.4392017089063918
1.1655142270267371	-0.09455559852432908	-0.3789647585498912
1.1465037316796525	-0.047702489925218465	-0.3190458672394304
1.1166224137761556	0.	-0.26162827473855493
1.0766887385410369	0.04722652533547062	-0.2087475651079638
1.0283210783486654	0.09272365153713051	-0.1619733033388904
0.9736688480654989	0.1354681797136155	-0.1222011740745157
0.9150624252319113	0.1747613572566518	-0.08961161109504615
0.8546928146988463	0.2102437212069827	-0.06378454851341339
1.1810008500794769	-0.04673431638113555	-0.43883989252818517
1.169236293731441	0.	-0.3785888600144801
1.1465037316796525	0.047702489925218465	-0.3190458672394304
1.1130304080924163	0.09506416431360323	-0.26235676869916436
1.0699278262296357	0.14079005024913818	-0.2104399756028638
1.0190293940841693	0.18377159571368976	-0.1646979705736032
0.9625845031579521	0.22320999427453703	-0.12585817945367384
0.9029099199519096	0.2586606866823166	-0.09397545382152464
1.1810008500794769	0.04673431638113555	-0.43883989252818517
1.1655142270267371	0.09455559852432908	-0.3789647585498912
1.139156255557181	0.14219043389463135	-0.3201663894939101
1.1024588417690189	0.18832248570161872	-0.2645027407218401
1.0567791866653904	0.23176637063561853	-0.2137387049475272
1.0040871528733917	0.271615475102245	-0.16910036835386888
0.9466449974829293	0.3073193837773066	-0.13116295868242173
1.1737327744271773	0.1393401670453092	-0.4392017089063918
1.154557749769507	0.1873333516207491	-0.38007145983653506
1.1248753561506466	0.2340132062449238	-0.32234582225658137
1.0854895345287119	0.2781356745961565	-0.267953176353526
1.037934137440755	0.3186866832068055	-0.2184834470939876
0.9842298871568622	0.35499174767353786	-0.17498948649700113
1.1595902646173106	0.2294355045415207	-0.4399056143513933
1.1369640437024684	0.2767180016813195	-0.38184898799375067
1.1044264461934383	0.3216628256069133	-0.3254697537918965
1.0629967224652803	0.3631630741443222	-0.2725374245785801
1.0143065970364904	0.400412684186467	-0.22445955029447076
1.1393034610799695	0.3155901911368086	-0.4409155227189398
1.1136314300207677	0.3613856477388332	-0.38420764332827173
1.0788190396786324	0.4039773412726294	-0.3293870046712971
1.0360314596985611	0.442438269474306	-0.27804903460975755
1.1138399147622042	0.39669002242769047	-0.4421832590699921
1.085641205048471	0.4403781024342805	-0.38703871052054567
1.0491817481011225	0.4801858439911661	-0.3339278246429894
1.0842886411490547	0.4719800409920125	-0.44365475638678337
1.054136217047702	0.5131182591141499	-0.39022738754591224
1.0517513309434527	0.5410562742684041	-0.4452751630127089
1.0431811420833432	0.5641312382978042	-0.49774776962847717
1.07597702988766	0.4987427998235678	-0.49774776962847717
1.1062837761273037	0.4273255853552833	-0.49774776962847717
1.1330807935142173	0.35014120664513804	-0.49774776962847717
1.155324593558446	0.26776114867682643	-0.49774776962847717
1.172039820523726	0.18109005585187257	-0.49774776962847717
1.182424042894258	0.09134731527154803	-0.49774776962847717
1.185947279275821	0.	-0.49774776962847717
1.182424042894258	-0.09134731527154803	-0.49774776962847717
1.172039820523726	-0.18109005585187257	-0.49774776962847717
1.155324593558446	-0.26776114867682643	-0.49774776962847717
1.1330807935142173	-0.35014120664513804	-0.49774776962847717
1.1062837761273037	-0.4273255853552833	-0.49774776962847717
1.07597702988766	-0.4987427998235678	-0.49774776962847717
1.0431811420833432	-0.5641312382978042	-0.49774776962847717
1.0172261092851684	-0.6038023654989367	-0.5485000968236728
1.0201543420906465	-0.5793398676776375	-0.6018238283498007
1.0165493083146264	-0.5498417908595387	-0.6565536547708941
1.0055705536817217	-0.5153158396062426	-0.7111892986430354
0.986757665939804	-0.4761012268257016	-0.764012356213256
0.9601539599075607	-0.4328851338472782	-0.8132801530390453
0.9263528192663844	-0.38665507242907343	-0.8574625964268578
0.8864401616228411	-0.33859005525145436	-0.8954625708209237
0.8418425665207282	-0.28991586318842383	-0.9267530282611176
0.7941244592875852	-0.24176465713585127	-0.9513934376089225
0.7447932570558886	-0.19507246721358257	-0.9699317031805602
0.6951573484459275	-0.15053101936782493	-0.9832358953760729
0.6462554023400642	-0.10858939550838559	-0.9923120346436898
0.5988467158778044	-0.06948763143517722	-0.9981537604192867
0.5534416114962354	-0.03330370334820439	-1.0016437476073023
1.0517183158721692	0.5410392902048353	-0.5502181139821406
1.054068001819288	0.5130850542221418	-0.6052585648222463
1.0490773931153667	0.4801380831651696	-0.6615452932350204
1.03589144098414	0.4423784743424859	-0.7174058543621785
1.0141327392177866	0.4003440512148809	-0.7709718299974084
0.9840255428679046	0.3549180448351962	-0.8204147807182365
0.9464145333487571	0.3072445657664526	-0.8642121981097652
0.9026582048420654	0.2585885767168351	-0.9013702938143878
0.8544246706060838	0.2101777611206072	-0.9315332517389435
0.8034511769591208	0.16306942152130807	-0.9549531217383943
0.7513378731325583	0.11807193576147654	-0.9723453558371453
0.6994158484676662	0.0757265934501672	-0.9846914886640743
0.6486976017335147	0.036333238662476515	-0.993050311227252
0.5998902386602124	0.	-0.9984172192412784
1.0842535505840696	0.47196476641873786	-0.5518383783399943
1.0855688664638248	0.4403487591038218	-0.6084466769052838
1.0787086771804453	0.40393601464883616	-0.6660847309004154
1.0628492314130444	0.36311268517998513	-0.7229152138467139
1.0377518729948216	0.3186307208392084	-0.7769449898126299
1.0038741022661408	0.2715578428123151	-0.8263003188310256
0.9623456376828707	0.22315460468416823	-0.8695130780875051
0.9148031115831549	0.17471183276087723	-0.9057303406261991
0.8631338195738009	0.12739204671788873	-0.9347832770378941
0.8092086192015002	0.08211899274243988	-0.9571057565892447
0.754676527745644	0.0395321794265921	-0.9735502198298549
0.7008532027248093	0.	-0.985173076131942
0.6486976017335147	-0.036333238662476515	-0.993050311227252
1.1138028940686906	0.39667683764274464	-0.5533096504440564
1.1135553283704074	0.36136095191625844	-0.6112772301168621
1.1043107567289432	0.3216291311946048	-0.6700008674939895
1.0853355474842636	0.2780962183977093	-0.7274976590083663
1.0565900550305851	0.23172489143814348	-0.7816873213340334
1.0188096511607947	0.18373196731051533	-0.8307000091740648
0.9734240230739682	0.13543411680196238	-0.8731673475815943
0.9223295132394795	0.08807468093046948	-0.9084040952278274
0.8675897018772686	0.042683281922356195	-0.9364270153636409
0.8111557945112378	0.	-0.9578257920171898
0.754676527745644	-0.0395321794265921	-0.9735502198298549
0.6994158484676662	-0.0757265934501672	-0.9846914886640743
1.1392647251383186	0.3155794611744701	-0.554577268755511
1.1368847506838455	0.2766987030889127	-0.6136353546278357
1.1247553349547492	0.23398823766087962	-0.6731239059895546
1.102299947465847	0.18829534330953712	-0.7309465751624225
1.069733754296268	0.14076451264129122	-0.7849844047372275
1.0280971117416358	0.0927034564812638	-0.8334229568824931
0.9791084692857202	0.045408346172657335	-0.875032006573057
0.9248800071199119	0.	-0.9093050440467737
0.8675897018772686	-0.042683281922356195	-0.9364270153636409
0.8092086192015002	-0.08211899274243988	-0.9571057565892447
0.7513378731325583	-0.11807193576147654	-0.9723453558371453
1.1595501337346488	0.22942756428055766	-0.5555870810342558
1.1544759567831233	0.18732008025837563	-0.6154126304592054
1.1390331641003164	0.14217506951632508	-0.6753027087519541
1.1128683925695577	0.09505032653327451	-0.7330916545526592
1.0764921936099525	0.04721790433495751	-0.7866758446009595
1.0312498156132823	0.	-0.8343449474622178
0.9791084692857202	-0.045408346172657335	-0.875032006573057
0.9223295132394795	-0.08807468093046948	-0.9084040952278274
0.8631338195738009	-0.12739204671788873	-0.9347832770378941
0.8034511769591208	-0.16306942152130807	-0.9549531217383943
1.1736916437602292	0.13933528420133642	-0.5562910101966727
1.1654308947911984	0.09454883796386142	-0.6165190242387132
1.1463790065951809	0.04769730049851097	-0.6764229898427366
1.1164593324520524	0.	-0.7338198468419751
1.0764921936099525	-0.04721790433495751	-0.7866758446009595
1.0280971117416358	-0.0927034564812638	-0.8334229568824931
0.9734240230739682	-0.13543411680196238	-0.8731673475815943
0.9148031115831549	-0.17471183276087723	-0.9057303406261991
0.8544246706060838	-0.2101777611206072	-0.9315332517389435
1.1809592197428358	0.046732668994240355	-0.5566526995069427
1.169152426127939	0.	-0.6168948479513734
1.1463790065951809	-0.04769730049851097	-0.6764229898427366
1.1128683925695577	-0.09505032653327451	-0.7330916545526592
1.069733754296268	-0.14076451264129122	-0.7849844047372275
1.0188096511607947	-0.18373196731051533	-0.8307000091740648
0.9623456376828707	-0.22315460468416823	-0.8695130780875051
0.9026582048420654	-0.2585885767168351	-0.9013702938143878
1.1809592197428358	-0.046732668994240355	-0.5566526995069427
1.1654308947911984	-0.09454883796386142	-0.6165190242387132
1.1390331641003164	-0.14217506951632508	-0.6753027087519541
1.102299947465847	-0.18829534330953712	-0.7309465751624225
1.0565900550305851	-0.23172489143814348	-0.7816873213340334
1.0038741022661408	-0.2715578428123151	-0.8263003188310256
0.9464145333487571	-0.3072445657664526	-0.8642121981097652
1.1736916437602292	-0.13933528420133642	-0.5562910101966727
1.1544759567831233	-0.18732008025837563	-0.6154126304592054
1.1247553349547492	-0.23398823766087962	-0.6731239059895546
1.0853355474842636	-0.2780962183977093	-0.7274976590083663
1.0377518729948216	-0.3186307208392084	-0.7769449898126299
0.9840255428679046	-0.3549180448351962	-0.8204147807182365
1.1595501337346488	-0.22942756428055766	-0.5555870810342558
1.1368847506838455	-0.2766987030889127	-0.6136353546278357
1.1043107567289432	-0.3216291311946048	-0.6700008674939895
1.0628492314130444	-0.36311268517998513	-0.7229152138467139
1.0141327392177866	-0.4003440512148809	-0.7709718299974084
1.1392647251383186	-0.3155794611744701	-0.554577268755511
1.1135553283704074	-0.36136095191625844	-0.6112772301168621
1.0787086771804453	-0.40393601464883616	-0.6660847309004154
1.03589144098414	-0.4423784743424859	-0.7174058543621785
1.1138028940686906	-0.39667683764274464	-0.5533096504440564
1.0855688664638248	-0.4403487591038218	-0.6084466769052838
1.0490773931153667	-0.4801380831651696	-0.6615452932350204
1.0842535505840696	-0.47196476641873786	-0.5518383783399943
1.054068001819288	-0.5130850542221418	-0.6052585648222463
1.0517183158721692	-0.5410392902048353	-0.5502181139821406
0.9776112031716866	0.6693710276570292	-0.46634477151061354
0.9399425763417403	0.7151939775344092	-0.4331125989524381
0.8953598163697698	0.7599842910648154	-0.39846773731566837
0.8436601578810555	0.8026306260814561	-0.36298721750528806
0.7849885755459842	0.8419626506662462	-0.32738710541277655
0.7198977880831636	0.8768600837074673	-0.2924710347863674
0.6493544933507374	0.9063766140946078	-0.25905285235101505
0.5746798596770254	0.9298514318906683	-0.2278671332507448
0.49742967138388977	0.9469807509277306	-0.1994880813921422
0.41923773747540105	0.9578328399082341	-0.17427779930765813
0.341658355106459	0.9628047389575762	-0.1523727675647289
0.2660392933054425	0.9625393272021077	-0.13370902565057083
0.19344617444100762	0.9578229777867111	-0.11807041699044457
0.12463729867785528	0.9494915438395637	-0.10514682252515452
0.0600814455709699	0.9383544355110817	-0.09458598966879006
0.5368507367196899	0.08999174689107772	0.0069670563179431355
0.5174098733211748	0.14993692061037525	0.007234720804512501
0.4952203385385253	0.21288469379549116	0.007219031849985707
0.47013713148458625	0.2784054221708428	0.006865249948865194
0.4420946231264046	0.3459032303436875	0.006041296933431312
0.411129650073531	0.4146210312819833	0.004515768494964059
0.37739964787520064	0.48366614996447754	0.001954324822624171
0.3411891167857417	0.5520556137400616	-0.002056116366674169
0.3029010242845424	0.61877354176417	-0.007953854866765466
0.26303547550463835	0.6828371871963975	-0.01613008862846754
0.22215866835077203	0.7433598073400565	-0.026856596024485042
0.18086487740579782	0.799606775521094	-0.04023411524671689
0.1397394094398515	0.8510369886183684	-0.0561749460655292
0.09932261855422939	0.8973240637668347	-0.07442073116695012
0.5824078284553651	0.1297833172127877	0.003489810896746055
0.5628174360543652	0.1934193835084175	0.0036220417590753728
0.5401394054635973	0.2600556983995496	0.00324985845336215
0.5142083161541423	0.3291341851709303	0.0022411587176531206
0.48495816666418756	0.3999087200567177	0.000380644581189325
0.45244940431438097	0.47146116570545554	-0.0026386962856054796
0.41688723096451197	0.5427414196949863	-0.007200048589875303
0.3786249852056777	0.6126280879816621	-0.013718147537160504
0.33815049967230754	0.6800030817813023	-0.02257152413070507
0.2960568911263364	0.7438313822399498	-0.034028888262845974
0.25300192586150794	0.8032347365385643	-0.048191422576829325
0.2096610546819792	0.8575492376424494	-0.06496812466226887
0.1666804221836445	0.9063572980181894	-0.0840887088762732
0.629883307901125	0.1725883830988919	-0.00259343646171253
0.6100122689482683	0.23994286362369688	-0.0029144164627897574
0.5866682359962231	0.31020070485110063	-0.004038620749287563
0.5596700220895164	0.38264990346621935	-0.006179607802864352
0.5289600121485909	0.4563723227265131	-0.009626953917985744
0.4946358626919991	0.5302748835348939	-0.01473625280279611
0.4569678154671878	0.6031480453495657	-0.021892666145701328
0.41639834542963855	0.6737467105977465	-0.03145045075515184
0.3735198235862375	0.7408847356435757	-0.04366208227093666
0.3290343070791537	0.8035277609440894	-0.05861833152742088
0.28369962045393493	0.8608699901002375	-0.0762182297369655
0.23827089270822535	0.9123818819174786	-0.09617754110968922
0.6786929191451315	0.2182286441542566	-0.01228022026371753
0.6583330187385705	0.28920008282601745	-0.013490101323809553
0.6340673294592767	0.3628521200807578	-0.015872875082015105
0.6057078661723007	0.4382943976929149	-0.019711744762055533
0.5732219650526377	0.514421115286863	-0.025341451574485148
0.5367651534435701	0.5899619091672796	-0.03311754656479551
0.49669769235474404	0.663564933913185	-0.04336372130611163
0.45357580995425184	0.7339009614754374	-0.05630650983248435
0.4081165523795103	0.7997756841983945	-0.07201690934119864
0.36114166271091097	0.8602271491835416	-0.09037793142664331
0.3135082421607937	0.9145937894512631	-0.11108981236329171
0.7279816988800569	0.26632183258396175	-0.02667191561750024
0.7068288649843839	0.3406338790061704	-0.029301466602220848
0.6812966002850064	0.4172463839998311	-0.03351579506259959
0.6512086586604718	0.4950742651131918	-0.03963588599252457
0.6165814531689854	0.5728217916895055	-0.047991417259839346
0.5776587691041116	0.649061306788293	-0.058874341911918815
0.5349211694345608	0.7223430288246573	-0.07248066170668335
0.4890630248332031	0.7913205794398378	-0.08885587840538445
0.44093960035774166	0.8548710942132232	-0.10786370539401412
0.39149088237604385	0.9121842044621785	-0.12918861630840622
0.7765992293368607	0.31623341772890584	-0.046843892571577145
0.754248377799065	0.3933932901062098	-0.05145935521038186
0.7270240756987119	0.472294491580958	-0.05806063989997338
0.6947904306609806	0.5516558055009388	-0.06695533103080639
0.6576489517922763	0.6300147372276248	-0.07840581691877505
0.6159670889498053	0.7058354803286151	-0.09257707930823797
0.5703747130179618	0.7776432430108896	-0.10948845686832336
0.5217202600509658	0.8441611517646759	-0.12898425259992213
0.4709946256755062	0.9044221435322531	-0.15073608925614043
0.8231286228956796	0.3670527939707693	-0.07365988098954199
0.7990923322441567	0.4463307080365459	-0.08076838913007237
0.7697061459301153	0.5266103112335188	-0.09018154721250138
0.7349155708936332	0.6064399251810274	-0.1021340840308837
0.6949475284449661	0.684243285356497	-0.11676244097452577
0.6503269039435626	0.7584541333080115	-0.1340619782544046
0.6018502228630908	0.8276643477441737	-0.15386164808220215
0.5505165204405053	0.8907544286286565	-0.1758259718976306
0.8659868961695643	0.417618263614386	-0.10756418506876662
0.8397470018914315	0.49806370750145623	-0.1175031724901694
0.8077542889202899	0.5786223244367507	-0.12991232217241483
0.7700808575698287	0.657727575673786	-0.14490162911570542
0.7271162208675557	0.7337697616100034	-0.16244659057336555
0.6795614963208629	0.8052459799770698	-0.18236614905758283
0.6283751625533242	0.8709044693770978	-0.20432570112933507
0.9036004436649812	0.4666042296678454	-0.1484122205654454
0.8746891863652441	0.5471112338117627	-0.16125709770174596
0.8397584476152755	0.6267593646536789	-0.17653627639201622
0.7990460371883755	0.7039479074618746	-0.1942085959446732
0.7531237593427907	0.7771268922497091	-0.21408861401634738
0.7028630996508526	0.8449459788913631	-0.23585002207966518
0.9346231979447087	0.5126680772987278	-0.1954051543298237
0.9027144238109944	0.5920807399449656	-0.21092931257656647
0.8647081366353552	0.6696681389179806	-0.22864461602879302
0.8210278020295514	0.7438849381511012	-0.24836519506625296
0.7724211548236741	0.8133266658908483	-0.2697787971341048
0.958137685356811	0.5546199674557162	-0.24716405190195453
0.9231188987424646	0.6318562940125385	-0.26486906792557546
0.8821382049389782	0.7063967772189712	-0.28435290575144395
0.8357977655198341	0.7768317322918858	-0.30532039333588656
0.9737779419456648	0.5915729503197874	-0.30192993503439114
0.9357789155951216	0.665732111117872	-0.3211347049387177
0.892156717960976	0.7364910311248293	-0.34160495868519936
0.9817402601174186	0.6230284542511737	-0.35782681447294645
0.9411113402729108	0.6934574328100492	-0.37778361533799254
0.9826908012203528	0.6488833166324889	-0.4131105438032823
1.0172261092851684	0.6038023654989367	-0.5485000968236728
1.0201543420906465	0.5793398676776375	-0.6018238283498007
1.0165493083146264	0.5498417908595387	-0.6565536547708941
1.0055705536817217	0.5153158396062426	-0.7111892986430354
0.986757665939804	0.4761012268257016	-0.764012356213256
0.9601539599075607	0.4328851338472782	-0.8132801530390453
0.9263528192663844	0.38665507242907343	-0.8574625964268578
0.8864401616228411	0.33859005525145436	-0.8954625708209237
0.8418425665207282	0.28991586318842383	-0.9267530282611176
0.7941244592875852	0.24176465713585127	-0.9513934376089225
0.7447932570558886	0.19507246721358257	-0.9699317031805602
0.6951573484459275	0.15053101936782493	-0.9832358953760729
0.6462554023400642	0.10858939550838559	-0.9923120346436898
0.5988467158778044	0.06948763143517722	-0.9981537604192867
0.5534416114962354	0.03330370334820439	-1.0016437476073023
0.4932732421288926	0.053208829867301674	-1.0038791730714423
0.4739142403879181	0.1095441404212495	-1.0040763810808557
0.4521079066936063	0.16881370449668276	-1.0041415479036324
0.42773301962427734	0.23069550674304293	-1.0040840763627468
0.40072892082875705	0.2947241485787343	-1.0038492381952429
0.37111623988553016	0.36028718138734495	-1.0032887840891578
0.33901388460398046	0.4266391809572052	-1.0021431228256183
0.30464970236925676	0.4929335714998179	-1.0000463126507912
0.26835640391830173	0.5582696578006608	-0.9965602023494928
0.23055607500440142	0.6217458116126796	-0.9912347198023183
0.19173423905475068	0.682511452225085	-0.9836810512567553
0.1524106756939001	0.7398170171029731	-0.9736380306217977
0.11310788591322397	0.7930537811447275	-0.9610148702928555
0.07432154057153363	0.841783367592203	-0.9459006869079213
0.03649496507222982	0.8857506732168042	-0.928543062230454
0.9826409265061308	0.6488503837201828	-0.5823789977542125
0.9410433706796627	0.6934073494483619	-0.6176999309599298
0.8920723158526218	0.736421355702833	-0.6538702948530773
0.8356995807948439	0.776740474558083	-0.6901440423819829
0.7723125582836536	0.8132123183470626	-0.7256727127963378
0.702748145605315	0.8448077870321198	-0.7595868647095538
0.6282584474398606	0.8707427065958538	-0.7910953352849065
0.5504025772771722	0.89057006472025	-0.8195788059807013
0.47088777025119083	0.9042169556030516	-0.8446527427881485
0.3913948599267714	0.9119604695926242	-0.866185159474771
0.3134261775514976	0.9143543833626746	-0.8842700745966884
0.23820500800969097	0.9121295976180616	-0.8991701057208502
0.16663216290681757	0.9060948787899672	-0.9112484397464238
0.09929277248110185	0.8970544212622761	-0.9209074051678714
0.9816572273178987	0.6229757602761596	-0.6376523311494979
0.9356783646413623	0.6656605771288011	-0.6743346741454825
0.8820226279054211	0.7063042256850186	-0.7111042115815537
0.8209006060847168	0.7437696933965113	-0.7470773602796598
0.7529891174301099	0.7769879591064239	-0.781337668199926
0.6794242354192871	0.805083332755589	-0.8130426002585218
0.6017151721879183	0.8274786260733445	-0.8415293337703073
0.5215922452276877	0.8439540194201299	-0.8663893115113737
0.4408228149469616	0.854644676645328	-0.8874935927769997
0.36103961706543897	0.8599840799291332	-0.9049646876463806
0.28361494378915014	0.8606130436881897	-0.9191116362625311
0.20959557363865927	0.8572814090804676	-0.9303509088106757
0.1396941225764052	0.8507611838468598	-0.9391351160725978
0.9736614019288479	0.5915021519184179	-0.6935333291153798
0.9229860369083686	0.631765352763018	-0.7305804820142429
0.8645624429228403	0.6695553072778258	-0.7667887795151777
0.7988916589847925	0.7038119025155859	-0.8012069758696737
0.7269581296695078	0.7336102237845842	-0.8329499716533627
0.6501702219787949	0.7582714004653869	-0.861315281689358
0.5702245383045198	0.7774384962917347	-0.8858701484030538
0.48892403451656136	0.7910956883883441	-0.9064854155235441
0.40799268209317835	0.7995329387316268	-0.9233090172503199
0.3289287955353761	0.8032700934221887	-0.9366942531433672
0.2529169546523849	0.8029649685257678	-0.9471100802203183
0.1808017740572798	0.7993277945173922	-0.9550584402104481
0.9579884690482854	0.5545335932889934	-0.748277976761202
0.902550999291408	0.5919735515496883	-0.7844953252649306
0.8395850966710243	0.6266299830106724	-0.8188689353384928
0.7699024232512958	0.6575751745712368	-0.8504832749378213
0.6947692567355978	0.6840677595576252	-0.8786019773513056
0.615794470143615	0.7056376767768233	-0.9027674544720425
0.5347591740214367	0.7221242746155175	-0.9228456542947053
0.45342889881672876	0.7336632542990107	-0.939003689610387
0.3733916626474895	0.740630525619828	-0.9516344010421367
0.29595019268403966	0.7435633065687015	-0.9612563767724588
0.22207536031187936	0.7430810523033934	-0.9684196518560461
0.9344434495637045	0.5125694800703585	-0.8000110757235961
0.8744981184024108	0.5469917222978249	-0.8341387701282773
0.8075567509809004	0.5784808211810925	-0.8654619217576317
0.7347167840052924	0.6062758895958977	-0.8932185651027978
0.6574543320630427	0.6298282953618873	-0.9169260967037314
0.5774737350192273	0.6488534012368518	-0.9364385041715112
0.49652702168456136	0.6633369258637742	-0.9519324253254438
0.41624622583142723	0.6735005759047601	-0.9638316163032934
0.3380202225873352	0.6797411013336836	-0.9726991763587155
0.2629296217822775	0.6825623921031028	-0.9791316467002246
0.9033937110081418	0.4664974763646925	-0.8469750560818916
0.8395321617170837	0.4979362832968864	-0.8778618206285185
0.7694884933964591	0.5264613997702343	-0.9051609008042146
0.694575267320896	0.5514849682233217	-0.9283656417465819
0.6163741013610687	0.5726291559339044	-0.947309907346618
0.5365708282684208	0.5897483251620684	-0.9621665793814362
0.45679106207146725	0.6029147500024332	-0.9733770947816562
0.3784697525331141	0.6123769162441889	-0.9815401065338798
0.30277050670364847	0.6185069172917602	-0.9872955206803191
0.8657572032971284	0.4175074952656089	-0.8877929287196371
0.7988580876273854	0.4461998713842111	-0.9145656743900547
0.726790379332176	0.47214267610426797	-0.9372513736345156
0.6509806881083681	0.494900952992646	-0.9556560102982409
0.573005029894019	0.5142264332386421	-0.9699328484884687
0.4944346817446556	0.5300592072941106	-0.9805234843394989
0.4167062675573877	0.5425058252003595	-0.9880481133492434
0.3410321970594769	0.5518017122774149	-0.9931832660735278
0.8228805232748847	0.3669421603997054	-0.9216675430236316
0.7539988060530213	0.3932631209826378	-0.9438456935550762
0.6810504807155995	0.4170956530255041	-0.9617688149039783
0.6054701875449436	0.43812241179568656	-0.9755550342347955
0.5287356010967998	0.4561787069699356	-0.9856250701141743
0.45224293387252795	0.4712460194498267	-0.9926017123231525
0.37721558998987387	0.48343026588438415	-0.9971860204936075
0.776336766151791	0.3161265419725219	-0.9484561305223634
0.7065674416712296	0.3405078942853507	-0.9659779260249016