# TIME = 0.000000
VARIABLES = X, Y, Z
ZONE N=2562 E=5120 F=FEPOINT ET=TRIANGLE
1.0253693891422868	0.63371318778481	-0.40834783698846977
-1.0253693891422868	0.63371318778481	-0.40834783698846977
1.0253693891422868	-0.63371318778481	-0.40834783698846977
-1.0253693891422868	-0.63371318778481	-0.40834783698846977
0.5071715875942501	0.	0.03509889533006132
0.5063776385078073	0.	-0.8509619339575228
-0.5071715875942501	6.211060613657798e-17	0.03509889533006132
-0.5063776385078073	6.201337541583817e-17	-0.8509619339575228
5.677962392226553e-17	0.9272816286589362	-0.016205671234931034
5.677962392226553e-17	-0.9272816286589362	-0.016205671234931034
5.673479338464231e-17	0.926549490418679	-0.8000084491450603
5.673479338464231e-17	-0.926549490418679	-0.8000084491450603
1.0337702047364823	0.6136225656268741	-0.35783264632807527
1.0361750682408057	0.588437947237748	-0.30490876781583826
1.0314614740925796	0.5579076385954818	-0.2509394568158812
1.0187890889133056	0.5220898253363223	-0.19764839896850037
0.9977767076464635	0.4814178100720934	-0.1469666948641406
0.9686273910518344	0.43670537781668045	-0.10079105235978464
0.9321536951884601	0.38907632926896574	-0.06070320812975102
0.889678173637397	0.3398268659402956	-0.027726622432576238
0.8428326190131673	0.2902568199591579	-0.002197278698614857
0.7933166941680753	0.24151873969195362	0.0162156487958511
0.7426880757131445	0.19452108880813831	0.02835927101382927
0.692230011432781	0.1498971268748415	0.035379631339216226
0.6429052888718818	0.10802648060651061	0.03850659594831404
0.5953758605153823	0.06908488810905701	0.038889472099893574
0.5500556949957074	0.03309995365473534	0.037500498396685664
1.0688115309644208	-0.5498326152057041	-0.35612430844110643
1.0705675370666152	-0.5211164762199669	-0.301509269502479
1.0643425500187882	-0.4871245869473726	-0.24604242396138254
1.0492950209941891	-0.4481024865709678	-0.1916346105507694
1.025152837147645	-0.40469439952670766	-0.14037023703025253
0.9923331833625763	-0.3579144421776566	-0.09421919926210726
0.9519299477081518	-0.3090350930989928	-0.05472602934204355
0.9055552316900529	-0.25941850109498066	-0.022771110601349686
0.8550811270315513	-0.21033924117440778	0.0015188656276355996
0.8023636250373386	-0.16284869066939667	0.018692348250878957
0.7490293684375229	-0.11770915674047383	0.029771072868462804
0.6963619962262081	-0.07539594920232458	0.036004846465352944
0.645283768713532	-0.036142031527538115	0.038655257000102895
0.5963975477636999	0.	0.03884820688243959
1.1018635631582658	-0.4796302294155935	-0.3545132354661657
1.1025082830373818	-0.44722004226101714	-0.2983550574799413
1.0942850018540728	-0.40976876508891535	-0.2415932995351853
1.0764012495476136	-0.36774260779648743	-0.18631465681641884
1.0487530456126148	-0.32200851436818384	-0.13472621009904182
1.0120236926905317	-0.273762387376674	-0.08882384092174996
0.9676174421690662	-0.22437706301932703	-0.05006461369499816
0.917433369036783	-0.17521416719168284	-0.01915000383896915
0.8635536187014152	-0.1274540059052875	0.004010481556170771
0.8079467412254748	-0.08199093658251251	0.020161142499798845
0.7522645166947923	-0.03940583118315855	0.03045653997964231
0.6977571241140974	0.	0.03620327736883002
0.645283768713532	0.036142031527538115	0.038655257000102895
1.131881256813763	-0.403115380585722	-0.35305034819209824
1.130881519130552	-0.3669834913865971	-0.29555566495439106
1.120147787389482	-0.32624164663105604	-0.23775861614998053
1.0989996549309984	-0.28159738134913476	-0.18189726091383243
1.067562712363859	-0.23413134777116962	-0.13025726244797867
1.0268280829612124	-0.18517801000137266	-0.08480672130986892
0.9785175767390323	-0.1361427914654794	-0.04686893673578754
0.9247897145537217	-0.0883096093835508	-0.0169456295363726
0.8678866801327894	-0.04269789252294052	0.005259145099600425
0.8098345436428529	0.	0.020647292963274947
0.7522645166947923	0.03940583118315855	0.03045653997964231
0.6963619962262081	0.07539594920232458	0.036004846465352944
1.1577458700432353	-0.320698789125463	-0.3517901347018033
1.1545303545917232	-0.28099334747885063	-0.2932241966821841
1.1407949749954813	-0.23732504077637384	-0.23470291224495332
1.1160412590702087	-0.1906426399705004	-0.1785770194160406
1.0806794209143984	-0.14220483498397432	-0.12715684996493318
1.0360286445648055	-0.09341864233239107	-0.08232769661052541
0.9841077389403804	-0.04564019848954607	-0.04524408751171076
0.9272816286589362	0.	-0.016205671234931034
0.8678866801327894	0.04269789252294052	0.005259145099600425
0.8079467412254748	0.08199093658251251	0.020161142499798845
0.7490293684375229	0.11770915674047383	0.029771072868462804
1.1783516371830602	-0.23314761313009597	-0.3507862903551902
1.1723606286488832	-0.19022196673734906	-0.29146764949992243
1.155211305093775	-0.14419443856797748	-0.2325723675411384
1.1266546169047726	-0.09622781089123848	-0.17651406678405615
1.0874215697064555	-0.04769729678947673	-0.12556832990906341
1.039150916668813	0.	-0.08148956291307348
0.9841077389403804	0.04564019848954607	-0.04524408751171076
0.9247897145537217	0.0883096093835508	-0.0169456295363726
0.8635536187014152	0.1274540059052875	0.004010481556170771
0.8023636250373386	0.16284869066939667	0.018692348250878957
1.1927162039095018	-0.14159379265140243	-0.3500866494801252
1.183463596400874	-0.09601179127165864	-0.29037422915576167
1.162627474035678	-0.048373349195923426	-0.2314774010154869
1.1302602518753817	0.	-0.17581411650360812
1.0874215697064555	0.04769729678947673	-0.12556832990906341
1.0360286445648055	0.09341864233239107	-0.08232769661052541
0.9785175767390323	0.1361427914654794	-0.04686893673578754
0.917433369036783	0.17521416719168284	-0.01915000383896915
0.8550811270315513	0.21033924117440778	0.0015188656276355996
1.2000982997087095	-0.04749003662721777	-0.3497270374196647
1.1872352814520442	0.	-0.29000288012370573
1.162627474035678	0.048373349195923426	-0.2314774010154869
1.1266546169047726	0.09622781089123848	-0.17651406678405615
1.0806794209143984	0.14220483498397432	-0.12715684996493318
1.0268280829612124	0.18517801000137266	-0.08480672130986892
0.9676174421690662	0.22437706301932703	-0.05006461369499816
0.9055552316900529	0.25941850109498066	-0.022771110601349686
1.2000982997087095	0.04749003662721777	-0.3497270374196647
1.183463596400874	0.09601179127165864	-0.29037422915576167
1.155211305093775	0.14419443856797748	-0.2325723675411384
1.1160412590702087	0.1906426399705004	-0.1785770194160406
1.067562712363859	0.23413134777116962	-0.13025726244797867
1.0120236926905317	0.273762387376674	-0.08882384092174996
0.9519299477081518	0.3090350930989928	-0.05472602934204355
1.1927162039095018	0.14159379265140243	-0.3500866494801252
1.1723606286488832	0.19022196673734906	-0.29146764949992243
1.1407949749954813	0.23732504077637384	-0.23470291224495332
1.0989996549309984	0.28159738134913476	-0.18189726091383243
1.0487530456126148	0.32200851436818384	-0.13472621009904182
0.9923331833625763	0.3579144421776566	-0.09421919926210726
1.1783516371830602	0.23314761313009597	-0.3507862903551902
1.1545303545917232	0.28099334747885063	-0.2932241966821841
1.120147787389482	0.32624164663105604	-0.23775861614998053
1.0764012495476136	0.36774260779648743	-0.18631465681641884
1.025152837147645	0.40469439952670766	-0.14037023703025253
1.1577458700432353	0.320698789125463	-0.3517901347018033
1.130881519130552	0.3669834913865971	-0.29555566495439106
1.0942850018540728	0.40976876508891535	-0.2415932995351853
1.0492950209941891	0.4481024865709678	-0.1916346105507694
1.131881256813763	0.403115380585722	-0.35305034819209824
1.1025082830373818	0.44722004226101714	-0.2983550574799413
1.0643425500187882	0.4871245869473726	-0.24604242396138254
1.1018635631582658	0.4796302294155935	-0.3545132354661657
1.0705675370666152	0.5211164762199669	-0.301509269502479
1.0688115309644208	0.5498326152057041	-0.35612430844110643
1.0602868710419142	0.5733816701452527	-0.40834783698846977
1.0936205346409662	0.5069210143345998	-0.40834783698846977
1.124424240580012	0.43433272471513795	-0.40834783698846977
1.1516606663283568	0.35588270285943624	-0.40834783698846977
1.1742692126273013	0.2721518047672483	-0.40834783698846977
1.19125853018952	0.1840595088907842	-0.40834783698846977
1.2018130295006046	0.09284519742555979	-0.40834783698846977
1.2053940387119941	0.	-0.40834783698846977
1.2018130295006046	-0.09284519742555979	-0.40834783698846977
1.19125853018952	-0.1840595088907842	-0.40834783698846977
1.1742692126273013	-0.2721518047672483	-0.40834783698846977
1.1516606663283568	-0.35588270285943624	-0.40834783698846977
1.124424240580012	-0.43433272471513795	-0.40834783698846977
1.0936205346409662	-0.5069210143345998	-0.40834783698846977
1.0602868710419142	-0.5733816701452527	-0.40834783698846977
1.033681514743237	-0.6135699212568282	-0.45885625186727674
1.0359921061917388	-0.5883340441272842	-0.5117586129481354
1.0311816758534411	-0.5577562984060498	-0.5656901738810273
1.018413809596556	-0.5218975092671121	-0.6189268086065081
0.9973114690150557	-0.48119333683937826	-0.6695393415887178
0.9680816130344094	-0.43645931395610266	-0.7156343672683614
0.9315396716775498	-0.38882003890081834	-0.7556349774666837
0.8890095234194401	-0.33957146425155954	-0.7885232575038922
0.8421225507391646	-0.2900122848586925	-0.8139685632103608
0.7925767108819192	-0.2412934578694742	-0.8323057875757589
0.7419274023472194	-0.19432185710346203	-0.844384527791508
0.6914553491897448	-0.14972937967721686	-0.8513518981810768
0.6421213152090154	-0.10789475060342377	-0.8544374665149904
0.5945859503316204	-0.0689932302836723	-0.8547894099807709
0.5492625449962916	-0.03305222534565544	-0.8533783965963508
1.068716712761207	0.5497838375315008	-0.4605642204974087
1.0703721767327778	0.5210213813424952	-0.5151562993728012
1.0640445098256548	0.4869881809510407	-0.5705829239091896
1.0488966443217675	0.4479323594151801	-0.624933450042992
1.0246611828986436	0.40450031166598627	-0.6761253902427679
0.991759417503565	0.35770749647553596	-0.722193124266344
0.9512880816854452	0.308826717339241	-0.7615974424405492
0.9048602323218566	0.2592194014839907	-0.7934638559703261
0.8543472325590594	0.21015871233151082	-0.8176707715564121
0.8016028928799876	0.1626942915517037	-0.8347706207607322
0.7482511892422582	0.11758686671991207	-0.8457872254420657
0.6955734987823693	0.07531057763761542	-0.851970837240125
0.6444897847119399	0.036097560867947354	-0.8545824699104408
0.5956023684223578	0.	-0.8547466153434211
1.1017627869805833	0.4795863625496424	-0.46217484490441113
1.1023010625230885	0.44713598559805556	-0.5183086904046355
1.09396986795053	0.40965075924009753	-0.575027939594135
1.0759818046121905	0.36759930828392706	-0.6302466647541867
1.0482379848151122	0.321850370405783	-0.6817602193132621
1.011426070953099	0.2736007248041776	-0.7275773824084878
0.9669529287392437	0.22422297157241572	-0.7662470460806069
0.9167182444835906	0.1750775905668785	-0.7970735942057177
0.8628028010683833	0.12734319088122661	-0.8201527576845282
0.8071727388072448	0.081912390336888	-0.8362321577699245
0.7514771177017038	0.03936458490461313	-0.8464680767218774
0.6969637288560238	0.	-0.8521671760393011
0.6444897847119399	-0.036097560867947354	-0.8545824699104408
1.1317749243182798	0.4030775106553496	-0.4636372216638639
1.130663467792913	0.36691273132921304	-0.521106420733804
1.1198174687963554	0.3261454417526036	-0.5788590635976333
1.098562115357406	0.28148527030559856	-0.6346584556121789
1.067028574063035	0.23401420381436058	-0.6862216958582599
1.0262121499307553	0.18506693273852137	-0.7315860974699927
0.9778370391764574	0.1360481071331092	-0.7694344112628506
0.92406181554872	0.08824010117450524	-0.799270930039151
0.8671270854741301	0.04266052233183277	-0.8213964768685504
0.8090561482097639	0.	-0.8367158268345288
0.7514771177017038	-0.03936458490461313	-0.8464680767218774
0.6955734987823693	-0.07531057763761542	-0.851970837240125
1.157634619602243	0.3206679724474346	-0.46489706490459326
1.154303089763081	0.2809380350267264	-0.5234363828107079
1.1404522800062693	0.23725374829694396	-0.5819118762045135
1.1155899121838115	0.190565540704442	-0.6379742751817298
1.0801316911877716	0.14213276012635848	-0.6893169105451498
1.0354011693840661	0.09336206293201497	-0.7340598466074246
0.9834188878385386	0.04560825147828523	-0.7710549709103514
0.926549490418679	0.	-0.8000084491450603
0.8671270854741301	-0.04266052233183277	-0.8213964768685504
0.8071727388072448	-0.081912390336888	-0.8362321577699245
0.7482511892422582	-0.11758686671991207	-0.8457872254420657
1.178236388934861	0.23312481021360046	-0.4659006082824426
1.1721262432712325	0.19018393641935502	-0.5251919307707539
1.1548598374105992	0.14415056807863336	-0.5840403785963395
1.1261945302936558	0.09618851479575025	-0.6400345035155757
1.086866883820813	0.04767296674301686	-0.690902632915261
1.038519496715587	0.	-0.7348961766101223
0.9834188878385386	-0.04560825147828523	-0.7710549709103514
0.92406181554872	-0.08824010117450524	-0.799270930039151
0.8628028010683833	-0.12734319088122661	-0.8201527576845282
0.8016028928799876	-0.1626942915517037	-0.8347706207607322
1.1925981133087336	0.1415797734773655	-0.4666001274056606
1.183224765588456	0.09599241545462392	-0.5262845767138767
1.1622714102060494	0.048358534476375406	-0.5851343716117996
1.1297971768841955	0.	-0.6407335242931124
1.086866883820813	-0.04767296674301686	-0.690902632915261
1.0354011693840661	-0.09336206293201497	-0.7340598466074246
0.9778370391764574	-0.1360481071331092	-0.7694344112628506
0.9167182444835906	-0.1750775905668785	-0.7970735942057177
0.8543472325590594	-0.21015871233151082	-0.8176707715564121
1.1999787556154868	0.04748530605359135	-0.46695953782760524
1.1869949215398876	0.	-0.5266556913118765
1.1622714102060494	-0.048358534476375406	-0.5851343716117996
1.1261945302936558	-0.09618851479575025	-0.6400345035155757
1.0801316911877716	-0.14213276012635848	-0.6893169105451498
1.0262121499307553	-0.18506693273852137	-0.7315860974699927
0.9669529287392437	-0.22422297157241572	-0.7662470460806069
0.9048602323218566	-0.2592194014839907	-0.7934638559703261
1.1999787556154868	-0.04748530605359135	-0.46695953782760524
1.183224765588456	-0.09599241545462392	-0.5262845767138767
1.1548598374105992	-0.14415056807863336	-0.5840403785963395
1.1155899121838115	-0.190565540704442	-0.6379742751817298
1.067028574063035	-0.23401420381436058	-0.6862216958582599
1.011426070953099	-0.2736007248041776	-0.7275773824084878
0.9512880816854452	-0.308826717339241	-0.7615974424405492
1.1925981133087336	-0.1415797734773655	-0.4666001274056606
1.1721262432712325	-0.19018393641935502	-0.5251919307707539
1.1404522800062693	-0.23725374829694396	-0.5819118762045135
1.098562115357406	-0.28148527030559856	-0.6346584556121789
1.0482379848151122	-0.321850370405783	-0.6817602193132621
0.991759417503565	-0.35770749647553596	-0.722193124266344
1.178236388934861	-0.23312481021360046	-0.4659006082824426
1.154303089763081	-0.2809380350267264	-0.5234363828107079
1.1198174687963554	-0.3261454417526036	-0.5788590635976333
1.0759818046121905	-0.36759930828392706	-0.6302466647541867
1.0246611828986436	-0.40450031166598627	-0.6761253902427679
1.157634619602243	-0.3206679724474346	-0.46489706490459326
1.130663467792913	-0.36691273132921304	-0.521106420733804
1.09396986795053	-0.40965075924009753	-0.575027939594135
1.0488966443217675	-0.4479323594151801	-0.624933450042992
1.1317749243182798	-0.4030775106553496	-0.4636372216638639
1.1023010625230885	-0.44713598559805556	-0.5183086904046355
1.0640445098256548	-0.4869881809510407	-0.5705829239091896
1.1017627869805833	-0.4795863625496424	-0.46217484490441113
1.0703721767327778	-0.5210213813424952	-0.5151562993728012
1.068716712761207	-0.5497838375315008	-0.4605642204974087
0.993586693353095	0.6803094561911548	-0.3770843061685095
0.9550950097846661	0.7267233298758565	-0.3440357895620809
0.9094276337438246	0.771925099685419	-0.30966619188651484
0.8563998514373775	0.8147507530302958	-0.27460826218209755
0.7962018864716602	0.8539898180465616	-0.2396351454329057
0.7294575305623263	0.8885041764234906	-0.2055987295459859
0.6572224811106288	0.9173588436449873	-0.17334109070773757
0.5809116008456863	0.939934599677526	-0.1435958284969008
0.5021637619389892	0.9559932664384269	-0.11690392185381164
0.4226728937776633	0.9656811446346607	-0.09356590688675401
0.3440243552727685	0.9694722070245797	-0.073638681384286
0.26756906011058734	0.9680740761976615	-0.0569737452955894
0.1943542900363906	0.962319391252926	-0.043277593814188
0.12510713610856544	0.9530707827365141	-0.032178138424570034
0.060260288074627306	0.9411476049325231	-0.02328024658063889
0.5332503987189066	0.08938822586758326	0.03702094723253505
0.513927614791112	0.14892781903019972	0.03673694759380325
0.49188809545844286	0.21145223334798813	0.036754637299817795
0.4669885659234848	0.2765409071909198	0.03711981339373741
0.43916871881558167	0.3436139472358475	0.0377737034087122
0.40847326843965504	0.41194209121449066	0.038514973758813506
0.37506632796514566	0.48067582428747807	0.03898352051561493
0.3392326436992143	0.5488899736378099	0.038679665658579505
0.30136408214792393	0.6156338391777942	0.0370225027983479
0.26193654742906186	0.679984382058162	0.03343739194052994
0.2214816139481218	0.7410943317948117	0.027450491357489865
0.1805552269421421	0.7982378054240042	0.018764735898850558
0.13970847393491326	0.8508485860834676	0.007298600743114012
0.09945795189339234	0.8985467244621376	-0.006817630626919311
0.5787089067174569	0.12895905230802263	0.03879180710319132
0.5592348729881519	0.19218819006049442	0.038763793107204625
0.5367230217981465	0.25841084517993107	0.03883748724512337
0.5110128579482868	0.32708883798421395	0.03896446853498401
0.48204475618610854	0.3975062483893105	0.038977580868704384
0.44988454115083903	0.46878852791341136	0.038567514428616535
0.41473693407009227	0.5399419691420323	0.03728922922828556
0.3769441396116839	0.6099084227121304	0.034607024859296204
0.3369694430700157	0.6776280383314335	0.029973741687327835
0.295369577771649	0.7421045342658863	0.022925289103238006
0.25276035609549985	0.802467796813918	0.01316359380552918
0.20977793114304383	0.8580272821712072	0.0006052017155765933
0.16703935073045487	0.9083090419819178	-0.014614760334980624
0.6263093983262796	0.171609129851303	0.03857671943903443
0.6065730972290054	0.238590096224057	0.03850971093928888
0.583434709662999	0.3084909784909928	0.03824504103280381
0.5567195159370207	0.3806326239088583	0.03762812070464487
0.5263741923678661	0.4541413476955498	0.036385494238751176
0.49249475317186675	0.5279795048794838	0.03412308384629956
0.45533918192885176	0.6009984253938717	0.03035889229418986
0.41532409649460655	0.6720085392186211	0.024590760267721327
0.3730034144317667	0.7398604267964024	0.01638508484003664
0.3290336533082881	0.8035261643840088	0.005461395917521449
0.28412858855446305	0.8621716688401108	-0.008252619833023032
0.23900914770637746	0.9152087924011433	-0.024610281815014977
0.675573376849609	0.21722557860527275	0.03526413774030165
0.6553940931981989	0.28790903789054767	0.034713355801425344
0.6314006775703351	0.3613260987160473	0.033565853590044346
0.6034094769818162	0.4366312673917134	0.0315661141594137
0.571385346766068	0.5127728964729752	0.028359952505740322
0.5354701983931895	0.5885386160400953	0.023518540072681168
0.49599683677990475	0.6626286235772217	0.016594296194051707
0.45348078264126834	0.7337472040773696	0.007200149622327742
0.4085903254161699	0.8007041252340251	-0.004909829660009032
0.3620990315134013	0.8625075690871924	-0.019783565908420432
0.3148252807786807	0.9184359702248363	-0.03725543541796674
0.7257492513036956	0.2655051231383825	0.027562299124970394
0.7048515508606762	0.33968097482619314	0.02594669024145714
0.6796800714303181	0.41625637345381056	0.023259897946941426
0.6500559730482284	0.49419794847520077	0.019174424748255196
0.6159811991167365	0.5722641385199027	0.013307576931675884
0.5776708222915274	0.6490748498313376	0.005267844455350615
0.5355630458762897	0.7232098013502983	-0.0052768655845237804
0.4903011985944299	0.7933239866254769	-0.018526191390151887
0.442689306269862	0.8582633343441439	-0.03449335672973313
0.39362523889224543	0.91715731210891	-0.05298764911536238
0.775759598275074	0.31589151756950595	0.014130672439673501
0.7537569845674607	0.39313699416205306	0.010789833979842909
0.7269863745639507	0.472269999904727	0.005882344083363968
0.6952972243154917	0.552058193975743	-0.0009370871865262469
0.6587619899530321	0.6310810058538605	-0.01000835660068309
0.6177052755598141	0.7078272649592974	-0.021607276361775007
0.5727051381288129	0.7808205215602967	-0.03588268907379821
0.5245575066114948	0.8487519133428107	-0.052807943317551384
0.47420943049842407	0.9105953364106455	-0.0721648592488813
0.8241978228871055	0.3675295758894757	-0.006212368234687352
0.8005989543173797	0.44717222743242924	-0.011915633686646485
0.7717347914144731	0.5279982508200075	-0.01962110724851103
0.7375222550923806	0.6085909169861631	-0.02962288130363592
0.6981463832763561	0.6873928683820049	-0.04214461766354707
0.6540813802138481	0.7628328511933353	-0.05728585740553366
0.6060721817452219	0.8334703850465421	-0.07498135241414165
0.5550743558484074	0.8981291611276936	-0.09498748848707479
0.869404389169323	0.41926633415539116	-0.03423762257270721
0.8436558847439846	0.5003821113556485	-0.04278599046806927
0.812196930797973	0.5818047424135603	-0.05362438857031933
0.7750597891609812	0.6619800909424146	-0.0669297040998303
0.7325861879139951	0.7392897820695821	-0.08275791258702696
0.6854287256201897	0.8121983497514985	-0.10101043581588327
0.634505046344661	0.8794002590084782	-0.12142493070951572
0.9096393552172438	0.4697226230823583	-0.07007613998068696
0.8812087047913737	0.5511891415138125	-0.08167699347290096
0.8467437161028039	0.6319728667644481	-0.09564025360109912
0.806438495684291	0.7104605556035383	-0.11198478173146692
0.760821044169716	0.7850695005688639	-0.13058645516637246
0.710726451266538	0.8543988970081097	-0.15117240985851618
0.9433266963735076	0.51744219997734	-0.11309828290767894
0.9118066259960917	0.5980442181563305	-0.12761642131079914
0.8741143301435232	0.6769527102479409	-0.14433251749222173
0.8306350311013903	0.752589482608965	-0.16310399540304868
0.7820856018441867	0.8235029180866682	-0.1836556084058204
0.9693033012612698	0.5610832071593584	-0.16195616387467587
0.934504272122841	0.6396493527830542	-0.17892933268556868
0.8936195346313808	0.7155907722726857	-0.19773079160750134
0.8472261053254498	0.787453795875527	-0.21808917333822486
0.9869943541065549	0.5996019593965779	-0.21478920333791185
0.9489920322252223	0.6751321904336253	-0.23351882962607856
0.9052137390019636	0.7472698311902188	-0.25357396651336367
0.996461440050397	0.6323707562336758	-0.2695246165350251
0.9555852656346607	0.7041225376648402	-0.28920744767628204
0.998322589684336	0.659205186676261	-0.32417913290219874
1.033681514743237	0.6135699212568282	-0.45885625186727674
1.0359921061917388	0.5883340441272842	-0.5117586129481354
1.0311816758534411	0.5577562984060498	-0.5656901738810273
1.018413809596556	0.5218975092671121	-0.6189268086065081
0.9973114690150557	0.48119333683937826	-0.6695393415887178
0.9680816130344094	0.43645931395610266	-0.7156343672683614
0.9315396716775498	0.38882003890081834	-0.7556349774666837
0.8890095234194401	0.33957146425155954	-0.7885232575038922
0.8421225507391646	0.2900122848586925	-0.8139685632103608
0.7925767108819192	0.2412934578694742	-0.8323057875757589
0.7419274023472194	0.19432185710346203	-0.844384527791508
0.6914553491897448	0.14972937967721686	-0.8513518981810768
0.6421213152090154	0.10789475060342377	-0.8544374665149904
0.5945859503316204	0.0689932302836723	-0.8547894099807709
0.5492625449962916	0.03305222534565544	-0.8533783965963508
0.48941395784566416	0.05279253321202476	-0.8499982204702199
0.4701958907454468	0.10868465281641038	-0.8492946831899998
0.44855744808312165	0.16748798985682745	-0.8490097094910523
0.4243766482456356	0.22888526586733554	-0.849262755678088
0.3975950674500467	0.2924192930497127	-0.8500899673776867
0.3682385979004251	0.35749350811620173	-0.8513992821304156
0.3364329130828167	0.4233911028522347	-0.8529386000760232
0.30241014845036335	0.4893098971511442	-0.8542915430986212
0.26650018302764816	0.5544081073166891	-0.8549111450443232
0.22911120637142113	0.6178494015056422	-0.8541889252863336
0.19070333857197988	0.6788417822221465	-0.8515451070652035
0.15176307662302982	0.7366735049394803	-0.8465171644499508
0.11277840790230086	0.7907436523658458	-0.8388246093982052
0.07421614822344279	0.8405896689011892	-0.8283966481544202
0.0365013573024833	0.8859058157752139	-0.8153618156237538
0.9981794804111899	0.6591106897910917	-0.49249782898768363
0.9553904797158611	0.7039790097554228	-0.5274506190103015
0.9049724338658488	0.7470706295646131	-0.563057899499566
0.8469460646801024	0.7871935122655294	-0.598508990373359
0.7817768911108641	0.8231778587975873	-0.6329023064393465
0.7104009925340348	0.854007647207885	-0.6653401462358373
0.634175867119992	0.8789440289168472	-0.6950388182282772
0.5547543772807383	0.8976114249369804	-0.7214263945870638
0.47391067111533647	0.9100216470585325	-0.7442001673814753
0.3933579733664886	0.9165345763008295	-0.763331515401389
0.31459774015412856	0.9177721687227485	-0.7790219144376452
0.23882714087947748	0.9145118556945175	-0.7916302961726517
0.16690651254949687	0.9075867084697427	-0.8015942151413519
0.09937599427294243	0.8978062834013876	-0.8093648713214384
0.9962239362927353	0.6322200324577179	-0.5471197956423962
0.9487049269664537	0.6749279379260642	-0.5830948263361563
0.8932904996815076	0.7153272883572613	-0.6188445128553784
0.8302742702819894	0.7522626184770027	-0.6534260832254623
0.7604408514350972	0.784677190547244	-0.6858931294454307
0.6850428514440141	0.811741108382138	-0.7154154113071107
0.6056944471026293	0.8329509244154659	-0.7413900971010587
0.5242011345157092	0.8481752911529694	-0.7635107132399491
0.44236574969359177	0.8576360394398722	-0.7817761907197882
0.3618175508223986	0.8618370916613705	-0.7964420480604334
0.2838959858557778	0.8614658494858443	-0.8079349466384304
0.20959869282682395	0.8572941670885618	-0.8167606150804309
0.13958484684196043	0.8500956758678028	-0.8234276561452268
0.9866621264953485	0.5994001301502239	-0.6018054120365137
0.9341269262434497	0.6393910671285866	-0.637622503354856
0.8737021212071832	0.6766334774576513	-0.6721694062192493
0.8060038166577779	0.7100776097194585	-0.7044619597597467
0.7321432356031229	0.7388427764847451	-0.733630552264
0.653644745043214	0.762323618455297	-0.7590439666319616
0.5722889089938473	0.7802530388739807	-0.7803908021426407
0.4899179841936548	0.7927039327136636	-0.7976954125437874
0.40825053057417676	0.8000382378774411	-0.8112659189036204
0.3287453645405446	0.8028221404477006	-0.8215979178454447
0.2525290259467679	0.8017333659970876	-0.829267636702314
0.1803839555334456	0.7974806115408629	-0.8348426541063225
0.9688801351947296	0.5608382566124384	-0.6545722632842498
0.911345360593924	0.5977416791102903	-0.6888581246397829
0.8462568493946656	0.6316094905227083	-0.7207749492041381
0.7745614597434952	0.661554466806419	-0.7494232975055167
0.6976515575133472	0.6869056643962336	-0.7741461976983526
0.617228836551936	0.7072813144336837	-0.7946240797557422
0.5351184963838539	0.7226094937813009	-0.8109001609678551
0.4530797158294883	0.7330982644462836	-0.8233296100116986
0.3726551099610342	0.7391695572643799	-0.8324744273773782
0.2950807703229013	0.7413789168246374	-0.838981982331523
0.22125671428705723	0.7403418004173016	-0.8434813610381514
0.9428204979849428	0.5171645354006764	-0.70335052236899
0.8806735778130104	0.550854423780997	-0.7347092117370106
0.8116469105508191	0.5814107438941332	-0.7626963247712846
0.7369723235344106	0.6081371227462826	-0.786632575998453
0.6582270550884487	0.6305685487941693	-0.8061852482848005
0.5771652078787771	0.6485067380514721	-0.8214051414418108
0.49553305998819974	0.6620090394300129	-0.8326826522672668
0.4149126650932866	0.6713428291928286	-0.8406383180118707
0.3366185572640346	0.6769224252104957	-0.8459885574048411
0.26165220708568593	0.679246237669445	-0.8494267784615404
0.9090616031667069	0.4694242815395118	-0.7462841243014956
0.8430594574861318	0.5000283634165287	-0.7735065530118357
0.7711344572600466	0.5275875198448448	-0.7966039907440247
0.6947078017346205	0.5515901990606121	-0.8152240834920474
0.6154168678987127	0.5717398586899577	-0.8294110108155358
0.5349442784582511	0.5879605741778491	-0.8395720117125669
0.4548631559826711	0.6003701226792023	-0.8463710813481616
0.3765277547891133	0.6092346979245878	-0.8505864668526374
0.30101502078258796	0.6149207681743795	-0.8529769665292029
0.8687682055601654	0.41895953748748377	-0.7820312436840224
0.7999545787708765	0.4468123133370149	-0.8042843676641331
0.7263479760916032	0.4718552790006997	-0.8220171726012281
0.6494375139152987	0.493727771679076	-0.8352503547291241
0.5708001206016537	0.5122477025436648	-0.8443852050102918
0.4919547849700715	0.5274006314153535	-0.8501067599440527
0.4142531864013691	0.5393121827705727	-0.8532402794440852
0.3388145581375949	0.5482134969568125	-0.854606212891539
0.823516712280488	0.367225852334969	-0.8099679922519374
0.7530767909484037	0.39278222560889964	-0.8269042083686511
0.6790138645049002	0.41584836843733175	-0.8393147703081595
0.6027700126157751	0.4361685465574419	-0.8475698043720947
0.5257734675079505	0.45362305861255153	-0.8523473985966812
0.4493340643250017	0.4682149202491547	-0.8544969553421314
0.3745771149287925	0.48004886083603454	-0.8548889574873324
0.7750453956613852	0.31560069223135745	-0.8302303979370903
0.7041452332531809	0.3393405873316095	-0.8419865304038978
0.6307139174668066	0.3609330925667402	-0.849554206809242