# TIME = 0.000000
VARIABLES = X, Y, Z
ZONE N=2562 E=5120 F=FEPOINT ET=TRIANGLE
-0.4423581265862	0.27339238084330714	1.5069925047447832
0.4423581265862	0.27339238084330714	1.5069925047447832
-0.4423581265862	-0.27339238084330714	1.5069925047447832
0.4423581265862	-0.27339238084330714	1.5069925047447832
-0.6620056426206501	0.	0.30011595583437645
-0.4983900677007511	0.	0.7625836542998323
0.6620056426206501	8.107230912528658e-17	0.30011595583437645
0.4983900677007511	6.103518011365575e-17	0.7625836542998323
-5.338719084433919e-17	0.8718789920736237	0.8783808690309255
-5.338719084433919e-17	-0.8718789920736237	0.8783808690309255
-1.41362045438829e-17	0.23086173995187967	1.3022053609636528
-1.41362045438829e-17	-0.23086173995187967	1.3022053609636528
-0.5003171570366783	0.2969769259370838	1.465208082527799
-0.5583900186820681	0.3171065261290025	1.413374934422504
-0.6150326758581681	0.33266528752221036	1.351354877656651
-0.6684506940563626	0.34255500957325963	1.2794526786022986
-0.7167028506652865	0.34580233653035175	1.198526829938924
-0.7578634576205066	0.34168251966757385	1.1100424980327313
-0.7902236347605472	0.329835425961652	1.0160404538552497
-0.8124970597207425	0.31034630001290514	0.9190046395339221
-0.8239830297470979	0.2837653509361488	0.8216426928446896
-0.8246457102535305	0.25105660084673853	0.7266188094718982
-0.8150905920097314	0.21348438815684204	0.6362962722280825
-0.7964478823959592	0.1724647115914576	0.5525425500211385
-0.7701969421523531	0.1294151198858708	0.4766287299597487
-0.7379759292232989	0.08563159489441842	0.40922637493401687
-0.7014135999712281	0.04220801250322462	0.35047883151416165
-0.5191656924925114	-0.2670763012545945	1.463665189105083
-0.5807310182141793	-0.28268043945421417	1.4097528186998045
-0.640317436436988	-0.2930582515319549	1.3452227518481403
-0.6958691193196662	-0.29717160231985773	1.270560148691289
-0.7452180650114361	-0.29418596565111294	1.1868755125280843
-0.7862904575064832	-0.2835990121124682	1.0959359360784873
-0.8173471827700151	-0.265344065841882	1.0000901042906212
-0.8372074916559673	-0.23983861501803663	0.9020815446172495
-0.8454001587022083	-0.2079578442895338	0.8047793747003296
-0.8422026891630928	-0.17093447525375055	0.7108803454079101
-0.8285612048611768	-0.13020749898702416	0.6226527757369861
-0.8059180144896761	-0.08725771080414262	0.5417696621626429
-0.7759966547915529	-0.04346319700347404	0.46925356281784286
-0.7405936139938936	0.	0.4055185682657021
-0.5370572881826994	-0.23377568598607512	1.4622023189654338
-0.6017007467388968	-0.24407311720480845	1.4063592675512198
-0.6636619625792362	-0.24851655864953986	1.3395733059277317
-0.7206310771972394	-0.24619699363883202	1.2625468620219396
-0.7702490178267057	-0.23649680252327543	1.176669546722606
-0.8103601733429054	-0.2192104170007488	1.084014588070211
-0.8392837198973989	-0.19461825294134222	0.9872114773762609
-0.8560381419043241	-0.16348872319257024	0.8892031474270261
-0.860459773977709	-0.12699737774098396	0.7929345793090702
-0.8531842458431835	-0.08658166661830155	0.7010441034657076
-0.8355021642204977	-0.043766064337438744	0.6156264982505828
-0.8091357030035554	0.	0.5381104759809969
-0.7759966547915529	0.04346319700347404	0.46925356281784286
-0.553401432453052	-0.19709190139606808	1.4608674179469434
-0.620507410652394	-0.20136147964248796	1.4033208334970206
-0.6840723179708643	-0.19923520980177556	1.334643285082317
-0.7415651828113458	-0.1900117189686274	1.2557851829912061
-0.7905014210863089	-0.17336795392951204	1.168426320834833
-0.8287361147981688	-0.14945413657954168	1.0749269822287455
-0.8547497761977677	-0.11892276981253745	0.9781427615070246
-0.8678509813463317	-0.0828724411179356	0.8811318145610758
-0.868240414778939	-0.042715295398510204	0.7868188583353237
-0.8569230755866637	0.	0.6976964939886002
-0.8355021642204977	0.043766064337438744	0.6156264982505828
-0.8059180144896761	0.08725771080414262	0.5417696621626429
-0.5675568130440816	-0.1572147976622422	1.4597124286664187
-0.6363116556719959	-0.15486759742260112	1.4007710404947165
-0.7005315562647613	-0.1457349337959081	1.330673830116948
-0.7575280581279772	-0.1294012633310353	1.2506367680611377
-0.8047850427406321	-0.10590034563965992	1.1626200871332888
-0.8402788447085895	-0.07576789431944739	1.0692245686907935
-0.8627539418687987	-0.04001214460210212	0.9734528994055811
-0.8718789920736237	0.	0.8783808690309255
-0.868240414778939	0.042715295398510204	0.7868188583353237
-0.8531842458431835	0.08658166661830155	0.7010441034657076
-0.8285612048611768	0.13020749898702416	0.6226527757369861
-0.578882190235299	-0.1145371183592754	1.458789067805561
-0.6483049213209452	-0.10519104289718251	1.3988383899801857
-0.7121110147684273	-0.08888629077627559	1.327884435223656
-0.7675467898540181	-0.06555633486610242	1.2474087502125037
-0.8121790191316299	-0.03562440253246475	1.1596167774028083
-0.8442174394796845	0.	1.06727987835584
-0.8627539418687987	0.04001214460210212	0.9734528994055811
-0.8678509813463317	0.0828724411179356	0.8811318145610758
-0.860459773977709	0.12699737774098396	0.7929345793090702
-0.8422026891630928	0.17093447525375055	0.7108803454079101
-0.5868024036416205	-0.06966248768670245	1.4581437708084524
-0.6558070926403161	-0.053204182946179256	1.3976302851279356
-0.7180957717053232	-0.02987775387780982	1.326443845267904
-0.7709639249470512	0.	1.2463083548354408
-0.8121790191316299	0.03562440253246475	1.1596167774028083
-0.8402788447085895	0.07576789431944739	1.0692245686907935
-0.8547497761977677	0.11892276981253745	0.9781427615070246
-0.8560381419043241	0.16348872319257024	0.8892031474270261
-0.8454001587022083	0.2079578442895338	0.8047793747003296
-0.5908808480767829	-0.023382212210698847	1.4578115316115527
-0.6583614931052328	0.	1.3972191005037808
-0.7180957717053232	0.02987775387780982	1.326443845267904
-0.7675467898540181	0.06555633486610242	1.2474087502125037
-0.8047850427406321	0.10590034563965992	1.1626200871332888
-0.8287361147981688	0.14945413657954168	1.0749269822287455
-0.8392837198973989	0.19461825294134222	0.9872114773762609
-0.8372074916559673	0.23983861501803663	0.9020815446172495
-0.5908808480767829	0.023382212210698847	1.4578115316115527
-0.6558070926403161	0.053204182946179256	1.3976302851279356
-0.7121110147684273	0.08888629077627559	1.327884435223656
-0.7575280581279772	0.1294012633310353	1.2506367680611377
-0.7905014210863089	0.17336795392951204	1.168426320834833
-0.8103601733429054	0.2192104170007488	1.084014588070211
-0.8173471827700151	0.265344065841882	1.0000901042906212
-0.5868024036416205	0.06966248768670245	1.4581437708084524
-0.6483049213209452	0.10519104289718251	1.3988383899801857
-0.7005315562647613	0.1457349337959081	1.330673830116948
-0.7415651828113458	0.1900117189686274	1.2557851829912061
-0.7702490178267057	0.23649680252327543	1.176669546722606
-0.7862904575064832	0.2835990121124682	1.0959359360784873
-0.578882190235299	0.1145371183592754	1.458789067805561
-0.6363116556719959	0.15486759742260112	1.4007710404947165
-0.6840723179708643	0.19923520980177556	1.334643285082317
-0.7206310771972394	0.24619699363883202	1.2625468620219396
-0.7452180650114361	0.29418596565111294	1.1868755125280843
-0.5675568130440816	0.1572147976622422	1.4597124286664187
-0.620507410652394	0.20136147964248796	1.4033208334970206
-0.6636619625792362	0.24851655864953986	1.3395733059277317
-0.6958691193196662	0.29717160231985773	1.270560148691289
-0.553401432453052	0.19709190139606808	1.4608674179469434
-0.6017007467388968	0.24407311720480845	1.4063592675512198
-0.640317436436988	0.2930582515319549	1.3452227518481403
-0.5370572881826994	0.23377568598607512	1.4622023189654338
-0.5807310182141793	0.28268043945421417	1.4097528186998045
-0.5191656924925114	0.2670763012545945	1.463665189105083
-0.4574219972671331	0.24736455379898584	1.5069925047447832
-0.4718025874603567	0.21869253422496385	1.5069925047447832
-0.48509171993826955	0.18737697112333718	1.5069925047447832
-0.49684187982847283	0.15353257800393322	1.5069925047447832
-0.5065955103654682	0.11740994394673443	1.5069925047447832
-0.5139249301515295	0.07940574430587466	1.5069925047447832
-0.5184782829156609	0.04005466520709373	1.5069925047447832
-0.5200231783872951	0.	1.5069925047447832
-0.5184782829156609	-0.04005466520709373	1.5069925047447832
-0.5139249301515295	-0.07940574430587466	1.5069925047447832
-0.5065955103654682	-0.11740994394673443	1.5069925047447832
-0.49684187982847283	-0.15353257800393322	1.5069925047447832
-0.48509171993826955	-0.18737697112333718	1.5069925047447832
-0.4718025874603567	-0.21869253422496385	1.5069925047447832
-0.4574219972671331	-0.24736455379898584	1.5069925047447832
-0.39017805986987836	-0.23160085389547647	1.5411968604289643
-0.32946315195386816	-0.1871002562871525	1.5680222532220989
-0.26043489871316233	-0.14086674393412438	1.583531519726896
-0.18476735453024123	-0.09468609048163526	1.581613226055553
-0.10920717181158311	-0.05269142594209317	1.5505996730749574
-0.06909788014438442	-0.031152759186396286	1.471695628169032
-0.11337770762335714	-0.04732329285473388	1.3891481957250873
-0.1856604960468406	-0.07091600802408	1.3271760550248923
-0.2596065811980882	-0.08940396823660283	1.2660162063269254
-0.3280658577193937	-0.09987695087576322	1.199344678323371
-0.38709358108546715	-0.10138558477740993	1.1268418982534911
-0.43427172690164806	-0.09403822872515552	1.0505430369644413
-0.468503349519292	-0.07872196554758285	0.9733310729189131
-0.4898554244681879	-0.05684074453355344	0.8980993351577412
-0.4992987358106553	-0.030045621135382682	0.8272713771555011
-0.4014105350764629	0.2064990860203956	1.5422142184352727
-0.33615862747848535	0.16363077838369813	1.5693883440309195
-0.26208782504507805	0.119951441870632	1.5841955346367067
-0.18143107607864858	0.07748032222154146	1.5798414494099728
-0.10317881856319229	0.04073138024812629	1.54296077559379
-0.07335040287690682	0.026456001844294034	1.4570571470607774
-0.12823774400218846	0.04163117596198487	1.3781757730832334
-0.20397346629336569	0.05843320102101038	1.3168229120773194
-0.2788852212248799	0.06860226936693177	1.2548070260326807
-0.34644964486795876	0.0703158384666292	1.1873983928573983
-0.4030418964962681	0.0633375989871006	1.115027982154332
-0.4466751807239136	0.04836205797890707	1.0400611480091924
-0.4767585577027106	0.026703016035669925	0.9654086430813145
-0.49384544091082416	0.	0.8937749700277484
-0.4118828634975198	0.17928850623340897	1.5431648758876342
-0.3421172931142845	0.13877601886425683	1.5706135365121323
-0.26319624600552066	0.09855714052462425	1.5846725670105273
-0.17800658731237395	0.06081431682722134	1.5779318843008439
-0.0980906389471033	0.03011769172248945	1.5355015819684543
-0.07891358903249537	0.021346903917400514	1.4451954070550244
-0.14100111428864126	0.032696202577350786	1.3696656652648598
-0.218406386833557	0.041711904613371355	1.308904230331838
-0.2927814868738706	0.043212340900262845	1.2467860476462065
-0.358164397155474	0.03634674524306673	1.179789467498172
-0.4113692163196005	0.021548731240789397	1.1088519405841863
-0.4509250600692105	0.	1.0364652467265405
-0.4767585577027106	-0.026703016035669925	0.9654086430813145
-0.42129058463055263	0.1500411048757827	1.5440206683741582
-0.34719951381609	0.11267006103868292	1.5716662057402442
-0.2638466683406038	0.07684501322647969	1.584983326489682
-0.17482751636014707	0.04479616583490322	1.5760824395157793
-0.09424664937217547	0.020669600750258765	1.528942992293166
-0.08425441591266476	0.015194427705503843	1.4365667603821513
-0.1503704168235527	0.020921288269966285	1.3638167160850563
-0.2276677275579521	0.021740345695329944	1.3039126247419317
-0.3000706360352536	0.014762738108578099	1.2425944727197653
-0.3621906073603493	0.	1.177174654475998
-0.4113692163196005	-0.021548731240789397	1.1088519405841863
-0.4466751807239136	-0.04836205797890707	1.0400611480091924
-0.4293176360152152	0.11892216554842402	1.5447522925931698
-0.35128307844966483	0.08549641655905464	1.5725175847432962
-0.26416040538519936	0.054954553932703126	1.5851619791014777
-0.17224031362147044	0.0294221632321197	1.5745239906125632
-0.09174972748851759	0.012073196365939443	1.5240385769811309
-0.08804660576039147	0.007939157295758104	1.431348377555659
-0.15533435182131308	0.007203978150810181	1.3608297939547618
-0.23086173995187967	0.	1.3022053609636528
-0.3000706360352536	-0.014762738108578099	1.2425944727197653
-0.358164397155474	-0.03634674524306673	1.179789467498172
-0.4030418964962681	-0.0633375989871006	1.115027982154332
-0.43566013869073156	0.08619932986598886	1.545331323564955
-0.3542698077952396	0.05748222684016462	1.5731436860246595
-0.26427068663480124	0.032986487512071026	1.5852492651380388
-0.17054840490058212	0.014566575602079766	1.5734790065002606
-0.0905438717301444	0.003971502904385852	1.5214115174963405
-0.08941257454840887	0.	1.4296035189786884
-0.15533435182131308	-0.007203978150810181	1.3608297939547618
-0.2276677275579521	-0.021740345695329944	1.3039126247419317
-0.2927814868738706	-0.043212340900262845	1.2467860476462065
-0.34644964486795876	-0.0703158384666292	1.1873983928573983
-0.4400539954616091	0.05224119030543497	1.5457329618720013
-0.3560895648204535	0.02888876098557779	1.5735266256751848
-0.264292418060259	0.010996393698048426	1.585281961081001
-0.16995985370562275	0.	1.5731106586072208
-0.0905438717301444	-0.003971502904385852	1.5214115174963405
-0.08804660576039147	-0.007939157295758104	1.431348377555659
-0.1503704168235527	-0.020921288269966285	1.3638167160850563
-0.218406386833557	-0.041711904613371355	1.308904230331838
-0.2788852212248799	-0.06860226936693177	1.2548070260326807
-0.44230330247629085	0.017502732934491123	1.5459386899067011
-0.3567006635912807	0.	1.5736555053963939
-0.264292418060259	-0.010996393698048426	1.585281961081001
-0.17054840490058212	-0.014566575602079766	1.5734790065002606
-0.09174972748851759	-0.012073196365939443	1.5240385769811309
-0.08425441591266476	-0.015194427705503843	1.4365667603821513
-0.14100111428864126	-0.032696202577350786	1.3696656652648598
-0.20397346629336569	-0.05843320102101038	1.3168229120773194
-0.44230330247629085	-0.017502732934491123	1.5459386899067011
-0.3560895648204535	-0.02888876098557779	1.5735266256751848
-0.26427068663480124	-0.032986487512071026	1.5852492651380388
-0.17224031362147044	-0.0294221632321197	1.5745239906125632
-0.09424664937217547	-0.020669600750258765	1.528942992293166
-0.07891358903249537	-0.021346903917400514	1.4451954070550244
-0.12823774400218846	-0.04163117596198487	1.3781757730832334
-0.4400539954616091	-0.05224119030543497	1.5457329618720013
-0.3542698077952396	-0.05748222684016462	1.5731436860246595
-0.26416040538519936	-0.054954553932703126	1.5851619791014777
-0.17482751636014707	-0.04479616583490322	1.5760824395157793
-0.0980906389471033	-0.03011769172248945	1.5355015819684543
-0.07335040287690682	-0.026456001844294034	1.4570571470607774
-0.43566013869073156	-0.08619932986598886	1.545331323564955
-0.35128307844966483	-0.08549641655905464	1.5725175847432962
-0.2638466683406038	-0.07684501322647969	1.584983326489682
-0.17800658731237395	-0.06081431682722134	1.5779318843008439
-0.10317881856319229	-0.04073138024812629	1.54296077559379
-0.4293176360152152	-0.11892216554842402	1.5447522925931698
-0.34719951381609	-0.11267006103868292	1.5716662057402442
-0.26319624600552066	-0.09855714052462425	1.5846725670105273
-0.18143107607864858	-0.07748032222154146	1.5798414494099728
-0.42129058463055263	-0.1500411048757827	1.5440206683741582
-0.3421172931142845	-0.13877601886425683	1.5706135365121323
-0.26208782504507805	-0.119951441870632	1.5841955346367067
-0.4118828634975198	-0.17928850623340897	1.5431648758876342
-0.33615862747848535	-0.16363077838369813	1.5693883440309195
-0.4014105350764629	-0.2064990860203956	1.5422142184352727
-0.4610516334816341	0.3156823537877919	1.4820075531035715
-0.47587570467119455	0.36208960696343745	1.4525027983592333
-0.485568625381882	0.4121522105161854	1.41838287258838
-0.48885897700592035	0.465084410013257	1.3797714869626518
-0.48459372189809646	0.5197652899620347	1.337062918072395
-0.4718894891361374	0.574777508410384	1.290947962226661
-0.4502794504625926	0.6285053355074346	1.2423994019754268
-0.4198208734235074	0.6792843593123846	1.1926092991929322
-0.3811311614781189	0.7255776932131685	1.1428829146572856
-0.3353355347572035	0.7661414010886483	1.0945092096894495
-0.28393647348913925	0.8001425346471132	1.0486330266212187
-0.22863407857651413	0.8272059718481053	1.006159826668132
-0.17114249812901094	0.8473892939856272	0.9677029524926749
-0.11303474281678602	0.8611028448395527	0.9335821258386137
-0.05564092788008267	0.8690022514613898	0.9038563491791135
-0.6838826799939616	0.11463856307110341	0.33832061926424983
-0.6611134907758369	0.1915798791094465	0.3317936752766459
-0.6326456931847618	0.2719609317180678	0.33218818092877145
-0.5982364043211288	0.35426314483405436	0.34069845721502995
-0.5579508141414378	0.4365513147831965	0.3582704171457365
-0.5122312226049525	0.5165811751434414	0.38543795956743176
-0.46192274765888247	0.5919888855197458	0.42218883133340207
-0.40823454932363956	0.6605374075231273	0.46789844299336936
-0.3526332524660033	0.7203677408737726	0.5213564858591169
-0.29668805089512595	0.7701989009632161	0.5808930049106495
-0.24190352541342444	0.8094276013676813	0.6445714214898781
-0.1895755359496574	0.8381167487719733	0.7104048940768681
-0.1407003591958277	0.85688933757145	0.7765493629147339
-0.09594044336429601	0.8667680108759682	0.8414393281400306
-0.7201624444146951	0.1604804509858542	0.4011760220685177
-0.6965905067615277	0.2393922038382197	0.3992351558808083
-0.6667793490088786	0.3210278078787333	0.40463914620608415
-0.6305207929149064	0.40358341335570175	0.4184548075649006
-0.5879794233539154	0.4848626433709985	0.4414156312640378
-0.5397584156695305	0.562438870345084	0.4737642993196383
-0.4869041859972431	0.6338958105101355	0.5151467202045221
-0.43083320577748835	0.6971027623839832	0.5645935013457498
-0.3731879053699114	0.7504614838096332	0.6206051175676857
-0.31565257884446374	0.7930647827051904	0.6813260352039411
-0.25977359195369154	0.8247335350594086	0.7447652716752299
-0.20682222619023544	0.8459379481133321	0.8090105441038395
-0.15772115992300026	0.85763956243526	0.8723926284403158
-0.7516026265256567	0.20593954533766703	0.4733141839851181
-0.7267246100969165	0.28585061791151656	0.47648674488940335
-0.6951001415237373	0.3675340518080329	0.4872577258572273
-0.656602934541555	0.44892354351932107	0.506489185765371
-0.6115454939741465	0.5276248319873257	0.5346301035002442
-0.5607312919810303	0.6011325562432193	0.5715836578392006
-0.5054272563276455	0.6671092610947839	0.6166452681411854
-0.44725034016540405	0.7236662892818395	0.668542127398761
-0.3879858582391949	0.7695784316213816	0.7255730857643105
-0.32938286915536324	0.8043789770593115	0.7858163283971559
-0.272974032684393	0.8283238181236556	0.8473524926585467
-0.2199561496045058	0.8422514535219754	0.9084527738017362
-0.7764836923551555	0.2496725376242228	0.5544237701161466
-0.7497477730361636	0.3293578050758297	0.5630044969600878
-0.7158465831224755	0.4096512125298501	0.5791967591821603
-0.6747909788606042	0.48828341543147397	0.6035865364695714
-0.6270903667530278	0.5627637207187582	0.6362899275974447
-0.5737764255815389	0.6306412279180288	0.6768584956466139
-0.5163353253102116	0.6897998949667178	0.7242758978224186
-0.4565514844269853	0.7387157031540054	0.7770534950271318
-0.39629649830056407	0.776612223213699	0.8334104569266788
-0.3373176641120761	0.8034791953667767	0.8914896922881174
-0.2810719435065103	0.8199677691031961	0.9495596714050043
-0.7931304905549973	0.2901555987571956	0.6435726158757612
-0.7640040847699924	0.3681876729489695	0.6575307650835174
-0.7274482320391248	0.4455110215410167	0.6788174510802722
-0.6836671046343662	0.5197504438978788	0.7076962576576392
-0.6334032885871099	0.5884497575554772	0.7439367710563058
-0.5779224891868083	0.649357624459999	0.786775806605604
-0.5188998489427972	0.7007082724697645	0.8349704421187026
-0.4582268246573665	0.741426560567346	0.8869374865577541
-0.39778592385338885	0.7712069583028413	0.9409495912554018
-0.3392483246862375	0.7904576507398599	0.9953341660930849
-0.8001060030030758	0.32580544290667307	0.739150343651969
-0.7681653880594939	0.40065198447790734	0.7580704195731522
-0.7287521127042419	0.473417071129889	0.7837187701547939
-0.6823073080557889	0.5417443462291371	0.8160249721636784
-0.6298196628228975	0.6033548267548826	0.8544482254019276
-0.5727629452343415	0.6563279366973741	0.8979919280795949
-0.5129405206185059	0.6993380330886225	0.9453042705052852
-0.4522695130632281	0.7317874774849793	0.99483938558677
-0.3925592189632255	0.7538074341482471	1.0450418778857695
-0.7964179636111355	0.35514187039639167	0.8389132737441438
-0.7614404925751098	0.42530038202757414	0.8619918688790651
-0.7192183618641255	0.49206805400838854	0.8909047564258651
-0.6704483501708659	0.5532426627197014	0.9252829726952696
-0.6163445589375923	0.6068510335776476	0.9643523256916965
-0.5585307130546644	0.6513953602825944	1.006995706825257
-0.49885443525616496	0.6860245541015693	1.0518789606362342
-0.4391684354616684	0.7105894451421388	1.0976080319543753
-0.7816883654402731	0.3769656784723617	0.9401426719049591
-0.7437234497674201	0.4411110226206263	0.9662525507094664
-0.6990314107656435	0.5007403678316237	0.9970825350875656
-0.6485491312498544	0.5539270890961301	1.0320387340794783
-0.5936620816047727	0.5990944385428297	1.070219466069575
-0.536061187226561	0.6352053763683365	1.1105059012555212
-0.477545724323205	0.6618605101370625	1.1516901143064697
-0.7562407473270444	0.39051013511985344	1.039900859199382
-0.7156364176699425	0.44762497300216986	1.0677155110580434
-0.6690895288459527	0.4993794694019466	1.099023837445351
-0.6177273159911251	0.5442087579885928	1.1331047039896591
-0.5630275049093207	0.5809719979132094	1.1690385590651116
-0.5066561647470158	0.6090760623173536	1.2058060487371351
-0.7210751800532202	0.3955307625133309	1.1353364139085704
-0.6784510766630083	0.44498880807868635	1.1634853473590097
-0.630874352945354	0.4885769381931438	1.1939089866583
-0.5795884553657035	0.5251309653668589	1.2258583494540214
-0.5260745821915312	0.5539341889741899	1.2584885873785376
-0.677737382891792	0.3923096763519823	1.2239664305215179
-0.6339096117911138	0.4338983619454685	1.2511858033211964
-0.5862381783252085	0.469446575982155	1.2795733152832123
-0.5359986684007999	0.49818364113592073	1.3084349927376449
-0.6281147582811951	0.38158155436687846	1.303880993680004
-0.5839947248309192	0.41546569875015404	1.3291258010177354
-0.5371662663237812	0.44344018198334195	1.35461709162175
-0.5742124418588754	0.3644046237039716	1.3738342220224995
-0.5307046954008804	0.3910494963818118	1.3963368246930667
-0.5179561183483741	0.3420130559140334	1.4332268405938937
-0.39017805986987836	0.23160085389547647	1.5411968604289643
-0.32946315195386816	0.1871002562871525	1.5680222532220989
-0.26043489871316233	0.14086674393412438	1.583531519726896
-0.18476735453024123	0.09468609048163526	1.581613226055553
-0.10920717181158311	0.05269142594209317	1.5505996730749574
-0.06909788014438442	0.031152759186396286	1.471695628169032
-0.11337770762335714	0.04732329285473388	1.3891481957250873
-0.1856604960468406	0.07091600802408	1.3271760550248923
-0.2596065811980882	0.08940396823660283	1.2660162063269254
-0.3280658577193937	0.09987695087576322	1.199344678323371
-0.38709358108546715	0.10138558477740993	1.1268418982534911
-0.43427172690164806	0.09403822872515552	1.0505430369644413
-0.468503349519292	0.07872196554758285	0.9733310729189131
-0.4898554244681879	0.05684074453355344	0.8980993351577412
-0.4992987358106553	0.030045621135382682	0.8272713771555011
-0.4932558862995592	0.05320695771351075	0.7418484223500458
-0.4813946566982778	0.11127322071653818	0.727723094548696
-0.46202873448390913	0.17251806725203192	0.7222007519121595
-0.43478250393237683	0.23449760824122204	0.7270990572683511
-0.39985954954876907	0.29408475197675366	0.7437476673191384
-0.35817121592189927	0.34771988926807046	0.7726634165724969
-0.3113589701942698	0.39183627001748605	0.8133021571132282
-0.26166890118377045	0.4233891745431925	0.8639868274082524
-0.2116769411212507	0.4403577174183169	0.9220698124400494
-0.16392732351503522	0.44206654195689343	0.9843145661435052
-0.12058219903213391	0.4292333606123168	1.0473967678535365
-0.08317563138503052	0.4037430267057894	1.1083941113198386
-0.052520195641249864	0.36824434833578995	1.1651411580741209
-0.028756459448542875	0.3257024691425007	1.216404323770409
-0.011496607889180895	0.27902830314804894	1.2618961038007757
-0.33949106477120694	0.22417029629489663	1.5594233893481986
-0.28619842291467135	0.21088516856160713	1.573929534687856
-0.23157992058225285	0.19117328947232098	1.5831161498465482
-0.17746819466251487	0.1649477071772854	1.584973531231986
-0.1263751209941321	0.13306763436997432	1.5768484807606935
-0.08191075785770094	0.09846891309870826	1.5549146740055768
-0.05035528221850427	0.06979053749139702	1.514193723174015
-0.04078612660832977	0.06599333817250103	1.4587639342682721
-0.047392135165533034	0.0910042156245578	1.4108472214533152
-0.05461009336164854	0.12724297502502685	1.375001511309779
-0.05655710776570817	0.16499336398726194	1.3459021666018383
-0.052336559940283814	0.20040605257594962	1.320725284700713
-0.04260353216903562	0.2316650137843671	1.2984767050036967
-0.0285508065460938	0.2579404986163718	1.2788859211691983
-0.274730194923974	0.17434828297571853	1.57978717055578
-0.21827444878730476	0.15528487249774042	1.5852143231609448
-0.16216963813210492	0.1298618618918224	1.5816348006033405
-0.10975686643732585	0.09944423270388852	1.5650955222143064
-0.06745023553529716	0.06959997115055581	1.529446392957585
-0.04886814653314647	0.05790628038491251	1.4721834023531173
-0.057792201420926205	0.07947582783338401	1.4163897380037342
-0.07299613754363146	0.11811023696335855	1.37467361819494
-0.08309582503014953	0.1611019260017508	1.340602960628861
-0.08537359652004649	0.20335700123520167	1.3103138830740682
-0.07980523857565086	0.24216435267922037	1.282674740163877
-0.06745961969701451	0.27592127460473315	1.2576420316828163
-0.04988778043259783	0.3038251456650606	1.2354763331905263
-0.20233412832136533	0.12291857525781925	1.5846829220829106
-0.14469463987551479	0.0990405667566428	1.5746964487895199
-0.09255559246354486	0.071679135104115	1.5476817728541392
-0.058834643072069905	0.05183246264831412	1.495881696065278
-0.061869977658797204	0.062436124314961705	1.4322478605352558
-0.08435529700306364	0.09838071174731974	1.3828596874973336
-0.1051586330545482	0.14337224034080864	1.3432795535294926
-0.11783659575235175	0.1906636128580177	1.3075056271816154
-0.12074572461234079	0.2366223422030312	1.2737017558284325
-0.11412569718824599	0.2787039647686161	1.2419040202856901
-0.09927556894103269	0.3151817330699554	1.212779466467035
-0.07806142855238211	0.34511093625599437	1.1870331552743367
-0.1264890059861437	0.0732184209594217	1.5642371512075155
-0.07785557639577223	0.05106464022879303	1.5247841395122947
-0.06192597700448251	0.04621886938215038	1.460216231784953
-0.08468874971347161	0.07233282776521271	1.4007885640579603
-0.11592237606114612	0.11413682932277869	1.3550943050677202
-0.14163815692894055	0.16230288650526467	1.3143133866299712
-0.15738614869874865	0.21252998356052122	1.2747127826181377
-0.16167776019274963	0.2616000700447889	1.2358281380301859
-0.15470051123312017	0.30685184595674914	1.1985595054689957
-0.13783146925449397	0.3462961861880242	1.164198209751397
-0.11318745307334738	0.3787338298997451	1.1338937021959343
-0.06933393416318054	0.03803168463736031	1.4981643719007856
-0.07561138932875486	0.047294331690300166	1.429992729612557
-0.11147515036387558	0.0798535043456106	1.3761639077579328
-0.14943779062126633	0.1233135426065088	1.3310120532575767
-0.1801693234095609	0.17259866169482818	1.2871907298640441
-0.19975623800364253	0.22444746243329325	1.2425648420557671
-0.20645372054191843	0.27581253453798293	1.1975838390153446
-0.20016659530722652	0.3238763713641667	1.1538437881135715
-0.18217676752328218	0.3663480120976821	1.1132344720843206
-0.15473828359556654	0.40169887396094556	1.0773910243147098
-0.09418291934645275	0.0486344919788617	1.4067985868234965
-0.13862931670016387	0.08222265907298108	1.3562859431203507
-0.18240647129823775	0.12479714385714973	1.3099534407396993
-0.21834334450297027	0.17336216544169453	1.2623084848910149
-0.24251657575970686	0.22530482992488876	1.2121737008380318
-0.2527288183267755	0.27777581164707615	1.1606020389481695
-0.248418903200256	0.32788605853988423	1.109751456735797
-0.23057984613350585	0.37308602385851547	1.0620851746748812
-0.20143444557886667	0.4114951595774382	1.019771618110115
-0.16385450663174336	0.07901809467050169	1.340107578507574
-0.21272215562022934	0.11881534398709222	1.2919575396334775
-0.25383513148230824	0.16489816276525102	1.2404563313534036
-0.2831025604177333	0.215225627280161	1.1849473549582525
-0.29781401158561505	0.26726438505171135	1.1268364587909618
-0.29682220832290673	0.3182085526358365	1.0686920349982563
-0.28064530068811117	0.36536937956528104	1.0134876200081915
-0.2512687697111895	0.4065614289910956	0.9639447945466671
-0.2387843144690312	0.1064796525650168	1.2772599172566188
-0.28470928151324026	0.14849580625562409	1.2224065764758754
-0.3192009200947555	0.19548817596218795	1.162181902653272
-0.3390817773511736	0.24536191730833448	1.0981228233682012
-0.3425816552807547	0.29557014169920387	1.03302871755635
-0.329607221900664	0.3434571989274791	0.9702631303340883
-0.30170062542556203	0.38665213590689534	0.9130639605410843
-0.30965358739250887	0.1260918225952477	1.2086605328811901