# TIME=0.000000
VARIABLES=X,Y,Z
ZONE N=2562 E=5120 F=FEPOINT ET=TRIANGLE
0.954830002562212	0.5901174455992186	0.7133135964613957
-0.954830002562212	0.5901174455992186	0.7133135964613957
0.954830002562212	-0.5901174455992186	0.7133135964613957
-0.954830002562212	-0.5901174455992186	0.7133135964613957
0.5177256536064103	0.	1.3682451516019345
0.5177288733856786	0.	0.05838008987774579
-0.5177256536064103	6.340310645255617e-17	1.3682451516019345
-0.5177288733856786	6.340350076179366e-17	0.05838008987774579
5.547711454287793e-17	0.9060100362243753	1.1726538097026222
5.547711454287793e-17	-0.9060100362243753	1.1726538097026222
5.547728851052574e-17	0.9060128773316714	0.25397233199044567
5.547728851052574e-17	-0.9060128773316714	0.25397233199044567
0.963204130812924	0.5717361433554687	0.7652586781986482
0.9673250605416819	0.5493384181721055	0.8201667003245992
0.9662915905515375	0.5226578723684768	0.8772691775939325
0.9593108701674897	0.4916095491199356	0.9355196802061495
0.9458134155816756	0.4563460138693396	0.9936419160720529
0.9255610098681822	0.41728891237316146	1.0502331407221719
0.8987198177839743	0.375121194658749	1.1039100770502088
0.8658717449585943	0.33073361819423375	1.1534705377083763
0.8279554980253423	0.28513339956623374	1.1980286620232197
0.7861496234085283	0.23933678397382255	1.237091246936906
0.7417286116580064	0.19426979085576643	1.2705595045878315
0.6959270110664508	0.15069768393534433	1.2986669691375587
0.6498376740384666	0.10919131963446295	1.3218807443716625
0.6043550532674313	0.07012679552876326	1.3407961282328502
0.5601586214074521	0.033707903720607425	1.3560474827670914
0.9958943577839156	-0.5123215677836502	0.7670205284273242
0.9996058484249816	-0.4865746992173961	0.8237234916189732
0.9974913077891865	-0.4565283435129271	0.8825309331639041
0.9887201570989276	-0.42223393045274055	0.9422534776797178
0.9727546880538911	-0.3840094472782132	1.001474427887941
0.9494672567701689	-0.34245357231864265	1.0586816500003506
0.9192035037606637	-0.2984107612598063	1.1124403283985433
0.8827661552111363	-0.2528900113302361	1.1615683477539012
0.8413177401872548	-0.20695362049667254	1.2052661574244254
0.7962267590263599	-0.16160314492988873	1.2431703204763238
0.7489007437038621	-0.11768894350241782	1.2753242575286547
0.7006435329334554	-0.07585951632091653	1.3020887879656546
0.6525619190127924	-0.03654967720271518	1.3240264893198217
0.605523691058169	0.	1.341792116110803
1.0267325634285083	-0.44692645388342206	0.7686825469768849
1.0296008469721751	-0.4176459636442141	0.8270276995798941
1.025935741678198	-0.3841745260291131	0.8873253910680406
1.0149043183540942	-0.34673274566738777	0.9482427501993163
0.9960472908210827	-0.30582577061351734	1.00823515321422
0.969396728381271	-0.26223137323124535	1.0657083634293743
0.935518175661733	-0.21693368836514046	1.1192138359315034
0.8954558753284444	-0.17101683974859025	1.1676284417416716
0.8505922525338709	-0.12554100594294237	1.2102691339936245
0.802461102786232	-0.08143425059018541	1.2469155325036037
0.7525650273161502	-0.03942157281466073	1.277749299159381
0.7022368977491198	0.	1.3032413049362948
0.6525619190127924	0.03654967720271518	1.3240264893198217
1.0547429675490103	-0.3756428602594942	0.7701921106123215
1.0562584788615406	-0.3427674940495295	0.8299635952183504
1.0505307561450585	-0.30596577307005307	0.8914688140798471
1.0367727216476998	-0.2656529346121934	0.9532400825801248
1.0146575871650259	-0.22252851814500388	1.0136291855091273
0.9844250613400073	-0.17753105595701532	1.0709968736420161
0.9468890293212228	-0.13174225862087904	1.1239235926227606
0.9033366679564041	-0.08626102456985564	1.1713821638580395
0.8553454533502547	-0.04208089497530612	1.2128265576042436
0.8045717435656248	0.	1.2481807528533764
0.7525650273161502	0.03942157281466073	1.277749299159381
0.7006435329334554	0.07585951632091653	1.3020887879656546
1.0788805930774197	-0.29885289057258213	0.7714928604540748
1.078486844360932	-0.2624856309785352	0.8324112518993445
1.0701836767404758	-0.22263543431338237	0.8947781489419299
1.053287692840174	-0.17992304924172717	0.9570112395948365
1.0276597980908357	-0.13522806965595713	1.0173935852056157
0.9937842639498077	-0.0896094690012004	1.0742858876669694
0.9527318426849668	-0.044185071092187764	1.1263400733610038
0.9060100362243753	0.	1.1726538097026222
0.8553454533502547	0.04208089497530612	1.2128265576042436
0.802461102786232	0.08143425059018541	1.2469155325036037
0.7489007437038621	0.11768894350241782	1.2753242575286547
1.0981122599828954	-0.2172715208984206	0.7725292160525256
1.095251949739028	-0.17771065904216002	0.8342568770378772
1.0839153706955518	-0.13529522057435112	0.8970896364592272
1.0635836253007878	-0.09084090405952029	0.9593610489727402
1.0343510584265176	-0.04536947839980492	1.0193295591036806
0.9969637892240749	0.	1.0754023925071583
0.9527318426849668	0.044185071092187764	1.1263400733610038
0.9033366679564041	0.08626102456985564	1.1713821638580395
0.8505922525338709	0.12554100594294237	1.2102691339936245
0.7962267590263599	0.16160314492988873	1.2431703204763238
1.1115198558955093	-0.13195453494109405	0.7732516341651077
1.1056942093652584	-0.08970253243336725	0.8354064282895446
1.0909824493964508	-0.04539242033227477	0.8982789324828238
1.0670832825465082	0.	0.9601595144782015
1.0343510584265176	0.04536947839980492	1.0193295591036806
0.9937842639498077	0.0896094690012004	1.0742858876669694
0.9468890293212228	0.13174225862087904	1.1239235926227606
0.8954558753284444	0.17101683974859025	1.1676284417416716
0.8413177401872548	0.20695362049667254	1.2052661574244254
1.118410460039131	-0.04425750267658374	0.7736229918411542
1.1092419047341346	0.	0.8357969609308465
1.0909824493964508	0.04539242033227477	0.8982789324828238
1.0635836253007878	0.09084090405952029	0.9593610489727402
1.0276597980908357	0.13522806965595713	1.0173935852056157
0.9844250613400073	0.17753105595701532	1.0709968736420161
0.935518175661733	0.21693368836514046	1.1192138359315034
0.8827661552111363	0.2528900113302361	1.1615683477539012
1.118410460039131	0.04425750267658374	0.7736229918411542
1.1056942093652584	0.08970253243336725	0.8354064282895446
1.0839153706955518	0.13529522057435112	0.8970896364592272
1.053287692840174	0.17992304924172717	0.9570112395948365
1.0146575871650259	0.22252851814500388	1.0136291855091273
0.969396728381271	0.26223137323124535	1.0657083634293743
0.9192035037606637	0.2984107612598063	1.1124403283985433
1.1115198558955093	0.13195453494109405	0.7732516341651077
1.095251949739028	0.17771065904216002	0.8342568770378772
1.0701836767404758	0.22263543431338237	0.8947781489419299
1.0367727216476998	0.2656529346121934	0.9532400825801248
0.9960472908210827	0.30582577061351734	1.00823515321422
0.9494672567701689	0.34245357231864265	1.0586816500003506
1.0981122599828954	0.2172715208984206	0.7725292160525256
1.078486844360932	0.2624856309785352	0.8324112518993445
1.0505307561450585	0.30596577307005307	0.8914688140798471
1.0149043183540942	0.34673274566738777	0.9482427501993163
0.9727546880538911	0.3840094472782132	1.001474427887941
1.0788805930774197	0.29885289057258213	0.7714928604540748
1.0562584788615406	0.3427674940495295	0.8299635952183504
1.025935741678198	0.3841745260291131	0.8873253910680406
0.9887201570989276	0.42223393045274055	0.9422534776797178
1.0547429675490103	0.3756428602594942	0.7701921106123215
1.0296008469721751	0.4176459636442141	0.8270276995798941
0.9974913077891865	0.4565283435129271	0.8825309331639041
1.0267325634285083	0.44692645388342206	0.7686825469768849
0.9996058484249816	0.4865746992173961	0.8237234916189732
0.9958943577839156	0.5123215677836502	0.7670205284273242
0.9873453669613541	0.533936381728619	0.7133135964613957
1.0183858704488968	0.4720478283643972	0.7133135964613957
1.0470704624916802	0.4044531863775575	0.7133135964613957
1.072433182251465	0.3314000648755164	0.7133135964613957
1.093486393464067	0.2534293603796696	0.7133135964613957
1.1093069458457145	0.1713972966296533	0.7133135964613957
1.1191353576463396	0.08645799361134868	0.7133135964613957
1.1224700144741064	0.	0.7133135964613957
1.1191353576463396	-0.08645799361134868	0.7133135964613957
1.1093069458457145	-0.1713972966296533	0.7133135964613957
1.093486393464067	-0.2534293603796696	0.7133135964613957
1.072433182251465	-0.3314000648755164	0.7133135964613957
1.0470704624916802	-0.4044531863775575	0.7133135964613957
1.0183858704488968	-0.4720478283643972	0.7133135964613957
0.9873453669613541	-0.533936381728619	0.7133135964613957
0.963204411027089	-0.5717363096842467	0.6613685987751293
0.9673256443533836	-0.5493387497154614	0.6064605410786236
0.9662925500979375	-0.5226583913779401	0.5493578539976265
0.9593122141691378	-0.49161023786856217	0.4911073045170359
0.9458150631211971	-0.45634680879155254	0.4329849602160535
0.9255630188111009	-0.41728981810449267	0.3763934632773589
0.8987221169326068	-0.37512215431198537	0.32271634337738897
0.8658743055839362	-0.33073459626620466	0.27315568779102795
0.8279582673853714	-0.28513435328541503	0.2285972737996793
0.7861525961539888	-0.2393376890017166	0.1895345508036823
0.7417317480944944	-0.19427061233528195	0.15606615185068873
0.6959302430038187	-0.15069838378671985	0.1279585355231332
0.6498409644728602	-0.10919187252157303	0.10474464751178525
0.6043583891848799	-0.07012718261446652	0.08582919866274796
0.5601619950146057	-0.03370810672957806	0.07057781378494421
0.9958946401172942	0.5123217130254403	0.6596066551071933
0.9996064613297886	0.48657499755896	0.6029036497008887
0.9974923611957031	0.45652882563234837	0.5440960650792441
0.9887215036457042	0.4222345054968862	0.4843734553022496
0.9727564644818641	0.3840101485496976	0.4251523660535437
0.9494693676976779	0.3424543336873589	0.3679449469300071
0.9192059121961761	0.2984115431357149	0.3141860876359239
0.8827688159052023	0.25289077355129375	0.26505772796353844
0.8413206314586471	0.20695433171320096	0.2213597910331262
0.7962298462319024	0.1616037715128553	0.18345548357081154
0.7489039448625536	0.11768944656105083	0.15130135814328427
0.7006467932591967	0.07585986932029802	0.12453667239315691
0.6525650941534203	0.03654985504080479	0.10259882679987453
0.6055270369776392	0.	0.08483320340020684
1.0267328561986577	0.44692658132335084	0.6579446370002023
1.0296015173470834	0.4176462355742298	0.5995994295453771
1.0259368834067182	0.38417495356369963	0.5393016893192524
1.01490575330274	0.3467332359044227	0.47838428326385973
0.9960491753445265	0.30582634923648006	0.4183915829891509
0.9693989282707924	0.2622319683230517	0.36091822341659374
0.9355206780704998	0.21693426863902257	0.3074125180587146
0.8954586279202768	0.17101736544680637	0.25899764257927926
0.8505952392573041	0.1255414467608115	0.21635684493297158
0.8024641463073395	0.08143455944859572	0.1797101872764031
0.7525681411693373	0.039421735927462544	0.14887622621162278
0.7022400436045375	0.	0.12338408376120258
0.6525650941534203	-0.03654985504080479	0.10259882679987453
1.0547432803393855	0.37564297165864535	0.6564351676380593
1.05625921235782	0.34276773207713984	0.5966635177410664
1.0505319359936227	0.30596611669947654	0.5351582722388833
1.036774194088578	0.26565331189665714	0.4733868328476555
1.0146595388628308	0.22252894617947175	0.41299754303760094
0.984427331557242	0.17753146536762338	0.3556296979651059
0.9468915992040208	0.13174261617298252	0.30270268836200476
0.9033394038487529	0.08626128582447476	0.2552438902693859
0.8553484852976496	0.04208104413966936	0.21379942507701988
0.8045749063851855	0.	0.17844501962420978
0.7525681411693373	-0.039421735927462544	0.14887622621162278
0.7006467932591967	-0.07585986932029802	0.12453667239315691
1.0788809175233902	0.298852980445008	0.6551344175255986
1.0784876537484298	0.2624858279698933	0.594215939047521
1.0701848805669278	0.22263568475116308	0.5318489474885532
1.0532892769210613	0.1799233198350944	0.4696157260444094
1.0276617352625939	0.1352283245652159	0.40923307519312146
0.9937865795391452	0.08960967779775564	0.3523406704499843
0.9527344466518282	0.044185191856977744	0.30028618001583807
0.9060128773316714	0.	0.25397233199044567
0.8553484852976496	-0.04208104413966936	0.21379942507701988
0.8024641463073395	-0.08143455944859572	0.1797101872764031
0.7489039448625536	-0.11768944656105083	0.15130135814328427
1.0981125950006012	0.21727158718472772	0.6540980614839709
1.095252782504008	0.17771079416286303	0.5923702094357784
1.0839165898467615	0.1352953727498219	0.5295374680901338
1.063585257926098	0.09084104350239591	0.467265889222115
1.0343530659588778	0.04536956645568819	0.40729719720466573
0.9969661205210305	0.	0.35122416025212866
0.9527344466518282	-0.044185191856977744	0.30028618001583807
0.9033394038487529	-0.08626128582447476	0.2552438902693859
0.8505952392573041	-0.1255414467608115	0.21635684493297158
0.7962298462319024	-0.1616037715128553	0.18345548357081154
1.1115201892108988	0.13195457451076706	0.6533755487493087
1.105695087788193	0.08970260369788242	0.591220744823824
1.0909836456340762	0.04539247010403888	0.5283480848306742
1.0670849318832196	0.	0.46646741430665584
1.0343530659588778	-0.04536956645568819	0.40729719720466573
0.9937865795391452	-0.08960967779775564	0.3523406704499843
0.9468915992040208	-0.13174261617298252	0.30270268836200476
0.8954586279202768	-0.17101736544680637	0.25899764257927926
0.8413206314586471	-0.20695433171320096	0.2213597910331262
1.1184108076357906	0.04425751643160539	0.653004284987796
1.1092427916589922	0.	0.5908302100985251
1.0909836456340762	-0.04539247010403888	0.5283480848306742
1.063585257926098	-0.09084104350239591	0.467265889222115
1.0276617352625939	-0.1352283245652159	0.40923307519312146
0.984427331557242	-0.17753146536762338	0.3556296979651059
0.9355206780704998	-0.21693426863902257	0.3074125180587146
0.8827688159052023	-0.25289077355129375	0.26505772796353844
1.1184108076357906	-0.04425751643160539	0.653004284987796
1.105695087788193	-0.08970260369788242	0.591220744823824
1.0839165898467615	-0.1352953727498219	0.5295374680901338
1.0532892769210613	-0.1799233198350944	0.4696157260444094
1.0146595388628308	-0.22252894617947175	0.41299754303760094
0.9693989282707924	-0.2622319683230517	0.36091822341659374
0.9192059121961761	-0.2984115431357149	0.3141860876359239
1.1115201892108988	-0.13195457451076706	0.6533755487493087
1.095252782504008	-0.17771079416286303	0.5923702094357784
1.0701848805669278	-0.22263568475116308	0.5318489474885532
1.036774194088578	-0.26565331189665714	0.4733868328476555
0.9960491753445265	-0.30582634923648006	0.4183915829891509
0.9494693676976779	-0.3424543336873589	0.3679449469300071
1.0981125950006012	-0.21727158718472772	0.6540980614839709
1.0784876537484298	-0.2624858279698933	0.594215939047521
1.0505319359936227	-0.30596611669947654	0.5351582722388833
1.01490575330274	-0.3467332359044227	0.47838428326385973
0.9727564644818641	-0.3840101485496976	0.4251523660535437
1.0788809175233902	-0.298852980445008	0.6551344175255986
1.05625921235782	-0.34276773207713984	0.5966635177410664
1.0259368834067182	-0.38417495356369963	0.5393016893192524
0.9887215036457042	-0.4222345054968862	0.4843734553022496
1.0547432803393855	-0.37564297165864535	0.6564351676380593
1.0296015173470834	-0.4176462355742298	0.5995994295453771
0.9974923611957031	-0.45652882563234837	0.5440960650792441
1.0267328561986577	-0.44692658132335084	0.6579446370002023
0.9996064613297886	-0.48657499755896	0.6029036497008887
0.9958946401172942	-0.5123217130254403	0.6596066551071933
0.9254269196705546	0.6336404147493904	0.7454346769635143
0.89023080154859	0.6773687285889018	0.7795037205678326
0.848801754534005	0.7204656584763356	0.8151964499499668
0.800906359406345	0.7619560633246886	0.8520437597821795
0.7465963040243576	0.8007838874301519	0.8894398924939533
0.686268394040646	0.8358983336322652	0.9266739826246122
0.6206852254553732	0.8663597138811586	0.9629854934232812
0.5509424995479328	0.8914435810957126	0.9976353839562975
0.4783826932142378	0.910720103990807	1.0299796252491862
0.404468942094112	0.9240905596753778	1.0595279922104726
0.33064634868211346	0.9317725343814947	1.085977365898784
0.2582185691563212	0.9342436778369372	1.109212831550154
0.18826277134695907	0.9321580474723387	1.129285127836544
0.12158771725991413	0.9262597199850577	1.1463702462974816
0.05873372645304039	0.9173057040747115	1.1607263046298166
0.5433765279157197	0.09108565867960486	1.359065016340464
0.5238541751533913	0.1518043739042295	1.3606656555737302
0.5013793617310202	0.2155323269082245	1.3605692894247579
0.4758003290035564	0.28175904984778677	1.3584785469645002
0.44705514984064887	0.3497844406658782	1.354088972537807
0.4151992856894102	0.4187252269187998	1.3471072763380614
0.38042866231452666	0.487548060719572	1.3372781540258316
0.34308954291163624	0.5551305679507413	1.3244186881212032
0.3036688756671578	0.6203421271484278	1.3084555606600097
0.26276513170481614	0.6821353776800482	1.2894544692124554
0.22104347997074117	0.7396283021708829	1.2676333172214096
0.17918177241900646	0.7921657390376415	1.2433523036413137
0.1378203311557653	0.8393494724741513	1.217081960901214
0.09751971738424682	0.8810358644828474	1.1893568830386463
0.5877125901691584	0.1309654262755478	1.3429528117722678
0.567999155780527	0.1952001475195218	1.3434695588693129
0.5449639598462982	0.2623785299626033	1.3420276763592138
0.5184353961391206	0.33183985227665463	1.3382973181973692
0.48835746143509645	0.40271186415114635	1.3319559899146152
0.45482260841432665	0.47393409098891964	1.3227163828675828
0.4180945165260144	0.5443131729917018	1.3103622462264797
0.378611802089428	0.6126067572517387	1.2947879857389992
0.33696780716068797	0.6776247486027905	1.2760329938003125
0.2938674486837784	0.7383304935689012	1.254299784306967
0.2500687759101517	0.7939225231220727	1.2299478908648704
0.20631966246070932	0.8438823773075113	1.2034629514219608
0.16330126599695505	0.8879824773234418	1.1754084188607985
0.6332029392266119	0.17349796396214628	1.3228474339964802
0.6131195437587886	0.2411650823462604	1.321922233192645
0.5893025097273158	0.3115935765254433	1.3187547979274163
0.561570443016066	0.3839492331701302	1.312997292360544
0.5298890892861378	0.45717390523089196	1.3043329322233248
0.4944087689366879	0.5300314274417716	1.2925129852465898
0.45548347799195876	0.6011888805757659	1.2773988872624256
0.41366519412777886	0.6693243786663026	1.2590003710650015
0.3696680907720784	0.7332447394035124	1.2374984944850356
0.3243091243763897	0.7919884916474981	1.21324412770392
0.27843505863262114	0.8448949835924923	1.1867293290034326
0.23285101924006063	0.8916282166315802	1.1585377452557948
0.6790853636656581	0.21835483176164774	1.2980650133747975
0.6583733773619076	0.2892178120251911	1.29530257182324
0.6334815375568206	0.36251689411364546	1.2900142116662
0.6042355463692493	0.437229016908994	1.281859719656154
0.5706474848579187	0.5121107241054473	1.270561737580608
0.5329519021496478	0.5857707410203454	1.2559501869573233
0.4916186059781639	0.6567795115774444	1.2380030106647812
0.4473312669811013	0.723797080290874	1.2168741969454109
0.4009326039982776	0.7856974822770387	1.1928969552971183
0.353347026255029	0.8416605904347304	1.166558857998597
0.3054952221201959	0.8912175033499219	1.1384523086474303
0.72437389383683	0.2650019680156682	1.2679879676692907
0.7026925218327371	0.3386404988791758	1.2629951676986753
0.6763696365502954	0.41422896427170314	1.2552275306393186
0.6452651686108022	0.49055579176457204	1.2443872092232562
0.6094674015309839	0.5662126344005418	1.2302771968923165
0.5693255733943267	0.6396980716287124	1.2128444989408205
0.5254480518007608	0.7095507878833527	1.1922116074614424
0.47866014967714887	0.7744883742263347	1.168685557139769
0.42992876641835254	0.8335238537967832	1.1427369865984716
0.38026787545813207	0.8860342988118718	1.1149534469074225
0.7678876569219587	0.31268604063337396	1.232173712686245
0.7448303322874893	0.3884811205620338	1.224617526710376
0.7166868093237625	0.465579123919713	1.2141162872517992
0.6833852568977871	0.5426002255137088	1.2004548200621379
0.645125391588519	0.6180174133218814	1.1835533374618636
0.6023977376552949	0.6902863872674289	1.1635022622073934
0.5559620632795796	0.757993178891405	1.1405751757806906
0.5067813480219814	0.8199894832477838	1.1152141051274331
0.45592591260736903	0.8754866163936768	1.0879871664816396
0.808329511474261	0.36045351526216723	1.1904740829294103
0.7834620817710498	0.43760047689935255	1.1801491743140893
0.7531242169230298	0.5152654430114761	1.1668327360822623
0.7173512719601518	0.5919461621517238	1.150426857249978
0.6764847388549895	0.6660648772194693	1.1309923805314739
0.6311727619453397	0.7361153094327785	1.1087665820596249
0.5823228839369468	0.8008103538076077	1.0841533833257695
0.5310132563853665	0.8591974849497858	1.057687868052367
0.8444098277283762	0.4072128199568028	1.1431363982497325
0.8173287495328684	0.4847671814522298	1.130024955828741
0.7845028066566504	0.5619664837949504	1.1140311842935742
0.7461085458686021	0.637252777081465	1.0951934876507732
0.7026482449026962	0.7090778892853937	1.0737136784108627
0.6549253772984729	0.7760534257896716	1.0499531003915308
0.6039718491171582	0.8370823898206615	1.0244030511638167
0.8749992578166623	0.45183505333121937	1.0908495290736413
0.8453985933430138	0.5287901973370087	1.0751525091932392
0.809931730455949	0.6044979937206781	1.0568448123737748
0.7689371967970949	0.6774224581096382	1.0360979655378781
0.7230774603804833	0.7461229747042584	1.013230574632717
0.673288014454052	0.8093923279388239	0.9886849935442499
0.8992751774448031	0.49327865732086557	1.0347082441308286
0.8670046425742358	0.5686590761936842	1.0168344173393535
0.8289247764320632	0.6419559257256634	0.9967610356423509
0.785537172264881	0.7117289686916344	0.9747678679427978
0.7376425911124391	0.7767063155921977	0.9512482005033189
0.9168227765014828	0.5307047475922528	0.9760977765421901
0.8819190098226033	0.6036557998377416	0.9566104539285518
0.8414410389893612	0.6738073862280848	0.9354276841627065
0.7960332840711414	0.7398726588391541	0.9128974333763006
0.9276642282269826	0.5635587342447584	0.916523583083128
0.8903471908849623	0.63341106017414	0.8960623718848794
0.8478441306969935	0.6999102124986483	0.8744448877486928
0.9322132136199096	0.5915977790751568	0.8574349251382578
0.892851097359994	0.6578968963197804	0.8366336918519528
0.9311755689712592	0.6148671492710226	0.8000825520309369
0.963204411027089	0.5717363096842467	0.6613685987751293
0.9673256443533836	0.5493387497154614	0.6064605410786236
0.9662925500979375	0.5226583913779401	0.5493578539976265
0.9593122141691378	0.49161023786856217	0.4911073045170359
0.9458150631211971	0.45634680879155254	0.4329849602160535
0.9255630188111009	0.41728981810449267	0.3763934632773589
0.8987221169326068	0.37512215431198537	0.32271634337738897
0.8658743055839362	0.33073459626620466	0.27315568779102795
0.8279582673853714	0.28513435328541503	0.2285972737996793
0.7861525961539888	0.2393376890017166	0.1895345508036823
0.7417317480944944	0.19427061233528195	0.15606615185068873
0.6959302430038187	0.15069838378671985	0.1279585355231332
0.6498409644728602	0.10919187252157303	0.10474464751178525
0.6043583891848799	0.07012718261446652	0.08582919866274796
0.5601619950146057	0.03370810672957806	0.07057781378494421
0.5007408736915056	0.054014354885467845	0.05477030031427943
0.4812991898823431	0.11125115379092364	0.052387338131222094
0.4592298662109145	0.17147299081216627	0.051471893309109396
0.4344065884876667	0.23429486026519222	0.05228344078753877
0.4067711904873278	0.2991680573860209	0.05509533119427745
0.3763569848994678	0.3653750030629035	0.06018484881647068
0.3433096685159604	0.43204530092163435	0.06781542866882306
0.3079019123486239	0.49819575776794595	0.07821029908417598
0.2705309408637982	0.5627934104620907	0.09151940989518681
0.2317002394938636	0.62483130601618	0.10778603283019228
0.19198502690543442	0.6834041753037297	0.12692155306838293
0.15198987242330653	0.7377743949636751	0.1486981968857839
0.11230357951960228	0.7874144022321914	0.1727617618639723
0.07345988982452198	0.8320241071956873	0.19866361305200275
0.03590868891954026	0.8715214639023695	0.2259032419634357
0.93117611380429	0.614867509031248	0.6265446708613928
0.892851820472466	0.6578974291448534	0.5899934749990269
0.8478449395606397	0.6999108802297865	0.5521821645895343
0.7960342342793374	0.7398735420095924	0.5137296623399745
0.7376436513601793	0.7767074319880318	0.4753788196030202
0.6732891286970657	0.8093936674246418	0.4379418290411171
0.6039730355629273	0.8370840341901156	0.40222371456798633
0.5310144336371737	0.8591993897831959	0.3689387295308115
0.4559270250957898	0.8754887526370803	0.33863929362625544
0.38026885138164007	0.8860365727396919	0.3116728758746736
0.30549608875922707	0.8912200315854482	0.28817399639289
0.23285171579235192	0.8916308838549374	0.26808837416355646
0.16330176816653225	0.88798520796844	0.25121766851231464
0.09752003754769839	0.8810387569797793	0.2372691640947624
0.9322140318305672	0.591598298325046	0.5691922490184317
0.890348192397897	0.6334117726707662	0.5305647290345187
0.8414422178722536	0.673808330251449	0.49119930006931545
0.7855384816481766	0.7117301550467243	0.45185898830294213
0.7230788146243624	0.7461243721098297	0.41339606681918273
0.6549267975545638	0.7760551087212593	0.37667350453944115
0.5823242479993034	0.8008122296659819	0.3424730305303507
0.5067826868019812	0.8199916494394255	0.31141229449502705
0.429930002262669	0.8335262497883934	0.2838893487222871
0.35334810805943123	0.8416631672559975	0.26006721663897214
0.2784359406684987	0.8448976600790381	0.2398966832642755
0.20632034443895086	0.8438851667140704	0.22316291590136172
0.13782082493036493	0.8393524796462154	0.20954398929078155
0.9276653809665514	0.563559434537421	0.5101034790974297
0.8819202978329347	0.6036566814548722	0.47001642725339066
0.8289262473039364	0.6419570648337487	0.4298658095841472
0.7689387339626312	0.6774238123300614	0.3905286525263967
0.702649879154337	0.7090795384913974	0.3529128822946117
0.6311743985009353	0.7361172180918673	0.3178598418928116
0.5559636509003512	0.7579953434378641	0.28605114702328516
0.4786616271347262	0.7744907648028592	0.2579405385825384
0.40093388968791555	0.7857000018105	0.23372896874617966
0.32431027551887937	0.7919913028283608	0.21338185414099686
0.2500696920429264	0.793925431675695	0.19667788546835863
0.17918246760344	0.7921688124601395	0.1832734999983774
0.9168243059481954	0.5307056329156243	0.45052908738876163
0.8670062756448765	0.5686601473072587	0.40979223994868486
0.8099335217828864	0.6044993306895843	0.3697817856333834
0.746110408242975	0.6372543677390814	0.3314329286264679
0.6764865609256163	0.6660666712248305	0.29563378777197613
0.6023995631162603	0.6902884790595725	0.26312380183882356
0.5254497868848036	0.7095531308937518	0.2344143978689346
0.44733286906258524	0.7237996725127597	0.20975175595138973
0.36966949119845766	0.7332475171798506	0.1891273045198052
0.29386857042567616	0.7383333119016317	0.17232582358567683
0.22104440451955856	0.7396313957815707	0.158992347169713
0.8992769646237913	0.4932796376406539	0.3919183849714527
0.8454005155237102	0.528791399645976	0.3514739628355661
0.7845048717751218	0.5619679631107108	0.3125952236469851
0.717353378414579	0.5919479003623643	0.27619942856409696
0.6451274212483935	0.618019357696048	0.24307271356036342
0.5693275916058523	0.6397003393048567	0.2137814837142018
0.4916204725915533	0.6567820052858094	0.1886227898014059
0.4136668442260107	0.6693270485814644	0.16762525446059828
0.33696919866150554	0.677627546838621	0.15059255245693026
0.2627663024327339	0.6821384168767832	0.13717104951137205
0.8750014132327376	0.4518361663522061	0.33577690606521915
0.8173309445043272	0.48476848331531497	0.29660120962339476
0.7531265250249914	0.5152670221469667	0.2597933408148181
0.6833875601051549	0.5426020542345139	0.22617110875338886
0.6094695651339068	0.5662146444494922	0.1963485121747499
0.5329540107547486	0.5857730586012891	0.17067545997033617
0.45548543062401436	0.6011914578386885	0.14922670357672052
0.3786135439827812	0.6126095756943565	0.1318375487384984
0.3036703143648788	0.6203450661549447	0.11816985534206226
0.8444121889239168	0.407213958632672	0.2834898621002335
0.7834646002835879	0.43760188360723723	0.2464769783957128
0.7166893599173246	0.46558078085423543	0.21250969122098895
0.6452675992187779	0.49055763960771936	0.1822385256969743
0.5706498978859317	0.5121128896061388	0.1560639188460875
0.49441101645651847	0.5300338368977093	0.13411254760229618
0.4180965217775092	0.5443157836090637	0.11626317249650531
0.3430912127901867	0.5551332698711211	0.10220662424145965
0.8083321712833738	0.36045470133484053	0.23615194780239945
0.7448330267255852	0.3884825258999818	0.20200829796399877
0.6763723102566834	0.41423060172934173	0.17139812650998443
0.6042381495771291	0.43723090060820524	0.14476581309712144
0.5298915606743405	0.4571760374774674	0.12229250173522344
0.45482491311662016	0.4739364925339754	0.10390900045118201
0.38043074285042183	0.4875507270834437	0.0893471923201914
0.767890496188337	0.31268719679072865	0.19445206763364808
0.7026952886855777	0.33864183227663935	0.1636304125049315
0.6334842675511758	0.3625184563834449	0.13661125068118452
0.5615731871974586	0.38395110938415555	0.11362813355351364
0.4883600416588882	0.40271399186867934	0.09466935846057156
0.41520163001141575	0.41872759114917685	0.07951802301401245
0.7243769283082143	0.26500307813420726	0.15863769661771943
0.6583764125805956	0.28921914537088544	0.13132296101325913
0.5893054784272305	0.31159514622489093	0.1078706213679177
0.5184382418397517	0.3318416737511992	0.08832802376720528
0.44705782266708693	0.3497865319360514	0.07253632867898019
0.6790885151755236	0.21835584510613035	0.12856049806943037
0.6131226483944698	0.24116630352690507	0.10470315826990384