# TIME=0.000000
VARIABLES=X,Y,Z
ZONE N=1962 E=3920 F=FEPOINT ET=TRIANGLE
0.954830044761444	0.5901173773194678	0.7133136320199726
-0.954830044761444	0.5901173773194678	0.7133136320199726
0.954830044761444	-0.5901173773194678	0.7133136320199726
-0.954830044761444	-0.5901173773194678	0.7133136320199726
0.5174527587142979	0.	1.3683166430939742
0.517456109411833	0.	0.05830863281143572
-0.5174527587142979	6.336968646694325e-17	1.3683166430939742
-0.517456109411833	6.337009680904438e-17	0.05830863281143572
5.5472180233966346e-17	0.9059294528444974	1.1727249756652385
5.5472180233966346e-17	-0.9059294528444974	1.1727249756652385
5.547235297173664e-17	0.9059322738663695	0.25390114852816836
5.547235297173664e-17	-0.9059322738663695	0.25390114852816836
0.9640738591351684	0.5687895298729886	0.772946980419884
0.9675890970713735	0.5421576368444435	0.8363209389240666
0.9640573051051801	0.5098779121455969	0.9021971111757524
0.9524003559663308	0.47194466699119936	0.9688816185616801
0.9320027116474228	0.4287850304094374	1.0343579078517198
0.9028914862568574	0.3812832074505506	1.096531970312997
0.865803910604755	0.33070769393298366	1.1535399632970944
0.8221016753449192	0.27854939623254615	1.204025529254836
0.7735534301065762	0.22631530420175908	1.2472955831179555
0.7220573355940035	0.17534031204627404	1.2833154130926059
0.6693898976702339	0.1266656648431047	1.3125708629466117
0.6170394621549452	0.08099718360067414	1.3358681293168155
0.566134879132243	0.03872855746233341	1.3541425902359567
1.0012766881042618	-0.4998558543878374	0.7752464309162996
1.004036073574909	-0.4688162949337084	0.8409386932350305
0.9987189175447518	-0.4321717067624168	0.9089326703360183
0.9842271077366692	-0.3901726406900528	0.9772886532604899
0.9600724689311008	-0.3435437129397296	1.043774525397906
0.9265545600110331	-0.29345694464182986	1.1061741854767713
0.8847786877139046	-0.24139671213227423	1.1626361911947276
0.8364881314743818	-0.18894934653418385	1.211947017612192
0.7837661097640194	-0.13758192321936608	1.2536379876286987
0.7287100343773254	-0.08847785574009759	1.287912887946802
0.6731747366881882	-0.04246065122649063	1.3154545575049008
0.618631805212287	0.	1.3371983688412723
1.0358038911415615	-0.42307564316774143	0.77738031844396
1.03712941306291	-0.3874149026692909	0.8451301705918488
1.0293115930146273	-0.34643006192424447	0.9148726322003136
1.0113136653632187	-0.3006829018573237	0.9844326547575037
0.9828712226716285	-0.25121557368292685	1.051404808126294
0.9446413145296769	-0.19945685457044757	1.1135202306445606
0.8981421073331145	-0.14702564331963375	1.16901680101582
0.8454893660237189	-0.0954913145877801	1.2168813100161586
0.7890253779231461	-0.04616833413138083	1.2568899679496368
0.7309682632437209	0.	1.2894680185069398
0.6731747366881882	0.04246065122649063	1.3154545575049008
1.0661545071020464	-0.33870074044797144	0.7792558630097677
1.0652596726856478	-0.29844207946488377	0.8486917236533121
1.0541950885863394	-0.25343204251779167	0.9197004195470299
1.0320899257617906	-0.20457333094448535	0.9899051922137047
0.9990040307144096	-0.15320336702861428	1.0567938869891884
0.9560144473723106	-0.10092917449005047	1.1181284853398603
0.9050542207856093	-0.049385702245636445	1.1723085679006997
0.8485546119137095	0.	1.2185577008157247
0.7890253779231461	0.04616833413138083	1.2568899679496368
0.7287100343773254	0.08847785574009759	1.287912887946802
1.0907536146673231	-0.24751102495106866	0.7807759405330584
1.0868145326817527	-0.20298725993273284	0.8514201360377114
1.071822858123116	-0.15460190943982113	0.9231184343054704
1.0451873812701502	-0.10358467160210005	0.99335185592811
1.0073738384460866	-0.05149564893666812	1.0595864243352078
0.9598975640034171	0.	1.1196999466313748
0.9050542207856093	0.049385702245636445	1.1723085679006997
0.8454893660237189	0.0954913145877801	1.2168813100161586
0.7837661097640194	0.13758192321936608	1.2536379876286987
1.1081315889150107	-0.1508726915700291	0.7818496833962322
1.1003929184685604	-0.10276162400933966	0.8531385542381413
1.0809749078810866	-0.05197403237032072	0.9248923589436036
1.0496652016192376	0.	0.994529678965834
1.0073738384460866	0.05149564893666812	1.0595864243352078
0.9560144473723106	0.10092917449005047	1.1181284853398603
0.8981421073331145	0.14702564331963375	1.16901680101582
0.8364881314743818	0.18894934653418385	1.211947017612192
1.1171379573006173	-0.050699672855903155	0.7824061588872132
1.1050334080435615	0.	0.8537257627621775
1.0809749078810866	0.05197403237032072	0.9248923589436036
1.0451873812701502	0.10358467160210005	0.99335185592811
0.9990040307144096	0.15320336702861428	1.0567938869891884
0.9446413145296769	0.19945685457044757	1.1135202306445606
0.8847786877139046	0.24139671213227423	1.1626361911947276
1.1171379573006173	0.050699672855903155	0.7824061588872132
1.1003929184685604	0.10276162400933966	0.8531385542381413
1.071822858123116	0.15460190943982113	0.9231184343054704
1.0320899257617906	0.20457333094448535	0.9899051922137047
0.9828712226716285	0.25121557368292685	1.051404808126294
0.9265545600110331	0.29345694464182986	1.1061741854767713
1.1081315889150107	0.1508726915700291	0.7818496833962322
1.0868145326817527	0.20298725993273284	0.8514201360377114
1.0541950885863394	0.25343204251779167	0.9197004195470299
1.0113136653632187	0.3006829018573237	0.9844326547575037
0.9600724689311008	0.3435437129397296	1.043774525397906
1.0907536146673231	0.24751102495106866	0.7807759405330584
1.0652596726856478	0.29844207946488377	0.8486917236533121
1.0293115930146273	0.34643006192424447	0.9148726322003136
0.9842271077366692	0.3901726406900528	0.9772886532604899
1.0661545071020464	0.33870074044797144	0.7792558630097677
1.03712941306291	0.3874149026692909	0.8451301705918488
0.9987189175447518	0.4321717067624168	0.9089326703360183
1.0358038911415615	0.42307564316774143	0.77738031844396
1.004036073574909	0.4688162949337084	0.8409386932350305
1.0012766881042618	0.4998558543878374	0.7752464309162996
0.9918893553603788	0.5254468956196433	0.7133136320199726
1.0268629669106004	0.4533115711970164	0.7133136320199726
1.0584049057632905	0.3737886954547299	0.7133136320199726
1.0850531117690816	0.28739985740041935	0.7133136320199726
1.1053690979331414	0.19518732214982956	0.7133136320199726
1.11812047818673	0.09871944921354847	0.7133136320199726
1.1224700144741275	0.	0.7133136320199726
1.11812047818673	-0.09871944921354847	0.7133136320199726
1.1053690979331414	-0.19518732214982956	0.7133136320199726
1.0850531117690816	-0.28739985740041935	0.7133136320199726
1.0584049057632905	-0.3737886954547299	0.7133136320199726
1.0268629669106004	-0.4533115711970164	0.7133136320199726
0.9918893553603788	-0.5254468956196433	0.7133136320199726
0.9640741531265964	-0.5687897033236475	0.6536802735622186
0.9675898726871689	-0.5421580714359742	0.5903062063874132
0.9640583848175656	-0.5098784831920418	0.5244299860517152
0.9524019114548491	-0.47194543778523174	0.45774521003479807
0.932004548800244	-0.4287858756254636	0.39226870297452
0.9028937335433832	-0.381284156460069	0.33009442413533385
0.8658064531832593	-0.3307086651116345	0.27308624203637133
0.8221044641061498	-0.2785503411372707	0.2226003940827903
0.7735564410485423	-0.22631618510050566	0.17933018232529085
0.7220604261382989	-0.17534106253653906	0.1433100894000543
0.6693931273781644	-0.12666627598633182	0.11405454800165482
0.6170427794596577	-0.08099761905473395	0.09075720829383394
0.5661382257321873	-0.03872878639892259	0.07248269890151238
1.001277007841563	0.4998560140066159	0.6513808210569302
1.0040369213981908	0.4688166908092951	0.5856884371917486
0.9987200629582474	0.432172202412691	0.517694425158005
0.9842287399858419	0.39017328775511023	0.4493381967439384
0.9600744912527778	0.34354443658916245	0.3828520938347195
0.9265569289729394	0.29345769493582546	0.3204522180980982
0.8847813428972048	0.24139743655356474	0.2639898577194113
0.8364910650691251	0.1889500091865143	0.214678948190536
0.7837691788780166	0.13758246197015034	0.1729876801118213
0.7287132194906208	0.08847824246730235	0.13871260903538252
0.6731780476118293	0.042460860063760215	0.11117085872016808
0.6186351516362332	0.	0.08942696502808212
1.0358042414469704	0.42307578625050785	0.6492469304941432
1.037130309513346	0.38741523753421137	0.5814969577148832
1.0293128402081473	0.346430481685696	0.511754423823346
1.0113153502053052	0.3006834027931116	0.4421942370816463
0.9828733497311957	0.25121611734569477	0.3752217720727635
0.944643780410106	0.19945737523024354	0.313106160712477
0.8981448630856789	0.14702609443565456	0.25760928023318685
0.8454923708823269	0.09549165396271507	0.20974462575734387
0.7890284784797895	0.04616851555461398	0.16973565238308264
0.7309714909589747	0.	0.13715748560001173
0.6731780476118293	-0.042460860063760215	0.11117085872016808
1.0661548907159686	0.3387008623161609	0.6473713821938235
1.065260579298683	0.2984423334606806	0.5779353158897357
1.0541964391376255	0.2534323671948602	0.5069265869932693
1.032091677542806	0.20457367816973043	0.43672169029982544
0.9990062254304086	0.15320370360171148	0.369832690429277
0.9560169782807278	0.10092944168527745	0.3084978644137053
0.905057034489335	0.04938585577979077	0.25431755201683104
0.8485576355688398	0.	0.20806821085298255
0.7890284784797895	-0.04616851555461398	0.16973565238308264
0.7287132194906208	-0.08847824246730235	0.13871260903538252
1.090754029953175	0.24751111918667373	0.645851300606398
1.0868154813129416	0.2029874371111197	0.5752070016819426
1.0718242812015966	0.1546021147075561	0.5035085392842256
1.0451891872452714	0.10358485058564235	0.4332750013867025
1.0073760691807987	0.051495762968944155	0.3670401512869139
0.9599001178395508	0.	0.30692638060939403
0.905057034489335	-0.04938585577979077	0.25431755201683104
0.8454923708823269	-0.09549165396271507	0.20974462575734387
0.7837691788780166	-0.13758246197015034	0.1729876801118213
1.108132028694609	0.15087275144624987	0.6447775543413928
1.1003938789085135	0.10276171370127397	0.573488587362169
1.0809763653604916	0.05197410244695359	0.5017346009655582
1.0496670276604865	0.	0.43209716745508886
1.0073760691807987	-0.051495762968944155	0.3670401512869139
0.9560169782807278	-0.10092944168527745	0.3084978644137053
0.8981448630856789	-0.14702609443565456	0.25760928023318685
0.8364910650691251	-0.1889500091865143	0.214678948190536
1.1171384103462159	0.050699693416715264	0.6442210769516694
1.1050343724258698	0.	0.5729013802007683
1.0809763653604916	-0.05197410244695359	0.5017346009655582
1.0451891872452714	-0.10358485058564235	0.4332750013867025
0.9990062254304086	-0.15320370360171148	0.369832690429277
0.944643780410106	-0.19945737523024354	0.313106160712477
0.8847813428972048	-0.24139743655356474	0.2639898577194113
1.1171384103462159	-0.050699693416715264	0.6442210769516694
1.1003938789085135	-0.10276171370127397	0.573488587362169
1.0718242812015966	-0.1546021147075561	0.5035085392842256
1.032091677542806	-0.20457367816973043	0.43672169029982544
0.9828733497311957	-0.25121611734569477	0.3752217720727635
0.9265569289729394	-0.29345769493582546	0.3204522180980982
1.108132028694609	-0.15087275144624987	0.6447775543413928
1.0868154813129416	-0.2029874371111197	0.5752070016819426
1.0541964391376255	-0.2534323671948602	0.5069265869932693
1.0113153502053052	-0.3006834027931116	0.4421942370816463
0.9600744912527778	-0.34354443658916245	0.3828520938347195
1.090754029953175	-0.24751111918667373	0.645851300606398
1.065260579298683	-0.2984423334606806	0.5779353158897357
1.0293128402081473	-0.346430481685696	0.511754423823346
0.9842287399858419	-0.39017328775511023	0.4493381967439384
1.0661548907159686	-0.3387008623161609	0.6473713821938235
1.037130309513346	-0.38741523753421137	0.5814969577148832
0.9987200629582474	-0.432172202412691	0.517694425158005
1.0358042414469704	-0.42307578625050785	0.6492469304941432
1.0040369213981908	-0.4688166908092951	0.5856884371917486
1.001277007841563	-0.4998560140066159	0.6513808210569302
0.9207651616503976	0.6398922648249563	0.7501952620090176
0.8790432114268233	0.6897858054526559	0.7895677232189771
0.8290679819705167	0.7385015715398202	0.8309007335353074
0.7706346119607993	0.7845322198188502	0.873418534430921
0.7040725438401623	0.826292199792939	0.916132633399328
0.630325870536415	0.8623072214301264	0.9579265188813114
0.5509280030426721	0.8914202803803484	0.9976848706596029
0.4678556989995682	0.9129583465391394	1.0344359542568915
0.38329013502696835	0.9268084552469715	1.0674690211669284
0.2993503385643427	0.9333846032558331	1.096392482293236
0.21786921354931751	0.9335041608232584	1.1211272050968464
0.14025651863735092	0.928222150490294	1.1418478766710358
0.06745974495678475	0.9186695889969367	1.158901287225762
0.5467597110851915	0.10511322174919085	1.3573590540272213
0.5237129130031584	0.17581849448931766	1.3586337380761717
0.496689237911697	0.25027207806390106	1.3575341105442644
0.46550269307826914	0.32758410256969916	1.3536039943908453
0.43014502338237154	0.40653751469361954	1.3463909221690369
0.3908380265174024	0.4856297282695449	1.3354925863227958
0.34806301813476564	0.5631778102386698	1.3206214381310473
0.30255005444483624	0.6374763188636938	1.3016761906150847
0.2552199568604389	0.7069753574239612	1.2787987271816323
0.20709240806107962	0.7704400780697874	1.2523908430005104
0.15917927028764361	0.8270543644645747	1.223079808212996
0.11238886149325708	0.8764503284297832	1.1916410972766758
0.5977905224444234	0.15192585714943457	1.3378533831299197
0.5743509737406552	0.2272080203307663	1.337545592935691
0.5463560087734864	0.30604441889406864	1.3344501613327022
0.5136039387582297	0.38726384956101834	1.3280682373421326
0.47612932649044304	0.46934291232081854	1.3179445307591142
0.43425977807236577	0.5504942006253019	1.3037348154668842
0.38863506059824265	0.6288247261478794	1.2852832745240856
0.3401713018270785	0.7025380078674991	1.2626888771293605
0.2899725106049558	0.7701347681635099	1.2363333015141609
0.2392077557027485	0.8305617560899143	1.2068536742990998
0.1889861559262046	0.8832763137542914	1.1750636730657562
0.6500301189392005	0.2020896693303025	1.3128073370334672
0.6258821853046104	0.2817248253288879	1.3103566553756307
0.5965361287866993	0.3644950035487944	1.30468388741125
0.5618024680185048	0.4489137459133883	1.2952880962531532
0.5217986337844859	0.5331472912565078	1.281771980113717
0.4770038976600671	0.6151614097878779	1.263924135959149
0.42825779738818	0.6929356676469405	1.2417934128083976
0.3766888642243663	0.7646997102739149	1.215728157931213
0.32358808341153256	0.8291314788235795	1.1863574464222197
0.27025664913381686	0.8854671443490155	1.1545148841310373
0.7022024351780808	0.2549742704093139	1.2812168771473171
0.6768948726095062	0.3384474363047531	1.2760291571473499
0.6457097414399097	0.42437070855549	1.267221430894098
0.6085155530698954	0.5109354928657677	1.2543547702472941
0.5655677436141034	0.5960362887831936	1.2371666917180546
0.5175487459191463	0.6774801440206638	1.2156525947706276
0.46553214487772976	0.7532468321494532	1.1901141393773622
0.41086628014736193	0.8217324535619877	1.1611521751336205
0.3550080292664713	0.8819121566179264	1.12959640374612
0.7526652473049584	0.3095781419671033	1.2422782822950411
0.7256263969017791	0.39603986478291603	1.2338233435594064
0.6920483163876028	0.4839909103809453	1.2214700351348953
0.6519213459411136	0.5713395111888484	1.2049182740686941
0.6057007293646229	0.6557993310792068	1.1841128718066056
0.5543156677584881	0.7351544733851271	1.1593003505164523
0.4990846328803502	0.8075358699103325	1.1310333966161377
0.4415518055765803	0.8716366697941822	1.1001107426731107
0.7995205244950468	0.36453796687368206	1.1956176042168767
0.770118895751468	0.4528124851651011	1.1835580744215095
0.7336161714343928	0.5413812077604663	1.167530321055911
0.6901958305260847	0.6279609401986799	1.1474407326598302
0.6405651034211288	0.7102239783910448	1.1234799328131038
0.5859157549119667	0.7860884596538953	1.0961379641582862
0.527785590791715	0.8539750174494289	1.0661574748376637
0.8408301919429709	0.41822713624905694	1.1415054142035834
0.808481694109432	0.5068940980953722	1.1258172509752145
0.7686640891936993	0.5945244108769494	1.1063624451710965
0.7218138130338446	0.6787807069242435	1.083284565782429
0.6689113480072779	0.7574519723252179	1.0570059427372251
0.6113853784975832	0.8287322602050221	1.0281954086574798
0.8749076568699395	0.4689458149304625	1.0809654535688629
0.8392031868012271	0.5564915478581159	1.0619991326569806
0.795934702901051	0.6416740385494893	1.0397446263881205
0.7458174775172965	0.7222547375694334	1.0145621835915843
0.6900817521183629	0.7962790640516049	0.9870398737030913
0.9006006008422832	0.5151627575020044	1.0157077356362938
0.8614111283225988	0.6001652606959306	0.9941545594485212
0.8148705523572769	0.6816260724907075	0.9700087566616136
0.7619529914657179	0.7575381459862891	0.9437812781641548
0.9174701097610538	0.5557355909169658	0.9478843598237022
0.8749874292746472	0.637028473114643	0.9246561444454994
0.8256519435944085	0.713857761528336	0.8996421244114993
0.9258057028418374	0.5900407195327032	0.8797470469677263
0.8805070530219534	0.6668107931520025	0.8558140453620535
0.9264881534322741	0.6179808140120251	0.8133224834550825
0.9640741531265964	0.5687897033236475	0.6536802735622186
0.9675898726871689	0.5421580714359742	0.5903062063874132
0.9640583848175656	0.5098784831920418	0.5244299860517152
0.9524019114548491	0.47194543778523174	0.45774521003479807
0.932004548800244	0.4287858756254636	0.39226870297452
0.9028937335433832	0.381284156460069	0.33009442413533385
0.8658064531832593	0.3307086651116345	0.27308624203637133
0.8221044641061498	0.2785503411372707	0.2226003940827903
0.7735564410485423	0.22631618510050566	0.17933018232529085
0.7220604261382989	0.17534106253653906	0.1433100894000543
0.6693931273781644	0.12666627598633182	0.11405454800165482
0.6170427794596577	0.08099761905473395	0.09075720829383394
0.5661382257321873	0.03872878639892259	0.07248269890151238
0.49783590765827107	0.06196269327680458	0.054278500986529865
0.47498651803441133	0.12809075815444593	0.051894514098270506
0.44866552397659565	0.19798804067620057	0.051522079995548475
0.41871888751832687	0.2710005289831748	0.053556677392256447
0.38512145229694655	0.34618873043756265	0.05841096769262344
0.34802267537098636	0.4223343264037114	0.06648815848448186
0.3077819691478991	0.4980016197754472	0.07813650666988203
0.26497493989221466	0.5716513365950905	0.09358767984293759
0.22035924284091724	0.641787745174616	0.1128919154457293
0.17480639898115352	0.7071067163647798	0.13587255576824164
0.12921631208680884	0.7666132268071086	0.16211953991143258
0.0844324910045026	0.8196880343961648	0.19102880554371127
0.04117508420756229	0.8660941512664259	0.2218757852061637
0.9264886923046971	0.6179811734476179	0.6133047342118344
0.8805078211215146	0.6668113748362444	0.5708131024017703
0.8256528666148092	0.7138585595707584	0.5269849660765554
0.7619540230361798	0.7575391715797101	0.48284563904267486
0.6900829098974715	0.7962804000023992	0.43958701934900357
0.611386586694801	0.8287338979151249	0.3984313254906722
0.5277867821989206	0.8539769451867657	0.36046909054574505
0.4415529157880067	0.8716388613852442	0.3265156525475883
0.3550090021328105	0.8819145734158031	0.29702981947018325
0.2702574445153078	0.8854697503318091	0.27211130001642525
0.18898674958392336	0.8832790883691773	0.2515624681836288
0.11238921823804172	0.8764531104588874	0.2349848270025896
0.9258066700106133	0.5900413359352149	0.5468800362105284
0.8749886067948257	0.6370293303999665	0.5019708170964572
0.814871889393983	0.6816271909003446	0.45661806842994723
0.7458189053873667	0.7222561203285587	0.4120645269943861
0.6689128184206627	0.7574536373702524	0.3696206345908344
0.5859172115889829	0.7860904139911569	0.33048843070100653
0.49908600657544505	0.8075380925956054	0.2955928301486095
0.41086750823849333	0.8217349097439315	0.26547388648659886
0.32358913138239903	0.8291341640449422	0.2402686251067172
0.23920857723626143	0.8305646085656428	0.21977226763392732
0.15917984046549227	0.827057326961371	0.20354602505340935
0.9174713967188107	0.555736370460868	0.4787426521454631
0.8614125845704619	0.6001662752978432	0.43247220343480886
0.7959363517280806	0.6416753678161933	0.3868820249805205
0.7218155340292792	0.678782325317348	0.3433419162977611
0.6405668276241561	0.7102258900942066	0.30314633518181444
0.5543173170051761	0.7351566606786691	0.2673257371014155
0.4655336642097676	0.753249290480327	0.23651187888382008
0.3766901583369506	0.7647023373956916	0.21089772210171498
0.28997359462024447	0.7701376471876672	0.19029247725172893
0.20709321864162922	0.7704430936498744	0.17423484744248885
0.9006023281441475	0.5151637455555218	0.4109189802431328
0.8392050581205772	0.5564927887654648	0.3646274402647005
0.7686660554902973	0.5945259317120489	0.32026395857277556
0.6901978275316212	0.6279627571344232	0.27918557488530826
0.6057026813268386	0.6558014444917442	0.24251322754426097
0.5175505808100693	0.6774825459242073	0.21097335495208314
0.42825943620255313	0.6929383193042803	0.18483237662801377
0.3401726742828167	0.7025408423285927	0.16393674833161787
0.255221043152426	0.7069783665211935	0.14782683055307433
0.8749097265417144	0.46894692426344126	0.3456610458019995
0.8084838852289369	0.5068954718624634	0.300808987817754
0.7336184093383904	0.5413828592496458	0.2590957439506476
0.6519235659439394	0.57134145678449	0.22170765475386411
0.5655698658993115	0.5960385254012	0.18945908982929138
0.47700583684477815	0.6151639106303375	0.1627014983402566
0.3886367350081788	0.6288274354000194	0.14134221866783547
0.30255144885182833	0.6374792568946849	0.12494926093589598
0.8408325830145003	0.41822832556291345	0.2851208959272893
0.7701213744028462	0.45281394255602686	0.24306803107197972
0.6920507908587835	0.48399264092710964	0.20515582660013987
0.6085179368065854	0.510937494352294	0.17227088503291155
0.521800861599406	0.5331495675244265	0.14485353875660567
0.4342617825291213	0.5504967415970313	0.12289061065130258
0.3480647605959229	0.5631806296001297	0.10600395256797057
0.7995230826386622	0.3645391332483328	0.2310082661263888
0.7256290785189123	0.3960413283835945	0.1928024260288237
0.6457124144252087	0.42437246528392764	0.15940421782800263
0.5618050344776192	0.4489157966675953	0.1313374221708159
0.4761316958747594	0.46934524793358917	0.10868087974239038
0.3908400337038702	0.48563222226796066	0.09113270005051866
0.752668132834897	0.30957932881211864	0.18434750683444046
0.6768977440248737	0.33844887201243684	0.15059643525528932
0.5965388862973183	0.36449668844061295	0.12194152907178335
0.5136065451422663	0.3872658148074646	0.09855709257013445
0.43014741014026836	0.406539770459863	0.08023436447258425
0.7022054313865022	0.2549753583520751	0.1454086487689854
0.6258851580884587	0.2817261634513494	0.11626874944290466
0.5463587972087032	0.3060459808518797	0.09217512571075326
0.4655054367756936	0.3275860333676771	0.07302129546435121
0.6500332605181176	0.20209064602449872	0.11381807457679072
0.5743540848270559	0.22720925104824477	0.08907973961482218
0.4966920576667985	0.2502734988838324	0.06909112156448205
0.5977937640920691	0.15192668100006226	0.08877194813943867
0.523716044657314	0.17581954583387158	0.06799153850852369
0.5467629731922747	0.10511384888132634	0.06926622644578728
0.9207654249535187	0.6398924478093235	0.6764319818418597
0.8790436638963419	0.6897861605057948	0.6370594862701365
0.8290685808046626	0.738502104958029	0.5957264438250487
0.7706353506748217	0.7845329718548252	0.5532085942566914
0.7040734093442589	0.8262932155395267	0.5104944103014502
0.6303268200707589	0.8623085204253922	0.468700414178162
0.5509289798997309	0.8914218609683532	0.4289419431063244
0.46785662153300633	0.9129601467407916	0.39219065597217084
0.38329100366789814	0.9268105556499946	0.3591575409946086
0.2993510833439001	0.933386925503989	0.330233912286815
0.21786979578769272	0.9335066555398683	0.3054990996217237
0.1402569179016176	0.9282247928340499	0.28477843546166937
0.0674599454777841	0.9186723197001758	0.267724807168489
0.07083577360242563	0.9646439774905489	1.1115219888983816
0.07406620615053999	1.008635709639827	1.0558507185964663
0.07698868123748955	1.0484346277278977	0.9915997331270725
0.0794178693518244	1.0815150505310425	0.9191831476517343
0.08116818344705609	1.1053514445897323	0.8399176161863656
0.08208689327932449	1.117862504336761	0.7560559114913863
0.08208691748616827	1.1178628339865009	0.6705713352391572
0.08116825139009783	1.1053523698406882	0.586709516251085
0.0794179705002493	1.0815164279734841	0.5074438642846311
0.07698881300695273	1.0484364221691826	0.4350271384248945
0.07406636843588317	1.008637919646263	0.37077585913844224
0.07083595744278527	0.964646481034828	0.31510441079493745
0.1471991539396274	0.97416924558977	1.090290771216564
0.15370290089161376	1.0172107536464852	1.0299175925589035
0.15939137392067268	1.054857192216992	0.9606974133423744
0.16385568437417103	1.0844025452559911	0.8834638638318528
0.16671720755228842	1.103339848247259	0.8000711409574921
0.1677041158390655	1.1098712821422967	0.7133136320199726
0.16671730456465994	1.1033404902782578	0.6265560587015965
0.16385586190619209	1.0844037201690022	0.5431631998666816
0.15939161987952707	1.0548588199805287	0.4659294871699413
0.1537032065803101	1.0172127767041332	0.39670913300406085
0.14719951347048074	0.9741716249777678	0.3363356480483488
0.22835367815781535	0.9784273811576364	1.0650512780276657
0.23790529258577364	1.0193528596222798	0.9998035016430282
0.24589449595641502	1.0535841854288537	0.9257210836793139
0.25168026968642715	1.078374732359782	0.8441532216822093
0.2547270934803838	1.091429464506226	0.757524772428958
0.25472716849216703	1.0914297859092978	0.6691024754240924
0.25168048638692153	1.0783756608566324	0.5824739063403128
0.24589482955625694	1.0535856148041487	0.5009058710297212
0.23790571995063386	1.0193546907525908	0.4268232889114988
0.22835417814680203	0.9784295234612715	0.3615752070557703
0.313059455478635	0.9761301482621398	1.0355960289894122
0.32510287770885143	1.013681824716635	0.9655322276220724
0.3345903133246485	1.0432640861694003	0.8870125577352923
0.3406883481511447	1.0622779477091973	0.8019555505501468
0.34279469380281213	1.0688455132965589	0.7133136320199726
0.34068854717995173	1.06227856828784	0.6246716509760141
0.3345906830553823	1.043265239002524	0.5396144999524197
0.3251033856336588	1.0136834084434516	0.46109453401729805
0.31306009264516405	0.9761321349692894	0.39103065682267824
0.3995666843186943	0.9661658068162648	1.0019700591095868
0.4132039804476936	0.9991411645651079	0.9274552429270444
0.42309364252250975	1.0230548554319892	0.8452802267367725
0.42830628169550006	1.0356590454887988	0.7579162490915667
0.42830640773058165	1.0356593502458802	0.668710999073241
0.42309400841792527	1.0230557401795812	0.5813469016498085
0.4132045469818949	0.9991425344639194	0.49917170394370347
0.39956741151125413	0.9661675651925606	0.42465670814945344
0.4857131703439591	0.9478047633151101	0.9645426100656433
0.49976985170785265	0.9752345671742247	0.8862850593759308
0.5087994978660362	0.9928548042674279	0.8015689248313453
0.5119175198027781	0.9989391304341424	0.7133136320199726
0.5087997949422146	0.9928553839722276	0.6250582762575366
0.4997704022913985	0.9752356415649753	0.5403419986206653
0.48571392390892915	0.9478062337970975	0.4620841604506122
0.5691362228319912	0.9208817350234093	0.9240284392036392
0.5823052430964105	0.9421897441266589	0.8430546131604447
0.5892340826077348	0.9534008948029177	0.7571433766469722
0.589234256225808	0.9534011757228972	0.6694838709066163
0.5823057417641175	0.9421905509880171	0.583572515070091
0.5691369847274116	0.9208829677960718	0.5025985269741123
0.6475644754200685	0.8858901332427804	0.8814362991229749
0.6585963483962265	0.9009821938889416	0.7989965846153732
0.6623980748709252	0.9061830520379646	0.7133136320199726
0.6585967217831948	0.9009827046950079	0.6276305204793121
0.647565164694855	0.885891076194032	0.5451907737323081
0.7191140146642762	0.8439446316329442	0.8379484033677178
0.72699699077343	0.8531961441768999	0.7553742499597013
0.7269972051099955	0.8531963957200749	0.6712529962848875
0.7191146040582811	0.8439453233395389	0.5886787349278141
0.782504374235527	0.7966161147907714	0.7947622781843341
0.786581876444794	0.8007670604127863	0.7133136320199726
0.7825048140211209	0.7966165625074906	0.6318649211337571
0.8371395104421768	0.7456914500594375	0.7529413813331063
0.8371397506464723	0.7456916640241197	0.673685769079218
0.8830533921917033	0.6929326373698053	0.7133136320199726
-0.991889355360379	0.5254468956196432	0.7133136320199726
-1.0268629669106002	0.4533115711970165	0.7133136320199726
-1.0584049057632905	0.3737886954547299	0.7133136320199726
-1.0850531117690816	0.2873998574004194	0.7133136320199726
-1.1053690979331414	0.19518732214982973	0.7133136320199726
-1.11812047818673	0.09871944921354836	0.7133136320199726
-1.1224700144741275	1.3746293103646236e-16	0.7133136320199726
-1.11812047818673	-0.09871944921354836	0.7133136320199726
-1.1053690979331414	-0.19518732214982973	0.7133136320199726
-1.0850531117690816	-0.2873998574004194	0.7133136320199726
-1.0584049057632905	-0.3737886954547299	0.7133136320199726
-1.0268629669106002	-0.4533115711970165	0.7133136320199726
-0.991889355360379	-0.5254468956196432	0.7133136320199726
-0.9640738591351685	-0.5687895298729885	0.772946980419884
-0.9675890970713736	-0.5421576368444433	0.8363209389240666
-0.9640573051051801	-0.5098779121455967	0.9021971111757524
-0.9524003559663308	-0.47194466699119936	0.9688816185616801
-0.9320027116474228	-0.42878503040943733	1.0343579078517198
-0.9028914862568574	-0.3812832074505505	1.096531970312997
-0.865803910604755	-0.3307076939329838	1.1535399632970944
-0.8221016753449192	-0.2785493962325462	1.204025529254836