# TIME=0.000000
VARIABLES=X,Y,Z
ZONE N=642 E=1280 F=FEPOINT ET=TRIANGLE
0.9548300256911881	0.5901174081757468	0.713313593185436
-0.9548300256911879	0.590117408175747	0.713313593185436
0.9548300256911881	-0.5901174081757468	0.713313593185436
-0.9548300256911879	-0.590117408175747	0.713313593185436
0.5150483231048328	0.	1.3689438834716332
0.5150517025499763	0.	0.05768140129151633
-0.5150483231048328	6.307522802965453e-17	1.3689438834716332
-0.5150517025499763	6.307564189232232e-17	0.05768140129151633
5.542874275194365e-17	0.9052200649286848	1.1733505469104122
5.542874275194365e-17	-0.9052200649286848	1.1733505469104122
5.5428916682587463e-17	0.9052229054316596	0.2532755962283295
5.5428916682587463e-17	-0.9052229054316596	0.2532755962283295
0.9672936085613503	0.5493204805260579	0.8203577367889134
0.9591680942581389	0.49153637427313146	0.9359066826382916
0.9252083071711233	0.4171299001092377	1.0507921096251946
0.8652070067561413	0.3304796630610064	1.1541499910401394
0.7850811062013755	0.23901152210085141	1.2378298499192995
0.6943777742962097	0.15036216387031026	1.2994145428470332
0.6022619518135949	0.06988390448328187	1.3415240891549025
1.0295627863999446	-0.4176305606881463	0.8272308622882556
1.0147339244337727	-0.34667452401410226	0.9486502534499214
0.9689845437219322	-0.26211988185874324	1.0662878772980569
0.8947007959451507	-0.17087263725782614	1.168320817828595
0.8012888095703158	-0.0813152584312761	1.2476579264615748
0.7006063764729357	0.	1.3039879432570216
1.0784430562393592	-0.2624750220144192	0.8326237627001037
1.0530961041285707	-0.17989033721537184	0.9574327540994472
0.9933357478893987	-0.08956906364839658	1.0748764144668275
0.9052200649286848	0.	1.1733505469104122
0.8012888095703158	0.0813152584312761	1.2476579264615748
1.1056469911196887	-0.08969870538801475	0.8356241890541704
1.0668836850761905	0.	0.9605859262586307
0.9933357478893987	0.08956906364839658	1.0748764144668275
0.8947007959451507	0.17087263725782614	1.168320817828595
1.1056469911196887	0.08969870538801475	0.8356241890541704
1.0530961041285707	0.17989033721537184	0.9574327540994472
0.9689845437219322	0.26211988185874324	1.0662878772980569
1.0784430562393592	0.2624750220144192	0.8326237627001037
1.0147339244337727	0.34667452401410226	0.9486502534499214
1.0295627863999446	0.4176305606881463	0.8272308622882556
1.0183858749601356	0.47204781863194206	0.713313593185436
1.072433171334692	0.33140010020292904	0.713313593185436
1.1093069450008168	0.1713973020979354	0.713313593185436
1.1224700144741042	0.	0.713313593185436
1.1093069450008168	-0.1713973020979354	0.713313593185436
1.072433171334692	-0.33140010020292904	0.713313593185436
1.0183858749601356	-0.47204781863194206	0.713313593185436
0.9672941923010863	-0.5493208120284988	0.6062694979215609
0.959169435640509	-0.491537061679469	0.49072029795708594
0.9252103151826582	-0.4171308054206626	0.3758344869307262
0.8652095642048683	-0.33048063991947724	0.2724762145047155
0.7850840780983644	-0.23901242687058444	0.188795945463053
0.6943809927574229	-0.15036286080332031	0.12721094870038052
0.6022652687475144	-0.06988428936612646	0.08510122886277172
1.0295634758942556	0.4176308403737561	0.599396352707945
1.0147353591424426	0.34667501416914015	0.47797677284393014
0.968986742413317	0.26212047662646143	0.3603387025046374
0.8947034671957531	0.17087314742126544	0.25830519467101953
0.8012919491739231	0.08131557704009185	0.17896784707879543
0.7006095086159856	0.	0.12263743317268716
1.0784438678307546	0.2624752195422053	0.5940034204539366
1.0530976909178833	0.17989060827141642	0.4691942005376696
0.9933380001307214	0.08956926673294964	0.351750053198558
0.9052229054316596	0.	0.2532755962283295
0.8012919491739231	-0.08131557704009185	0.17896784707879543
1.105647871287769	0.0896987767941127	0.5910029764308429
1.0668853372475429	0.	0.46604099137792676
0.9933380001307214	-0.08956926673294964	0.351750053198558
0.8947034671957531	-0.17087314742126544	0.25830519467101953
1.105647871287769	-0.0896987767941127	0.5910029764308429
1.0530976909178833	-0.17989060827141642	0.4691942005376696
0.968986742413317	-0.26212047662646143	0.3603387025046374
1.0784438678307546	-0.2624752195422053	0.5940034204539366
1.0147353591424426	-0.34667501416914015	0.47797677284393014
1.0295634758942556	-0.4176308403737561	0.599396352707945
0.8902197891312275	0.6773603415603128	0.7796226729954133
0.80086191492652	0.7619137851657591	0.8522905376825832
0.6861748232404277	0.8357842330840722	0.9270466622094671
0.5508012318279324	0.8912151037840724	0.9981193377801225
0.40430425064471287	0.9237143414967639	1.0600994146353198
0.25807081517504277	0.9337089222590086	1.1098458269309484
0.12149865889299288	0.9255812414699823	1.1470428267739077
0.5659647967686723	0.19450099739272203	1.3441953332290488
0.5166939329972884	0.3307252391220104	1.3390272067132207
0.4535415225174954	0.4725991627272993	1.3234559606886294
0.3777978215185465	0.6112897965060922	1.2955361512435708
0.29341362241430075	0.7371903218251099	1.255044517414367
0.2060982609225086	0.8429768615318212	1.2041830772121649
0.6569514915381949	0.288593147282534	1.2960506775995644
0.6030738172831824	0.436388364518295	1.28260857704352
0.5321185736477588	0.584854831673717	1.2566952859200402
0.4468046516064917	0.7229450796941148	1.2176026318321957
0.3530512319637064	0.8409558763545621	1.167250293073691
0.7439045424173049	0.38799825994200576	1.2253502026533931
0.682666897649105	0.5420298193358098	1.2011729048185822
0.6019034745093036	0.6897200507074462	1.1641909814287583
0.5064794273181785	0.8195009706328991	1.1158538524882613
0.8167914347486159	0.4844485025214703	1.1306808459832487
0.7457200168728101	0.6369208875751076	1.0958099460115236
0.6546763641754814	0.7757582397251503	1.0505116926015912
0.8667464623230839	0.5684897286539554	1.017346657182138
0.7853703122786052	0.7115778439447896	0.9752171235827704
0.8902596839098983	0.6333488198202211	0.8963842655019943
0.9672941923010863	0.5493208120284988	0.6062694979215609
0.959169435640509	0.491537061679469	0.49072029795708594
0.9252103151826582	0.4171308054206626	0.3758344869307262
0.8652095642048683	0.33048063991947724	0.2724762145047155
0.7850840780983644	0.23901242687058444	0.188795945463053
0.6943809927574229	0.15036286080332031	0.12721094870038052
0.6022652687475144	0.06988428936612646	0.08510122886277172
0.47851947519583216	0.11060864817421248	0.05169728834812837
0.43189248094491745	0.23293893758739137	0.05159351439321003
0.37447062319876556	0.36354366097161595	0.059483734791802245
0.3067254931010898	0.49629228815586507	0.07748892479624003
0.23107351023225703	0.6231411837656105	0.1070446029319605
0.15170698733193866	0.7364014558232584	0.14794942426351687
0.07336637160088481	0.8309651026238069	0.19792922784944156
0.8902606835758027	0.6333495310028481	0.5302428302189541
0.7853716195460293	0.7115790283829083	0.4514097289891952
0.6546777838126452	0.7757599219230844	0.3761149047407395
0.5064807653230442	0.8195031355703615	0.3107725362665261
0.3530522817071037	0.840958376807184	0.25937570832775303
0.20609894275231497	0.8429796503314341	0.2224427893224028
0.8667481363470957	0.5684908266283892	0.4092800827951282
0.745721878124247	0.6369224772735069	0.3308164636125899
0.6019052986193291	0.6897221409516674	0.2624350770620052
0.4468062503377832	0.7229476664955655	0.2090233064348579
0.29341477936749927	0.7371932286250523	0.17158113809658304
0.8167936282328743	0.484449803502503	0.2959453158237946
0.6826691995430865	0.5420316470136761	0.22545301975616816
0.5321206050107733	0.5848570643574322	0.1699302838627672
0.3777995602697687	0.6112926098650376	0.1310893765162513
0.7439072305786353	0.38799966200619435	0.2012756063505674
0.603076317998413	0.43639017405304564	0.1440168825900252
0.4535438157153985	0.47260155228449563	0.10316941129806811
0.6569545199788077	0.28859447765048213	0.13057484732737845
0.5166967666279058	0.330727052871125	0.08759812789206456
0.5659679253627644	0.19450207257385488	0.08242996669804703
0.8902201152705976	0.6773605897168667	0.6470045880915867
0.8008626169733618	0.7619144530701214	0.5743366185007521
0.6861757660394283	0.8357853814452668	0.4995803021858418
0.5508021902178318	0.891216654491486	0.42850739984785435
0.4043051275696178	0.9237163450080053	0.36652709226802993
0.2580714850700766	0.9337113459618578	0.3167805905015002
0.12149900176446289	0.9255838534774214	0.2795834216113706
0.13189660423473146	1.004792975299138	1.0529189065609024
0.14048041004754916	1.0701847913040603	0.9320495270016445
0.14543458794568606	1.10792605167709	0.7891332023938403
0.14543466228966884	1.1079266180322909	0.6374940252651482
0.14048060620364416	1.0701862856282123	0.4945774365834913
0.13189688465021582	1.0047951115141716	0.3737076030639195
0.27862135582520176	1.008061419654075	1.0013872864956248
0.2935215380156884	1.061970957618084	0.8660575477752162
0.29903133138808063	1.0819053545674722	0.713313593185436
0.293521800738681	1.0619719081588515	0.560569625824871
0.2786218634722493	1.0080632563381364	0.42523950236244645
0.4319027527102138	0.9867686036690433	0.9374207604412284
0.4479444774318608	1.0234190878570955	0.7911535918000651
0.44794471699107086	1.0234196351782046	0.635473629966091
0.4319033563341296	0.9867699827691412	0.4892062288468034
0.579523815535773	0.9376891972949316	0.864110470581664
0.590117408175747	0.9548300256911881	0.713313593185436
0.5795243293710045	0.937690028697771	0.5625167044212291
0.7092101792518054	0.863842100754949	0.7872623470353459
0.7092105152704137	0.8638425100370335	0.6393647932714026
0.8132346726610019	0.7736848845463176	0.713313593185436
-1.0183858749601356	0.47204781863194206	0.713313593185436
-1.072433171334692	0.3314001002029289	0.713313593185436
-1.1093069450008166	0.1713973020979356	0.713313593185436
-1.1224700144741042	1.374629310364595e-16	0.713313593185436
-1.1093069450008166	-0.1713973020979356	0.713313593185436
-1.072433171334692	-0.3314001002029289	0.713313593185436
-1.0183858749601356	-0.47204781863194206	0.713313593185436
-0.9672936085613503	-0.5493204805260579	0.8203577367889134
-0.9591680942581389	-0.49153637427313146	0.9359066826382916
-0.9252083071711233	-0.4171299001092377	1.0507921096251946
-0.8652070067561413	-0.33047966306100623	1.1541499910401394
-0.7850811062013756	-0.2390115221008513	1.2378298499192995
-0.6943777742962097	-0.1503621638703103	1.2994145428470332
-0.6022619518135949	-0.06988390448328193	1.3415240891549025
-1.0295627863999444	0.4176305606881465	0.8272308622882556
-1.0147339244337725	0.34667452401410237	0.9486502534499214
-0.9689845437219322	0.2621198818587432	1.0662878772980569
-0.8947007959451507	0.17087263725782606	1.168320817828595
-0.8012888095703158	0.08131525843127596	1.2476579264615748
-0.7006063764729357	8.579953564098061e-17	1.3039879432570216
-1.0784430562393592	0.26247502201441913	0.8326237627001037
-1.0530961041285707	0.17989033721537184	0.9574327540994472
-0.9933357478893987	0.08956906364839679	1.0748764144668275
-0.9052200649286848	1.108574855038873e-16	1.1733505469104122
-0.8012888095703158	-0.08131525843127596	1.2476579264615748
-1.1056469911196887	0.08969870538801475	0.8356241890541704
-1.0668836850761905	1.3065556899910893e-16	0.9605859262586307
-0.9933357478893987	-0.08956906364839679	1.0748764144668275
-0.8947007959451507	-0.17087263725782606	1.168320817828595
-1.1056469911196887	-0.08969870538801475	0.8356241890541704
-1.0530961041285707	-0.17989033721537184	0.9574327540994472
-0.9689845437219322	-0.2621198818587432	1.0662878772980569
-1.0784430562393592	-0.26247502201441913	0.8326237627001037
-1.0147339244337725	-0.34667452401410237	0.9486502534499214
-1.0295627863999444	-0.4176305606881465	0.8272308622882556
-0.9672941923010863	0.5493208120284988	0.6062694979215609
-0.959169435640509	0.491537061679469	0.49072029795708594
-0.9252103151826582	0.4171308054206626	0.3758344869307262
-0.8652095642048683	0.33048063991947707	0.2724762145047155
-0.7850840780983646	0.23901242687058433	0.188795945463053
-0.6943809927574229	0.15036286080332034	0.12721094870038052
-0.6022652687475144	0.06988428936612652	0.08510122886277172
-1.0295634758942556	-0.4176308403737563	0.599396352707945
-1.0147353591424424	-0.3466750141691403	0.47797677284393014
-0.968986742413317	-0.2621204766264614	0.3603387025046374
-0.8947034671957531	-0.17087314742126533	0.25830519467101953
-0.8012919491739231	-0.08131557704009172	0.17896784707879543
-0.7006095086159856	8.579991921787668e-17	0.12263743317268716
-1.0784438678307546	-0.2624752195422053	0.5940034204539366
-1.0530976909178833	-0.17989060827141642	0.4691942005376696
-0.9933380001307214	-0.08956926673294983	0.351750053198558
-0.9052229054316596	1.1085783336517493e-16	0.2532755962283295
-0.8012919491739231	0.08131557704009172	0.17896784707879543
-1.105647871287769	-0.0896987767941127	0.5910029764308429
-1.0668853372475429	1.3065577133174478e-16	0.46604099137792676
-0.9933380001307214	0.08956926673294983	0.351750053198558
-0.8947034671957531	0.17087314742126533	0.25830519467101953
-1.105647871287769	0.0896987767941127	0.5910029764308429
-1.0530976909178833	0.17989060827141642	0.4691942005376696
-0.968986742413317	0.2621204766264614	0.3603387025046374
-1.0784438678307546	0.2624752195422053	0.5940034204539366
-1.0147353591424424	0.3466750141691403	0.47797677284393014
-1.0295634758942556	0.4176308403737563	0.599396352707945
-0.9672936085613503	0.5493204805260579	0.8203577367889134
-0.9591680942581389	0.49153637427313146	0.9359066826382916
-0.9252083071711233	0.4171299001092377	1.0507921096251946
-0.8652070067561413	0.33047966306100623	1.1541499910401394
-0.7850811062013756	0.2390115221008513	1.2378298499192995
-0.6943777742962097	0.1503621638703103	1.2994145428470332
-0.6022619518135949	0.06988390448328193	1.3415240891549025
-0.47851624330399933	0.11060790113003718	1.3749280094664755
-0.43188972281547594	0.23293745000478652	1.3750317393313292
-0.37446819778908746	0.3635413063348056	1.3671415482301141
-0.30672373366609446	0.49628944133015507	1.3491363732162718
-0.2310723471451433	0.6231380472421717	1.3195808064886343
-0.1517063376011988	0.7363983019628397	1.2786761459230729
-0.07336610452239282	0.8309620776288184	1.2286965471740876
-0.8902596839098983	0.633348819820221	0.8963842655019943
-0.7853703122786053	0.7115778439447896	0.9752171235827704
-0.6546763641754815	0.7757582397251502	1.0505116926015912
-0.5064794273181786	0.819500970632899	1.1158538524882613
-0.3530512319637065	0.840955876354562	1.167250293073691
-0.20609826092250869	0.8429768615318212	1.2041830772121649
-0.8667464623230839	0.5684897286539554	1.017346657182138
-0.7457200168728099	0.6369208875751077	1.0958099460115236
-0.6019034745093036	0.6897200507074461	1.1641909814287583
-0.4468046516064917	0.7229450796941147	1.2176026318321957
-0.29341362241430086	0.7371903218251099	1.255044517414367
-0.816791434748616	0.48444850252147015	1.1306808459832487
-0.6826668976491052	0.5420298193358097	1.2011729048185822
-0.5321185736477589	0.5848548316737169	1.2566952859200402
-0.37779782151854646	0.6112897965060922	1.2955361512435708
-0.7439045424173049	0.3879982599420058	1.2253502026533931
-0.6030738172831824	0.43638836451829494	1.28260857704352
-0.4535415225174954	0.4725991627272994	1.3234559606886294
-0.6569514915381948	0.28859314728253405	1.2960506775995644
-0.5166939329972884	0.33072523912201035	1.3390272067132207
-0.5659647967686723	0.19450099739272197	1.3441953332290488
-0.8902201152705979	0.6773605897168667	0.6470045880915867
-0.8008626169733618	0.7619144530701215	0.5743366185007521
-0.6861757660394283	0.8357853814452669	0.4995803021858418
-0.5508021902178317	0.8912166544914862	0.42850739984785435
-0.4043051275696179	0.9237163450080051	0.36652709226802993
-0.2580714850700767	0.9337113459618577	0.3167805905015002
-0.1214990017644628	0.9255838534774214	0.2795834216113706
-0.5659679253627644	0.19450207257385485	0.08242996669804703
-0.5166967666279058	0.33072705287112497	0.08759812789206456
-0.4535438157153985	0.4726015522844957	0.10316941129806811
-0.37779956026976863	0.6112926098650376	0.1310893765162513
-0.2934147793674994	0.7371932286250523	0.17158113809658304
-0.20609894275231505	0.8429796503314341	0.2224427893224028
-0.6569545199788076	0.2885944776504822	0.13057484732737845
-0.603076317998413	0.4363901740530456	0.1440168825900252
-0.5321206050107734	0.5848570643574321	0.1699302838627672
-0.4468062503377832	0.7229476664955654	0.2090233064348579
-0.35305228170710384	0.8409583768071839	0.25937570832775303
-0.7439072305786353	0.3879996620061944	0.2012756063505674
-0.6826691995430866	0.542031647013676	0.22545301975616816
-0.6019052986193291	0.6897221409516673	0.2624350770620052
-0.5064807653230443	0.8195031355703614	0.3107725362665261
-0.8167936282328744	0.48444980350250283	0.2959453158237946
-0.7457218781242468	0.636922477273507	0.3308164636125899
-0.6546777838126453	0.7757599219230843	0.3761149047407395
-0.8667481363470957	0.5684908266283892	0.4092800827951282
-0.7853716195460295	0.7115790283829083	0.4514097289891952
-0.8902606835758027	0.633349531002848	0.5302428302189541
-0.8902197891312277	0.6773603415603128	0.7796226729954133
-0.80086191492652	0.7619137851657592	0.8522905376825832
-0.6861748232404277	0.8357842330840725	0.9270466622094671
-0.5508012318279324	0.8912151037840725	0.9981193377801225
-0.404304250644713	0.9237143414967638	1.0600994146353198
-0.2580708151750429	0.9337089222590084	1.1098458269309484
-0.1214986588929928	0.9255812414699823	1.1470428267739077
6.024507637788963e-17	0.9838767621788518	1.0919490199548982
6.455136080053879e-17	1.0542037238080721	0.9860764182489699
6.76126487043929e-17	1.1041983492949552	0.8570057770132654
6.873146551822975e-17	1.1224700144741042	0.713313593185436
6.761270794285571e-17	1.1041993167324702	0.5696213898421838
6.455146645197988e-17	1.0542054492270443	0.4405504037321485
6.024522501286465e-17	0.9838791895722052	0.33467740269861124
-0.813234672661002	0.7736848845463176	0.713313593185436
-0.7092105152704137	0.8638425100370335	0.6393647932714026
-0.5795243293710044	0.937690028697771	0.5625167044212291
-0.4319033563341297	0.9867699827691412	0.4892062288468034
-0.27862186347224943	1.0080632563381362	0.42523950236244645
-0.13189688465021568	1.0047951115141716	0.3737076030639195
-0.7092101792518054	0.863842100754949	0.7872623470353459
-0.5901174081757468	0.9548300256911881	0.713313593185436
-0.4479447169910709	1.0234196351782046	0.635473629966091
-0.2935218007386811	1.0619719081588515	0.560569625824871
-0.14048060620364405	1.0701862856282123	0.4945774365834913
-0.5795238155357729	0.9376891972949316	0.864110470581664
-0.44794447743186083	1.0234190878570955	0.7911535918000651
-0.2990313313880805	1.0819053545674722	0.713313593185436
-0.14543466228966892	1.1079266180322909	0.6374940252651482
-0.43190275271021394	0.9867686036690433	0.9374207604412284
-0.2935215380156885	1.061970957618084	0.8660575477752162
-0.14543458794568614	1.10792605167709	0.7891332023938403
-0.2786213558252018	1.0080614196540747	1.0013872864956248
-0.14048041004754905	1.0701847913040603	0.9320495270016445
-0.1318966042347313	1.004792975299138	1.0529189065609024
0.9672936085613503	-0.5493204805260579	0.8203577367889134
0.9591680942581389	-0.49153637427313146	0.9359066826382916
0.9252083071711233	-0.4171299001092377	1.0507921096251946
0.8652070067561413	-0.3304796630610064	1.1541499910401394
0.7850811062013755	-0.23901152210085141	1.2378298499192995
0.6943777742962097	-0.15036216387031026	1.2994145428470332
0.6022619518135949	-0.06988390448328187	1.3415240891549025
0.47851624330399933	-0.11060790113003727	1.3749280094664755
0.43188972281547594	-0.2329374500047865	1.3750317393313292
0.3744681977890874	-0.36354130633480564	1.3671415482301141
0.3067237336660945	-0.496289441330155	1.3491363732162718
0.23107234714514321	-0.6231380472421717	1.3195808064886343
0.15170633760119895	-0.7363983019628396	1.2786761459230729
0.07336610452239294	-0.8309620776288184	1.2286965471740876
0.8902596839098983	-0.6333488198202211	0.8963842655019943
0.7853703122786052	-0.7115778439447896	0.9752171235827704
0.6546763641754814	-0.7757582397251503	1.0505116926015912
0.5064794273181785	-0.8195009706328991	1.1158538524882613
0.3530512319637064	-0.8409558763545621	1.167250293073691
0.2060982609225086	-0.8429768615318212	1.2041830772121649
0.8667464623230839	-0.5684897286539554	1.017346657182138
0.7457200168728101	-0.6369208875751076	1.0958099460115236
0.6019034745093036	-0.6897200507074462	1.1641909814287583
0.4468046516064917	-0.7229450796941148	1.2176026318321957
0.29341362241430075	-0.7371903218251099	1.255044517414367
0.8167914347486159	-0.4844485025214703	1.1306808459832487
0.682666897649105	-0.5420298193358098	1.2011729048185822
0.5321185736477588	-0.584854831673717	1.2566952859200402
0.3777978215185465	-0.6112897965060922	1.2955361512435708
0.7439045424173049	-0.38799825994200576	1.2253502026533931
0.6030738172831824	-0.436388364518295	1.28260857704352
0.4535415225174954	-0.4725991627272993	1.3234559606886294
0.6569514915381949	-0.288593147282534	1.2960506775995644
0.5166939329972884	-0.3307252391220104	1.3390272067132207
0.5659647967686723	-0.19450099739272203	1.3441953332290488
0.8902201152705976	-0.6773605897168667	0.6470045880915867
0.8008626169733618	-0.7619144530701214	0.5743366185007521
0.6861757660394283	-0.8357853814452668	0.4995803021858418
0.5508021902178318	-0.891216654491486	0.42850739984785435
0.4043051275696178	-0.9237163450080053	0.36652709226802993
0.2580714850700766	-0.9337113459618578	0.3167805905015002
0.12149900176446289	-0.9255838534774214	0.2795834216113706
0.5659679253627644	-0.19450207257385488	0.08242996669804703
0.5166967666279058	-0.330727052871125	0.08759812789206456
0.4535438157153985	-0.47260155228449563	0.10316941129806811
0.3777995602697687	-0.6112926098650376	0.1310893765162513
0.29341477936749927	-0.7371932286250523	0.17158113809658304
0.20609894275231497	-0.8429796503314341	0.2224427893224028
0.6569545199788077	-0.28859447765048213	0.13057484732737845
0.603076317998413	-0.43639017405304564	0.1440168825900252
0.5321206050107733	-0.5848570643574322	0.1699302838627672
0.4468062503377832	-0.7229476664955655	0.2090233064348579
0.3530522817071037	-0.840958376807184	0.25937570832775303
0.7439072305786353	-0.38799966200619435	0.2012756063505674
0.6826691995430865	-0.5420316470136761	0.22545301975616816
0.6019052986193291	-0.6897221409516674	0.2624350770620052
0.5064807653230442	-0.8195031355703615	0.3107725362665261
0.8167936282328743	-0.484449803502503	0.2959453158237946
0.745721878124247	-0.6369224772735069	0.3308164636125899
0.6546777838126452	-0.7757599219230844	0.3761149047407395
0.8667481363470957	-0.5684908266283892	0.4092800827951282
0.7853716195460293	-0.7115790283829083	0.4514097289891952
0.8902606835758027	-0.6333495310028481	0.5302428302189541
0.8902197891312275	-0.6773603415603128	0.7796226729954133
0.80086191492652	-0.7619137851657591	0.8522905376825832
0.6861748232404277	-0.8357842330840722	0.9270466622094671
0.5508012318279324	-0.8912151037840724	0.9981193377801225
0.40430425064471287	-0.9237143414967639	1.0600994146353198
0.25807081517504277	-0.9337089222590086	1.1098458269309484
0.12149865889299288	-0.9255812414699823	1.1470428267739077
6.024507637788963e-17	-0.9838767621788518	1.0919490199548982
6.455136080053879e-17	-1.0542037238080721	0.9860764182489699
6.76126487043929e-17	-1.1041983492949552	0.8570057770132654
6.873146551822975e-17	-1.1224700144741042	0.713313593185436
6.761270794285571e-17	-1.1041993167324702	0.5696213898421838
6.455146645197988e-17	-1.0542054492270443	0.4405504037321485
6.024522501286465e-17	-0.9838791895722052	0.33467740269861124
0.8132346726610019	-0.7736848845463176	0.713313593185436
0.7092105152704137	-0.8638425100370335	0.6393647932714026
0.5795243293710045	-0.937690028697771	0.5625167044212291
0.4319033563341296	-0.9867699827691412	0.4892062288468034
0.2786218634722493	-1.0080632563381364	0.42523950236244645
0.13189688465021582	-1.0047951115141716	0.3737076030639195
0.7092101792518054	-0.863842100754949	0.7872623470353459
0.590117408175747	-0.9548300256911881	0.713313593185436
0.44794471699107086	-1.0234196351782046	0.635473629966091
0.293521800738681	-1.0619719081588515	0.560569625824871
0.14048060620364416	-1.0701862856282123	0.4945774365834913
0.579523815535773	-0.9376891972949316	0.864110470581664
0.4479444774318608	-1.0234190878570955	0.7911535918000651
0.29903133138808063	-1.0819053545674722	0.713313593185436
0.14543466228966884	-1.1079266180322909	0.6374940252651482
0.4319027527102138	-0.9867686036690433	0.9374207604412284
0.2935215380156884	-1.061970957618084	0.8660575477752162
0.14543458794568606	-1.10792605167709	0.7891332023938403
0.27862135582520176	-1.008061419654075	1.0013872864956248
0.14048041004754916	-1.0701847913040603	0.9320495270016445
0.13189660423473146	-1.004792975299138	1.0529189065609024
-0.8902197891312277	-0.6773603415603128	0.7796226729954133
-0.80086191492652	-0.7619137851657592	0.8522905376825832
-0.6861748232404277	-0.8357842330840725	0.9270466622094671
-0.5508012318279324	-0.8912151037840725	0.9981193377801225
-0.404304250644713	-0.9237143414967638	1.0600994146353198
-0.2580708151750429	-0.9337089222590084	1.1098458269309484
-0.1214986588929928	-0.9255812414699823	1.1470428267739077
-0.5659647967686723	-0.19450099739272197	1.3441953332290488
-0.5166939329972884	-0.33072523912201035	1.3390272067132207
-0.4535415225174954	-0.4725991627272994	1.3234559606886294
-0.37779782151854646	-0.6112897965060922	1.2955361512435708
-0.29341362241430086	-0.7371903218251099	1.255044517414367
-0.20609826092250869	-0.8429768615318212	1.2041830772121649
-0.6569514915381948	-0.28859314728253405	1.2960506775995644
-0.6030738172831824	-0.43638836451829494	1.28260857704352
-0.5321185736477589	-0.5848548316737169	1.2566952859200402
-0.4468046516064917	-0.7229450796941147	1.2176026318321957
-0.3530512319637065	-0.840955876354562	1.167250293073691
-0.7439045424173049	-0.3879982599420058	1.2253502026533931
-0.6826668976491052	-0.5420298193358097	1.2011729048185822
-0.6019034745093036	-0.6897200507074461	1.1641909814287583
-0.5064794273181786	-0.819500970632899	1.1158538524882613
-0.816791434748616	-0.48444850252147015	1.1306808459832487
-0.7457200168728099	-0.6369208875751077	1.0958099460115236
-0.6546763641754815	-0.7757582397251502	1.0505116926015912
-0.8667464623230839	-0.5684897286539554	1.017346657182138
-0.7853703122786053	-0.7115778439447896	0.9752171235827704
-0.8902596839098983	-0.633348819820221	0.8963842655019943
-0.9672941923010863	-0.5493208120284988	0.6062694979215609
-0.959169435640509	-0.491537061679469	0.49072029795708594
-0.9252103151826582	-0.4171308054206626	0.3758344869307262
-0.8652095642048683	-0.33048063991947707	0.2724762145047155
-0.7850840780983646	-0.23901242687058433	0.188795945463053
-0.6943809927574229	-0.15036286080332034	0.12721094870038052
-0.6022652687475144	-0.06988428936612652	0.08510122886277172
-0.47851947519583216	-0.11060864817421241	0.05169728834812837
-0.43189248094491745	-0.2329389375873914	0.05159351439321003
-0.3744706231987657	-0.3635436609716159	0.059483734791802245
-0.3067254931010898	-0.4962922881558652	0.07748892479624003
-0.2310735102322571	-0.6231411837656105	0.1070446029319605
-0.15170698733193852	-0.7364014558232586	0.14794942426351687
-0.0733663716008847	-0.8309651026238069	0.19792922784944156
-0.8902606835758027	-0.633349531002848	0.5302428302189541
-0.7853716195460295	-0.7115790283829083	0.4514097289891952
-0.6546777838126453	-0.7757599219230843	0.3761149047407395
-0.5064807653230443	-0.8195031355703614	0.3107725362665261
-0.35305228170710384	-0.8409583768071839	0.25937570832775303
-0.20609894275231505	-0.8429796503314341	0.2224427893224028
-0.8667481363470957	-0.5684908266283892	0.4092800827951282
-0.7457218781242468	-0.636922477273507	0.3308164636125899
-0.6019052986193291	-0.6897221409516673	0.2624350770620052
-0.4468062503377832	-0.7229476664955654	0.2090233064348579
-0.2934147793674994	-0.7371932286250523	0.17158113809658304
-0.8167936282328744	-0.48444980350250283	0.2959453158237946
-0.6826691995430866	-0.542031647013676	0.22545301975616816
-0.5321206050107734	-0.5848570643574321	0.1699302838627672
-0.37779956026976863	-0.6112926098650376	0.1310893765162513
-0.7439072305786353	-0.3879996620061944	0.2012756063505674
-0.603076317998413	-0.4363901740530456	0.1440168825900252
-0.4535438157153985	-0.4726015522844957	0.10316941129806811
-0.6569545199788076	-0.2885944776504822	0.13057484732737845
-0.5166967666279058	-0.33072705287112497	0.08759812789206456
-0.5659679253627644	-0.19450207257385485	0.08242996669804703
-0.8902201152705979	-0.6773605897168667	0.6470045880915867
-0.8008626169733618	-0.7619144530701215	0.5743366185007521
-0.6861757660394283	-0.8357853814452669	0.4995803021858418
-0.5508021902178317	-0.8912166544914862	0.42850739984785435
-0.4043051275696179	-0.9237163450080051	0.36652709226802993
-0.2580714850700767	-0.9337113459618577	0.3167805905015002
-0.1214990017644628	-0.9255838534774214	0.2795834216113706
-0.1318966042347313	-1.004792975299138	1.0529189065609024
-0.14048041004754905	-1.0701847913040603	0.9320495270016445
-0.14543458794568614	-1.10792605167709	0.7891332023938403
-0.14543466228966892	-1.1079266180322909	0.6374940252651482
-0.14048060620364405	-1.0701862856282123	0.4945774365834913
-0.13189688465021568	-1.0047951115141716	0.3737076030639195
-0.2786213558252018	-1.0080614196540747	1.0013872864956248
-0.2935215380156885	-1.061970957618084	0.8660575477752162
-0.2990313313880805	-1.0819053545674722	0.713313593185436
-0.2935218007386811	-1.0619719081588515	0.560569625824871
-0.27862186347224943	-1.0080632563381362	0.42523950236244645