# TIME=0.000000
VARIABLES=X,Y,Z
ZONE N=1442 E=2880 F=FEPOINT ET=TRIANGLE
0.9548300296112043	0.5901174018330533	0.7133136154589699
-0.9548300296112043	0.5901174018330533	0.7133136154589699
0.9548300296112043	-0.5901174018330533	0.7133136154589699
-0.9548300296112043	-0.5901174018330533	0.7133136154589699
0.5170322811233056	0.	1.3684266768021947
0.5170357448371761	0.	0.05819862885105742
-0.5170322811233056	6.331819281335106e-17	1.3684266768021947
-0.5170357448371761	6.331861699596153e-17	0.05819862885105742
5.5464574022891425e-17	0.905805233990862	1.1728346360921846
5.5464574022891425e-17	-0.905805233990862	1.1728346360921846
5.5464745022401217e-17	0.9058080266247858	0.25379146340355563
5.5464745022401217e-17	-0.9058080266247858	0.25379146340355563
0.965092511817684	0.564730642634132	0.7832966984029222
0.9672459368833202	0.5320285629401418	0.8581170767476523
0.9592738365774135	0.49159064369104183	0.935620053094941
0.939743342117383	0.4436866904775168	1.0128773946834495
0.9082557007255951	0.38942159791025494	1.086578441322032
0.865699374210261	0.33066778081294473	1.1536469005003769
0.8141502966410882	0.2697618414937868	1.2118610465931683
0.7564314541585395	0.2090724723551056	1.260210101396819
0.6955255184508828	0.15061070941971405	1.2988610500446247
0.6340775497838702	0.09581061361511198	1.328823450640384
0.5741225493696124	0.04550020639910801	1.3515187673440239
1.0081953837339195	-0.48268845996697535	0.7864189413439133
1.0089034984356224	-0.4439536357425497	0.8643240675089685
0.99781841521247	-0.39771133679931475	0.9444490006555402
0.9735942208150098	-0.34475168371770565	1.0234268689359594
0.9362430177240879	-0.2867295295218105	1.0976487009352955
0.8873073981466338	-0.22594749457379926	1.1640084573662313
0.8295691151308634	-0.1649223941004638	1.2205370722557778
0.7664078226417167	-0.10591498816682186	1.266644811013443
0.7011072457165658	-0.05060645834678746	1.30292223026386
0.6363693570706075	0.	1.3306865601247877
1.047171154903131	-0.38993785608634757	0.789241777230739
1.0453063948984573	-0.34497917614450835	0.8697449778834945
1.0299829271993381	-0.2932367726210301	0.9518066880749545
1.00014177942589	-0.2361014933240145	1.031680898282909
0.9564030899528935	-0.17574217964412303	1.1055955606411496
0.9010728750428307	-0.11472642554158025	1.1705805851882023
0.8376123131532446	-0.05550712272935183	1.2250416403577253
0.7698210725514294	0.	1.2688371939843086
0.7011072457165658	0.05060645834678746	1.30292223026386
1.079563191089437	-0.2871427524388777	0.79158758844284
1.0738614727111293	-0.23626873277306482	0.8739950513659887
1.0532380332436966	-0.1799144957426479	0.9571206047424905
1.0171513307299882	-0.12005842105299057	1.0369601130148611
0.9669833035140113	-0.059228784062024725	1.1097564959999306
0.905805233990862	0.	1.1728346360921846
0.8376123131532446	0.05550712272935183	1.2250416403577253
0.7664078226417167	0.10591498816682186	1.266644811013443
1.1029060735359075	-0.17601084688015575	0.7932778309376181
1.0921601906326066	-0.12014740178310394	0.8767176747238143
1.065472112890151	-0.060668112841038305	0.9599141735658385
1.0230168283173495	0.	1.038778895741958
0.9669833035140113	0.059228784062024725	1.1097564959999306
0.9010728750428307	0.11472642554158025	1.1705805851882023
0.8295691151308634	0.1649223941004638	1.2205370722557778
1.1151600169923945	-0.05932212138484005	0.7941650938448044
1.098470818653785	0.	0.8776564525743216
1.065472112890151	0.060668112841038305	0.9599141735658385
1.0171513307299882	0.12005842105299057	1.0369601130148611
0.9564030899528935	0.17574217964412303	1.1055955606411496
0.8873073981466338	0.22594749457379926	1.1640084573662313
1.1151600169923945	0.05932212138484005	0.7941650938448044
1.0921601906326066	0.12014740178310394	0.8767176747238143
1.0532380332436966	0.1799144957426479	0.9571206047424905
1.00014177942589	0.2361014933240145	1.031680898282909
0.9362430177240879	0.2867295295218105	1.0976487009352955
1.1029060735359075	0.17601084688015575	0.7932778309376181
1.0738614727111293	0.23626873277306482	0.8739950513659887
1.0299829271993381	0.2932367726210301	0.9518066880749545
0.9735942208150098	0.34475168371770565	1.0234268689359594
1.079563191089437	0.2871427524388777	0.79158758844284
1.0453063948984573	0.34497917614450835	0.8697449778834945
0.99781841521247	0.39771133679931475	0.9444490006555402
1.047171154903131	0.38993785608634757	0.789241777230739
1.0089034984356224	0.4439536357425497	0.8643240675089685
1.0081953837339195	0.48268845996697535	0.7864189413439133
0.9978973034647272	0.5139454301103891	0.7133136154589699
1.0378291615333162	0.4276091262643733	0.7133136154589699
1.072433162605392	0.33140012845158007	0.7133136154589699
1.0993831524064803	0.22648535846344775	0.7133136154589699
1.1165621850402787	0.1150122616576386	0.7133136154589699
1.122470014474118	0.	0.7133136154589699
1.1165621850402787	-0.1150122616576386	0.7133136154589699
1.0993831524064803	-0.22648535846344775	0.7133136154589699
1.072433162605392	-0.33140012845158007	0.7133136154589699
1.0378291615333162	-0.4276091262643733	0.7133136154589699
0.9978973034647272	-0.5139454301103891	0.7133136154589699
0.9650929133940657	-0.5647308776193642	0.6433305012818793
0.9672467734292708	-0.5320290230778617	0.5685100433793115
0.9592751606726755	-0.4915913222385194	0.4910068783968238
0.939745119402992	-0.44368752959808794	0.41374928060215765
0.9082578702877099	-0.3894225281266519	0.340047983870313
0.8657019649862749	-0.3306687704014562	0.27297935151686437
0.8141531200399365	-0.2697627770032078	0.2147648948219789
0.756434426633411	-0.20907329392679855	0.16641548790659044
0.6955286774378096	-0.15061139347407218	0.127764417683351
0.6340808716120713	-0.09581111555118962	0.09780191322755893
0.5741258299315244	-0.04550046638932136	0.07510650623493254
1.0081958536232924	0.48268868493346634	0.6402082464609649
1.0089044045859195	0.44395403448110043	0.56230315099678
0.9978198264118352	0.3977118992763922	0.4821780664435118
0.9735960982252617	0.3447523485124749	0.4031998461912023
0.9362453330095488	0.28673023859060814	0.32897766483605695
0.8873100440125143	0.22594816832763917	0.2626175617015889
0.8295720454764351	0.16492297666748376	0.20608878210287696
0.7664109483958828	0.10591542013555409	0.15998081488062255
0.7011104357797819	0.050606688607995366	0.123703185266411
0.6363725993455781	0.	0.09593875347136605
1.0471716854596602	0.3899380536510671	0.6373854003815911
1.0453073693657446	0.34497949774487696	0.5568822300818308
1.0299843901710493	0.2932371891299757	0.47482027479028277
1.0001437637491555	0.23610196175928622	0.3949457867713613
0.9564055752276237	0.1757426363214411	0.32103089404915597
0.901075628354075	0.1147267760987507	0.2560454890100199
0.8376152874404841	0.0555073198302352	0.20158413727903035
0.769824242359973	0.	0.1577884318138425
0.7011104357797819	-0.050606688607995366	0.123703185266411
1.079563779037566	0.28714290882161236	0.6350396766049267
1.0738625011917369	0.23626895905719553	0.5526320411420165
1.0532395945817499	0.1799147624509699	0.4695063064445706
1.0171533936932349	0.12005866455275564	0.38966653200538603
0.9669857762568583	0.05922893552022633	0.31686987963795055
0.9058080266247858	0.	0.25379146340355563
0.8376152874404841	-0.0555073198302352	0.20158413727903035
0.7664109483958828	-0.10591542013555409	0.15998081488062255
1.1029066775411638	0.17601094327229577	0.6333493371182657
1.0921612777164658	0.12014752137206382	0.549909397976641
1.0654737314905942	0.06066820500434615	0.46671270497881157
1.0230189193485166	0.	0.3878477341156601
0.9669857762568583	-0.05922893552022633	0.31686987963795055
0.901075628354075	-0.1147267760987507	0.2560454890100199
0.8295720454764351	-0.16492297666748376	0.20608878210287696
1.1151606347895608	0.0593221542492164	0.6324620731185906
1.0984719536220873	0.	0.5489707051726445
1.0654737314905942	-0.06066820500434615	0.46671270497881157
1.0171533936932349	-0.12005866455275564	0.38966653200538603
0.9564055752276237	-0.1757426363214411	0.32103089404915597
0.8873100440125143	-0.22594816832763917	0.2626175617015889
1.1151606347895608	-0.0593221542492164	0.6324620731185906
1.0921612777164658	-0.12014752137206382	0.549909397976641
1.0532395945817499	-0.1799147624509699	0.4695063064445706
1.0001437637491555	-0.23610196175928622	0.3949457867713613
0.9362453330095488	-0.28673023859060814	0.32897766483605695
1.1029066775411638	-0.17601094327229577	0.6333493371182657
1.0738625011917369	-0.23626895905719553	0.5526320411420165
1.0299843901710493	-0.2932371891299757	0.47482027479028277
0.9735960982252617	-0.3447523485124749	0.4031998461912023
1.079563779037566	-0.28714290882161236	0.6350396766049267
1.0453073693657446	-0.34497949774487696	0.5568822300818308
0.9978198264118352	-0.3977118992763922	0.4821780664435118
1.0471716854596602	-0.3899380536510671	0.6373854003815911
1.0089044045859195	-0.44395403448110043	0.56230315099678
1.0081958536232924	-0.48268868493346634	0.6402082464609649
0.9143623388926224	0.6482307812058163	0.7566078947305943
0.863318353598353	0.7062237624419175	0.8031862415884379
0.8008947884181083	0.7619451577587125	0.8521077706352407
0.7271056776939863	0.8129289197619886	0.9019924932585068
0.6430400055319055	0.8567348335445338	0.95113800481086
0.5509058733143584	0.8913843226841697	0.9977609889702594
0.453780521912923	0.9157444019236949	1.0403000947322742
0.35511673177044956	0.9297076480834169	1.0776703579223423
0.25818028120179626	0.9341050055286622	1.1093771241595927
0.16561198176732372	0.9304135582533637	1.1354722508771684
0.07922144805757331	0.920397866546681	1.15640311367458
0.5511978892968892	0.12420818502399905	1.3548859789610959
0.523106750000527	0.20869362561711582	1.355437068326837
0.4893949180981598	0.29787458829723173	1.3524575034419155
0.4498728424546597	0.3900554641484818	1.345209772792587
0.4047428521859432	0.4829568691634359	1.3330167166236035
0.3546900467725941	0.5739005220184042	1.31539200025281
0.30087827540782086	0.6601414110105739	1.2921939385093815
0.24482659658557668	0.7392600708427254	1.2637423997445083
0.18819709047161506	0.8094948464133026	1.2308309495834997
0.13256224154610766	0.8699139173635813	1.1946126829235137
0.6112081016776644	0.180725720521281	1.330309775634817
0.5822945797292445	0.27135236199129764	1.3283860860292065
0.5467951680635864	0.366135752154608	1.3222390110349937
0.5045480313614672	0.46281601508615394	1.3110987218238337
0.45592472796450245	0.5585623460404957	1.2943756380063436
0.40190364270930196	0.6502937260281733	1.2718276770225185
0.3440056105003911	0.7351267938139247	1.243700749111218
0.28408750775210984	0.81081484151007	1.210766947368276
0.22405838659345395	0.8760300145397347	1.1742214546490244
0.672245219919985	0.2415145002399103	1.2975966043508556
0.6419079876395859	0.3376874611514974	1.2922738893415078
0.6039345231462714	0.43701107173179643	1.2820541095776847
0.5582753712056794	0.5366354107487028	1.2662579358009023
0.505574428730131	0.6332551761057281	1.244542725631352
0.4471946963401451	0.7235762460648542	1.217063265182981
0.38506219988785684	0.8048452833927832	1.1845355411919984
0.3213594454365199	0.8752567222743723	1.1481535825961697
0.7319960001592788	0.30525069818591244	1.2552524738744846
0.6994043555332298	0.40577959321309814	1.2456420918176137
0.6581375599485844	0.5079452840010192	1.2306446843486698
0.6083842550806385	0.6083842550806384	1.2098345046436052
0.5511777222673275	0.7035195766556601	1.1832678849965212
0.4883329197791724	0.7901391600591325	1.1515720966792644
0.42216959852994973	0.8659198839020281	1.1158878244552386
0.7875656707785992	0.36991295077336683	1.2023969518265374
0.7517556697770365	0.47298941458054	1.1879050716865036
0.706407098454593	0.5757575817514787	1.1679153471838606
0.6520892988805221	0.6745484815294054	1.1423984954245623
0.5903127771746028	0.7658239893256553	1.1118729735378743
0.5233372387323444	0.8467773344040781	1.0773777093893977
0.8358677018960579	0.43293310727904905	1.1392550159865078
0.7959521878552727	0.5362823872209698	1.1198509474828406
0.7460078025382701	0.6371667861332896	1.095353425117911
0.6870912277160452	0.7319221872679161	1.0661753869384287
0.6211911209594609	0.8173816097557217	1.0332231228615205
0.8742263683712058	0.4915826600777015	1.06744210535518
0.8296620595517532	0.5927918772824308	1.0437891505069872
0.7751053835043995	0.6894803156928085	1.0159510117464317
0.7121115521768199	0.7783123596242617	0.9846975923563652
0.9009795243005295	0.5434962298356251	0.9898232552454096
0.8517681421767773	0.6404142412673623	0.9631734447532119
0.793159304807328	0.731149658755148	0.9335796636171905
0.9158100763134055	0.5871225699912738	0.9099418689847694
0.862528021776584	0.6781740496224831	0.8818344835936132
0.9196669456421502	0.6219156244069918	0.8312705971828631
0.9650929133940657	0.5647308776193642	0.6433305012818793
0.9672467734292708	0.5320290230778617	0.5685100433793115
0.9592751606726755	0.4915913222385194	0.4910068783968238
0.939745119402992	0.44368752959808794	0.41374928060215765
0.9082578702877099	0.3894225281266519	0.340047983870313
0.8657019649862749	0.3306687704014562	0.27297935151686437
0.8141531200399365	0.2697627770032078	0.2147648948219789
0.756434426633411	0.20907329392679855	0.16641548790659044
0.6955286774378096	0.15061139347407218	0.127764417683351
0.6340808716120713	0.09581111555118962	0.09780191322755893
0.5741258299315244	0.04550046638932136	0.07510650623493254
0.49382297771484907	0.07263836488334749	0.053648381861211014
0.46617826260512313	0.1508584731505121	0.051419358254503056
0.43375574858630456	0.23394383495013457	0.05210422551009408
0.39638796439355595	0.32068455767969056	0.05634444920952353
0.35417836924919477	0.4093376667782553	0.0647909393747681
0.3075971550052982	0.49770264415254484	0.07802294848975855
0.25751855045678124	0.5833432198945832	0.0964234864257354
0.20515718506297503	0.6639026745733292	0.1200418472738054
0.1519165393237095	0.7374184974065577	0.14850379103124345
0.09920080776830735	0.8025509465239935	0.181023056633709
0.04824439203633672	0.8586709217078209	0.216518543727374
0.9196676096202576	0.6219160734155825	0.595356545187602
0.8625289577896598	0.6781747855751269	0.5447926468297979
0.793160426628647	0.7311506928718376	0.49304734790082794
0.7121127283296602	0.7783136451170889	0.4419292694206369
0.6211923611749164	0.8173832416678196	0.3934035515019261
0.5233384505137669	0.8467792951073625	0.34924878394235437
0.4221706975167782	0.8659221380542699	0.31073852234722654
0.3213603676550706	0.8752592340349487	0.2784726910258959
0.2240591017481547	0.876032810672441	0.2524047297789549
0.13256267348262202	0.8699167518629144	0.23201324641282284
0.9158111519980411	0.5871232596088529	0.516685281701005
0.8517695053967299	0.640415266224071	0.4634534857242367
0.775106857159234	0.6894816265545599	0.41067567528530624
0.6870928058973337	0.73192386842153	0.3604512320632365
0.590314338512951	0.7658260148795799	0.3147534764206754
0.4883343742329784	0.790141513414522	0.2750541983784993
0.3850634289698229	0.8048478523824777	0.24209052790674157
0.28408848889903204	0.8108176418038686	0.2158589917406344
0.1881977689888025	0.8094977649290195	0.19579478709097575
0.9009810389260886	0.5434971435004295	0.4368035971091362
0.8296638372213364	0.5927931474237821	0.38283752326863363
0.7460096352371175	0.6371683514451141	0.3312729427469625
0.6520911396442021	0.6745503856924507	0.2842277927231125
0.5511794764936951	0.7035218157385215	0.24335819817073823
0.44719631844485475	0.7235788706855086	0.20956271290951545
0.34400692085336676	0.7351295939879694	0.18292501440649644
0.2448275787969636	0.739263036654731	0.162883211212959
0.8742283307666059	0.49158376354424727	0.3591844279572016
0.7959542856938283	0.5362838006650004	0.3067753499450694
0.7064092342296676	0.5757593225163928	0.25871069580809625
0.6083863484291065	0.6083863484291064	0.2167914308155554
0.5055763597763269	0.6332575948297168	0.1820830349983038
0.4019053719083354	0.6502965239308619	0.1547979963202497
0.3008796107829982	0.6601443408879557	0.13443155801578133
0.8358701061125277	0.4329343525298279	0.28737132705347523
0.751758086494021	0.4729909351298324	0.23872095332789023
0.6581400088199795	0.5079471740202979	0.19598111923565398
0.5582777227184165	0.5366376711117218	0.1603677516824451
0.455926852358552	0.5585649486774037	0.13224992072597797
0.3546917665197929	0.5739033046276827	0.11123339657499365
0.7875682956518818	0.36991418365420126	0.2242289388871388
0.6994070355540662	0.4057811481044228	0.18098366330026572
0.603937069733381	0.43701291445930973	0.1445713847050616
0.5045505018316909	0.46281828121963037	0.11552672127707098
0.4047449553726704	0.48295937877780354	0.09360860286066597
0.7319988353730702	0.30525188050246765	0.17137314457510433
0.6419108380099976	0.3376889606410912	0.13435160747793073
0.5467979826498265	0.3661376368103441	0.10438639897496582
0.4498752792541908	0.3900575769387693	0.08141549712997964
0.6722482688116959	0.24151559560144809	0.12902887720102107
0.5822974962008755	0.2713537210825433	0.09823922490079662
0.48939773430566713	0.2978763024070861	0.07416777013502163
0.6112112060373569	0.18072663843719322	0.09631553708415241
0.5231098065188334	0.20869484501619093	0.0711882011669065
0.5512011040952894	0.1242089094539765	0.07173929184859329
0.9143626122537514	0.6482309750032756	0.6700194136899138
0.863318865918415	0.706224181537145	0.6234410223932789
0.8008954816668387	0.7619458172929245	0.5745193361075103
0.7271064844746048	0.8129298217702067	0.5246345715617315
0.6430409147950084	0.8567360449736305	0.4754889626496652
0.5509068417066625	0.8913858895756477	0.42886579351105336
0.4537814554431724	0.9157462858192316	0.3863265224484267
0.3551175773521327	0.9297098618449424	0.3489562155298307
0.2581809407124739	0.9341073916606406	0.3172492518977883
0.16561245248089768	0.9304162027376974	0.2911540572232161
0.07922167980252354	0.9204005589685316	0.2702230032405386
0.08383352441784356	0.9739806198956334	1.0995357169618283
0.0881543079290708	1.024180072543168	1.0311575701144682
0.09186290861412642	1.0672657727782737	0.95113800481086
0.09460596111234934	1.0991349478531938	0.8608304713860875
0.09607075720585229	1.1161529337123846	0.7633478506279756
0.09607078479872617	1.1161532542872197	0.6632793687701293
0.0946060431338159	1.0991359007810995	0.5657966530006675
0.09186303850892705	1.0672672818996032	0.4754889626496652
0.08815448246751494	1.0241821003373914	0.3954691183033159
0.08383373283760354	0.9739830413232	0.32709064962631107
0.17506824732666207	0.98353957774887	1.072728100703011
0.18363531705751346	1.0316692116703678	0.9977609889702594
0.190569157945128	1.0706241931269793	0.9110436557528367
0.1951174774488199	1.096176633737948	0.8148500003980805
0.1967058383123457	1.1050998808104922	0.7133136154589699
0.19511759016403116	1.0961772669758436	0.6117771857597072
0.19056937799302842	1.0706254293637785	0.5155833983963842
0.18363563985499376	1.03167102515716	0.42886579351105336
0.17506864672910108	0.9835418216058356	0.3538984150985085
0.2722683203882524	0.9850759023725585	1.0403000947322742
0.2844583320252817	1.0291799367693149	0.9586907250955234
0.29353621722289447	1.0620239630719834	0.8658573162849783
0.29840578339865476	1.0796422340278238	0.7651165439437664
0.29840586885126646	1.079642543198268	0.6615106765811207
0.2935364828441191	1.062024924098559	0.5607699010947567
0.2844587595593071	1.0291814836019848	0.46793616785161785
0.2722688805064169	0.9850779288988379	0.3863265224484267
0.3730336778510836	0.9766148484110942	1.00213861708023
0.3875926862000959	1.0147307422261171	0.9143629110990403
0.39717153118996223	1.0398085474772725	0.8166508486710549
0.4005221208295535	1.0485804519061583	0.7133136154589699
0.3971717618868578	1.0398091514495744	0.6099763382749361
0.38759314897052743	1.0147319537747355	0.5122641178399396
0.37303436878578466	0.9766166573016273	0.42448820471757953
0.4740971996743953	0.9567443389788064	0.9586907250955234
0.4892269654378616	0.9872767521060695	0.8658573162849783
0.49734293491190956	1.0036550055450146	0.7651165439437664
0.4973430773329183	1.0036552929554678	0.6615106765811207
0.48922740813984544	0.9872776454938171	0.5607699010947567
0.47409791223107367	0.9567457769425165	0.46793616785161785
0.5717075496308441	0.9250422933919327	0.9110436557528367
0.585352471144377	0.9471201227321807	0.8148500003980805
0.5901174018330535	0.9548300296112043	0.7133136154589699
0.5853528092900332	0.9471206698633046	0.6117771857597072
0.5717082097746329	0.9250433615270741	0.5155833983963842
0.6622415155077356	0.8823174579527778	0.8608304713860875
0.6724951014116619	0.8959784039820308	0.7633478506279756
0.6724952945617221	0.8959786613196415	0.6632793687701293
0.6622420896578175	0.882318222904278	0.5657966530006675
0.7428417692907464	0.8305224063035879	0.8099644675263198
0.7483133165684347	0.8366397753154436	0.7133136154589699
0.7428421977573846	0.8305228853438869	0.6166627130700846
0.8118359316726654	0.772354170519015	0.7602938581903023
0.8118361670678048	0.7723543944662568	0.6663333588582407
0.8688067990491559	0.7107135001669002	0.7133136154589699
-0.9978973034647272	0.5139454301103892	0.7133136154589699
-1.0378291615333162	0.4276091262643735	0.7133136154589699
-1.0724331626053918	0.3314001284515803	0.7133136154589699
-1.0993831524064803	0.22648535846344764	0.7133136154589699
-1.1165621850402787	0.11501226165763863	0.7133136154589699
-1.122470014474118	1.3746293103646118e-16	0.7133136154589699
-1.1165621850402787	-0.11501226165763863	0.7133136154589699
-1.0993831524064803	-0.22648535846344764	0.7133136154589699
-1.0724331626053918	-0.3314001284515803	0.7133136154589699
-1.0378291615333162	-0.4276091262643735	0.7133136154589699
-0.9978973034647272	-0.5139454301103892	0.7133136154589699
-0.965092511817684	-0.5647306426341321	0.7832966984029222
-0.9672459368833202	-0.532028562940142	0.8581170767476523
-0.9592738365774135	-0.4915906436910418	0.935620053094941
-0.939743342117383	-0.44368669047751697	1.0128773946834495
-0.9082557007255951	-0.38942159791025494	1.086578441322032
-0.8656993742102609	-0.33066778081294484	1.1536469005003769
-0.8141502966410882	-0.2697618414937868	1.2118610465931683
-0.7564314541585395	-0.20907247235510554	1.260210101396819
-0.6955255184508828	-0.150610709419714	1.2988610500446247
-0.6340775497838702	-0.09581061361511187	1.328823450640384
-0.5741225493696124	-0.04550020639910804	1.3515187673440239
-1.0081953837339195	0.48268845996697535	0.7864189413439133
-1.0089034984356224	0.44395363574254953	0.8643240675089685
-0.99781841521247	0.39771133679931475	0.9444490006555402
-0.9735942208150098	0.3447516837177058	1.0234268689359594
-0.9362430177240879	0.2867295295218104	1.0976487009352955
-0.887307398146634	0.22594749457379906	1.1640084573662313
-0.8295691151308634	0.1649223941004639	1.2205370722557778
-0.7664078226417168	0.10591498816682174	1.266644811013443
-0.7011072457165658	0.050606458346787446	1.30292223026386
-0.6363693570706075	7.793276962119785e-17	1.3306865601247877
-1.047171154903131	0.38993785608634773	0.789241777230739
-1.0453063948984573	0.3449791761445082	0.8697449778834945
-1.029982927199338	0.2932367726210302	0.9518066880749545
-1.0001417794258902	0.23610149332401434	1.031680898282909
-0.9564030899528935	0.17574217964412314	1.1055955606411496
-0.9010728750428307	0.11472642554158032	1.1705805851882023
-0.8376123131532446	0.055507122729351765	1.2250416403577253
-0.7698210725514294	9.427589124162904e-17	1.2688371939843086
-0.7011072457165658	-0.050606458346787446	1.30292223026386
-1.079563191089437	0.2871427524388776	0.79158758844284
-1.0738614727111293	0.23626873277306476	0.8739950513659887
-1.0532380332436966	0.17991449574264798	0.9571206047424905
-1.0171513307299882	0.1200584210529907	1.0369601130148611
-0.9669833035140113	0.059228784062024795	1.1097564959999306
-0.905805233990862	1.1092914804578285e-16	1.1728346360921846
-0.8376123131532446	-0.055507122729351765	1.2250416403577253
-0.7664078226417168	-0.10591498816682174	1.266644811013443
-1.1029060735359075	0.17601084688015559	0.7932778309376181
-1.0921601906326066	0.1201474017831041	0.8767176747238143
-1.065472112890151	0.060668112841038506	0.9599141735658385
-1.0230168283173495	1.2528342842727194e-16	1.038778895741958
-0.9669833035140113	-0.059228784062024795	1.1097564959999306
-0.9010728750428307	-0.11472642554158032	1.1705805851882023
-0.8295691151308634	-0.1649223941004639	1.2205370722557778
-1.1151600169923945	0.059322121384840144	0.7941650938448044
-1.098470818653785	1.3452387720211304e-16	0.8776564525743216
-1.065472112890151	-0.060668112841038506	0.9599141735658385
-1.0171513307299882	-0.1200584210529907	1.0369601130148611
-0.9564030899528935	-0.17574217964412314	1.1055955606411496
-0.887307398146634	-0.22594749457379906	1.1640084573662313
-1.1151600169923945	-0.059322121384840144	0.7941650938448044
-1.0921601906326066	-0.1201474017831041	0.8767176747238143
-1.0532380332436966	-0.17991449574264798	0.9571206047424905
-1.0001417794258902	-0.23610149332401434	1.031680898282909
-0.9362430177240879	-0.2867295295218104	1.0976487009352955
-1.1029060735359075	-0.17601084688015559	0.7932778309376181
-1.0738614727111293	-0.23626873277306476	0.8739950513659887
-1.029982927199338	-0.2932367726210302	0.9518066880749545
-0.9735942208150098	-0.3447516837177058	1.0234268689359594
-1.079563191089437	-0.2871427524388776	0.79158758844284
-1.0453063948984573	-0.3449791761445082	0.8697449778834945
-0.99781841521247	-0.39771133679931475	0.9444490006555402
-1.047171154903131	-0.38993785608634773	0.789241777230739
-1.0089034984356224	-0.44395363574254953	0.8643240675089685
-1.0081953837339195	-0.48268845996697535	0.7864189413439133
-0.9650929133940657	0.5647308776193644	0.6433305012818793
-0.9672467734292708	0.5320290230778618	0.5685100433793115
-0.9592751606726755	0.49159132223851937	0.4910068783968238
-0.939745119402992	0.44368752959808805	0.41374928060215765
-0.9082578702877099	0.3894225281266519	0.340047983870313
-0.8657019649862748	0.33066877040145637	0.27297935151686437
-0.8141531200399365	0.2697627770032078	0.2147648948219789
-0.756434426633411	0.2090732939267985	0.16641548790659044
-0.6955286774378097	0.15061139347407212	0.127764417683351
-0.6340808716120713	0.09581111555118953	0.09780191322755893
-0.5741258299315244	0.04550046638932139	0.07510650623493254
-1.0081958536232924	-0.48268868493346634	0.6402082464609649
-1.0089044045859195	-0.4439540344811003	0.56230315099678
-0.9978198264118352	-0.3977118992763922	0.4821780664435118
-0.9735960982252617	-0.3447523485124751	0.4031998461912023
-0.9362453330095488	-0.2867302385906081	0.32897766483605695
-0.8873100440125145	-0.22594816832763898	0.2626175617015889
-0.8295720454764351	-0.16492297666748384	0.20608878210287696
-0.7664109483958829	-0.10591542013555397	0.15998081488062255
-0.7011104357797819	-0.05060668860799535	0.123703185266411
-0.6363725993455781	7.793316668536432e-17	0.09593875347136605
-1.0471716854596602	-0.38993805365106726	0.6373854003815911
-1.0453073693657446	-0.34497949774487685	0.5568822300818308
-1.029984390171049	-0.2932371891299758	0.47482027479028277
-1.0001437637491557	-0.23610196175928602	0.3949457867713613
-0.9564055752276237	-0.1757426363214412	0.32103089404915597
-0.901075628354075	-0.11472677609875079	0.2560454890100199
-0.8376152874404841	-0.05550731983023513	0.20158413727903035
-0.769824242359973	9.427627943121772e-17	0.1577884318138425
-0.7011104357797819	0.05060668860799535	0.123703185266411
-1.079563779037566	-0.28714290882161225	0.6350396766049267
-1.0738625011917369	-0.2362689590571955	0.5526320411420165
-1.0532395945817499	-0.17991476245097	0.4695063064445706
-1.0171533936932347	-0.12005866455275575	0.38966653200538603
-0.9669857762568583	-0.0592289355202264	0.31686987963795055
-0.9058080266247858	1.1092949004480243e-16	0.25379146340355563
-0.8376152874404841	0.05550731983023513	0.20158413727903035
-0.7664109483958829	0.10591542013555397	0.15998081488062255
-1.1029066775411638	-0.17601094327229558	0.6333493371182657
-1.0921612777164658	-0.12014752137206397	0.549909397976641
-1.0654737314905942	-0.06066820500434635	0.46671270497881157
-1.0230189193485166	1.252836845047345e-16	0.3878477341156601
-0.9669857762568583	0.0592289355202264	0.31686987963795055
-0.901075628354075	0.11472677609875079	0.2560454890100199
-0.8295720454764351	0.16492297666748384	0.20608878210287696
-1.1151606347895608	-0.05932215424921649	0.6324620731185906
-1.0984719536220873	1.345240161956429e-16	0.5489707051726445
-1.0654737314905942	0.06066820500434635	0.46671270497881157
-1.0171533936932347	0.12005866455275575	0.38966653200538603
-0.9564055752276237	0.1757426363214412	0.32103089404915597
-0.8873100440125145	0.22594816832763898	0.2626175617015889
-1.1151606347895608	0.05932215424921649	0.6324620731185906
-1.0921612777164658	0.12014752137206397	0.549909397976641
-1.0532395945817499	0.17991476245097	0.4695063064445706
-1.0001437637491557	0.23610196175928602	0.3949457867713613
-0.9362453330095488	0.2867302385906081	0.32897766483605695
-1.1029066775411638	0.17601094327229558	0.6333493371182657
-1.0738625011917369	0.2362689590571955	0.5526320411420165
-1.029984390171049	0.2932371891299758	0.47482027479028277
-0.9735960982252617	0.3447523485124751	0.4031998461912023
-1.079563779037566	0.28714290882161225	0.6350396766049267
-1.0453073693657446	0.34497949774487685	0.5568822300818308
-0.9978198264118352	0.3977118992763922	0.4821780664435118
-1.0471716854596602	0.38993805365106726	0.6373854003815911
-1.0089044045859195	0.4439540344811003	0.56230315099678
-1.0081958536232924	0.48268868493346634	0.6402082464609649
-0.965092511817684	0.5647306426341321	0.7832966984029222
-0.9672459368833202	0.532028562940142	0.8581170767476523
-0.9592738365774135	0.4915906436910418	0.935620053094941