# TIME = 93.200000
VARIABLES = X, Y, Z, U, V, W
ZONE N=2562 E=5120 F=FEPOINT ET=TRIANGLE
-0.0024943 0.4627468 0.4002508 -0.000136 -0.000277 -0.000179
-0.0024943 -0.4627468 0.4002508 -0.000136 0.000277 -0.000179
-0.0024943 0.4627468 -0.4002508 -0.000136 -0.000277 0.000179
-0.0024943 -0.4627468 -0.4002508 -0.000136 0.000277 0.000179
1.4450076 0.4232259 -0.0000000 -0.001258 -0.000097 0.000000
-1.4448503 0.4244423 0.0000000 0.001156 -0.000093 0.000000
1.4450076 -0.4232259 -0.0000000 -0.001258 0.000097 0.000000
-1.4448503 -0.4244423 0.0000000 0.001156 0.000093 0.000000
0.9762158 0.0000000 0.5338998 -0.000441 -0.000000 -0.000314
0.9762158 -0.0000000 -0.5338998 -0.000441 -0.000000 0.000314
-0.9756065 0.0000000 0.5347469 0.000243 0.000000 -0.000329
-0.9756065 -0.0000000 -0.5347469 0.000243 -0.000000 0.000329
0.0776916 0.4745698 0.3857066 0.000178 -0.000127 -0.000364
0.1668170 0.4856573 0.3690422 0.000154 -0.000177 -0.000320
0.2541589 0.5019164 0.3418654 -0.000173 -0.000021 -0.000549
0.4185390 0.4990646 0.3301302 0.000129 -0.000428 0.000011
0.5172594 0.5015588 0.3131677 0.000027 -0.000270 -0.000227
0.6049208 0.5089131 0.2850940 -0.000149 -0.000343 -0.000083
0.6959236 0.5119143 0.2590013 -0.000494 -0.000359 0.000036
0.7850439 0.5125378 0.2324895 -0.000630 -0.000272 -0.000092
0.8737028 0.5110390 0.2044300 -0.000701 -0.000273 -0.000053
0.9620878 0.5068609 0.1755979 -0.000801 -0.000239 -0.000085
1.0496623 0.4998786 0.1461902 -0.000822 -0.000232 -0.000082
1.1359873 0.4899553 0.1164387 -0.000868 -0.000225 -0.000054
1.2201959 0.4770611 0.0866273 -0.000927 -0.000214 -0.000019
1.3010720 0.4613319 0.0569614 -0.001007 -0.000191 0.000009
1.3765959 0.4431959 0.0278933 -0.001160 -0.000137 -0.000008
0.0820060 0.5073377 -0.3414312 -0.000085 -0.000266 0.000199
0.1692861 0.5165684 -0.3240645 -0.000077 -0.000184 0.000330
0.3215355 0.5201029 -0.3073728 0.000175 -0.000306 0.000165
0.4153860 0.5279670 -0.2823343 -0.000124 -0.000359 0.000039
0.5075897 0.5324410 -0.2588122 -0.000307 -0.000305 0.000111
0.5988715 0.5360644 -0.2315177 -0.000400 -0.000308 0.000082
0.6904789 0.5367826 -0.2042461 -0.000506 -0.000319 0.000012
0.7810027 0.5350177 -0.1763355 -0.000670 -0.000280 0.000048
0.8706825 0.5307121 -0.1476009 -0.000703 -0.000262 0.000076
0.9593933 0.5236667 -0.1183107 -0.000787 -0.000256 0.000026
1.0467566 0.5137666 -0.0886628 -0.000869 -0.000229 0.000065
1.1322979 0.5009225 -0.0588859 -0.000897 -0.000223 0.000036
1.2154841 0.4850772 -0.0292135 -0.000988 -0.000199 0.000011
1.2961438 0.4661035 -0.0000000 -0.001102 -0.000163 -0.000000
0.0983887 0.5358867 -0.2941694 -0.000220 -0.000306 0.000126
0.2146410 0.5382963 -0.2843038 0.000026 -0.000195 0.000350
0.3098815 0.5477638 -0.2563063 -0.000032 -0.000272 0.000216
0.4070686 0.5534670 -0.2298135 -0.000275 -0.000341 0.000027
0.5012864 0.5565499 -0.2032737 -0.000363 -0.000295 0.000120
0.5944441 0.5573483 -0.1755668 -0.000445 -0.000319 0.000022
0.6868944 0.5555266 -0.1473328 -0.000595 -0.000296 0.000027
0.7782675 0.5510763 -0.1185460 -0.000662 -0.000283 0.000025
0.8685095 0.5439034 -0.0892336 -0.000766 -0.000263 0.000026
0.9574527 0.5338757 -0.0595617 -0.000797 -0.000252 0.000038
1.0448861 0.5208622 -0.0297317 -0.000870 -0.000238 -0.000014
1.1307433 0.5046954 -0.0000000 -0.000938 -0.000217 -0.000000
1.2154841 0.4850772 0.0292135 -0.000988 -0.000199 -0.000011
0.1110557 0.5582453 -0.2489857 -0.000178 -0.000312 0.000112
0.2102707 0.5643441 -0.2283851 -0.000200 -0.000268 0.000216
0.3064494 0.5703643 -0.2015466 -0.000233 -0.000282 0.000185
0.4026625 0.5736788 -0.1742852 -0.000294 -0.000325 0.000045
0.4976358 0.5744282 -0.1464487 -0.000449 -0.000305 0.000067
0.5916742 0.5725874 -0.1179550 -0.000475 -0.000304 0.000048
0.6847396 0.5680466 -0.0889824 -0.000587 -0.000296 0.000011
0.7766678 0.5607332 -0.0595833 -0.000671 -0.000280 0.000026
0.8673554 0.5505350 -0.0298621 -0.000742 -0.000267 0.000001
0.9567335 0.5373073 -0.0000000 -0.000837 -0.000248 -0.000000
1.0448861 0.5208622 0.0297317 -0.000870 -0.000238 0.000014
1.1322979 0.5009225 0.0588859 -0.000897 -0.000223 -0.000036
0.1081229 0.5787441 -0.1969153 -0.000239 -0.000340 0.000023
0.2065874 0.5840974 -0.1720571 -0.000284 -0.000286 0.000186
0.3035474 0.5874357 -0.1449713 -0.000258 -0.000313 0.000092
0.3999811 0.5882205 -0.1169720 -0.000374 -0.000314 0.000057
0.4955305 0.5863497 -0.0883615 -0.000418 -0.000314 0.000027
0.5901474 0.5817466 -0.0592489 -0.000539 -0.000303 0.000006
0.6837188 0.5743176 -0.0297580 -0.000605 -0.000292 0.000006
0.7761366 0.5639587 -0.0000000 -0.000693 -0.000278 -0.000000
0.8673554 0.5505350 0.0298621 -0.000742 -0.000267 -0.000001
0.9574527 0.5338757 0.0595617 -0.000797 -0.000252 -0.000038
1.0467566 0.5137666 0.0886628 -0.000869 -0.000229 -0.000065
0.1052263 0.5946346 -0.1421311 -0.000225 -0.000332 0.000032
0.2039014 0.5979848 -0.1153097 -0.000316 -0.000315 0.000086
0.3015687 0.5988119 -0.0873685 -0.000321 -0.000315 0.000081
0.3984926 0.5969513 -0.0587095 -0.000386 -0.000319 0.000011
0.4945571 0.5923115 -0.0295355 -0.000460 -0.000309 0.000038
0.5896618 0.5848021 -0.0000000 -0.000490 -0.000306 -0.000000
0.6837188 0.5743176 0.0297580 -0.000605 -0.000292 -0.000006
0.7766678 0.5607332 0.0595832 -0.000671 -0.000280 -0.000026
0.8685095 0.5439034 0.0892336 -0.000766 -0.000263 -0.000026
0.9593933 0.5236667 0.1183107 -0.000787 -0.000256 -0.000026
0.1031816 0.6053706 -0.0858294 -0.000268 -0.000330 0.000017
0.2022923 0.6063022 -0.0578466 -0.000292 -0.000323 0.000051
0.3005621 0.6044952 -0.0291871 -0.000329 -0.000323 0.000013
0.3980097 0.5998616 -0.0000000 -0.000387 -0.000318 -0.000000
0.4945571 0.5923115 0.0295355 -0.000460 -0.000309 -0.000038
0.5901474 0.5817466 0.0592489 -0.000539 -0.000303 -0.000006
0.6847396 0.5680466 0.0889824 -0.000587 -0.000296 -0.000011
0.7782675 0.5510763 0.1185460 -0.000662 -0.000283 -0.000025
0.8706825 0.5307121 0.1476009 -0.000703 -0.000262 -0.000076
0.1021699 0.6107703 -0.0286998 -0.000246 -0.000330 -0.000001
0.2017599 0.6090737 -0.0000000 -0.000339 -0.000325 -0.000000
0.3005621 0.6044953 0.0291871 -0.000329 -0.000323 -0.000013
0.3984926 0.5969513 0.0587095 -0.000386 -0.000319 -0.000011
0.4955305 0.5863498 0.0883615 -0.000418 -0.000314 -0.000027
0.5916743 0.5725874 0.1179550 -0.000475 -0.000304 -0.000048
0.6868944 0.5555266 0.1473328 -0.000595 -0.000296 -0.000027
0.7810027 0.5350177 0.1763355 -0.000670 -0.000280 -0.000048
0.1021699 0.6107703 0.0286997 -0.000246 -0.000330 0.000001
0.2022923 0.6063022 0.0578465 -0.000292 -0.000323 -0.000051
0.3015687 0.5988119 0.0873685 -0.000321 -0.000315 -0.000081
0.3999811 0.5882205 0.1169720 -0.000374 -0.000314 -0.000057
0.4976358 0.5744283 0.1464487 -0.000449 -0.000305 -0.000067
0.5944441 0.5573483 0.1755668 -0.000445 -0.000319 -0.000022
0.6904789 0.5367826 0.2042461 -0.000506 -0.000319 -0.000012
0.1031816 0.6053706 0.0858294 -0.000268 -0.000330 -0.000017
0.2039014 0.5979848 0.1153097 -0.000316 -0.000315 -0.000086
0.3035474 0.5874357 0.1449712 -0.000258 -0.000313 -0.000092
0.4026625 0.5736788 0.1742852 -0.000294 -0.000325 -0.000045
0.5012864 0.5565499 0.2032736 -0.000363 -0.000295 -0.000120
0.5988715 0.5360644 0.2315176 -0.000400 -0.000308 -0.000082
0.1052263 0.5946346 0.1421311 -0.000225 -0.000332 -0.000032
0.2065874 0.5840974 0.1720571 -0.000284 -0.000286 -0.000186
0.3064494 0.5703643 0.2015465 -0.000233 -0.000282 -0.000185
0.4070687 0.5534670 0.2298135 -0.000275 -0.000341 -0.000027
0.5075897 0.5324410 0.2588122 -0.000307 -0.000305 -0.000111
0.1081229 0.5787441 0.1969153 -0.000239 -0.000340 -0.000023
0.2102707 0.5643441 0.2283851 -0.000200 -0.000268 -0.000216
0.3098815 0.5477638 0.2563063 -0.000032 -0.000272 -0.000216
0.4153860 0.5279670 0.2823343 -0.000124 -0.000359 -0.000039
0.1110557 0.5582453 0.2489857 -0.000178 -0.000312 -0.000112
0.2146411 0.5382963 0.2843037 0.000026 -0.000195 -0.000350
0.3215356 0.5201029 0.3073728 0.000175 -0.000306 -0.000165
0.0983887 0.5358867 0.2941694 -0.000220 -0.000306 -0.000126
0.1692862 0.5165684 0.3240645 -0.000077 -0.000184 -0.000330
0.0820061 0.5073377 0.3414312 -0.000085 -0.000266 -0.000199
-0.0054148 0.4945730 0.3604890 -0.000172 -0.000429 0.000025
-0.0042058 0.5244318 0.3156508 -0.000153 -0.000395 0.000013
0.0018717 0.5499547 0.2688560 -0.000096 -0.000410 0.000082
0.0052648 0.5712145 0.2203131 -0.000111 -0.000375 0.000049
0.0044726 0.5887337 0.1681054 -0.000147 -0.000359 0.000047
0.0030012 0.6017103 0.1132733 -0.000117 -0.000346 0.000040
0.0019118 0.6096301 0.0569752 -0.000139 -0.000335 0.000016
0.0015235 0.6122889 -0.0000000 -0.000135 -0.000332 -0.000000
0.0019118 0.6096301 -0.0569753 -0.000139 -0.000335 -0.000016
0.0030012 0.6017103 -0.1132733 -0.000117 -0.000346 -0.000040
0.0044726 0.5887337 -0.1681054 -0.000147 -0.000359 -0.000047
0.0052648 0.5712145 -0.2203131 -0.000111 -0.000375 -0.000049
0.0018717 0.5499547 -0.2688560 -0.000096 -0.000410 -0.000082
-0.0042058 0.5244318 -0.3156508 -0.000153 -0.000395 -0.000013
-0.0054149 0.4945730 -0.3604890 -0.000172 -0.000429 -0.000025
-0.0832354 0.4715633 -0.3894659 -0.000316 -0.000471 -0.000044
-0.1687931 0.4810932 -0.3751502 -0.000207 -0.000337 0.000113
-0.2569314 0.4905002 -0.3578520 -0.000122 -0.000002 0.000560
-0.3957054 0.5006951 -0.3309301 -0.000481 -0.000383 0.000081
-0.4863116 0.5066199 -0.3100877 -0.000053 -0.000411 -0.000014
-0.5755846 0.5084641 -0.2925247 0.000199 -0.000410 -0.000064
-0.6705016 0.5111658 -0.2679372 0.000468 -0.000317 0.000032
-0.7736068 0.5091957 -0.2450326 0.000504 -0.000150 0.000350
-0.8655077 0.5111775 -0.2092142 0.000467 -0.000271 0.000108
-0.9570927 0.5080502 -0.1770241 0.000630 -0.000267 0.000036
-1.0462061 0.5013554 -0.1463825 0.000680 -0.000254 0.000026
-1.1335510 0.4914384 -0.1162626 0.000764 -0.000234 0.000012
-1.2184888 0.4784748 -0.0864497 0.000794 -0.000219 0.000014
-1.2999809 0.4626646 -0.0568838 0.000894 -0.000189 -0.000000
-1.3760278 0.4444604 -0.0278901 0.001004 -0.000149 0.000020
-0.0945952 0.5064167 0.3426898 -0.000038 -0.000494 0.000137
-0.1895236 0.5156544 0.3249177 0.000089 -0.000309 -0.000125
-0.2951499 0.5197279 0.3112129 -0.000128 -0.000120 -0.000456
-0.3887915 0.5301476 0.2824698 -0.000094 -0.000320 -0.000125
-0.4874640 0.5345542 0.2589156 0.000177 -0.000344 -0.000034
-0.5839717 0.5360302 0.2363327 0.000273 -0.000366 0.000046
-0.6818979 0.5352892 0.2124528 0.000521 -0.000282 -0.000075
-0.7734359 0.5339225 0.1847914 0.000489 -0.000234 -0.000213
-0.8640104 0.5312874 0.1518339 0.000501 -0.000265 -0.000116
-0.9542362 0.5249518 0.1200080 0.000559 -0.000275 -0.000033
-1.0428395 0.5152760 0.0891097 0.000674 -0.000252 -0.000024
-1.1293893 0.5024338 0.0588942 0.000732 -0.000235 -0.000034
-1.2134619 0.4865117 0.0291647 0.000832 -0.000211 0.000016
-1.2949139 0.4674468 0.0000000 0.000961 -0.000171 -0.000000
-0.0994500 0.5355936 0.2949481 -0.000052 -0.000435 0.000101
-0.2006031 0.5428111 0.2766297 0.000208 -0.000286 -0.000156
-0.2960172 0.5491419 0.2554328 0.000075 -0.000252 -0.000241
-0.3928529 0.5549635 0.2293404 0.000088 -0.000329 -0.000069
-0.4912683 0.5573496 0.2045361 0.000183 -0.000338 -0.000020
-0.5882812 0.5571736 0.1796851 0.000363 -0.000318 -0.000017
-0.6823019 0.5551284 0.1530405 0.000529 -0.000280 -0.000070
-0.7733589 0.5513327 0.1233949 0.000536 -0.000263 -0.000126
-0.8635025 0.5449309 0.0918960 0.000546 -0.000277 -0.000042
-0.9529222 0.5352980 0.0605744 0.000623 -0.000263 -0.000034
-1.0410332 0.5224059 0.0299376 0.000676 -0.000254 0.000022
-1.1277492 0.5062149 0.0000000 0.000793 -0.000224 -0.000000
-1.2134619 0.4865117 -0.0291647 0.000832 -0.000211 -0.000016
-0.0994084 0.5597635 0.2461510 0.000008 -0.000397 0.000078
-0.1994385 0.5666386 0.2239113 0.000148 -0.000319 -0.000084
-0.2974017 0.5717077 0.1996548 0.000144 -0.000275 -0.000204
-0.3956302 0.5745930 0.1738730 0.000150 -0.000333 -0.000024
-0.4935052 0.5748336 0.1478207 0.000325 -0.000321 -0.000010
-0.5891591 0.5727213 0.1209173 0.000389 -0.000308 -0.000021
-0.6822272 0.5683916 0.0922605 0.000513 -0.000285 -0.000053
-0.7733010 0.5615702 0.0618808 0.000504 -0.000283 -0.000067
-0.8633146 0.5517926 0.0307564 0.000550 -0.000279 -0.000021
-0.9524964 0.5387851 -0.0000000 0.000595 -0.000270 -0.000000
-1.0410332 0.5224059 -0.0299376 0.000676 -0.000254 -0.000022
-1.1293893 0.5024338 -0.0588942 0.000732 -0.000235 0.000034
-0.0979877 0.5797005 0.1947913 0.000068 -0.000368 0.000057
-0.1990004 0.5852121 0.1696258 0.000139 -0.000330 -0.000041
-0.2984491 0.5882414 0.1436520 0.000157 -0.000315 -0.000086
-0.3970788 0.5887555 0.1168641 0.000206 -0.000322 -0.000037
-0.4942402 0.5867161 0.0893649 0.000332 -0.000316 -0.000003
-0.5892453 0.5821741 0.0607500 0.000444 -0.000300 -0.000019
-0.6821034 0.5750132 0.0308183 0.000510 -0.000291 -0.000005
-0.7732714 0.5649702 -0.0000000 0.000548 -0.000283 -0.000000
-0.8633146 0.5517926 -0.0307564 0.000550 -0.000279 0.000021
-0.9529222 0.5352980 -0.0605744 0.000623 -0.000263 0.000034
-1.0428395 0.5152760 -0.0891097 0.000674 -0.000252 0.000024
-0.0981321 0.5951241 0.1408829 0.000006 -0.000349 0.000032
-0.1992597 0.5985479 0.1139851 0.000137 -0.000326 -0.000040
-0.2991079 0.5992688 0.0866882 0.000182 -0.000321 -0.000051
-0.3976276 0.5973317 0.0587305 0.000247 -0.000322 0.000002
-0.4944234 0.5927158 0.0298967 0.000365 -0.000310 -0.000014
-0.5892293 0.5853354 -0.0000000 0.000410 -0.000304 -0.000000
-0.6821034 0.5750132 -0.0308183 0.000510 -0.000291 0.000005
-0.7733010 0.5615702 -0.0618808 0.000504 -0.000283 0.000067
-0.8635025 0.5449309 -0.0918960 0.000546 -0.000277 0.000042
-0.9542362 0.5249518 -0.1200080 0.000559 -0.000275 0.000033
-0.0987782 0.6056091 0.0852112 0.000019 -0.000339 0.000027
-0.1996576 0.6066024 0.0572823 0.000114 -0.000330 -0.000003
-0.2994119 0.6048030 0.0289879 0.000192 -0.000324 -0.000025
-0.3977630 0.6002049 -0.0000000 0.000246 -0.000320 -0.000000
-0.4944234 0.5927158 -0.0298967 0.000365 -0.000310 0.000014
-0.5892453 0.5821741 -0.0607500 0.000444 -0.000300 0.000019
-0.6822272 0.5683916 -0.0922605 0.000513 -0.000285 0.000053
-0.7733589 0.5513327 -0.1233949 0.000536 -0.000263 0.000126
-0.8640104 0.5312874 -0.1518339 0.000501 -0.000265 0.000116
-0.0992426 0.6109077 0.0285144 0.000012 -0.000332 -0.000000
-0.1998204 0.6092989 -0.0000000 0.000126 -0.000328 -0.000000
-0.2994119 0.6048030 -0.0289879 0.000192 -0.000324 0.000025
-0.3976276 0.5973317 -0.0587305 0.000247 -0.000322 -0.000002
-0.4942402 0.5867161 -0.0893649 0.000332 -0.000316 0.000003
-0.5891591 0.5727213 -0.1209173 0.000389 -0.000308 0.000021
-0.6823019 0.5551284 -0.1530405 0.000529 -0.000280 0.000070
-0.7734359 0.5339225 -0.1847914 0.000489 -0.000234 0.000213
-0.0992426 0.6109077 -0.0285144 0.000012 -0.000332 0.000000
-0.1996576 0.6066024 -0.0572823 0.000114 -0.000330 0.000003
-0.2991079 0.5992687 -0.0866882 0.000182 -0.000321 0.000051
-0.3970788 0.5887555 -0.1168641 0.000206 -0.000322 0.000037
-0.4935052 0.5748336 -0.1478207 0.000325 -0.000321 0.000010
-0.5882812 0.5571736 -0.1796851 0.000363 -0.000318 0.000017
-0.6818980 0.5352892 -0.2124528 0.000521 -0.000282 0.000075
-0.0987782 0.6056091 -0.0852112 0.000019 -0.000339 -0.000027
-0.1992597 0.5985479 -0.1139851 0.000137 -0.000326 0.000040
-0.2984491 0.5882414 -0.1436520 0.000157 -0.000315 0.000086
-0.3956302 0.5745930 -0.1738730 0.000150 -0.000333 0.000024
-0.4912683 0.5573496 -0.2045361 0.000183 -0.000338 0.000020
-0.5839717 0.5360301 -0.2363327 0.000273 -0.000366 -0.000046
-0.0981321 0.5951241 -0.1408829 0.000006 -0.000349 -0.000032
-0.1990004 0.5852120 -0.1696258 0.000139 -0.000330 0.000041
-0.2974017 0.5717077 -0.1996548 0.000144 -0.000275 0.000204
-0.3928529 0.5549635 -0.2293404 0.000088 -0.000329 0.000069
-0.4874640 0.5345542 -0.2589156 0.000177 -0.000344 0.000034
-0.0979877 0.5797005 -0.1947913 0.000068 -0.000368 -0.000057
-0.1994385 0.5666386 -0.2239113 0.000148 -0.000319 0.000084
-0.2960172 0.5491419 -0.2554328 0.000075 -0.000252 0.000241
-0.3887916 0.5301476 -0.2824698 -0.000094 -0.000320 0.000125
-0.0994084 0.5597635 -0.2461511 0.000008 -0.000397 -0.000078
-0.2006031 0.5428111 -0.2766298 0.000208 -0.000286 0.000156
-0.2951499 0.5197279 -0.3112129 -0.000128 -0.000120 0.000456
-0.0994500 0.5355936 -0.2949481 -0.000052 -0.000435 -0.000101
-0.1895236 0.5156544 -0.3249177 0.000089 -0.000309 0.000125
-0.0945952 0.5064167 -0.3426898 -0.000038 -0.000494 -0.000137
0.0493010 0.4408677 0.4237588 0.000132 -0.000123 -0.000346
0.1020688 0.4285460 0.4356079 0.000048 0.000071 -0.000535
0.1637280 0.4076805 0.4534287 0.000004 -0.000240 -0.000235
0.2253373 0.3896308 0.4667444 -0.000293 -0.000107 -0.000336
0.2879348 0.3690500 0.4800735 -0.000318 -0.000091 -0.000338
0.3504653 0.3456881 0.4934309 -0.000346 0.000156 -0.000501
0.4133305 0.3184769 0.5069852 -0.000496 0.000056 -0.000402
0.4764209 0.2883409 0.5196440 -0.000520 -0.000092 -0.000300
0.5392628 0.2559313 0.5307232 -0.000454 -0.000224 -0.000236
0.6016900 0.2215346 0.5398130 -0.000490 -0.000223 -0.000239
0.6638345 0.1855451 0.5464973 -0.000539 -0.000279 -0.000222
0.7258223 0.1485244 0.5503976 -0.000523 -0.000273 -0.000237
0.7878013 0.1109667 0.5512547 -0.000497 -0.000208 -0.000267
0.8500138 0.0733469 0.5488717 -0.000497 -0.000114 -0.000291
0.9127417 0.0361874 0.5431090 -0.000469 -0.000063 -0.000304
1.3915422 0.4324941 0.0799362 -0.000949 -0.000195 -0.000037
1.4037972 0.4162753 0.1305864 -0.000951 -0.000175 -0.000100
1.4106321 0.3951084 0.1802434 -0.000829 -0.000181 -0.000165
1.4114466 0.3692746 0.2281020 -0.000838 -0.000163 -0.000175
1.4066840 0.3390348 0.2732548 -0.000861 -0.000116 -0.000213
1.3972398 0.3046227 0.3149859 -0.000857 -0.000082 -0.000234
1.3841081 0.2661539 0.3528082 -0.000775 -0.000080 -0.000251
1.3692321 0.2226439 0.3865804 -0.000742 -0.000078 -0.000253
1.2999468 0.2083216 0.4157685 -0.000718 -0.000170 -0.000209
1.2344402 0.1880017 0.4431703 -0.000635 -0.000106 -0.000262
1.1696279 0.1630104 0.4687316 -0.000615 -0.000031 -0.000291
1.1046958 0.1345832 0.4918804 -0.000478 -0.000050 -0.000310
1.0399268 0.1037346 0.5121249 -0.000457 -0.000164 -0.000287
0.9758817 0.0708753 0.5292315 -0.000446 -0.000118 -0.000300
1.3105892 0.4487961 0.1112359 -0.000922 -0.000199 -0.000070
1.3180355 0.4305370 0.1632251 -0.000835 -0.000220 -0.000075
1.3213247 0.4071743 0.2131276 -0.000872 -0.000165 -0.000164
1.3202615 0.3789273 0.2605419 -0.000816 -0.000145 -0.000208
1.3160417 0.3457269 0.3048663 -0.000829 -0.000098 -0.000242
1.3100980 0.3070022 0.3458651 -0.000781 -0.000090 -0.000250
1.3034242 0.2617090 0.3833404 -0.000676 -0.000153 -0.000228
1.2327024 0.2473905 0.4134667 -0.000609 -0.000241 -0.000193
1.1672395 0.2258558 0.4425036 -0.000736 -0.000038 -0.000271
1.1030458 0.1995249 0.4696799 -0.000568 -0.000101 -0.000276
1.0386204 0.1707982 0.4940765 -0.000505 -0.000243 -0.000238
0.9748321 0.1403987 0.5153512 -0.000497 -0.000190 -0.000264
0.9120025 0.1078662 0.5336363 -0.000488 -0.000145 -0.000282
1.2262068 0.4622162 0.1417411 -0.000867 -0.000218 -0.000065
1.2303956 0.4415460 0.1944867 -0.000875 -0.000191 -0.000125
1.2316671 0.4154114 0.2448133 -0.000784 -0.000196 -0.000154
1.2305483 0.3838120 0.2922914 -0.000845 -0.000167 -0.000165
1.2298926 0.3461423 0.3362353 -0.000688 -0.000208 -0.000174
1.2312946 0.3008784 0.3768071 -0.000529 -0.000283 -0.000168
1.1633763 0.2852722 0.4078058 -0.000691 -0.000140 -0.000230
1.1004108 0.2612038 0.4390419 -0.000592 -0.000003 -0.000334
1.0365184 0.2344335 0.4676773 -0.000528 -0.000300 -0.000186
0.9728159 0.2071717 0.4926884 -0.000546 -0.000259 -0.000212
0.9103846 0.1775032 0.5149491 -0.000492 -0.000217 -0.000247
0.8487526 0.1452849 0.5345397 -0.000450 -0.000187 -0.000270
1.1398308 0.4724815 0.1719446 -0.000829 -0.000206 -0.000134
1.1423689 0.4489430 0.2252116 -0.000809 -0.000203 -0.000139
1.1433858 0.4193172 0.2761066 -0.000791 -0.000131 -0.000252
1.1435587 0.3832472 0.3242714 -0.000588 -0.000144 -0.000280
1.1517284 0.3397992 0.3671255 -0.000463 -0.000254 -0.000199
1.0928053 0.3205669 0.3998307 -0.000622 0.000007 -0.000367
1.0327469 0.2923244 0.4346487 -0.000531 -0.000372 -0.000111
0.9693714 0.2698843 0.4619990 -0.000492 -0.000308 -0.000174
0.9076428 0.2439067 0.4875061 -0.000452 -0.000155 -0.000269
0.8464951 0.2144892 0.5110723 -0.000414 -0.000232 -0.000244
0.7858345 0.1825361 0.5321297 -0.000466 -0.000321 -0.000215
1.0526330 0.4795171 0.2018252 -0.000841 -0.000209 -0.000125
1.0552669 0.4527310 0.2553289 -0.000832 -0.000170 -0.000194
1.0581859 0.4187923 0.3069587 -0.000750 -0.000182 -0.000189
1.0618975 0.3768451 0.3563457 -0.000359 -0.000142 -0.000333
1.0267599 0.3435466 0.3967216 -0.000484 -0.000265 -0.000178
0.9643016 0.3279870 0.4238074 -0.000326 -0.000317 -0.000176
0.9036369 0.3065010 0.4515533 -0.000521 -0.000189 -0.000234
0.8431706 0.2798336 0.4789836 -0.000401 -0.000276 -0.000206
0.7826424 0.2504831 0.5041833 -0.000369 -0.000467 -0.000125
0.7228269 0.2191731 0.5266511 -0.000486 -0.000374 -0.000175
0.9652342 0.4835698 0.2309547 -0.000705 -0.000260 -0.000081
0.9689363 0.4538682 0.2837549 -0.000731 -0.000286 -0.000043
0.9744325 0.4179123 0.3329466 -0.000556 -0.000344 -0.000041
0.9704137 0.3790918 0.3773233 -0.000377 -0.000430 -0.000031
0.8998670 0.3641109 0.4073207 -0.000509 -0.000363 -0.000080
0.8388987 0.3402513 0.4389342 -0.000457 -0.000233 -0.000210
0.7781224 0.3133016 0.4684331 -0.000394 -0.000531 -0.000026
0.7180528 0.2854826 0.4945046 -0.000457 -0.000474 -0.000083
0.6595054 0.2549333 0.5182970 -0.000454 -0.000349 -0.000173
0.8775086 0.4848989 0.2592505 -0.000649 -0.000241 -0.000144
0.8814813 0.4524917 0.3113422 -0.000418 -0.000275 -0.000156
0.8904156 0.4139798 0.3588144 -0.000206 -0.000437 -0.000028
0.8302283 0.3960530 0.3911868 -0.000446 -0.000144 -0.000293
0.7717988 0.3687039 0.4272325 -0.000301 -0.000567 0.000056
0.7110636 0.3461029 0.4551672 -0.000295 -0.000473 -0.000051
0.6528774 0.3196408 0.4819481 -0.000290 -0.000323 -0.000177
0.5958281 0.2893018 0.5073868 -0.000392 -0.000270 -0.000209
0.7907675 0.4831849 0.2871471 -0.000552 -0.000305 -0.000067
0.7971831 0.4463908 0.3403037 -0.000135 -0.000292 -0.000195
0.7632440 0.4160485 0.3827596 -0.000183 -0.000421 -0.000050
0.7017760 0.4004883 0.4096288 -0.000069 -0.000477 -0.000028
0.6437131 0.3790051 0.4380934 -0.000291 -0.000314 -0.000159
0.5872330 0.3519879 0.4671205 -0.000179 -0.000346 -0.000160
0.5314862 0.3215385 0.4945279 -0.000296 -0.000386 -0.000135
0.7043105 0.4811067 0.3107256 -0.000337 -0.000421 0.000057
0.7036765 0.4469124 0.3580636 -0.000118 -0.000535 0.000110
0.6338249 0.4318922 0.3876063 -0.000126 -0.000427 -0.000038
0.5760008 0.4084078 0.4201956 -0.000163 -0.000325 -0.000153
0.5201289 0.3811102 0.4514498 -0.000156 -0.000483 -0.000032
0.4659704 0.3516843 0.4800149 -0.000370 -0.000264 -0.000201
0.6180877 0.4759474 0.3348906 0.000086 -0.000466 0.000030
0.5590915 0.4586510 0.3673011 -0.000153 -0.000217 -0.000266
0.5049354 0.4322344 0.4045502 0.000129 -0.000507 0.000018
0.4499128 0.4087703 0.4340248 -0.000031 -0.000353 -0.000138
0.3997511 0.3798019 0.4639811 -0.000338 0.000086 -0.000485
0.4871748 0.4742749 0.3565447 0.000217 -0.000350 -0.000137
0.4278515 0.4584270 0.3835648 0.000306 -0.000379 -0.000114
0.3781053 0.4356445 0.4139246 -0.000103 -0.000043 -0.000440
0.3339435 0.4043633 0.4478581 -0.000253 0.000082 -0.000514
0.3477745 0.4838015 0.3593826 0.000217 -0.000263 -0.000233
0.3058613 0.4581233 0.3949457 -0.000177 -0.000018 -0.000479
0.2692936 0.4225066 0.4348403 -0.000084 -0.000197 -0.000274
0.2393998 0.4678440 0.3873746 0.000206 -0.000119 -0.000388
0.2020198 0.4412416 0.4194269 0.000064 -0.000052 -0.000431
0.1419428 0.4534300 0.4083853 0.000304 -0.000174 -0.000309
-0.0832354 0.4715633 0.3894658 -0.000316 -0.000471 0.000044
-0.1687931 0.4810933 0.3751502 -0.000207 -0.000337 -0.000113
-0.2569314 0.4905002 0.3578520 -0.000122 -0.000002 -0.000560
-0.3957054 0.5006951 0.3309301 -0.000481 -0.000383 -0.000081
-0.4863116 0.5066199 0.3100877 -0.000053 -0.000411 0.000014
-0.5755846 0.5084641 0.2925247 0.000199 -0.000410 0.000064
-0.6705016 0.5111658 0.2679372 0.000468 -0.000317 -0.000032
-0.7736068 0.5091957 0.2450326 0.000504 -0.000150 -0.000350
-0.8655077 0.5111775 0.2092142 0.000467 -0.000271 -0.000108
-0.9570927 0.5080502 0.1770241 0.000630 -0.000267 -0.000036
-1.0462060 0.5013554 0.1463825 0.000680 -0.000254 -0.000026
-1.1335510 0.4914384 0.1162626 0.000764 -0.000234 -0.000012
-1.2184888 0.4784748 0.0864497 0.000794 -0.000219 -0.000014
-1.2999809 0.4626646 0.0568838 0.000894 -0.000189 0.000000
-1.3760278 0.4444604 0.0278901 0.001004 -0.000149 -0.000020
-1.4675642 0.4149256 0.0458218 0.000926 -0.000159 -0.000057
-1.4858053 0.4005541 0.0946961 0.000795 -0.000179 -0.000141
-1.4976329 0.3811359 0.1447741 0.000776 -0.000158 -0.000183
-1.5019232 0.3568870 0.1941594 0.000748 -0.000146 -0.000197
-1.4985114 0.3282189 0.2413993 0.000756 -0.000113 -0.000217
-1.4881228 0.2957416 0.2852299 0.000753 -0.000089 -0.000225
-1.4720596 0.2601707 0.3247168 0.000716 -0.000067 -0.000244
-1.4518094 0.2227018 0.3589918 0.000737 -0.000007 -0.000261
-1.4288462 0.1849466 0.3874976 0.000742 -0.000009 -0.000245
-1.3688652 0.1687557 0.4142485 0.000583 -0.000121 -0.000243
-1.3055919 0.1483446 0.4402707 0.000500 -0.000048 -0.000290
-1.2400288 0.1238641 0.4647900 0.000431 0.000034 -0.000324
-1.1732508 0.0962538 0.4869278 0.000320 0.000017 -0.000335
-1.1063376 0.0662955 0.5061327 0.000226 -0.000091 -0.000331
-1.0403218 0.0342094 0.5221172 0.000242 -0.000038 -0.000331
-0.1412095 0.4461403 0.4165700 -0.000466 -0.000586 0.000125
-0.1981054 0.4321545 0.4292202 -0.000368 0.000154 -0.000637
-0.2660920 0.4140620 0.4433470 -0.000269 -0.000181 -0.000302
-0.3346267 0.3997709 0.4522182 0.000029 -0.000153 -0.000309
-0.4033092 0.3799331 0.4640021 0.000419 -0.000094 -0.000322
-0.4708959 0.3558614 0.4769744 0.000420 -0.000390 -0.000091
-0.5362591 0.3279037 0.4904196 0.000173 -0.000284 -0.000201
-0.5995364 0.2955992 0.5039559 0.000228 -0.000072 -0.000329
-0.6622209 0.2597069 0.5162332 0.000322 -0.000224 -0.000236
-0.7247966 0.2222241 0.5257645 0.000326 -0.000395 -0.000171
-0.7871356 0.1841843 0.5320461 0.000356 -0.000435 -0.000174
-0.8493343 0.1458796 0.5349813 0.000259 -0.000248 -0.000265
-0.9119266 0.1076634 0.5344086 0.000276 -0.000144 -0.000298
-0.9754792 0.0702241 0.5301375 0.000245 -0.000114 -0.000316
-0.2375450 0.4577835 0.3995359 -0.000596 -0.000059 -0.000464
-0.3067189 0.4494688 0.4049407 -0.000312 -0.000115 -0.000390
-0.3791480 0.4333258 0.4167366 0.000021 0.000009 -0.000490
-0.4538781 0.4118897 0.4312240 0.000172 -0.000430 -0.000039
-0.5255001 0.3885485 0.4451045 0.000317 -0.000556 0.000069
-0.5918398 0.3602336 0.4609534 0.000087 -0.000178 -0.000284
-0.6565682 0.3258272 0.4780166 0.000138 -0.000208 -0.000259
-0.7212445 0.2891821 0.4926112 0.000254 -0.000514 -0.000069
-0.7854748 0.2523331 0.5035504 0.000258 -0.000532 -0.000091
-0.8486881 0.2151657 0.5111674 0.000224 -0.000363 -0.000201
-0.9115736 0.1772025 0.5156025 0.000282 -0.000227 -0.000260
-0.9751646 0.1391528 0.5164020 0.000295 -0.000144 -0.000292
-1.0400301 0.1020139 0.5132486 0.000300 -0.000132 -0.000302
-0.3415661 0.4812472 0.3638768 -0.000134 -0.000026 -0.000523
-0.4253357 0.4595571 0.3829871 -0.000273 -0.000297 -0.000195
-0.5107021 0.4400847 0.3960019 -0.000105 -0.000648 0.000198
-0.5816824 0.4195246 0.4091848 0.000009 -0.000339 -0.000140
-0.6491424 0.3864869 0.4315379 0.000012 -0.000368 -0.000132
-0.7160803 0.3501074 0.4521230 -0.000027 -0.000542 -0.000026
-0.7831645 0.3147026 0.4674704 0.000182 -0.000573 -0.000012
-0.8481951 0.2799962 0.4788255 0.000293 -0.000389 -0.000139
-0.9114864 0.2434709 0.4878412 0.000340 -0.000210 -0.000242
-0.9748848 0.2055230 0.4938099 0.000287 -0.000154 -0.000284
-1.0396027 0.1678772 0.4957083 0.000368 -0.000215 -0.000253
-1.1057675 0.1315457 0.4933295 0.000302 -0.000132 -0.000301
-0.4815401 0.4775699 0.3533790 -0.000437 -0.000529 0.000092
-0.5661353 0.4709900 0.3514092 -0.000164 -0.000476 0.000042
-0.6432814 0.4396946 0.3781794 -0.000179 -0.000496 0.000018
-0.7104698 0.4041907 0.4054534 -0.000185 -0.000495 -0.000030
-0.7798485 0.3690861 0.4263837 0.000144 -0.000498 -0.000011
-0.8475313 0.3388549 0.4392993 0.000320 -0.000207 -0.000235
-0.9124132 0.3051896 0.4516406 0.000489 -0.000246 -0.000180
-0.9753388 0.2684204 0.4625575 0.000357 -0.000220 -0.000230
-1.0392832 0.2303819 0.4699864 0.000424 -0.000201 -0.000234
-1.1054459 0.1943625 0.4721834 0.000389 -0.000198 -0.000250
-1.1719691 0.1595354 0.4703168 0.000409 0.000006 -0.000325
-0.6501841 0.4799821 0.3243128 0.000036 -0.000392 -0.000029
-0.7222262 0.4483654 0.3537691 0.000141 -0.000351 -0.000092
-0.7761434 0.4149277 0.3824993 0.000241 -0.000239 -0.000214
-0.8432867 0.3926387 0.3929185 0.000385 -0.000159 -0.000268
-0.9129585 0.3607141 0.4085742 0.000519 -0.000229 -0.000174
-0.9792639 0.3261085 0.4230158 0.000495 -0.000326 -0.000109
-1.0398107 0.2886262 0.4365187 0.000355 -0.000187 -0.000250
-1.1052999 0.2522970 0.4439294 0.000463 -0.000258 -0.000189
-1.1712436 0.2208634 0.4450286 0.000542 0.000108 -0.000362
-1.2370669 0.1855499 0.4445621 0.000638 0.000048 -0.000295
-0.7410412 0.4817047 0.3029842 0.000341 -0.000224 -0.000222
-0.8168503 0.4419625 0.3427059 0.000222 -0.000219 -0.000247
-0.9055465 0.4096434 0.3612949 0.000332 -0.000272 -0.000163
-0.9841244 0.3755131 0.3787078 0.000368 -0.000449 0.000010
-1.0546580 0.3402932 0.3938831 0.000443 -0.000232 -0.000190
-1.1051718 0.3041204 0.4100653 0.000555 -0.000126 -0.000247
-1.1685398 0.2809057 0.4105914 0.000668 0.000129 -0.000388
-1.2353456 0.2453777 0.4150573 0.000583 -0.000058 -0.000276
-1.3016481 0.2074751 0.4168380 0.000604 -0.000115 -0.000236
-0.8199450 0.4762125 0.2919961 0.000760 -0.000108 -0.000303
-0.8992196 0.4483510 0.3136711 0.000541 -0.000220 -0.000173
-0.9837488 0.4171120 0.3325167 0.000549 -0.000328 -0.000032
-1.0666572 0.3808772 0.3516310 0.000608 -0.000184 -0.000190
-1.1455776 0.3386077 0.3713966 0.000321 -0.000098 -0.000346
-1.2294489 0.3010150 0.3785110 0.000455 -0.000187 -0.000232
-1.3035736 0.2617009 0.3845460 0.000508 -0.000211 -0.000206
-1.3697406 0.2228145 0.3875707 0.000620 -0.000089 -0.000249
-0.8817914 0.4844417 0.2600589 0.000476 -0.000281 -0.000088
-0.9763892 0.4538549 0.2827435 0.000635 -0.000310 0.000002
-1.0643810 0.4203206 0.3041591 0.000656 -0.000249 -0.000091
-1.1479268 0.3829596 0.3245508 0.000619 -0.000163 -0.000210