# TIME = 65.000000
VARIABLES = X, Y, Z, U, V, W
ZONE N=2562 E=5120 F=FEPOINT ET=TRIANGLE
0.0000002 0.5178046 0.4094018 0.000000 -0.000357 -0.000010
0.0000002 -0.5178045 0.4094017 0.000000 0.000357 -0.000010
-0.0000002 0.5178046 -0.4094017 -0.000000 -0.000357 0.000010
-0.0000002 -0.5178045 -0.4094017 0.000000 0.000357 0.000010
1.3358636 0.4532920 -0.0000002 -0.000919 -0.000076 0.000000
-1.3358636 0.4532920 0.0000002 0.000919 -0.000076 0.000000
1.3358636 -0.4532920 -0.0000002 -0.000919 0.000076 0.000000
-1.3358636 -0.4532920 0.0000002 0.000919 0.000076 -0.000000
0.8498018 0.0000000 0.5855889 0.000001 -0.000000 -0.000326
0.8498012 0.0000000 -0.5855890 0.000001 0.000000 0.000326
-0.8498012 0.0000000 0.5855890 -0.000001 0.000000 -0.000326
-0.8498018 0.0000000 -0.5855889 -0.000001 0.000000 0.000326
0.0848711 0.5276035 0.3959003 0.000094 -0.000269 -0.000121
0.1787236 0.5358461 0.3807038 0.000174 -0.000254 -0.000155
0.2690701 0.5465117 0.3579142 -0.000021 -0.000321 -0.000048
0.3582944 0.5527846 0.3376778 -0.000137 -0.000308 -0.000049
0.4467239 0.5580078 0.3146944 -0.000302 -0.000314 -0.000002
0.5342489 0.5609742 0.2909022 -0.000450 -0.000242 -0.000089
0.6210866 0.5621701 0.2651640 -0.000522 -0.000224 -0.000096
0.7077063 0.5611085 0.2379594 -0.000546 -0.000189 -0.000157
0.7943495 0.5573931 0.2096724 -0.000509 -0.000204 -0.000129
0.8805928 0.5507083 0.1808668 -0.000551 -0.000191 -0.000139
0.9655765 0.5410437 0.1516884 -0.000504 -0.000206 -0.000122
1.0483766 0.5285027 0.1220719 -0.000513 -0.000218 -0.000068
1.1280358 0.5132214 0.0918976 -0.000572 -0.000209 -0.000024
1.2035481 0.4953465 0.0611363 -0.000603 -0.000197 -0.000024
1.2732783 0.4752300 0.0302440 -0.000705 -0.000163 0.000024
0.0928188 0.5596915 -0.3488944 -0.000029 -0.000305 0.000062
0.1821743 0.5689745 -0.3288221 -0.000076 -0.000283 0.000093
0.2722366 0.5768679 -0.3062789 -0.000144 -0.000295 0.000058
0.3617160 0.5821211 -0.2835579 -0.000263 -0.000289 0.000043
0.4505428 0.5853224 -0.2595254 -0.000373 -0.000281 0.000026
0.5386445 0.5863540 -0.2342747 -0.000465 -0.000246 0.000070
0.6261493 0.5851654 -0.2076163 -0.000489 -0.000226 0.000103
0.7131447 0.5814958 -0.1798031 -0.000537 -0.000216 0.000100
0.7994220 0.5751234 -0.1511314 -0.000525 -0.000211 0.000115
0.8844446 0.5659232 -0.1218599 -0.000513 -0.000221 0.000076
0.9675221 0.5538742 -0.0920783 -0.000547 -0.000215 0.000057
1.0480013 0.5389789 -0.0617869 -0.000553 -0.000213 0.000053
1.1253890 0.5211909 -0.0310029 -0.000593 -0.000205 -0.000004
1.1996783 0.5002910 -0.0000002 -0.000745 -0.000155 0.000000
0.0926685 0.5879500 -0.2988810 -0.000130 -0.000321 0.000010
0.1837189 0.5963221 -0.2760193 -0.000122 -0.000294 0.000053
0.2744205 0.6022547 -0.2524351 -0.000227 -0.000299 0.000020
0.3645405 0.6057506 -0.2281876 -0.000285 -0.000278 0.000050
0.4539548 0.6069373 -0.2029252 -0.000382 -0.000270 0.000034
0.5425884 0.6057791 -0.1765520 -0.000453 -0.000249 0.000060
0.6303894 0.6021766 -0.1490446 -0.000473 -0.000240 0.000066
0.7171988 0.5959724 -0.1205556 -0.000485 -0.000234 0.000071
0.8026908 0.5870279 -0.0912737 -0.000518 -0.000230 0.000047
0.8864439 0.5752385 -0.0613530 -0.000528 -0.000225 0.000057
0.9681006 0.5604965 -0.0308912 -0.000538 -0.000225 -0.000005
1.0475728 0.5426138 -0.0000001 -0.000624 -0.000200 0.000000
1.1253890 0.5211909 0.0310026 -0.000593 -0.000205 0.000004
0.0927244 0.6116407 -0.2468461 -0.000091 -0.000316 -0.000005
0.1847097 0.6183504 -0.2222477 -0.000172 -0.000292 0.000039
0.2761565 0.6223896 -0.1973484 -0.000228 -0.000288 0.000030
0.3669039 0.6238986 -0.1718443 -0.000331 -0.000278 0.000025
0.4567975 0.6229402 -0.1454640 -0.000369 -0.000266 0.000039
0.5456804 0.6194800 -0.1180928 -0.000436 -0.000255 0.000040
0.6333737 0.6134247 -0.0897343 -0.000476 -0.000245 0.000044
0.7196470 0.6046507 -0.0604963 -0.000497 -0.000239 0.000041
0.8042536 0.5930235 -0.0305299 -0.000503 -0.000237 0.000015
0.8870394 0.5783835 -0.0000001 -0.000555 -0.000224 0.000000
0.9681006 0.5604965 0.0308909 -0.000538 -0.000225 0.000005
1.0480013 0.5389789 0.0617866 -0.000553 -0.000213 -0.000053
0.0929568 0.6306250 -0.1932877 -0.000114 -0.000307 -0.000008
0.1855585 0.6353522 -0.1674762 -0.000166 -0.000295 0.000012
0.2775697 0.6373440 -0.1414596 -0.000251 -0.000284 0.000024
0.3687455 0.6367184 -0.1148714 -0.000299 -0.000276 0.000028
0.4588458 0.6334978 -0.0874729 -0.000384 -0.000267 0.000015
0.5476377 0.6276333 -0.0591631 -0.000405 -0.000260 0.000027
0.6349011 0.6190261 -0.0299641 -0.000448 -0.000253 0.000004
0.7204597 0.6075452 -0.0000001 -0.000495 -0.000242 0.000000
0.8042537 0.5930235 0.0305297 -0.000503 -0.000237 -0.000015
0.8864440 0.5752385 0.0613528 -0.000528 -0.000225 -0.000057
0.9675222 0.5538742 0.0920780 -0.000547 -0.000215 -0.000057
0.0932657 0.6448380 -0.1386906 -0.000096 -0.000300 -0.000008
0.1862670 0.6474169 -0.1120039 -0.000182 -0.000289 0.000014
0.2786051 0.6472339 -0.0850607 -0.000247 -0.000284 0.000007
0.3699278 0.6443484 -0.0575232 -0.000318 -0.000275 0.000014
0.4599182 0.6387420 -0.0291891 -0.000359 -0.000269 0.000008
0.5483060 0.6303403 -0.0000001 -0.000442 -0.000257 0.000000
0.6349011 0.6190261 0.0299640 -0.000448 -0.000253 -0.000004
0.7196470 0.6046508 0.0604962 -0.000497 -0.000239 -0.000041
0.8026909 0.5870280 0.0912735 -0.000518 -0.000230 -0.000047
0.8844448 0.5659232 0.1218597 -0.000513 -0.000221 -0.000076
0.0935295 0.6542845 -0.0834447 -0.000101 -0.000294 -0.000006
0.1867447 0.6546198 -0.0561017 -0.000170 -0.000289 0.000006
0.2791571 0.6521528 -0.0283830 -0.000245 -0.000283 0.000006
0.3703363 0.6468810 -0.0000000 -0.000308 -0.000276 0.000000
0.4599182 0.6387420 0.0291890 -0.000359 -0.000269 -0.000008
0.5476378 0.6276333 0.0591629 -0.000405 -0.000260 -0.000027
0.6333738 0.6134247 0.0897341 -0.000476 -0.000245 -0.000044
0.7171989 0.5959725 0.1205555 -0.000485 -0.000234 -0.000071
0.7994222 0.5751234 0.1511313 -0.000525 -0.000211 -0.000115
0.0936793 0.6589954 -0.0278511 -0.000094 -0.000292 -0.000006
0.1869135 0.6570142 -0.0000000 -0.000183 -0.000288 0.000000
0.2791571 0.6521528 0.0283830 -0.000245 -0.000283 -0.000006
0.3699279 0.6443484 0.0575231 -0.000318 -0.000275 -0.000014
0.4588459 0.6334978 0.0874727 -0.000384 -0.000267 -0.000015
0.5456805 0.6194800 0.1180926 -0.000436 -0.000255 -0.000040
0.6303895 0.6021766 0.1490444 -0.000473 -0.000240 -0.000066
0.7131449 0.5814958 0.1798030 -0.000537 -0.000216 -0.000100
0.0936793 0.6589954 0.0278511 -0.000094 -0.000292 0.000006
0.1867447 0.6546198 0.0561017 -0.000170 -0.000289 -0.000006
0.2786052 0.6472339 0.0850606 -0.000247 -0.000284 -0.000007
0.3687456 0.6367184 0.1148713 -0.000299 -0.000276 -0.000028
0.4567976 0.6229402 0.1454638 -0.000369 -0.000266 -0.000039
0.5425886 0.6057791 0.1765518 -0.000453 -0.000249 -0.000060
0.6261495 0.5851654 0.2076162 -0.000489 -0.000226 -0.000103
0.0935296 0.6542845 0.0834447 -0.000101 -0.000294 0.000006
0.1862671 0.6474169 0.1120039 -0.000182 -0.000289 -0.000014
0.2775698 0.6373441 0.1414596 -0.000251 -0.000284 -0.000024
0.3669041 0.6238987 0.1718442 -0.000331 -0.000278 -0.000025
0.4539550 0.6069374 0.2029250 -0.000382 -0.000270 -0.000034
0.5386448 0.5863541 0.2342746 -0.000465 -0.000246 -0.000070
0.0932658 0.6448380 0.1386906 -0.000096 -0.000300 0.000008
0.1855587 0.6353522 0.1674761 -0.000166 -0.000295 -0.000012
0.2761567 0.6223896 0.1973483 -0.000228 -0.000288 -0.000030
0.3645407 0.6057506 0.2281875 -0.000285 -0.000278 -0.000050
0.4505430 0.5853224 0.2595252 -0.000373 -0.000281 -0.000026
0.0929570 0.6306250 0.1932877 -0.000114 -0.000307 0.000008
0.1847099 0.6183504 0.2222477 -0.000172 -0.000292 -0.000039
0.2744208 0.6022547 0.2524351 -0.000227 -0.000299 -0.000020
0.3617163 0.5821211 0.2835579 -0.000263 -0.000289 -0.000043
0.0927246 0.6116407 0.2468461 -0.000091 -0.000316 0.000005
0.1837191 0.5963221 0.2760193 -0.000122 -0.000294 -0.000053
0.2722369 0.5768679 0.3062789 -0.000144 -0.000295 -0.000058
0.0926688 0.5879500 0.2988810 -0.000130 -0.000321 -0.000010
0.1821746 0.5689745 0.3288221 -0.000076 -0.000283 -0.000093
0.0928191 0.5596915 0.3488944 -0.000029 -0.000305 -0.000062
0.0000002 0.5482296 0.3679886 0.000000 -0.000407 0.000083
0.0000001 0.5766628 0.3217911 0.000000 -0.000390 0.000099
0.0000001 0.6018553 0.2718571 0.000000 -0.000346 0.000056
0.0000001 0.6228934 0.2194599 -0.000000 -0.000330 0.000057
0.0000001 0.6393364 0.1655933 -0.000000 -0.000310 0.000028
0.0000000 0.6510759 0.1108179 0.000000 -0.000301 0.000025
0.0000000 0.6581048 0.0555257 0.000000 -0.000294 0.000005
-0.0000000 0.6604442 -0.0000000 0.000000 -0.000293 -0.000000
-0.0000000 0.6581048 -0.0555257 -0.000000 -0.000294 -0.000005
-0.0000001 0.6510759 -0.1108179 -0.000000 -0.000301 -0.000025
-0.0000001 0.6393364 -0.1655933 -0.000000 -0.000310 -0.000028
-0.0000001 0.6228934 -0.2194599 0.000000 -0.000330 -0.000057
-0.0000001 0.6018553 -0.2718571 0.000000 -0.000346 -0.000056
-0.0000002 0.5766628 -0.3217911 -0.000000 -0.000390 -0.000099
-0.0000002 0.5482296 -0.3679886 -0.000000 -0.000407 -0.000083
-0.0848711 0.5276035 -0.3959003 -0.000094 -0.000269 0.000121
-0.1787237 0.5358461 -0.3807038 -0.000174 -0.000254 0.000155
-0.2690702 0.5465117 -0.3579142 0.000021 -0.000321 0.000048
-0.3582944 0.5527846 -0.3376778 0.000137 -0.000308 0.000049
-0.4467240 0.5580078 -0.3146944 0.000302 -0.000314 0.000002
-0.5342490 0.5609742 -0.2909022 0.000450 -0.000242 0.000089
-0.6210866 0.5621701 -0.2651640 0.000522 -0.000224 0.000096
-0.7077064 0.5611085 -0.2379594 0.000546 -0.000189 0.000157
-0.7943495 0.5573931 -0.2096724 0.000509 -0.000204 0.000129
-0.8805928 0.5507083 -0.1808668 0.000551 -0.000191 0.000139
-0.9655765 0.5410437 -0.1516884 0.000504 -0.000206 0.000122
-1.0483766 0.5285027 -0.1220719 0.000513 -0.000218 0.000068
-1.1280358 0.5132214 -0.0918976 0.000572 -0.000209 0.000024
-1.2035481 0.4953465 -0.0611363 0.000603 -0.000197 0.000024
-1.2732783 0.4752300 -0.0302440 0.000705 -0.000163 -0.000024
-0.0928188 0.5596915 0.3488944 0.000029 -0.000305 -0.000062
-0.1821743 0.5689745 0.3288221 0.000076 -0.000283 -0.000093
-0.2722366 0.5768679 0.3062789 0.000144 -0.000295 -0.000058
-0.3617160 0.5821211 0.2835579 0.000263 -0.000289 -0.000043
-0.4505428 0.5853224 0.2595253 0.000373 -0.000281 -0.000026
-0.5386445 0.5863540 0.2342747 0.000465 -0.000246 -0.000070
-0.6261493 0.5851654 0.2076163 0.000489 -0.000226 -0.000103
-0.7131447 0.5814958 0.1798031 0.000537 -0.000216 -0.000100
-0.7994221 0.5751234 0.1511314 0.000525 -0.000211 -0.000115
-0.8844447 0.5659232 0.1218599 0.000513 -0.000221 -0.000076
-0.9675221 0.5538742 0.0920783 0.000547 -0.000215 -0.000057
-1.0480013 0.5389789 0.0617869 0.000553 -0.000213 -0.000053
-1.1253890 0.5211909 0.0310029 0.000593 -0.000205 0.000004
-1.1996783 0.5002910 0.0000002 0.000745 -0.000155 -0.000000
-0.0926686 0.5879500 0.2988810 0.000130 -0.000321 -0.000010
-0.1837189 0.5963221 0.2760193 0.000122 -0.000294 -0.000053
-0.2744205 0.6022547 0.2524351 0.000227 -0.000299 -0.000020
-0.3645405 0.6057506 0.2281876 0.000285 -0.000278 -0.000050
-0.4539548 0.6069373 0.2029252 0.000382 -0.000270 -0.000034
-0.5425885 0.6057791 0.1765520 0.000453 -0.000249 -0.000060
-0.6303894 0.6021766 0.1490446 0.000473 -0.000240 -0.000066
-0.7171988 0.5959724 0.1205556 0.000485 -0.000234 -0.000071
-0.8026908 0.5870279 0.0912737 0.000518 -0.000230 -0.000047
-0.8864439 0.5752385 0.0613530 0.000528 -0.000225 -0.000057
-0.9681006 0.5604965 0.0308912 0.000538 -0.000225 0.000005
-1.0475728 0.5426138 0.0000001 0.000624 -0.000200 -0.000000
-1.1253890 0.5211909 -0.0310026 0.000593 -0.000205 -0.000004
-0.0927244 0.6116407 0.2468461 0.000091 -0.000316 0.000005
-0.1847097 0.6183504 0.2222477 0.000172 -0.000292 -0.000039
-0.2761566 0.6223896 0.1973484 0.000228 -0.000288 -0.000030
-0.3669039 0.6238986 0.1718443 0.000331 -0.000278 -0.000025
-0.4567975 0.6229402 0.1454640 0.000369 -0.000266 -0.000039
-0.5456804 0.6194800 0.1180928 0.000436 -0.000255 -0.000040
-0.6333737 0.6134246 0.0897343 0.000476 -0.000245 -0.000044
-0.7196470 0.6046507 0.0604963 0.000497 -0.000239 -0.000041
-0.8042536 0.5930235 0.0305299 0.000503 -0.000237 -0.000015
-0.8870394 0.5783835 0.0000001 0.000555 -0.000224 -0.000000
-0.9681006 0.5604965 -0.0308909 0.000538 -0.000225 -0.000005
-1.0480014 0.5389789 -0.0617866 0.000553 -0.000213 0.000053
-0.0929568 0.6306250 0.1932877 0.000114 -0.000307 0.000008
-0.1855585 0.6353522 0.1674762 0.000166 -0.000295 -0.000012
-0.2775697 0.6373440 0.1414596 0.000251 -0.000284 -0.000024
-0.3687455 0.6367184 0.1148714 0.000299 -0.000276 -0.000028
-0.4588458 0.6334978 0.0874729 0.000384 -0.000267 -0.000015
-0.5476377 0.6276333 0.0591631 0.000405 -0.000260 -0.000027
-0.6349011 0.6190261 0.0299641 0.000448 -0.000253 -0.000004
-0.7204597 0.6075452 0.0000001 0.000495 -0.000242 -0.000000
-0.8042537 0.5930235 -0.0305297 0.000503 -0.000237 0.000015
-0.8864440 0.5752385 -0.0613528 0.000528 -0.000225 0.000057
-0.9675222 0.5538742 -0.0920780 0.000547 -0.000215 0.000057
-0.0932657 0.6448380 0.1386906 0.000096 -0.000300 0.000008
-0.1862670 0.6474169 0.1120039 0.000182 -0.000289 -0.000014
-0.2786052 0.6472339 0.0850607 0.000247 -0.000284 -0.000007
-0.3699279 0.6443484 0.0575232 0.000318 -0.000275 -0.000014
-0.4599182 0.6387420 0.0291891 0.000359 -0.000269 -0.000008
-0.5483061 0.6303403 0.0000001 0.000442 -0.000257 -0.000000
-0.6349011 0.6190261 -0.0299640 0.000448 -0.000253 0.000004
-0.7196470 0.6046508 -0.0604961 0.000497 -0.000239 0.000041
-0.8026909 0.5870280 -0.0912735 0.000518 -0.000230 0.000047
-0.8844448 0.5659232 -0.1218597 0.000513 -0.000221 0.000076
-0.0935296 0.6542845 0.0834447 0.000101 -0.000294 0.000006
-0.1867447 0.6546198 0.0561017 0.000170 -0.000289 -0.000006
-0.2791571 0.6521528 0.0283830 0.000245 -0.000283 -0.000006
-0.3703363 0.6468810 0.0000000 0.000308 -0.000276 -0.000000
-0.4599182 0.6387420 -0.0291890 0.000359 -0.000269 0.000008
-0.5476378 0.6276333 -0.0591629 0.000405 -0.000260 0.000027
-0.6333738 0.6134247 -0.0897341 0.000476 -0.000245 0.000044
-0.7171990 0.5959725 -0.1205554 0.000485 -0.000234 0.000071
-0.7994222 0.5751234 -0.1511313 0.000525 -0.000211 0.000115
-0.0936793 0.6589954 0.0278511 0.000094 -0.000292 0.000006
-0.1869135 0.6570142 0.0000000 0.000183 -0.000288 -0.000000
-0.2791571 0.6521528 -0.0283830 0.000245 -0.000283 0.000006
-0.3699279 0.6443484 -0.0575231 0.000318 -0.000275 0.000014
-0.4588459 0.6334978 -0.0874727 0.000384 -0.000267 0.000015
-0.5456806 0.6194800 -0.1180926 0.000436 -0.000255 0.000040
-0.6303895 0.6021766 -0.1490444 0.000473 -0.000240 0.000066
-0.7131449 0.5814958 -0.1798030 0.000537 -0.000216 0.000100
-0.0936794 0.6589954 -0.0278511 0.000094 -0.000292 -0.000006
-0.1867447 0.6546198 -0.0561017 0.000170 -0.000289 0.000006
-0.2786052 0.6472339 -0.0850606 0.000247 -0.000284 0.000007
-0.3687456 0.6367184 -0.1148713 0.000299 -0.000276 0.000028
-0.4567977 0.6229402 -0.1454638 0.000369 -0.000266 0.000039
-0.5425886 0.6057791 -0.1765518 0.000453 -0.000249 0.000060
-0.6261495 0.5851654 -0.2076162 0.000489 -0.000226 0.000103
-0.0935296 0.6542845 -0.0834447 0.000101 -0.000294 -0.000006
-0.1862671 0.6474169 -0.1120039 0.000182 -0.000289 0.000014
-0.2775698 0.6373441 -0.1414596 0.000251 -0.000284 0.000024
-0.3669041 0.6238987 -0.1718442 0.000331 -0.000278 0.000025
-0.4539550 0.6069374 -0.2029250 0.000382 -0.000270 0.000034
-0.5386448 0.5863541 -0.2342746 0.000465 -0.000246 0.000070
-0.0932659 0.6448380 -0.1386906 0.000096 -0.000300 -0.000008
-0.1855587 0.6353522 -0.1674761 0.000166 -0.000295 0.000012
-0.2761567 0.6223896 -0.1973483 0.000228 -0.000288 0.000030
-0.3645407 0.6057506 -0.2281875 0.000285 -0.000278 0.000050
-0.4505430 0.5853224 -0.2595252 0.000373 -0.000281 0.000026
-0.0929570 0.6306250 -0.1932877 0.000114 -0.000307 -0.000008
-0.1847099 0.6183504 -0.2222477 0.000172 -0.000292 0.000039
-0.2744208 0.6022547 -0.2524351 0.000227 -0.000299 0.000020
-0.3617163 0.5821211 -0.2835579 0.000263 -0.000289 0.000043
-0.0927247 0.6116407 -0.2468461 0.000091 -0.000316 -0.000005
-0.1837192 0.5963221 -0.2760193 0.000122 -0.000294 0.000053
-0.2722369 0.5768679 -0.3062789 0.000144 -0.000295 0.000058
-0.0926688 0.5879500 -0.2988810 0.000130 -0.000321 0.000010
-0.1821746 0.5689745 -0.3288221 0.000076 -0.000283 0.000093
-0.0928192 0.5596915 -0.3488944 0.000029 -0.000305 0.000062
0.0503311 0.4947027 0.4364807 0.000025 -0.000294 -0.000103
0.1013371 0.4805517 0.4512163 -0.000011 -0.000071 -0.000348
0.1591438 0.4576309 0.4723304 -0.000117 -0.000267 -0.000145
0.2149186 0.4352824 0.4903992 -0.000115 0.000034 -0.000417
0.2709299 0.4069499 0.5106903 -0.000312 -0.000123 -0.000259
0.3273742 0.3768228 0.5291872 -0.000133 -0.000299 -0.000141
0.3830379 0.3450291 0.5458295 -0.000095 -0.000126 -0.000265
0.4385133 0.3107572 0.5608197 -0.000109 -0.000271 -0.000183
0.4941239 0.2751078 0.5733400 -0.000091 -0.000334 -0.000166
0.5495402 0.2384911 0.5831614 -0.000088 -0.000322 -0.000189
0.6047662 0.2012582 0.5901102 -0.000005 -0.000464 -0.000168
0.6595400 0.1645618 0.5938916 -0.000179 -0.000286 -0.000220
0.7141333 0.1299277 0.5942155 -0.000103 0.000340 -0.000380
0.7667347 0.0860119 0.5938806 -0.000161 -0.000418 -0.000237
0.8134739 0.0529174 0.5894294 -0.000311 0.000097 -0.000280
1.2859903 0.4638380 0.0866897 -0.000531 -0.000217 -0.000047
1.2947545 0.4469142 0.1417743 -0.000493 -0.000208 -0.000122
1.2967842 0.4252162 0.1959536 -0.000462 -0.000194 -0.000167
1.2912958 0.3992018 0.2483729 -0.000482 -0.000148 -0.000215
1.2784308 0.3693703 0.2980852 -0.000515 -0.000104 -0.000233
1.2588902 0.3362950 0.3442829 -0.000577 -0.000030 -0.000258
1.2337797 0.3005856 0.3863394 -0.000582 0.000041 -0.000290
1.2045122 0.2629003 0.4237665 -0.000542 0.000082 -0.000306
1.1730889 0.2243022 0.4559104 -0.000538 0.000184 -0.000332
1.1417120 0.1861483 0.4822944 -0.000456 0.000118 -0.000305
1.0793837 0.1691078 0.5066663 -0.000305 0.000153 -0.000348
1.0131744 0.1454756 0.5311265 -0.000053 0.000087 -0.000374
0.9458721 0.1101224 0.5553377 -0.000096 -0.000082 -0.000312
0.8752315 0.0802774 0.5749842 -0.000178 -0.000373 -0.000249
1.2101919 0.4825175 0.1193806 -0.000516 -0.000215 -0.000069
1.2132635 0.4641749 0.1751937 -0.000501 -0.000202 -0.000118
1.2106437 0.4411671 0.2288189 -0.000469 -0.000176 -0.000184
1.2018496 0.4139676 0.2798975 -0.000538 -0.000109 -0.000230
1.1872157 0.3829416 0.3279299 -0.000557 -0.000032 -0.000289
1.1674877 0.3483982 0.3724615 -0.000583 0.000054 -0.000331
1.1436238 0.3105719 0.4131312 -0.000631 0.000139 -0.000344
1.1169987 0.2694965 0.4496153 -0.000532 0.000222 -0.000389
1.0902645 0.2238897 0.4818174 -0.000430 0.000143 -0.000339
1.0187419 0.2066223 0.5090415 -0.000277 0.000020 -0.000314
0.9520940 0.1806609 0.5350215 -0.000417 -0.000235 -0.000185
0.8888398 0.1535233 0.5571179 -0.000201 -0.000328 -0.000214
0.8251291 0.1264760 0.5761397 -0.000088 0.000124 -0.000344
1.1301220 0.4986677 0.1502542 -0.000466 -0.000222 -0.000094
1.1286746 0.4787970 0.2059799 -0.000516 -0.000189 -0.000131
1.1225328 0.4542568 0.2590390 -0.000541 -0.000134 -0.000207
1.1116560 0.4253576 0.3092415 -0.000555 -0.000074 -0.000264
1.0965964 0.3921780 0.3563724 -0.000655 0.000010 -0.000291
1.0780972 0.3545700 0.4002665 -0.000604 0.000089 -0.000349
1.0570781 0.3120475 0.4407674 -0.000544 0.000068 -0.000316
1.0353460 0.2633602 0.4775871 -0.000457 0.000013 -0.000282
0.9626596 0.2464831 0.5054663 -0.000359 -0.000207 -0.000192
0.8963066 0.2236241 0.5312207 -0.000229 -0.000311 -0.000182
0.8328784 0.1973742 0.5544281 -0.000340 -0.000054 -0.000262
0.7716853 0.1658590 0.5758093 -0.000060 -0.000267 -0.000248
1.0468458 0.5120755 0.1800222 -0.000543 -0.000182 -0.000145
1.0420572 0.4904234 0.2353647 -0.000512 -0.000155 -0.000205
1.0336953 0.4639104 0.2879573 -0.000607 -0.000104 -0.000221
1.0222907 0.4325506 0.3376792 -0.000641 -0.000017 -0.000298
1.0086979 0.3959867 0.3845046 -0.000614 -0.000008 -0.000285
0.9935415 0.3535075 0.4284271 -0.000570 -0.000040 -0.000246
0.9774808 0.3040672 0.4691482 -0.000446 -0.000112 -0.000218
0.9057782 0.2880633 0.4970163 -0.000366 -0.000371 -0.000087
0.8397578 0.2657904 0.5236830 -0.000291 -0.000084 -0.000265
0.7771024 0.2376652 0.5490750 -0.000224 -0.000001 -0.000309
0.7169086 0.2040756 0.5726317 0.000002 -0.000069 -0.000312
0.9613418 0.5225360 0.2091403 -0.000521 -0.000189 -0.000141
0.9544372 0.4987093 0.2641328 -0.000596 -0.000123 -0.000221
0.9453243 0.4696238 0.3164548 -0.000579 -0.000093 -0.000248
0.9353997 0.4349313 0.3659319 -0.000602 -0.000094 -0.000216
0.9257381 0.3937070 0.4127385 -0.000502 -0.000084 -0.000241
0.9160126 0.3449560 0.4567656 -0.000231 -0.000257 -0.000168
0.8461539 0.3288784 0.4851409 -0.000233 -0.000175 -0.000226
0.7819263 0.3051627 0.5137202 -0.000319 -0.000068 -0.000272
0.7206965 0.2749393 0.5415666 -0.000225 -0.000042 -0.000295
0.6613636 0.2397710 0.5674294 -0.000174 -0.000326 -0.000176
0.8746221 0.5298288 0.2379482 -0.000559 -0.000152 -0.000207
0.8668516 0.5033248 0.2928101 -0.000548 -0.000144 -0.000202
0.8585920 0.4709982 0.3450464 -0.000625 -0.000068 -0.000265
0.8527712 0.4320691 0.3943004 -0.000376 -0.000116 -0.000256
0.8499901 0.3848768 0.4411303 -0.000236 -0.000292 -0.000124
0.7838306 0.3674299 0.4708305 -0.000236 -0.000122 -0.000263
0.7231415 0.3405935 0.5024730 -0.000209 0.000029 -0.000364
0.6634012 0.3089997 0.5325638 -0.000171 -0.000438 -0.000080
0.6054322 0.2751444 0.5593945 -0.000199 -0.000423 -0.000109
0.7876755 0.5337943 0.2665995 -0.000599 -0.000159 -0.000177
0.7802676 0.5040507 0.3216294 -0.000552 -0.000123 -0.000234
0.7738874 0.4676560 0.3742849 -0.000436 -0.000144 -0.000218
0.7771535 0.4235078 0.4227715 -0.000096 -0.000190 -0.000241
0.7197466 0.4024421 0.4552559 -0.000278 0.000008 -0.000371
0.6631394 0.3706501 0.4916492 -0.000178 -0.000544 0.000049
0.6052800 0.3427453 0.5207511 -0.000228 -0.000273 -0.000157
0.5494324 0.3103560 0.5483268 0.000031 -0.000343 -0.000162
0.7015163 0.5345068 0.2947976 -0.000521 -0.000179 -0.000169
0.6959251 0.5008642 0.3503963 -0.000558 -0.000165 -0.000172
0.6937308 0.4591316 0.4041867 -0.000199 -0.000174 -0.000233
0.6590255 0.4243481 0.4467713 -0.000069 -0.000430 -0.000010
0.6025478 0.4045022 0.4748251 -0.000060 -0.000260 -0.000175
0.5484147 0.3764170 0.5054430 -0.000044 -0.000228 -0.000206
0.4933421 0.3441616 0.5348281 -0.000053 -0.000460 -0.000058
0.6159031 0.5329316 0.3212077 -0.000513 -0.000195 -0.000150
0.6114748 0.4976223 0.3745241 -0.000333 -0.000228 -0.000142
0.6055136 0.4592803 0.4215853 0.000021 -0.000395 -0.000028
0.5459027 0.4379199 0.4536698 -0.000094 -0.000176 -0.000237
0.4916962 0.4054519 0.4901477 -0.000009 -0.000726 0.000207
0.4367006 0.3771796 0.5186917 -0.000189 -0.000310 -0.000127
0.5297573 0.5293280 0.3460772 -0.000392 -0.000300 -0.000022
0.5248992 0.4910944 0.3994166 0.000073 -0.000382 -0.000024
0.4884886 0.4576685 0.4421381 -0.000032 -0.000571 0.000159
0.4330935 0.4372586 0.4696010 0.000091 -0.000276 -0.000164
0.3806897 0.4090517 0.4999257 -0.000023 -0.000154 -0.000258
0.4423860 0.5253313 0.3673105 -0.000140 -0.000356 0.000005
0.4359613 0.4895059 0.4145389 0.000217 -0.000445 0.000034
0.3768293 0.4678936 0.4458537 -0.000015 -0.000213 -0.000204
0.3242269 0.4356071 0.4821754 -0.000024 -0.000581 0.000127
0.3543095 0.5172561 0.3904870 0.000161 -0.000340 -0.000059
0.3191173 0.4850583 0.4327972 0.000179 -0.000501 0.000100
0.2649780 0.4641043 0.4598277 0.000084 -0.000133 -0.000290
0.2644716 0.5131980 0.4044243 0.000340 -0.000315 -0.000097
0.2070005 0.4910634 0.4351190 0.000059 -0.000134 -0.000288
0.1471760 0.5051240 0.4216490 0.000158 -0.000255 -0.000149
-0.0848708 0.5276035 0.3959003 -0.000094 -0.000269 -0.000121
-0.1787233 0.5358461 0.3807039 -0.000174 -0.000254 -0.000155
-0.2690698 0.5465117 0.3579143 0.000021 -0.000321 -0.000048
-0.3582940 0.5527846 0.3376779 0.000137 -0.000308 -0.000049
-0.4467236 0.5580078 0.3146945 0.000302 -0.000314 -0.000002
-0.5342487 0.5609742 0.2909023 0.000450 -0.000242 -0.000089
-0.6210863 0.5621701 0.2651641 0.000522 -0.000224 -0.000096
-0.7077061 0.5611085 0.2379595 0.000546 -0.000189 -0.000157
-0.7943493 0.5573931 0.2096726 0.000509 -0.000204 -0.000129
-0.8805926 0.5507082 0.1808671 0.000551 -0.000191 -0.000139
-0.9655764 0.5410437 0.1516886 0.000504 -0.000206 -0.000122
-1.0483764 0.5285027 0.1220721 0.000513 -0.000218 -0.000068
-1.1280357 0.5132214 0.0918979 0.000572 -0.000209 -0.000024
-1.2035481 0.4953465 0.0611366 0.000603 -0.000197 -0.000024
-1.2732782 0.4752300 0.0302443 0.000705 -0.000163 0.000024
-1.3564446 0.4428803 0.0499679 0.000588 -0.000191 -0.000107
-1.3716573 0.4274866 0.1034750 0.000525 -0.000194 -0.000161
-1.3793657 0.4070569 0.1584832 0.000469 -0.000181 -0.000225
-1.3783775 0.3819409 0.2128987 0.000513 -0.000144 -0.000220
-1.3684516 0.3526873 0.2651882 0.000525 -0.000114 -0.000226
-1.3500907 0.3200394 0.3141273 0.000587 -0.000047 -0.000240
-1.3243570 0.2847975 0.3588684 0.000607 -0.000028 -0.000226
-1.2926288 0.2477100 0.3989233 0.000641 0.000072 -0.000260
-1.2561293 0.2094840 0.4341571 0.000625 0.000058 -0.000239
-1.2142162 0.1707842 0.4652153 0.000665 0.000162 -0.000250
-1.1553397 0.1377970 0.4944192 0.000412 0.000026 -0.000272
-1.0889659 0.1142525 0.5192149 0.000335 -0.000051 -0.000268
-1.0250477 0.0891873 0.5404238 0.000234 0.000129 -0.000317
-0.9756113 0.0567948 0.5561823 0.000156 -0.000166 -0.000293
-0.9157367 0.0365638 0.5712035 0.000125 0.000080 -0.000317
-0.1471756 0.5051240 0.4216490 -0.000158 -0.000255 -0.000149
-0.2070001 0.4910634 0.4351191 -0.000059 -0.000134 -0.000288
-0.2649776 0.4641043 0.4598277 -0.000084 -0.000133 -0.000290
-0.3242265 0.4356070 0.4821755 0.000024 -0.000581 0.000127
-0.3806892 0.4090516 0.4999258 0.000023 -0.000154 -0.000258
-0.4367001 0.3771796 0.5186918 0.000189 -0.000310 -0.000127
-0.4933416 0.3441615 0.5348282 0.000053 -0.000460 -0.000058
-0.5494319 0.3103560 0.5483269 -0.000031 -0.000343 -0.000162
-0.6054317 0.2751444 0.5593946 0.000199 -0.000423 -0.000109
-0.6613631 0.2397710 0.5674295 0.000174 -0.000326 -0.000176
-0.7169081 0.2040756 0.5726319 -0.000002 -0.000069 -0.000312
-0.7716847 0.1658590 0.5758094 0.000060 -0.000267 -0.000248
-0.8251285 0.1264759 0.5761398 0.000088 0.000124 -0.000344
-0.8752309 0.0802774 0.5749843 0.000178 -0.000373 -0.000249
-0.2644712 0.5131980 0.4044243 -0.000340 -0.000315 -0.000097
-0.3191169 0.4850583 0.4327973 -0.000179 -0.000501 0.000100
-0.3768289 0.4678936 0.4458538 0.000015 -0.000213 -0.000204
-0.4330930 0.4372586 0.4696011 -0.000091 -0.000276 -0.000164
-0.4916957 0.4054518 0.4901478 0.000009 -0.000726 0.000207
-0.5484142 0.3764170 0.5054431 0.000044 -0.000228 -0.000206
-0.6052795 0.3427453 0.5207512 0.000228 -0.000273 -0.000157
-0.6634007 0.3089997 0.5325639 0.000171 -0.000438 -0.000080
-0.7206960 0.2749393 0.5415667 0.000225 -0.000042 -0.000295
-0.7771018 0.2376652 0.5490751 0.000224 -0.000001 -0.000309
-0.8328778 0.1973742 0.5544282 0.000340 -0.000054 -0.000262
-0.8888392 0.1535233 0.5571180 0.000201 -0.000328 -0.000214
-0.9458715 0.1101224 0.5553379 0.000096 -0.000082 -0.000312
-0.3543091 0.5172561 0.3904871 -0.000161 -0.000340 -0.000059
-0.4359609 0.4895058 0.4145390 -0.000217 -0.000445 0.000034
-0.4884882 0.4576684 0.4421382 0.000032 -0.000571 0.000159
-0.5459023 0.4379198 0.4536699 0.000094 -0.000176 -0.000237
-0.6025474 0.4045022 0.4748252 0.000060 -0.000260 -0.000175
-0.6631389 0.3706501 0.4916493 0.000178 -0.000544 0.000049
-0.7231410 0.3405934 0.5024731 0.000209 0.000029 -0.000364
-0.7819258 0.3051627 0.5137203 0.000319 -0.000068 -0.000272
-0.8397573 0.2657904 0.5236831 0.000291 -0.000084 -0.000265
-0.8963060 0.2236240 0.5312209 0.000229 -0.000311 -0.000182
-0.9520934 0.1806608 0.5350217 0.000417 -0.000235 -0.000185
-1.0131739 0.1454755 0.5311267 0.000053 0.000087 -0.000374
-0.4423857 0.5253313 0.3673106 0.000140 -0.000356 0.000005
-0.5248988 0.4910943 0.3994167 -0.000073 -0.000382 -0.000024
-0.6055132 0.4592802 0.4215854 -0.000021 -0.000395 -0.000028
-0.6590251 0.4243480 0.4467714 0.000069 -0.000430 -0.000010
-0.7197461 0.4024421 0.4552560 0.000278 0.000008 -0.000371
-0.7838301 0.3674298 0.4708306 0.000236 -0.000122 -0.000263
-0.8461534 0.3288784 0.4851411 0.000233 -0.000175 -0.000226
-0.9057777 0.2880632 0.4970165 0.000366 -0.000371 -0.000087
-0.9626591 0.2464830 0.5054665 0.000359 -0.000207 -0.000192
-1.0187413 0.2066223 0.5090416 0.000277 0.000020 -0.000314
-1.0793832 0.1691077 0.5066664 0.000305 0.000153 -0.000348
-0.5297569 0.5293280 0.3460773 0.000392 -0.000300 -0.000022
-0.6114744 0.4976223 0.3745243 0.000333 -0.000228 -0.000142
-0.6937304 0.4591316 0.4041869 0.000199 -0.000174 -0.000233
-0.7771530 0.4235077 0.4227717 0.000096 -0.000190 -0.000241
-0.8499896 0.3848768 0.4411304 0.000236 -0.000292 -0.000124
-0.9160121 0.3449559 0.4567657 0.000231 -0.000257 -0.000168
-0.9774803 0.3040671 0.4691484 0.000446 -0.000112 -0.000218
-1.0353455 0.2633602 0.4775873 0.000457 0.000013 -0.000282
-1.0902639 0.2238896 0.4818175 0.000430 0.000143 -0.000339
-1.1417115 0.1861482 0.4822946 0.000456 0.000118 -0.000305
-0.6159028 0.5329316 0.3212078 0.000513 -0.000195 -0.000150
-0.6959248 0.5008642 0.3503964 0.000558 -0.000165 -0.000172
-0.7738870 0.4676559 0.3742851 0.000436 -0.000144 -0.000218
-0.8527708 0.4320690 0.3943006 0.000376 -0.000116 -0.000256
-0.9257377 0.3937070 0.4127386 0.000502 -0.000084 -0.000241
-0.9935411 0.3535074 0.4284272 0.000570 -0.000040 -0.000246
-1.0570776 0.3120475 0.4407676 0.000544 0.000068 -0.000316
-1.1169982 0.2694964 0.4496155 0.000532 0.000222 -0.000389
-1.1730884 0.2243022 0.4559106 0.000538 0.000184 -0.000332
-0.7015161 0.5345067 0.2947977 0.000521 -0.000179 -0.000169
-0.7802673 0.5040507 0.3216296 0.000552 -0.000123 -0.000234
-0.8585916 0.4709981 0.3450466 0.000625 -0.000068 -0.000265
-0.9353993 0.4349312 0.3659321 0.000602 -0.000094 -0.000216
-1.0086975 0.3959867 0.3845048 0.000614 -0.000008 -0.000285
-1.0780968 0.3545700 0.4002667 0.000604 0.000089 -0.000349
-1.1436233 0.3105718 0.4131314 0.000631 0.000139 -0.000344
-1.2045117 0.2629002 0.4237668 0.000542 0.000082 -0.000306
-0.7876752 0.5337942 0.2665997 0.000599 -0.000159 -0.000177
-0.8668513 0.5033248 0.2928103 0.000548 -0.000144 -0.000202
-0.9453239 0.4696237 0.3164550 0.000579 -0.000093 -0.000248
-1.0222903 0.4325505 0.3376794 0.000641 -0.000017 -0.000298
-1.0965960 0.3921779 0.3563726 0.000655 0.000010 -0.000291