# TIME=0.000000
VARIABLES=X,Y,Z
ZONE N=2562 E=5120 F=FEPOINT ET=TRIANGLE
-1.6453126647725376	0.30208486667344564	0.4887835399052189
-1.6453126647725376	0.30208486667344564	-0.4887835399052189
-1.6453126647725376	-0.30208486667344564	0.4887835399052189
-1.6453126647725376	-0.30208486667344564	-0.4887835399052189
-0.3700115706814101	0.	0.5502481946874134
-2.9205816099051294	0.	0.5500917856853579
-0.3700115706814101	6.738596903605505e-17	-0.5502481946874134
-2.9205816099051294	6.736681445768254e-17	-0.5500917856853579
-0.9459981334030231	0.6323036484731784	3.871743195959356e-17
-0.9459981334030231	-0.6323036484731784	3.871743195959356e-17
-2.3446269125448693	0.6323192459200878	3.871838702776518e-17
-2.3446269125448693	-0.6323192459200878	3.871838702776518e-17
-1.5755678573651624	0.2937699247881036	0.4949143207981112
-1.5012543321113436	0.2856976348169834	0.5030823855639577
-1.4226078541110698	0.27774479762508564	0.5134954938081325
-1.3400307918806682	0.2696323056102717	0.5261517034876634
-1.2540880438601891	0.26090739512826394	0.5407513313076423
-1.1654938022374879	0.25096135239962364	0.5566408209695338
-1.0751029846042566	0.23908964897421728	0.5728138234247634
-0.983909916527972	0.22459071798023392	0.5879860594178906
-0.893050142800386	0.2068837438605788	0.6007382279382664
-0.8037864021377634	0.18561906641705117	0.609703016554145
-0.7174601479076064	0.1607515832038683	0.6137549647137666
-0.6354024307899632	0.1325584156653987	0.6121592555151987
-0.5588191931328396	0.10159794997311647	0.6046467404059891
-0.48868034982276065	0.06862411105037061	0.5914048685179994
-0.42564091766292733	0.034480535947902395	0.5729982392870989
-1.5731960249235195	-0.26330937457051	0.5118432191344318
-1.496404320193654	-0.2533277249013629	0.5204295985526733
-1.4152615890694389	-0.24319858558998778	0.5313765917050189
-1.3302813041285668	-0.23257803626382736	0.5446141959883767
-1.2421552790597696	-0.22095782303372402	0.5597199749685211
-1.1517338410469589	-0.20770528825103166	0.5758718442243811
-1.0600096433551955	-0.19214784659980258	0.5918787013207989
-0.9681090156051825	-0.17368843115122384	0.6062962620211959
-0.8772826864970739	-0.1519252079514021	0.617613609872592
-0.7888724862646214	-0.1267432271078438	0.6244702044159026
-0.7042425481855131	-0.098351842860225	0.6258512148267751
-0.6246739197002634	-0.0672596572068106	0.6212146627710473
-0.5512492238424606	-0.03419525636600101	0.6105258328704017
-0.48475673907965694	0.	0.594202363525668
-1.570958010418199	-0.22975704008121636	0.5278251772267358
-1.4918937920494095	-0.2176650500775964	0.5365983139419211
-1.4085504236939659	-0.20512666292353174	0.5477895092098829
-1.3215684459660102	-0.19174208763047598	0.5612388076350716
-1.2317776766871784	-0.17697202491328393	0.5763821198337119
-1.140167214703183	-0.16020243918000104	0.5922240291318748
-1.047859856134171	-0.14084932218661073	0.6074072769805156
-0.9560928369660092	-0.11848099556486255	0.6203746002398816
-0.8661931582140808	-0.09292335435047788	0.6295941688240033
-0.7795271192008043	-0.06431759158272071	0.6337918639389425
-0.6974145152661313	-0.03311296589791916	0.6321325686990031
-0.6210198841078802	0.	0.6243087154501741
-0.5512492238424606	0.03419525636600101	0.6105258328704017
-1.5689247852304131	-0.19315674147537973	0.542352154823605
-1.4878819195426094	-0.17880867407097648	0.5510095950176868
-1.402736783278755	-0.1637019615427138	0.5620692266207232
-1.3142676495146357	-0.14739987557763992	0.5752624957682196
-1.2234441105190612	-0.12936792342327944	0.5898756084452972
-1.1313853547365167	-0.10906123829256183	0.6047539998971644
-1.03932190419235	-0.08604135329026538	0.6184167050980849
-0.9485639825427268	-0.06008928263064394	0.6292627826081403
-0.8604619352445391	-0.03128086469874098	0.6358216813742551
-0.7763420422464545	0.	0.6369806853926928
-0.6974145152661313	0.03311296589791916	0.6321325686990031
-0.6246739197002634	0.0672596572068106	0.6212146627710473
-1.5671724172844188	-0.15370296968657096	0.5548788595468981
-1.4845341733752773	-0.13703867019532867	0.5630571183017039
-1.3980840002620931	-0.11931623505835225	0.5735398209336301
-1.3087389797767015	-0.1000904202830461	0.5859394241017755
-1.2175990061756783	-0.07887416227453245	0.5994007448590326
-1.1258895377719584	-0.05524225878539862	0.6126460528991275
-1.0349117183754646	-0.028945648768303703	0.6241348176446346
-0.9459981334030231	0.	0.6323036484731784
-0.8604619352445391	0.03128086469874098	0.6358216813742551
-0.7795271192008043	0.06431759158272071	0.6337918639389425
-0.7042425481855131	0.098351842860225	0.6258512148267751
-1.565775974160002	-0.1117637133324351	0.5648651204910532
-1.4820079731069904	-0.09283651207063412	0.5721624769182272
-1.3948290501828575	-0.07259415859043056	0.5815868733931853
-1.305285497527487	-0.050617001676784935	0.5926340639452159
-1.2145833712402316	-0.026507775580235787	0.6043346032399476
-1.1240178090623316	0.	0.6153428743892047
-1.0349117183754646	0.028945648768303703	0.6241348176446346
-0.9485639825427268	0.06008928263064394	0.6292627826081403
-0.8661931582140808	0.09292335435047788	0.6295941688240033
-0.7888724862646214	0.1267432271078438	0.6244702044159026
-1.5648024054176224	-0.06788505053951539	0.5718301506410954
-1.4804336961997173	-0.0468790612909148	0.5778421768454168
-1.3931526677342523	-0.024370790149090115	0.5857388554290559
-1.3041104848738805	0.	0.5949163894059438
-1.2145833712402316	0.026507775580235787	0.6043346032399476
-1.1258895377719584	0.05524225878539862	0.6126460528991275
-1.03932190419235	0.08604135329026538	0.6184167050980849
-0.9560928369660092	0.11848099556486255	0.6203746002398816
-0.8772826864970739	0.1519252079514021	0.617613609872592
-1.564301898128506	-0.022770030166009293	0.5754106845830981
-1.479898726958559	0.	0.5797732934100773
-1.3931526677342523	0.024370790149090115	0.5857388554290559
-1.305285497527487	0.050617001676784935	0.5926340639452159
-1.2175990061756783	0.07887416227453245	0.5994007448590326
-1.1313853547365167	0.10906123829256183	0.6047539998971644
-1.047859856134171	0.14084932218661073	0.6074072769805156
-0.9681090156051825	0.17368843115122384	0.6062962620211959
-1.564301898128506	0.022770030166009293	0.5754106845830981
-1.4804336961997173	0.0468790612909148	0.5778421768454168
-1.3948290501828575	0.07259415859043056	0.5815868733931853
-1.3087389797767015	0.1000904202830461	0.5859394241017755
-1.2234441105190612	0.12936792342327944	0.5898756084452972
-1.140167214703183	0.16020243918000104	0.5922240291318748
-1.0600096433551955	0.19214784659980258	0.5918787013207989
-1.5648024054176224	0.06788505053951539	0.5718301506410954
-1.4820079731069904	0.09283651207063412	0.5721624769182272
-1.3980840002620931	0.11931623505835225	0.5735398209336301
-1.3142676495146357	0.14739987557763992	0.5752624957682196
-1.2317776766871784	0.17697202491328393	0.5763821198337119
-1.1517338410469589	0.20770528825103166	0.5758718442243811
-1.565775974160002	0.1117637133324351	0.5648651204910532
-1.4845341733752773	0.13703867019532867	0.5630571183017039
-1.402736783278755	0.1637019615427138	0.5620692266207232
-1.3215684459660102	0.19174208763047598	0.5612388076350716
-1.2421552790597696	0.22095782303372402	0.5597199749685211
-1.5671724172844188	0.15370296968657096	0.5548788595468981
-1.4878819195426094	0.17880867407097648	0.5510095950176868
-1.4085504236939659	0.20512666292353174	0.5477895092098829
-1.3302813041285668	0.23257803626382736	0.5446141959883767
-1.5689247852304131	0.19315674147537973	0.542352154823605
-1.4918937920494095	0.2176650500775964	0.5365983139419211
-1.4152615890694389	0.24319858558998778	0.5313765917050189
-1.570958010418199	0.22975704008121636	0.5278251772267358
-1.496404320193654	0.2533277249013629	0.5204295985526733
-1.5731960249235195	0.26330937457051	0.5118432191344318
-1.6453126647725376	0.27332542342111266	0.5054283613600049
-1.6453126647725376	0.24164428006386204	0.521318192151212
-1.6453126647725376	0.20704215371645415	0.5360020169177
-1.6453126647725376	0.16964579705288438	0.548985354174118
-1.6453126647725376	0.12973209843625486	0.5597626266469709
-1.6453126647725376	0.08773936423449194	0.5678612678455164
-1.6453126647725376	0.044258395795124174	0.5728924942404398
-1.6453126647725376	0.	0.5745995262401372
-1.6453126647725376	-0.044258395795124174	0.5728924942404398
-1.6453126647725376	-0.08773936423449194	0.5678612678455164
-1.6453126647725376	-0.12973209843625486	0.5597626266469709
-1.6453126647725376	-0.16964579705288438	0.548985354174118
-1.6453126647725376	-0.20704215371645415	0.5360020169177
-1.6453126647725376	-0.24164428006386204	0.521318192151212
-1.6453126647725376	-0.27332542342111266	0.5054283613600049
-1.7150572324058502	-0.29377418247568915	0.4949214937262491
-1.789370427688736	-0.2857058487735764	0.5030968494459579
-1.8680165216528968	-0.27775634315597	0.5135168392235406
-1.9505929324559683	-0.2696460788468726	0.5261785801331889
-2.0365353192504108	-0.2609219969448248	0.5407815947340235
-2.125129562477063	-0.2509751280719957	0.5566713758797033
-2.215520836599051	-0.23910096401068734	0.5728409321236569
-2.306714751527725	-0.2245980763000635	0.5880053237468863
-2.3975753748149957	-0.2068860945974416	0.6007450538853947
-2.486839459385916	-0.18561601296705446	0.6096929868858042
-2.573165055765722	-0.16074351421929015	0.6137241570585863
-2.6552203388548903	-0.13254659687763282	0.6121046759527956
-2.731799226843351	-0.10158445260091631	0.6045664125833604
-2.801931421283251	-0.06861173829221827	0.5912982396772568
-2.8649622244732296	-0.03447257376587127	0.5728659235861012
-1.7174291846089882	0.26331331731769825	0.511850883382681
-1.7942205391861394	0.25333523118037415	0.52044501924843
-1.875362738614058	0.24320894232995632	0.5313992206572898
-1.960342492058455	0.23259011900565166	0.5446424894284181
-2.0484680705385907	0.22097022460837756	0.5597513900547098
-2.1388895639052135	0.20771655013719467	0.5759030682880955
-2.230614294829375	0.19215656740508824	0.5919055642755406
-2.3225157933825638	0.17369355977407633	0.6063141645656784
-2.4133429644610125	0.15192626308525395	0.6176178992531097
-2.501753359219968	0.12674046599659256	0.624456600282989
-2.586382341052875	0.09834633933465632	0.6258161937426467
-2.665948445124129	0.06725327572687449	0.6211557229983646
-2.7393687821869483	0.03419054978879007	0.610441801128077
-2.8058545500076733	0.	0.5940935270310216
-1.7196671922518931	0.22976058281723216	0.5278333160209366
-1.7987310398020717	0.21767167568250817	0.536614647700709
-1.8820737330851887	0.20513557780256242	0.5478133163402641
-1.96905517449994	0.19175217500179495	0.5612683338821319
-2.0588456624119518	0.1769819715528607	0.5764145151527307
-2.1504562330333084	0.16021101520036551	0.5922557323029386
-2.242764203543575	0.14085547959409173	0.6074338305631188
-2.3345320954498154	0.1184841869307481	0.6203913104500383
-2.4244325624035006	0.0929236993547411	0.6295965063706175
-2.5110988956669322	0.06431596771239352	0.6337758621612618
-2.5932103868510508	0.0331110109948511	0.632095249242275
-2.669602503904559	0.	0.6242482251622263
-2.7393687821869483	-0.03419054978879007	0.610441801128077
-1.72170028415377	0.19315979650536635	0.5423607328420766
-1.8027428862303383	0.17881424602332846	0.5510267653212243
-1.8878873369646685	0.16370919899849315	0.5620940763606668
-1.9763560747159783	0.147407704405999	0.5752930496022928
-2.067179216371893	0.12937520125670865	0.5899087929960624
-2.159238129470769	0.10906700675502763	0.6047859865204971
-2.251302234786601	0.08604500627603481	0.6184429606988736
-2.342061184201567	0.060090801016629454	0.629278683343654
-2.430163807862733	0.03128092731638265	0.6358229541541028
-2.5142838041424858	0.	0.6369638449769711
-2.5932103868510508	-0.0331110109948511	0.632095249242275
-2.665948445124129	-0.06725327572687449	0.6211557229983646
-1.7234526464825008	0.1537054539523331	0.5548878279263362
-1.8060904822071326	0.13704302091707854	0.5630749943132525
-1.8925400903570173	0.11932158042037083	0.5735655154920737
-1.9818845969321681	0.10009576695400982	0.5859707240533242
-2.073024445186246	0.07887860324990546	0.5994344938570533
-2.1647339708494098	0.05524515660148486	0.6126781901727709
-2.255712456734658	0.028946857986916628	0.6241608911814385
-2.3446269125448693	0.	0.6323192459200878
-2.430163807862733	-0.03128092731638265	0.6358229541541028
-2.5110988956669322	-0.06431596771239352	0.6337758621612618
-2.586382341052875	-0.09834633933465632	0.6258161937426467
-1.7248490850452494	0.11176555053510738	0.5648744058993302
-1.8086167932223818	0.09283950202349249	0.5721809043536743
-1.8957950192758077	0.07259744033158576	0.5816131650069294
-1.9853380686244688	0.05061971548474928	0.5926658377561765
-2.0760399425439915	0.02650926746999194	0.6043686159243064
-2.1666057084324373	0.	0.6153750589949346
-2.255712456734658	-0.028946857986916628	0.6241608911814385
-2.342061184201567	-0.060090801016629454	0.629278683343654
-2.4244325624035006	-0.0929236993547411	0.6295965063706175
-2.501753359219968	-0.12674046599659256	0.624456600282989
-1.7258227774935173	0.06788617993737595	0.5718396641310848
-1.8101909322909762	0.04688058333844709	0.5778609379561368
-1.8974715194417295	0.024371897409847364	0.5857654678468168
-1.986513077554108	0.	0.594948324762146
-2.0760399425439915	-0.02650926746999194	0.6043686159243064
-2.1647339708494098	-0.05524515660148486	0.6126781901727709
-2.251302234786601	-0.08604500627603481	0.6184429606988736
-2.3345320954498154	-0.1184841869307481	0.6203913104500383
-2.4133429644610125	-0.15192626308525395	0.6176178992531097
-1.7263231561731105	0.022770411077495153	0.5754203104174622
-1.8107258980745706	0.	0.5797921709252439
-1.8974715194417295	-0.024371897409847364	0.5857654678468168
-1.9853380686244688	-0.05061971548474928	0.5926658377561765
-2.073024445186246	-0.07887860324990546	0.5994344938570533
-2.159238129470769	-0.10906700675502763	0.6047859865204971
-2.242764203543575	-0.14085547959409173	0.6074338305631188
-2.3225157933825638	-0.17369355977407633	0.6063141645656784
-1.7263231561731105	-0.022770411077495153	0.5754203104174622
-1.8101909322909762	-0.04688058333844709	0.5778609379561368
-1.8957950192758077	-0.07259744033158576	0.5816131650069294
-1.9818845969321681	-0.10009576695400982	0.5859707240533242
-2.067179216371893	-0.12937520125670865	0.5899087929960624
-2.1504562330333084	-0.16021101520036551	0.5922557323029386
-2.230614294829375	-0.19215656740508824	0.5919055642755406
-1.7258227774935173	-0.06788617993737595	0.5718396641310848
-1.8086167932223818	-0.09283950202349249	0.5721809043536743
-1.8925400903570173	-0.11932158042037083	0.5735655154920737
-1.9763560747159783	-0.147407704405999	0.5752930496022928
-2.0588456624119518	-0.1769819715528607	0.5764145151527307
-2.1388895639052135	-0.20771655013719467	0.5759030682880955
-1.7248490850452494	-0.11176555053510738	0.5648744058993302
-1.8060904822071326	-0.13704302091707854	0.5630749943132525
-1.8878873369646685	-0.16370919899849315	0.5620940763606668
-1.96905517449994	-0.19175217500179495	0.5612683338821319
-2.0484680705385907	-0.22097022460837756	0.5597513900547098
-1.7234526464825008	-0.1537054539523331	0.5548878279263362
-1.8027428862303383	-0.17881424602332846	0.5510267653212243
-1.8820737330851887	-0.20513557780256242	0.5478133163402641
-1.960342492058455	-0.23259011900565166	0.5446424894284181
-1.72170028415377	-0.19315979650536635	0.5423607328420766
-1.7987310398020717	-0.21767167568250817	0.536614647700709
-1.875362738614058	-0.24320894232995632	0.5313992206572898
-1.7196671922518931	-0.22976058281723216	0.5278333160209366
-1.7942205391861394	-0.25333523118037415	0.52044501924843
-1.7174291846089882	-0.26331331731769825	0.511850883382681
-1.6022182829362144	0.3248272042475709	0.4744076167725487
-1.5563716453740077	0.348858775932713	0.4584871054983736
-1.5080228649892768	0.37415695519768977	0.44080529905414156
-1.4575737644617597	0.4006168160506631	0.42109587560742723
-1.4055851879751606	0.4280151199591252	0.39905211836058313
-1.3527666918108703	0.4559790374071989	0.37435653251978135
-1.299945539457917	0.48397326611954616	0.3467324841895754
-1.2480158401219954	0.5113174068867228	0.3160115751422884
-1.1978734677540792	0.5372401759925588	0.2822013055031951
-1.1503466796654718	0.5609633460713945	0.2455303203387066
-1.1061315770299454	0.5817974005297029	0.20645509398448292
-1.0657469438131917	0.599225168309292	0.16562174220063372
-1.0295091697251924	0.6129523789446532	0.12379457955305179
-0.9975355205709951	0.6229178574609208	0.0817688156949454
-0.9697654590571894	0.6292672841736893	0.0402910527758965
-0.4123514335077283	0.09403603253876372	0.5609771461346886
-0.4051810984920259	0.1574996201871825	0.5435076177197694
-0.4056152161857562	0.22355149881731867	0.5200338594162096
-0.4149573642193077	0.29036147579391847	0.49032705706290125
-0.4341122191854407	0.3556978645729074	0.4546130235007682
-0.4633814593010844	0.4171561310410657	0.4136434026287994
-0.5023416697837761	0.4724796123239336	0.36867090932942065
-0.549855635252365	0.5198954966045936	0.32131307225675165
-0.604223344399577	0.5583652217420642	0.2733300410814855
-0.6634360564581396	0.5876769124211438	0.22637881913911206
-0.7254515568068387	0.6083633052684525	0.18181394855813965
-0.7884212082425207	0.621495751353617	0.14057753925802097
-0.8508287474846664	0.628431408062704	0.10318779913280164
-0.9115366789409386	0.6305853592798457	0.06979795999531811
-0.48015232512997863	0.12893724587572977	0.5786110494800955
-0.478091216823405	0.1924580684577694	0.5600201731211872
-0.4838250822952831	0.2576432246261417	0.5351286629277309
-0.49841511107561554	0.3224861645949931	0.5038220736423369
-0.5224498825861293	0.3846840240092468	0.4664956018015014
-0.5558820130735425	0.441917261682425	0.42409686385362017
-0.5979695883693306	0.4921873903302728	0.3780559780857506
-0.647353358036085	0.5341184159669039	0.3301033388949062
-0.7022541726846486	0.5671291505887529	0.28202078900577016
-0.7607314518191755	0.5914303343290759	0.2353988152153441
-0.8209273632511931	0.6078671548206509	0.19146527639021796
-0.8812409901340165	0.6176778661404211	0.151015227096162
-0.9404129712017668	0.6222482490093802	0.11443235584322023
-0.5554201310240166	0.1618314686139373	0.5906245770587927
-0.5586736885338472	0.22441772634925208	0.5705423548550114
-0.5696863154095814	0.287641817939009	0.5440036572773972
-0.5892245369358856	0.3494133536020947	0.5110576993680601
-0.6175396612136956	0.4074851479550365	0.472297153177349
-0.6542618045425487	0.45975957742078377	0.4288597900252497
-0.6984054508290992	0.5046071419166672	0.3823094928164086
-0.7484983727663382	0.5411006457313682	0.3344185731067291
-0.8027968879961382	0.5690947208440486	0.2869112420690905
-0.8595220517956966	0.5891379017587743	0.24124441083592257
-0.9170549216475016	0.6022679243482478	0.1984773351540367
-0.9740560065809386	0.6097679904698498	0.1592424907965157
-0.6372714982895353	0.19180626651280613	0.5965191024047627
-0.6457805257875314	0.2524569524767738	0.5746912172413194
-0.6617666287556797	0.3127054725376635	0.546438377802859
-0.6856795795518524	0.37049255323408914	0.5120080362272338
-0.7174540135821842	0.42375599194221186	0.472193374621665
-0.756460787007344	0.4707313214987624	0.4282855657098605
-0.8015691522527107	0.5102174675938789	0.38191264456737667
-0.8513019316150682	0.5417244720960074	0.3348041889862134
-0.9040416593653262	0.5654644778603414	0.2885501744514099
-0.9582259359325338	0.5822050690159024	0.24442207719517353
-1.0124912114114266	0.5930509762377215	0.20328846665751207
-0.7244879909936695	0.21812841206822442	0.596246618051388
-0.7379296804449754	0.275946331977131	0.5725996286601495
-0.7583339858588287	0.33241075544190013	0.5427735895749043
-0.7858494330609558	0.3856107868701164	0.507223059201601
-0.8201459607407349	0.4337749206626011	0.4669123535638491
-0.8604215760183326	0.4755343459714348	0.42322132299004334
-0.9054981599621739	0.5101133807784283	0.37775743005952267
-0.9539793365391374	0.5373905121807266	0.3321256090544424
-1.0044286512974712	0.557821957865082	0.28772266700417076
-1.0555192596240632	0.5722695128007392	0.24560641965441896
-0.8156294640667088	0.2403608489536287	0.5902730059356383
-0.8334617018419903	0.29466159924875296	0.5649512557091318
-0.8575552054630803	0.34683951341653396	0.5339056058294567
-0.8877998757786965	0.3952275184193323	0.49777469029313254
-0.9236752266889224	0.43840588965099453	0.4576356023944368
-0.9642926119831433	0.4754051376686318	0.41487560045181376
-1.0085054388001418	0.5058162841599634	0.3709989387942395
-1.0550523537030576	0.5297815371522191	0.32742298168478934
-1.1026989168688262	0.5478808771904325	0.28531914052795787
-0.9091789060474261	0.2584365132472981	0.5795528456654394
-0.9307121085984061	0.3088264155308564	0.552910243910326
-0.9576802419204093	0.3565673392227172	0.5211672969236095
-0.9897763156808119	0.40029201962400734	0.48509477346552904
-1.0263631521069996	0.4389401883080153	0.4458069308504713
-1.0665376353707035	0.4718927209160499	0.4046184452161345
-1.1092374734465928	0.4990136886381982	0.3628663002546817
-1.1533605951941976	0.5205961479765212	0.3217461184896821
-1.0036734340026026	0.272665956647097	0.5654090495092766
-1.0281471471906534	0.319067184232993	0.5379546980158427
-1.0571695008910718	0.36255301100205056	0.5061224519516155
-1.0902994506326942	0.40206527153322935	0.47074621857563603
-1.126847595960615	0.4368633148772587	0.43290200709859133
-1.1659472390291745	0.46659662153740455	0.393769240945788
-1.2066488764180312	0.49129928910744963	0.35448235887000795
-1.0977911080152696	0.28367164074021933	0.5493431137786774
-1.1244369885040115	0.32629061257427644	0.5216541953320697
-1.1547388839402373	0.36595904955242364	0.49032726222242506
-1.1881780351799316	0.4018963740710928	0.4561895868399553
-1.2240616234676807	0.4336121053502312	0.4202191201137533
-1.2615919197029297	0.46093303776819583	0.38342430374343694
-1.1903865885406995	0.2922677276265726	0.5328207671709819
-1.2184687926899516	0.33151766126965976	0.5054475756195453
-1.2493473970519082	0.367953167727315	0.4751190620307111
-1.282471795633714	0.4010140300292772	0.4426002608364043
-1.3171811084863017	0.43038144862016475	0.4087358124349112
-1.2804880870841677	0.2993157163316811	0.5170850031825643
-1.3093273477224194	0.33571816144362177	0.49047193549603424
-1.3401636567063484	0.3695407373989555	0.4614771941971795
-1.372450804307106	0.4003786616065273	0.4307697237666673
-1.3672868247714782	0.3055941990363062	0.5030332946211357
-1.3962761289744499	0.3396844157134448	0.47747360968834063
-1.4265430740157248	0.3714611199682334	0.44997361764857335
-1.4501337469676712	0.3117089040536951	0.49117689321974267
-1.4787522837547502	0.34396488188112817	0.4668047895632432
-1.5285468175438504	0.3180549457605022	0.48167314749826434
-1.7150572324058502	0.29377418247568915	0.4949214937262491
-1.789370427688736	0.2857058487735764	0.5030968494459579
-1.8680165216528968	0.27775634315597	0.5135168392235406
-1.9505929324559683	0.2696460788468726	0.5261785801331889
-2.0365353192504108	0.2609219969448248	0.5407815947340235
-2.125129562477063	0.2509751280719957	0.5566713758797033
-2.215520836599051	0.23910096401068734	0.5728409321236569
-2.306714751527725	0.2245980763000635	0.5880053237468863
-2.3975753748149957	0.2068860945974416	0.6007450538853947
-2.486839459385916	0.18561601296705446	0.6096929868858042
-2.573165055765722	0.16074351421929015	0.6137241570585863
-2.6552203388548903	0.13254659687763282	0.6121046759527956
-2.731799226843351	0.10158445260091631	0.6045664125833604
-2.801931421283251	0.06861173829221827	0.5912982396772568
-2.8649622244732296	0.03447257376587127	0.5728659235861012
-2.9380850662146973	0.05807486375458233	0.5383838810561927
-2.949928596709856	0.1205715165136815	0.5216213157661191
-2.954541999425836	0.1864144381011019	0.49924525759702243
-2.950450388564659	0.25401248313253133	0.4709650741206514
-2.9364877727318826	0.3213113985063748	0.43687892761539665
-2.9120195938443834	0.38595870375135594	0.3975593645484264
-2.8771145775943014	0.44557914004522037	0.35406385983190625
-2.832602531641741	0.49810654533810067	0.30784677603458205
-2.779986180901528	0.542085345168815	0.26057671559549045
-2.721224442886619	0.5768481689472225	0.2139071099827497
-2.65845270232429	0.6025253141116984	0.1692641672689945
-2.5937143836046865	0.6199030511150917	0.1277070420130807
-2.5287707489874265	0.6301938355010189	0.08988027564306908
-2.4650042066484494	0.6347949482630425	0.05604641326768512
-2.4034075213759416	0.6350901305117107	0.026167174162643404
-1.762078079899225	0.3180625014655917	0.4816845901131349
-1.811872333921858	0.34397614940393395	0.4668200810476049
-1.8640813287666536	0.37147635159400594	0.4499920686502613
-1.9181731085389406	0.40039783720917155	0.43079035490874906
-1.9734424950502878	0.43040421830255865	0.40875743693722655
-2.0290315899913134	0.46095876508737854	0.38344570485517454
-2.0839744305720123	0.49132692036337117	0.35450229537916794
-2.137262804378828	0.5206244193216919	0.3217635911421566
-2.1879247201568477	0.5479084803950549	0.2853335154093355
-2.2351048629663706	0.5722951535545829	0.2456174241437512
-2.278133150274969	0.5930735468528858	0.2032962035063364
-2.316568748620876	0.6097867527343104	0.15924739061049803
-2.3502122813485085	0.6222628040893746	0.11443503254354986
-2.37908868073721	0.6305956218294346	0.0697990959319762
-1.8404906948547877	0.31172055894650136	0.49119525847644513
-1.8943479499471763	0.3396997104551719	0.4774951085714328
-1.9504600683930908	0.36955960976095403	0.461500761733263
-2.00815166941476	0.4010360442499423	0.442624557990815
-2.066561837645968	0.4336365085466946	0.42024276956822953
-2.12467612454789	0.46662224351692566	0.3937908637929366
-2.1813862618167636	0.49903915457193093	0.36288481824199653
-2.2355716323674493	0.5298052282894767	0.327437623612181
-2.2861958001201668	0.5578423947940911	0.287733208302585
-2.3323989724329643	0.5822210236030291	0.24442877527036014
-2.373570543408917	0.6022785839611563	0.19848084802842086
-2.4093847838378917	0.6176828590874156	0.15101644781502788
-2.4397970223042393	0.6284308200332552	0.1031877025789632
-1.923337055312708	0.3056090067468224	0.5030576693358071
-1.9812963613842733	0.335736091345515	0.4904981304258737
-2.0412759597744334	0.36797378902203726	0.47514568925141637
-2.102445419839304	0.4019188163461031	0.4562150608995021
-2.163775908231072	0.4368862650051141	0.432924749123553
-2.224086248435569	0.47191454275683015	0.40463715607751655
-2.2821189649922955	0.505835182105131	0.37101279979045915
-2.3366456204125625	0.5374047359065124	0.33213439980061776
-2.3865839137392464	0.5654725809198572	0.28855430935170595
-2.4311036939136703	0.5891389142507633	0.24124482543839953
-2.4696985532850597	0.6078607195245488	0.1914632494082745
-2.5022046377727	0.621482109404209	0.14057445355441917
-2.0101353675984917	0.29933217927032946	0.5171134438497893
-2.0721546599169436	0.3315363265724331	0.505476033626877
-2.135884511203637	0.3659789490330157	0.4903539243799815
-2.2003242688162916	0.4020850119917968	0.47076933110706193
-2.2642612326193565	0.4389579331244742	0.44582495326531224
-2.326332233450836	0.4754187895130683	0.41488751411599
-2.3851272490243285	0.510120880282597	0.37776298371392236
-2.439323836307986	0.5417240444260103	0.3348039246715777
-2.4878289689897453	0.5690851621238062	0.2869064230043604
-2.52989442324154	0.5914111678359383	0.23539118664184264
-2.5651737844194464	0.6083348466822063	0.1818054434956367
-2.100236863526344	0.29228406890360864	0.5328505582527328
-2.166186664449859	0.3263076981942808	0.5216815108140714
-2.2334544641367815	0.3625693279111744	0.5061452302869305
-2.3008482976756444	0.4003055936833655	0.48511122321952493
-2.366950181733529	0.438414376734978	0.4576444617457435
-2.43020416720725	0.47553529211419115	0.4232221650486506
-2.489056699824929	0.510208677852602	0.3819060651898576
-2.5421271637478857	0.5410805091449546	0.33440612801255154
-2.5883708402631003	0.5670969023746343	0.28200475268180347
-2.627187792955752	0.5876328172177149	0.22636183324112802
-2.1928325607275188	0.2836857929726949	0.549370520224506
-2.2624772235492565	0.3190801759752489	0.5379766023956327
-2.3329446724852896	0.35657706792706767	0.5211815166290934
-2.402825688542485	0.3952314370775841	0.49777962570073137
-2.4704801163095724	0.4337702152904715	0.4669072887335171
-2.5341648579778515	0.4707152881095784	0.4282709780483999
-2.5922193004002074	0.5045775884350859	0.3822871019788326
-2.6432698609673646	0.5340740887680777	0.3300759431790893
-2.686397950523059	0.5583060288174237	0.2733010650566658
-2.2869511710042074	0.27267591491061255	0.5654296992903433
-2.35991308712659	0.30883292192135	0.55292189268703
-2.4330705449720793	0.346839903166857	0.5339062057895947
-2.5047765789395298	0.3856019568123802	0.5072114443582139
-2.573171189962484	0.4237347202373731	0.4721696714569127
-2.63636169892076	0.45972300821031287	0.4288256785794112
-2.692651322158758	0.49213349626839237	0.3780145813074553
-2.740762251910196	0.519823485232939	0.321268566783604
-2.3814464729193716	0.25844056140693766	0.5795619238038546
-2.457164165442762	0.2946596996641875	0.5649476136577471
-2.5322916876346073	0.33239967639706525	0.5427554992669475
-2.604944907592797	0.3704686847673251	0.5119750508225639
-2.67308237824106	0.4074449169170092	0.4722505232453747
-2.734736181274736	0.4418577449337851	0.424039747129216
-2.788271654230161	0.4723990739553817	0.3686080660811715
-2.4749964515510463	0.24035787461771188	0.5902657016254317
-2.5526959385102925	0.27593486804071504	0.572575840535525
-2.628857338265232	0.3126817448683217	0.5463969147960271
-2.701395830548858	0.3493733517946392	0.5109991920686737
-2.7681653876211283	0.3846238698254704	0.46642265449823367