# TIME=0.000000
VARIABLES=X,Y,Z
ZONE N=1442 E=2880 F=FEPOINT ET=TRIANGLE
-1.2934075647082501	0.4371212150661149	1.5397309652399578
-1.2934075647082501	0.4371212150661149	0.12517697503804992
-1.2934075647082501	-0.4371212150661149	1.5397309652399578
-1.2934075647082501	-0.4371212150661149	0.12517697503804992
-0.24552275979146157	0.	1.3644983180526258
-2.341146457326851	0.	1.3641233276610785
-0.24552275979146157	6.515664076768577e-17	0.30040962222538214
-2.341146457326851	6.511071768941382e-17	0.30078461261692946
-0.6927675554897998	0.7633148365418893	0.8324539701390039
-0.6927675554897998	-0.7633148365418893	0.8324539701390039
-1.894028526997742	0.7631715168328681	0.8324539701390039
-1.894028526997742	-0.7631715168328681	0.8324539701390039
-1.2122267967313516	0.4194097747768531	1.5492013935341202
-1.1240897064828443	0.39855661333631853	1.557043384544003
-1.029649682925754	0.3741011233711571	1.5624626155226462
-0.9301753313361448	0.3455948667646225	1.564435528482493
-0.8276179299147138	0.3126929657709298	1.5617539634169615
-0.7245595632290918	0.2752926168257117	1.5531793021469
-0.6240003363389136	0.23367961424568232	1.5377068932492548
-0.5289921132224995	0.18861319023732567	1.5148630322099503
-0.44220150002043057	0.14128300783371955	1.4849038367550993
-0.3655369766699484	0.09313332640090065	1.4488131518548606
-0.2999612655940625	0.04562101712824563	1.4081009117980772
-1.2085863689081875	-0.3585648293922552	1.5813912987574374
-1.1166689308750146	-0.33290971389279	1.5890054385099317
-1.0185980880891605	-0.30334278900198847	1.5935110308303055
-0.9160291414675575	-0.2695624334322293	1.5937103750630408
-0.81135003409437	-0.23147221883375171	1.5882681656340565
-0.7075400216787368	-0.1893245058842096	1.5759410136151435
-0.607844175499104	-0.1438256893850684	1.5559054487997912
-0.5153156104225259	-0.09612981457065918	1.5280556328612742
-0.43235901005283833	-0.04768734018570715	1.4931194429930723
-0.36042779133270963	0.	1.4525270314022265
-1.2052929305805935	-0.2897301899245545	1.6105192255586143
-1.110170677171853	-0.25892636869552926	1.617015496519068
-1.0093329007872514	-0.2240960564886932	1.6195827813483354
-0.9048489203579424	-0.18518374753314495	1.6169047593781087
-0.7995076037284657	-0.14244089292117754	1.6076287767866184
-0.6965651140429185	-0.09653700613529181	1.5906653173131402
-0.5993154144868672	-0.04858025212368102	1.565538578997083
-0.5105915155734028	0.	1.5326212439583784
-0.43235901005283833	0.04768734018570715	1.4931194429930723
-1.2025544604633271	-0.21339298809257337	1.6347420767502492
-1.1050642190855604	-0.1774636007891991	1.6390411196927803
-1.0026087678634448	-0.13769394809099694	1.6385285583943396
-0.8976442808933054	-0.09435930882192856	1.631878914205398
-0.7932497125692685	-0.04810821697596986	1.6178802339784966
-0.6927675554897998	0.	1.5957688066808933
-0.5993154144868672	0.04858025212368102	1.565538578997083
-0.5153156104225259	0.09612981457065918	1.5280556328612742
-1.2005803749359254	-0.1308229079260101	1.6522067425773297
-1.1017874051706233	-0.09028736185709317	1.6531813506242727
-0.9990625589849906	-0.04646739693804021	1.648528729639166
-0.8951521514573513	0.	1.6370635215200162
-0.7932497125692685	0.04810821697596986	1.6178802339784966
-0.6965651140429185	0.09653700613529181	1.5906653173131402
-0.607844175499104	0.1438256893850684	1.5559054487997912
-1.1995437992454079	-0.0440954891404443	1.6613779073013768
-1.1006565086645455	0.	1.6580625995884115
-0.9990625589849906	0.04646739693804021	1.648528729639166
-0.8976442808933054	0.09435930882192856	1.631878914205398
-0.7995076037284657	0.14244089292117754	1.6076287767866184
-0.7075400216787368	0.1893245058842096	1.5759410136151435
-1.1995437992454079	0.0440954891404443	1.6613779073013768
-1.1017874051706233	0.09028736185709317	1.6531813506242727
-1.0026087678634448	0.13769394809099694	1.6385285583943396
-0.9048489203579424	0.18518374753314495	1.6169047593781087
-0.81135003409437	0.23147221883375171	1.5882681656340565
-1.2005803749359254	0.1308229079260101	1.6522067425773297
-1.1050642190855604	0.1774636007891991	1.6390411196927803
-1.0093329007872514	0.2240960564886932	1.6195827813483354
-0.9160291414675575	0.2695624334322293	1.5937103750630408
-1.2025544604633271	0.21339298809257337	1.6347420767502492
-1.110170677171853	0.25892636869552926	1.617015496519068
-1.0185980880891605	0.30334278900198847	1.5935110308303055
-1.2052929305805935	0.2897301899245545	1.6105192255586143
-1.1166689308750146	0.33290971389279	1.5890054385099317
-1.2085863689081875	0.3585648293922552	1.5813912987574374
-1.2934075647082501	0.38069789196131276	1.5716324462299438
-1.2934075647082501	0.31674548194212077	1.6012114118130114
-1.2934075647082501	0.24548001189567245	1.626843841813871
-1.2934075647082501	0.16776586282441952	1.6468066699753154
-1.2934075647082501	0.0851937248539431	1.6595317982213569
-1.2934075647082501	0.	1.663907940278008
-1.2934075647082501	-0.0851937248539431	1.6595317982213569
-1.2934075647082501	-0.16776586282441952	1.6468066699753154
-1.2934075647082501	-0.24548001189567245	1.626843841813871
-1.2934075647082501	-0.31674548194212077	1.6012114118130114
-1.2934075647082501	-0.38069789196131276	1.5716324462299438
-1.3745881627134242	-0.41940286630966694	1.5491895873570756
-1.4627246401858143	-0.3985424900715128	1.5570177079705059
-1.5571633459006806	-0.3740792620880164	1.5624199561327248
-1.656635200869715	-0.3455646904676565	1.5643716140699757
-1.7591883021524304	-0.31265416735743357	1.5616634731092174
-1.8622393735325367	-0.2752455907650946	1.553056186338194
-1.9627877215073966	-0.2336260541258372	1.537545247008932
-2.0577804773395374	-0.18855655613182606	1.5146581280525764
-2.1445505498093125	-0.14122875023827172	1.4846532732835565
-2.2211900302545136	-0.09308861351090235	1.4485172405913362
-2.2867378278239174	-0.04559419236206284	1.4077624363412404
-1.3782285758199189	0.35855865743453397	1.5813784073382318
-1.4701452182834311	0.33289733949895406	1.5889773171742179
-1.5682146227376619	0.30332418075696554	1.5934643445836723
-1.6707809084682705	0.26953765345245995	1.593640395288511
-1.7754552392642458	0.23144195181022467	1.588169336296556
-1.8792575364909692	0.18929047569475022	1.575807375316013
-1.9789416934359922	0.14379116136163445	1.555731770858699
-2.0714541803752256	0.0960998153250939	1.5278385563466794
-2.1543901984212708	0.04766850573903674	1.4928585085696593
-2.226297450619011	0.	1.4522246017794231
-1.3815220001870558	0.2897250081297585	1.6105053099411477
-1.4766433941720196	0.25891634826017523	1.6169851340337948
-1.5774797251472066	0.22408174003705006	1.6195324953605355
-1.6819607419852702	0.18516603534789217	1.6168297293720428
-1.7872968176999227	0.1424215574492436	1.6075235515917292
-1.890231364086998	0.09651908190646126	1.5905245386187021
-1.9874692526478481	0.04856830132799065	1.5653582393734453
-2.0761772599284365	0.	1.5323998207203324
-2.1543901984212708	-0.04766850573903674	1.4928585085696593
-1.3842603484466423	0.21338905275777412	1.6347272811736315
-1.481749903748086	0.1774565202069079	1.6390089378444348
-1.5842037052712608	0.137684893920856	1.6384755543475422
-1.689165122476282	0.09435005329665938	1.6318005001319693
-1.7935544536336718	0.048101555598920494	1.617771478742556
-1.894028526997742	0.	1.595625486971872
-1.9874692526478481	-0.04856830132799065	1.5653582393734453
-2.0714541803752256	-0.0960998153250939	1.5278385563466794
-1.3862345345793252	0.13082044178545527	1.6521912894308657
-1.4850266814932693	0.09028369121497776	1.6531479838669978
-1.58774983147548	0.046464295170323036	1.6484742554376695
-1.6916571596527403	0.	1.6369839118740062
-1.7935544536336718	-0.048101555598920494	1.617771478742556
-1.890231364086998	-0.09651908190646126	1.5905245386187021
-1.9789416934359922	-0.14379116136163445	1.555731770858699
-1.3872711053679725	0.04409464848339874	1.6613621043074291
-1.486157454912177	0.	1.6580288266135383
-1.58774983147548	-0.046464295170323036	1.6484742554376695
-1.689165122476282	-0.09435005329665938	1.6318005001319693
-1.7872968176999227	-0.1424215574492436	1.6075235515917292
-1.8792575364909692	-0.18929047569475022	1.575807375316013
-1.3872711053679725	-0.04409464848339874	1.6613621043074291
-1.4850266814932693	-0.09028369121497776	1.6531479838669978
-1.5842037052712608	-0.137684893920856	1.6384755543475422
-1.6819607419852702	-0.18516603534789217	1.6168297293720428
-1.7754552392642458	-0.23144195181022467	1.588169336296556
-1.3862345345793252	-0.13082044178545527	1.6521912894308657
-1.481749903748086	-0.1774565202069079	1.6390089378444348
-1.5774797251472066	-0.22408174003705006	1.6195324953605355
-1.6707809084682705	-0.26953765345245995	1.593640395288511
-1.3842603484466423	-0.21338905275777412	1.6347272811736315
-1.4766433941720196	-0.25891634826017523	1.6169851340337948
-1.5682146227376619	-0.30332418075696554	1.5934643445836723
-1.3815220001870558	-0.2897250081297585	1.6105053099411477
-1.4701452182834311	-0.33289733949895406	1.5889773171742179
-1.3782285758199189	-0.35855865743453397	1.5813784073382318
-1.243260255995794	0.4806479824921246	1.5104322861918176
-1.1889916225546415	0.5253850087596135	1.4747072401214187
-1.1312549207736282	0.5702653656989063	1.4318705485539986
-1.0711433333902407	0.6138903539801712	1.3815341553921512
-1.010177080937003	0.6546115978970808	1.3237862109344956
-0.9501822966929825	0.6907130941360907	1.2593381890456996
-0.8930637771498221	0.72067244919124	1.1895701255152016
-0.8405246551199888	0.7434305333446681	1.1164191734413147
-0.7938219413290242	0.7585722567239842	1.0421181913922
-0.7536332609914401	0.7663506817417608	0.9688630475929585
-0.7200651555015047	0.7675587594466511	0.8985200906753168
-0.2895454886317544	0.12515667021771623	1.3878609462742948
-0.28782187042803087	0.21045992810665962	1.3599880942487825
-0.2970771990019675	0.299075375763123	1.3238217295153756
-0.31896548268229047	0.3875787838063637	1.2794703182543454
-0.35397395051438907	0.4720196972578095	1.2280309062057726
-0.4011139511140808	0.5486683106210446	1.171549651865144
-0.4580310510605404	0.6147933657690737	1.1126635805944303
-0.5215188433074827	0.6691210519741814	1.054052073864332
-0.5882064615552282	0.7118101043389942	0.99794062048452
-0.6551348060951845	0.7440529943935982	0.9458368357273986
-0.3614646654948965	0.17601187819926353	1.427720021017602
-0.36672989827885444	0.26362219220621985	1.3981603914560436
-0.38324462953323096	0.35296542813958	1.359580287261729
-0.4120532884683061	0.4402273338108127	1.3123765039009478
-0.4528948083660922	0.5214121758820275	1.2580549905650347
-0.5040931882118433	0.5931694702532933	1.1990528796730278
-0.5628795203531893	0.6534613380889351	1.138243894325316
-0.6260132734457365	0.7017803794424181	1.078338762545891
-0.6904223960838717	0.738896182848613	1.0214382330539051
-0.44523447541722394	0.2262422996605633	1.4621896768540807
-0.45784356224335765	0.3145170752768174	1.4303175158590364
-0.4813737574021173	0.4027064941553026	1.3889807271197787
-0.5161457864875089	0.48687793309044897	1.3389653806489772
-0.561190666557214	0.5633173197995618	1.2821918371120833
-0.614354927291275	0.6293053055324509	1.2213860233169944
-0.6727669000546899	0.6835728419091265	1.159495785156594
-0.7334484634110664	0.7262713058659641	1.0991118982073127
-0.539344302465675	0.27413074540446414	1.4898238315325267
-0.5589794088748908	0.36130980542395447	1.455209909168371
-0.5885665342939108	0.44658141850800454	1.4110832326850185
-0.6277245813411529	0.5262004850257406	1.3586544551647446
-0.6749576495266357	0.5969974965490227	1.300176164752847
-0.7279275213850271	0.6569906571677192	1.2384965789603908
-0.7839541111625647	0.7055988068474056	1.1764608125129847
-0.6412390382471186	0.31817748821510417	1.5098719043013136
-0.6669145206109426	0.4026542863346281	1.472421025174524
-0.7010331769905489	0.4836397672378222	1.4258401026019434
-0.7426654425422676	0.5578277469933176	1.3717087670784833
-0.7900510886858133	0.6227201106174322	1.3124593539149043
-0.8409459921649246	0.6770254224627951	1.2508787445723284
-0.7476597780612926	0.3573670951753588	1.522425717633383
-0.7778972178299852	0.4379168254170644	1.482411648398027
-0.8147444678788313	0.5137937413641643	1.434014108386409
-0.8569513239614432	0.5822635169571527	1.379053269463031
-0.9027486397610524	0.6414849496753317	1.3199676971563412
-0.8551532997332154	0.3912849873970158	1.528311821341886
-0.8882598998636743	0.4671658147379864	1.4862917956242991
-0.9260699255533396	0.5376375465588699	1.4368595597215577
-0.9672395817258483	0.600549570916903	1.3819226787063652
-0.9605714721797683	0.4200492204979141	1.5287895215033234
-0.9949151427059079	0.4909646042294294	1.4854500808929982
-1.0321938155279837	0.5561234939699734	1.4357429392062286
-1.0614142866218796	0.4441237007425001	1.5252104422256183
-1.0956169275978647	0.5101027907413618	1.481222455523814
-1.1559661936311314	0.46411816227609703	1.5187755802842715
-1.3745881627134242	0.41940286630966694	1.5491895873570756
-1.4627246401858143	0.3985424900715128	1.5570177079705059
-1.5571633459006806	0.3740792620880164	1.5624199561327248
-1.656635200869715	0.3455646904676565	1.5643716140699757
-1.7591883021524304	0.31265416735743357	1.5616634731092174
-1.8622393735325367	0.2752455907650946	1.553056186338194
-1.9627877215073966	0.2336260541258372	1.537545247008932
-2.0577804773395374	0.18855655613182606	1.5146581280525764
-2.1445505498093125	0.14122875023827172	1.4846532732835565
-2.2211900302545136	0.09308861351090235	1.4485172405913362
-2.2867378278239174	0.04559419236206284	1.4077624363412404
-2.3567836792225916	0.07525272604221252	1.3440503602147462
-2.364617119133587	0.15687267087401063	1.3172171235172625
-2.3621977749575014	0.24298999030325766	1.2829822140888143
-2.347462628397506	0.33075431806563077	1.2412888445122432
-2.3192777057285596	0.4165656819277534	1.1928863610097773
-2.2778764263300983	0.49663990421779014	1.139394315733539
-2.224964351794205	0.5677699527616964	1.0830976568086275
-2.163397132190557	0.6279520994397191	1.0265018178272705
-2.096560544792327	0.6766073438606826	0.9718427249937014
-2.027719288022994	0.7143743257723182	0.9207555421108404
-1.9595643398012192	0.7426589397334281	0.8741802335211721
-1.4308484255353087	0.46410497102259546	1.5187560735226773
-1.4911969823127775	0.5100813344927377	1.4811951666358203
-1.554619143192395	0.5560913668989658	1.4357080874012653
-1.6195720493535557	0.600504003165891	1.381880986805291
-1.684060948113619	0.64142313980064	1.319920723080967
-1.7458609072026487	0.676944971015424	1.2508290228372174
-1.802849489674781	0.7054982338953398	1.1764117792899513
-1.853351329581585	0.7261504798807058	1.099067535712711
-1.8963733145289332	0.7387565209904244	1.0214025123478847
-1.9316572420360156	0.7438970619832778	0.945813073893694
-1.525399155538586	0.444101351203917	1.525175580795175
-1.59189703698443	0.4909312636762823	1.485405737061798
-1.6607404686440703	0.5375898885753568	1.4368059831962428
-1.7298561958641439	0.5821978874911086	1.378991659866843
-1.7967527663246723	0.6226330385706493	1.3123922370023147
-1.8588716960484728	0.6568795551243687	1.2384279141125192
-1.9140270773150152	0.6834367494159187	1.1594306744130707
-1.9607750543718956	0.7016204541898141	1.0782827290791697
-1.998576549898197	0.7116293641447325	0.9978986007251083
-1.6262399821106914	0.42001651442068094	1.528735303085072
-1.69854903071619	0.467118486573091	1.4862255558793454
-1.7720610153806788	0.513727286272698	1.4339363014168194
-1.8441350976560322	0.5577374891072573	1.3716215143409098
-1.9118365557087802	0.5968793988896851	1.3000836402502762
-1.9724317040176735	0.6291570591539214	1.221294402019874
-2.0238992086101173	0.6532831204216355	1.1381604966339824
-2.065252243719035	0.6689158548865292	1.0539841171240985
-1.731654254353744	0.39124061001486676	1.5282329009877222
-1.808905989186632	0.4378532225148481	1.4823172487489253
-1.885763753745075	0.4835511449943452	1.4257313704135064
-1.9590639755260466	0.5260811584677288	1.3585351286067329
-2.025587763015887	0.5631629536433523	1.2820685951960507
-2.0826740174816094	0.5929784790413294	1.1989348406073848
-2.1287253456528803	0.6145676350741603	1.1125606973923476
-1.8391410426015675	0.35731015444581893	1.5223157816734285
-1.9198788417246595	0.40257274088457967	1.4722914191991499
-1.998216403015032	0.4464681684512987	1.4109364961794695
-2.070624045991489	0.4867263875187912	1.3388077239633072
-2.1338600761307216	0.5212179736013066	1.2578964735747016
-2.185625767354872	0.5484309519270629	1.171402956117292
-1.9455512953088336	0.3181080802237995	1.5097241307477924
-2.0277986294908388	0.36121017542532313	1.4550381862524087
-2.1053883993317037	0.4025681691965047	1.3887895667043233
-2.1746897632936064	0.44004292780196186	1.3121754700436392
-2.232748821105753	0.4717849151900615	1.227834146681662
-2.0474302604995236	0.2740508135551716	1.4896321536942279
-2.1289127849729788	0.31440153404531224	1.4300978842530774
-2.203488836676158	0.352804618070785	1.3593401299755978
-2.2677424831151534	0.3873642487625271	1.2792228829564254
-2.1415184326226595	0.22615615925980423	1.4619499087548786
-2.2199976951215707	0.2634960435837685	1.3978896893381232
-2.2896204910729105	0.298897873570604	1.3235301011778708
-2.225260966797873	0.17592630132052672	1.4274306029898338
-2.2988711902455647	0.2103312072119063	1.359665445347972
-2.2971484493099745	0.12508055048367037	1.38752315020448
-1.3435547004369515	0.48064312963622563	1.5104254409928566
-1.3978231167373698	0.5253738374673849	1.4746935838525035
-1.4555595022385963	0.5702460982579344	1.431850296186878
-1.5156703801762788	0.613860961419822	1.3815078658888598
-1.5766355636985303	0.6545699302921026	1.32375493645389
-1.6366288631817982	0.6906571322688706	1.2593036027056117
-1.6937454553635996	0.7206006259361795	1.189534534804411
-1.7462821065761092	0.7433420889833997	1.116385390700491
-1.7929822589984232	0.7584674077167443	1.042089211838496
-1.8331680347918293	0.7662307772408767	0.9688417048020693
-1.8667335228235424	0.7674258398614171	0.8985086498817207
-0.8085507408233897	0.7870157603870672	0.9001948508278895
-0.9055607949689022	0.803144052438537	0.9015830325061926
-1.010177080937003	0.8154734995526856	0.9026443289768425
-1.1208482429555362	0.8237460803425547	0.903356355506289
-1.235435613323494	0.8278785168016802	0.903712050981974
-1.351379429891031	0.8278688258732322	0.9037112168535979
-1.4659660663836214	0.8237162652912821	0.9033537892321597
-1.5766355636985303	0.8154215927001968	0.902639861191434
-1.6812488924545248	0.8030674266096463	0.9015764370869921
-1.7782543581540902	0.7869119256326088	0.9001859134494186
-0.84761797607855	0.7847132085091371	0.9721314871151976
-0.9501822966929825	0.7994166098546713	0.9747487298847373
-1.0600621346259902	0.8100596314245417	0.9766431103031536
-1.1753103480201883	0.8164614673183874	0.9777826489615901
-1.2934075647082501	0.8185872864768722	0.9781610697544405
-1.411504410356669	0.816441681310628	0.9777791270876475
-1.5267513959929824	0.8100185793149469	0.9766358031023565
-1.6366288631817982	0.7993518407826007	0.9747372011030786
-1.7391892330185328	0.7846219712882054	0.9721152470566166
-0.8930637771498221	0.7752349473398766	1.0467236690628494
-1.0006165965005396	0.7880070181243638	1.0502537483813927
-1.1148326331001135	0.7965871039788794	1.0526252405820344
-1.2333810369258362	0.800874433038353	1.0538102260008917
-1.353433999640627	0.8008647166748841	1.053807540463997
-1.4719814940229188	0.7965571497412817	1.0526169614340115
-1.5861958303235728	0.7879547618768273	1.0502393051101229
-1.6937454553635996	0.7751576863076045	1.0467023146358072
-0.944419028565774	0.7578709686739741	1.1219349208341258
-1.0559830313514902	0.7683343447510957	1.1259315994148769
-1.1731938478333415	0.7746304453023106	1.1283364773693128
-1.2934075647082501	0.7767213097055335	1.1291351315045888
-1.4136208948926694	0.7746113120904259	1.1283291691325423
-1.5308304290761887	0.7682946059927724	1.125916420558611
-1.6423918440985896	0.7578082260800303	1.1219109552958024
-1.0006165965005396	0.7325456188280147	1.1954535849481196
-1.1148326331001135	0.740521830139291	1.1994060400897146
-1.2333810369258362	0.7445074008759587	1.201381035484746
-1.353433999640627	0.7444983683682225	1.2013765595902581
-1.4719814940229188	0.7404939841363423	1.1993922415114608
-1.5861958303235728	0.7324970404723544	1.195429512830371
-1.0600621346259902	0.6999089167306981	1.2650214479800939
-1.1753103480201883	0.705440219516255	1.2684400355044814
-1.2934075647082501	0.7072769951009539	1.269575185205119
-1.411504410356669	0.7054231239811737	1.2684294698819534
-1.5267513959929824	0.6998734468264572	1.2649995263747964
-1.1208482429555362	0.661252332141734	1.3287705086178374
-1.235435613323494	0.6645695672794969	1.331260388414787
-1.351379429891031	0.6645617880027134	1.3312545495178827
-1.4659660663836214	0.6612283984652559	1.3287525447046908
-1.18104648191691	0.6182738967615287	1.385454914954855
-1.2934075647082501	0.6197292166313542	1.3867565973323086
-1.4057683172642825	0.6182596917450721	1.3854422096028052
-1.2389819929225954	0.5727840226401152	1.4345179822421232
-1.3478330610766642	0.5727777368801962	1.4345113751621659
-1.2934075647082501	0.5264510888711872	1.4760104598788346
-1.2934075647082501	0.3806978919613128	0.09327549404806401
-1.2934075647082501	0.3167454819421208	0.0636965284649964
-1.2934075647082501	0.24548001189567256	0.03806409846413672
-1.2934075647082501	0.16776586282441944	0.018101270302692374
-1.2934075647082501	0.08519372485394312	0.005376142056651045
-1.2934075647082501	1.0182374431690901e-16	0.0010000000000000009
-1.2934075647082501	-0.08519372485394312	0.005376142056651045
-1.2934075647082501	-0.16776586282441944	0.018101270302692374
-1.2934075647082501	-0.24548001189567256	0.03806409846413672
-1.2934075647082501	-0.3167454819421208	0.0636965284649964
-1.2934075647082501	-0.3806978919613128	0.09327549404806401
-1.2122267967313516	-0.4194097747768532	0.11570654674388758
-1.1240897064828443	-0.39855661333631864	0.10786455573400477
-1.029649682925754	-0.37410112337115703	0.10244532475536172
-0.9301753313361448	-0.3455948667646226	0.10047241179551492
-0.8276179299147138	-0.3126929657709298	0.10315397686104633
-0.7245595632290918	-0.2752926168257118	0.1117286381311079
-0.6240003363389136	-0.23367961424568232	0.127201047028753
-0.5289921132224995	-0.18861319023732562	0.15004490806805737
-0.44220150002043057	-0.1412830078337195	0.1800041035229084
-0.3655369766699484	-0.09313332640090058	0.21609478842314733
-0.2999612655940625	-0.04562101712824564	0.25680702847993053
-1.2085863689081875	0.3585648293922552	0.08351664152057048
-1.1166689308750146	0.33290971389278984	0.075902501768076
-1.0185980880891605	0.30334278900198847	0.07139690944770227
-0.9160291414675575	0.2695624334322294	0.0711975652149669
-0.81135003409437	0.23147221883375163	0.07663977464395122
-0.7075400216787368	0.18932450588420946	0.08896692666286421
-0.607844175499104	0.14382568938506848	0.10900249147821672
-0.5153156104225259	0.09612981457065906	0.1368523074167336
-0.43235901005283833	0.047687340185707146	0.1717884972849355
-0.36042779133270963	7.593704897135062e-17	0.21238090887578132
-1.2052929305805935	0.2897301899245546	0.05438871471939355
-1.110170677171853	0.25892636869552915	0.04789244375893975
-1.0093329007872514	0.2240960564886933	0.04532515892967248
-0.9048489203579424	0.18518374753314482	0.04800318089989919
-0.7995076037284657	0.1424408929211776	0.057279163491389395
-0.6965651140429185	0.09653700613529187	0.07424262296486772
-0.5993154144868672	0.04858025212368096	0.09936936128092477
-0.5105915155734028	8.574576107506253e-17	0.13228669631962942
-0.43235901005283833	-0.047687340185707146	0.1717884972849355
-1.2025544604633271	0.2133929880925733	0.03016586352775863
-1.1050642190855604	0.17746360078919907	0.0258668205852276
-1.0026087678634448	0.137693948090997	0.026379381883668174
-0.8976442808933054	0.09435930882192865	0.033029026072610046
-0.7932497125692685	0.04810821697596991	0.04702770629951125
-0.6927675554897998	9.347910713127097e-17	0.06913913359711465
-0.5993154144868672	-0.04858025212368096	0.09936936128092477
-0.5153156104225259	-0.09612981457065906	0.1368523074167336
-1.2005803749359254	0.13082290792600995	0.012701197700678124
-1.1017874051706233	0.09028736185709331	0.011726589653734965
-0.9990625589849906	0.04646739693804036	0.016379210638841846
-0.8951521514573513	9.853625116621446e-17	0.027844418757991596
-0.7932497125692685	-0.04810821697596991	0.04702770629951125
-0.6965651140429185	-0.09653700613529187	0.07424262296486772
-0.607844175499104	-0.14382568938506848	0.10900249147821672
-1.1995437992454079	0.04409548914044437	0.0035300329766310146
-1.1006565086645455	1.0110789654036502e-16	0.006845340689596302
-0.9990625589849906	-0.04646739693804036	0.016379210638841846
-0.8976442808933054	-0.09435930882192865	0.033029026072610046
-0.7995076037284657	-0.1424408929211776	0.057279163491389395
-0.7075400216787368	-0.18932450588420946	0.08896692666286421
-1.1995437992454079	-0.04409548914044437	0.0035300329766310146
-1.1017874051706233	-0.09028736185709331	0.011726589653734965
-1.0026087678634448	-0.137693948090997	0.026379381883668174
-0.9048489203579424	-0.18518374753314482	0.04800318089989919
-0.81135003409437	-0.23147221883375163	0.07663977464395122
-1.2005803749359254	-0.13082290792600995	0.012701197700678124
-1.1050642190855604	-0.17746360078919907	0.0258668205852276
-1.0093329007872514	-0.2240960564886933	0.04532515892967248
-0.9160291414675575	-0.2695624334322294	0.0711975652149669
-1.2025544604633271	-0.2133929880925733	0.03016586352775863
-1.110170677171853	-0.25892636869552915	0.04789244375893975
-1.0185980880891605	-0.30334278900198847	0.07139690944770227
-1.2052929305805935	-0.2897301899245546	0.05438871471939355
-1.1166689308750146	-0.33290971389278984	0.075902501768076
-1.2085863689081875	-0.3585648293922552	0.08351664152057048
-1.3745881627134242	0.41940286630966706	0.11571835292093224
-1.4627246401858143	0.39854249007151293	0.10789023230750183
-1.5571633459006806	0.37407926208801634	0.10248798414528304
-1.656635200869715	0.34556469046765653	0.1005363262080321
-1.7591883021524304	0.31265416735743357	0.10324446716879032
-1.8622393735325367	0.27524559076509464	0.11185175393981406
-1.9627877215073966	0.2336260541258372	0.1273626932690759
-2.0577804773395374	0.188556556131826	0.15024981222543143
-2.1445505498093125	0.1412287502382717	0.18025466699445136
-2.2211900302545136	0.09308861351090228	0.21639069968667157
-2.2867378278239174	0.04559419236206285	0.2571455039367674
-1.3782285758199189	-0.35855865743453397	0.08352953293977605
-1.4701452182834311	-0.33289733949895395	0.07593062310378984
-1.5682146227376619	-0.30332418075696554	0.07144359569433545
-1.6707809084682705	-0.26953765345246006	0.07126754498949683
-1.7754552392642458	-0.2314419518102246	0.07673860398145171
-1.8792575364909692	-0.18929047569475008	0.08910056496199481
-1.9789416934359922	-0.1437911613616345	0.10917616941930874
-2.0714541803752256	-0.09609981532509378	0.13706938393132817
-2.1543901984212708	-0.04766850573903673	0.17204943170834852
-2.226297450619011	7.590001202439727e-17	0.21268333849858467
-1.3815220001870558	-0.2897250081297586	0.054402630336860214
-1.4766433941720196	-0.2589163482601751	0.04792280624421286
-1.5774797251472066	-0.22408174003705017	0.045375444917472474
-1.6819607419852702	-0.18516603534789203	0.04807821090596498
-1.7872968176999227	-0.14242155744924367	0.0573843886862786
-1.890231364086998	-0.09651908190646132	0.07438340165930568
-1.9874692526478481	-0.04856830132799059	0.09954970090456261
-2.0761772599284365	8.571864454908955e-17	0.13250811955767539
-2.1543901984212708	0.04766850573903673	0.17204943170834852
-1.3842603484466423	-0.213389052757774	0.030180659104376284
-1.481749903748086	-0.17745652020690786	0.025899002433573015
-1.5842037052712608	-0.13768489392085606	0.026432385930465596
-1.689165122476282	-0.09435005329665948	0.0331074401460385
-1.7935544536336718	-0.04810155559892055	0.04713646153545192
-1.894028526997742	9.346155552898023e-17	0.0692824533061358
-1.9874692526478481	0.04856830132799059	0.09954970090456261
-2.0714541803752256	0.09609981532509378	0.13706938393132817
-1.3862345345793252	-0.13082044178545515	0.01271665084714213
-1.4850266814932693	-0.0902836912149779	0.011759956411009909
-1.58774983147548	-0.04646429517032319	0.01643368484033836
-1.6916571596527403	9.85265017963977e-17	0.027924028404001655
-1.7935544536336718	0.04810155559892055	0.04713646153545192
-1.890231364086998	0.09651908190646132	0.07438340165930568
-1.9789416934359922	0.1437911613616345	0.10917616941930874
-1.3872711053679725	-0.044094648483398814	0.00354583597057867
-1.486157454912177	1.011037605438074e-16	0.006879113664469583
-1.58774983147548	0.04646429517032319	0.01643368484033836
-1.689165122476282	0.09435005329665948	0.0331074401460385
-1.7872968176999227	0.14242155744924367	0.0573843886862786
-1.8792575364909692	0.18929047569475008	0.08910056496199481
-1.3872711053679725	0.044094648483398814	0.00354583597057867
-1.4850266814932693	0.0902836912149779	0.011759956411009909
-1.5842037052712608	0.13768489392085606	0.026432385930465596
-1.6819607419852702	0.18516603534789203	0.04807821090596498
-1.7754552392642458	0.2314419518102246	0.07673860398145171
-1.3862345345793252	0.13082044178545515	0.01271665084714213
-1.481749903748086	0.17745652020690786	0.025899002433573015
-1.5774797251472066	0.22408174003705017	0.045375444917472474
-1.6707809084682705	0.26953765345246006	0.07126754498949683
-1.3842603484466423	0.213389052757774	0.030180659104376284
-1.4766433941720196	0.2589163482601751	0.04792280624421286
-1.5682146227376619	0.30332418075696554	0.07144359569433545