# TIME=0.000000
VARIABLES=X,Y,Z
ZONE N=1962 E=3920 F=FEPOINT ET=TRIANGLE
-1.2934075455433727	0.43712119690887447	1.5397309764653038
-1.2934075455433727	0.43712119690887447	0.12517696381597176
-1.2934075455433727	-0.43712119690887447	1.5397309764653038
-1.2934075455433727	-0.43712119690887447	0.12517696381597176
-0.24589545428577272	0.	1.3648360774780532
-2.340774089846135	0.	1.3644612518289212
-0.24589545428577272	6.519800436740882e-17	0.3000718628032225
-2.340774089846135	6.515210146426404e-17	0.30044668845235456
-0.6929527114491354	0.763364690032617	0.8324539701406378
-0.6929527114491354	-0.763364690032617	0.8324539701406378
-1.8938433469799005	0.7632214507312699	0.8324539701406378
-1.8938433469799005	-0.7632214507312699	0.8324539701406378
-1.2242780174605834	0.42212206818090053	1.5479327719184297
-1.149994833455614	0.40486268039966405	1.5550126666221293
-1.0708934834937738	0.3850551961007066	1.5605013434961488
-0.9876248748052249	0.36240812733916744	1.563805871378142
-0.9012009119524258	0.3366601359267487	1.5642149630272353
-0.8130029733358858	0.30763434857038835	1.5609424762608592
-0.7247334703463232	0.2753079049754544	1.5532193624222392
-0.6383001082871192	0.23987912998909233	1.5404254729030362
-0.5556403952779286	0.20180480395204653	1.522229674261479
-0.47851592248143143	0.16178496313875995	1.4986899204469066
-0.40832449117675357	0.12069190981780677	1.4702743712938453
-0.34597705376408383	0.07946166847248266	1.4377958227404013
-0.2918620122548197	0.03898128695607117	1.4022832544035015
-1.221602563367327	-0.37101883732926466	1.575653253302578
-1.1445252201656453	-0.3503130705836563	1.5826987114428128
-1.0626520082500255	-0.3268406824945364	1.5877601771940748
-0.9768239089179291	-0.30036904736281655	1.5901476880206893
-0.8882800772077084	-0.2707374052208644	1.5890608276440852
-0.7986397681570433	-0.2379201492166738	1.5836578629102345
-0.7098136471124877	-0.20209427086735743	1.5731794845566751
-0.623841938529492	-0.1636869732001801	1.5571043215200988
-0.5426820663151583	-0.12337536656553177	1.535289261515352
-0.4679903955901545	-0.08202764705544006	1.5080396181613944
-0.4009530800560551	-0.04059685445809263	1.4760799160645464
-0.3422079647483255	0.	1.4404378474031994
-1.2191187416568015	-0.31407362101011876	1.6013913552177041
-1.1395521443520797	-0.2896578944706481	1.607882896626264
-1.0553558726307555	-0.2623400399740986	1.6119176314562342
-0.9675834019895297	-0.2319890384495743	1.6127234279292737
-0.8777053159973717	-0.19859372313038207	1.609444236335011
-0.787554238817776	-0.16232564517969936	1.6012393356507015
-0.6991895748795248	-0.1235900904043082	1.5874342697329906
-0.6146943922687202	-0.08303852294618728	1.5676851105264922
-0.5359423125041696	-0.04152338491059132	1.5420963059133383
-0.4643905627426059	0.	1.5112418084572132
-0.4009530800560551	0.04059685445809263	1.4760799160645464
-1.2169348028136688	-0.25146993196140954	1.6240253171849353
-1.1353199690559284	-0.22325072111350575	1.6293254787651148
-1.0494056822555105	-0.1921263739588511	1.6316373638549682
-0.960464623573762	-0.15811174149177454	1.6301412091610374
-0.8701775417338669	-0.12138563123212215	1.6239818407327635
-0.7805344344019447	-0.08234062856617462	1.6123952597896496
-0.6936554172978401	-0.04160261251203766	1.5948734222818644
-0.6115609723614458	0.	1.5713144375201948
-0.5359423125041696	0.04152338491059132	1.5420963059133383
-0.4679903955901545	0.08202764705544006	1.5080396181613944
-1.2151641963586157	-0.1837855867033123	1.6423766516051228
-1.1320736589981792	-0.15190680281356134	1.6457785155614189
-1.0451817727645338	-0.11729653201868696	1.6456464116294387
-0.9559626847462598	-0.08014866386829561	1.6411679507437973
-0.8662569515541302	-0.04084938031592873	1.6315622034908024
-0.7781287057453998	0.	1.616222392122605
-0.6936554172978401	0.04160261251203766	1.5948734222818644
-0.6146943922687202	0.08303852294618728	1.5676851105264922
-0.5426820663151583	0.12337536656553177	1.535289261515352
-1.2139131640898313	-0.11203697572455089	1.6553445186880054
-1.130027167016584	-0.07692223515198761	1.656153319484586
-1.0429858437392172	-0.03944919835985664	1.6529328057866475
-0.9544209146210402	0.	1.6449462216089308
-0.8662569515541302	0.04084938031592873	1.6315622034908024
-0.7805344344019447	0.08234062856617462	1.6123952597896496
-0.6991895748795248	0.1235900904043082	1.5874342697329906
-0.623841938529492	0.1636869732001801	1.5571043215200988
-1.2132647003544903	-0.03765075117362032	1.662066488084818
-1.1293275114863863	0.	1.6597008131218918
-1.0429858437392172	0.03944919835985664	1.6529328057866475
-0.9559626847462598	0.08014866386829561	1.6411679507437973
-0.8701775417338669	0.12138563123212215	1.6239818407327635
-0.787554238817776	0.16232564517969936	1.6012393356507015
-0.7098136471124877	0.20209427086735743	1.5731794845566751
-1.2132647003544903	0.03765075117362032	1.662066488084818
-1.130027167016584	0.07692223515198761	1.656153319484586
-1.0451817727645338	0.11729653201868696	1.6456464116294387
-0.960464623573762	0.15811174149177454	1.6301412091610374
-0.8777053159973717	0.19859372313038207	1.609444236335011
-0.7986397681570433	0.2379201492166738	1.5836578629102345
-1.2139131640898313	0.11203697572455089	1.6553445186880054
-1.1320736589981792	0.15190680281356134	1.6457785155614189
-1.0494056822555105	0.1921263739588511	1.6316373638549682
-0.9675834019895297	0.2319890384495743	1.6127234279292737
-0.8882800772077084	0.2707374052208644	1.5890608276440852
-1.2151641963586157	0.1837855867033123	1.6423766516051228
-1.1353199690559284	0.22325072111350575	1.6293254787651148
-1.0553558726307555	0.2623400399740986	1.6119176314562342
-0.9768239089179291	0.30036904736281655	1.5901476880206893
-1.2169348028136688	0.25146993196140954	1.6240253171849353
-1.1395521443520797	0.2896578944706481	1.607882896626264
-1.0626520082500255	0.3268406824945364	1.5877601771940748
-1.2191187416568015	0.31407362101011876	1.6013913552177041
-1.1445252201656453	0.3503130705836563	1.5826987114428128
-1.221602563367327	0.37101883732926466	1.575653253302578
-1.2934075455433727	0.3892174417378129	1.5671821426709287
-1.2934075455433727	0.3357842086846563	1.5930883564660574
-1.2934075455433727	0.27687875027568365	1.6164526066881795
-1.2934075455433727	0.21288742627604482	1.6361918927224892
-1.2934075455433727	0.1445822799984793	1.6512406754388307
-1.2934075455433727	0.07312505182346131	1.6606860820865854
-1.2934075455433727	0.	1.6639079402812755
-1.2934075455433727	-0.07312505182346131	1.6606860820865854
-1.2934075455433727	-0.1445822799984793	1.6512406754388307
-1.2934075455433727	-0.21288742627604482	1.6361918927224892
-1.2934075455433727	-0.27687875027568365	1.6164526066881795
-1.2934075455433727	-0.3357842086846563	1.5930883564660574
-1.2934075455433727	-0.3892174417378129	1.5671821426709287
-1.3625369486525558	-0.422116152926274	1.5479227458155287
-1.436819705345758	-0.4048506593687776	1.5549912126802665
-1.5159201871341546	-0.385036737345865	1.560466442401153
-1.5991872055666922	-0.362382763255259	1.5637546857959483
-1.6856086956648317	-0.33662751643602884	1.5641440616392497
-1.7738023609102322	-0.3075943384258076	1.5608477308899644
-1.8620655606664211	-0.2752608937541556	1.5530962854573258
-1.9484898010678497	-0.239826362759461	1.5402697374088297
-2.031137009674011	-0.20174863358850328	1.5220376820427357
-2.1082455209298425	-0.16172894019241493	1.498459216058977
-2.178417490736614	-0.12064078977716837	1.4700042172721202
-2.240742497143482	-0.07942117501887382	1.4374873421522518
-2.294833040816931	-0.038957759461134014	1.4019393289806277
-1.3652123930651971	0.37101343496560846	1.5756424316612145
-1.4422892784370225	0.3503022589266816	1.5826755567578434
-1.5241615274015095	0.3268243357071531	1.5877224008992705
-1.6099879190204598	0.30034709806254994	1.5900923199757129
-1.6985289295648587	0.2707099751297184	1.5889841710954782
-1.7881646784274088	0.23788776000013412	1.583555597903977
-1.8769840789012544	0.20205819246314244	1.5730472482770086
-1.9629460532617244	0.1636494417931357	1.556938168119063
-2.044093057698201	0.12333973575764069	1.535086282671656
-2.118768508594171	0.08199837396639718	1.5077985228777855
-2.185786535979041	0.04057928548701218	1.475801376118989
-2.2445100492229195	0.	1.4401244433489695
-1.367696205661735	0.3140688885848377	1.6013797689574223
-1.4472623148351087	0.28964864260786477	1.6078581289186924
-1.5314575378438433	0.2623264304377654	1.611877194857154
-1.6192281980939227	0.23197146071731536	1.612664307172058
-1.709103251070944	0.19857285717147907	1.6093625990772624
-1.7992495427654938	0.16230276737460342	1.6011309847999577
-1.887607127742317	0.12356732196090019	1.5872951831268622
-1.972092368408813	0.08301897735943554	1.5675120520046504
-2.05083157022445	0.04151116096279267	1.5418873963823145
-2.1223674345842136	0.	1.5109970721637316
-2.185786535979041	-0.04057928548701218	1.475801376118989
-1.3698801363549455	0.2514660309542193	1.6240130376829993
-1.4514945639812276	0.2232433807837879	1.6292992781795719
-1.5374076262264635	0.19211611435093323	1.6315946872140414
-1.6263467878924218	0.15809942635388974	1.6300790782386607
-1.7166306811769787	0.1213725445149214	1.6238965052503525
-1.806268905216253	0.0823287677535392	1.6122829126086256
-1.8931407148626533	0.04159482223494275	1.5947306557959133
-1.9752253621793865	0.	1.5711389551471049
-2.05083157022445	-0.04151116096279267	1.5418873963823145
-2.118768508594171	-0.08199837396639718	1.5077985228777855
-1.3716507360875465	0.1837826694433705	1.6423637955643584
-1.4547407333186888	0.15190169885913476	1.6457511884678526
-1.5416314651600551	0.1172901420194557	1.6456021110948318
-1.6308486017747519	0.0801423122491818	1.641103861800465
-1.7205510843846181	0.04084491713592432	1.6314748933808114
-1.8086744746570913	0.	1.6161086483969065
-1.8931407148626533	-0.04159482223494275	1.5947306557959133
-1.972092368408813	-0.08301897735943554	1.5675120520046504
-2.044093057698201	-0.12333973575764069	1.535086282671656
-1.3729017635351395	0.11203516882886956	1.6553312473785224
-1.4567872049794495	0.07691961491551175	1.6561252614455024
-1.5438273585702753	0.03944702728319927	1.6528876509413781
-1.632390328125561	0.	1.6448814523332942
-1.7205510843846181	-0.04084491713592432	1.6314748933808114
-1.806268905216253	-0.0823287677535392	1.6122829126086256
-1.887607127742317	-0.12356732196090019	1.5872951831268622
-1.9629460532617244	-0.1636494417931357	1.556938168119063
-1.3735502247460412	0.037650138988262714	1.6620529989346644
-1.4574868533317324	0.	1.6596725020744436
-1.5438273585702753	-0.03944702728319927	1.6528876509413781
-1.6308486017747519	-0.0801423122491818	1.641103861800465
-1.7166306811769787	-0.1213725445149214	1.6238965052503525
-1.7992495427654938	-0.16230276737460342	1.6011309847999577
-1.8769840789012544	-0.20205819246314244	1.5730472482770086
-1.3735502247460412	-0.037650138988262714	1.6620529989346644
-1.4567872049794495	-0.07691961491551175	1.6561252614455024
-1.5416314651600551	-0.1172901420194557	1.6456021110948318
-1.6263467878924218	-0.15809942635388974	1.6300790782386607
-1.709103251070944	-0.19857285717147907	1.6093625990772624
-1.7881646784274088	-0.23788776000013412	1.583555597903977
-1.3729017635351395	-0.11203516882886956	1.6553312473785224
-1.4547407333186888	-0.15190169885913476	1.6457511884678526
-1.5374076262264635	-0.19211611435093323	1.6315946872140414
-1.6192281980939227	-0.23197146071731536	1.612664307172058
-1.6985289295648587	-0.2707099751297184	1.5889841710954782
-1.3716507360875465	-0.1837826694433705	1.6423637955643584
-1.4514945639812276	-0.2232433807837879	1.6292992781795719
-1.5314575378438433	-0.2623264304377654	1.611877194857154
-1.6099879190204598	-0.30034709806254994	1.5900923199757129
-1.3698801363549455	-0.2514660309542193	1.6240130376829993
-1.4472623148351087	-0.28964864260786477	1.6078581289186924
-1.5241615274015095	-0.3268243357071531	1.5877224008992705
-1.367696205661735	-0.3140688885848377	1.6013797689574223
-1.4422892784370225	-0.3503022589266816	1.5826755567578434
-1.3652123930651971	-0.37101343496560846	1.5756424316612145
-1.2506986708399037	0.47433535047136105	1.5149930312632707
-1.204912512536706	0.5125356901033941	1.4856147273465554
-1.1564030842463595	0.5510971024540169	1.4511350673909704
-1.1057575217208835	0.5892097575980342	1.4112261625879055
-1.0538047046774617	0.6259012426561578	1.3657760567100983
-1.0015865321447883	0.6600975299192974	1.3149694122533229
-0.9502822937267376	0.6907234451489886	1.2593445139908628
-0.9010943922038203	0.7168300029976451	1.1998015094754435
-0.855115062438509	0.7377203632896985	1.1375449908975686
-0.8132092470085922	0.7530398481284083	1.0739650607493327
-0.7759384111252994	0.7628038497747686	1.0104836799345998
-0.7435422790430489	0.7673601886764804	0.9484038734561473
-0.7159711640927575	0.7673025253159588	0.888798528927033
-0.2817677374653663	0.10630904837855022	1.385433924611924
-0.27771520460181265	0.17816257252540355	1.3631492199005237
-0.28121297219144775	0.25318624998466754	1.3349266651669538
-0.29353429039593937	0.3294594949082206	1.300621628268529
-0.3154564207205306	0.4046287809246906	1.2605794201700178
-0.3470366500093823	0.4761854176733578	1.2156911528456482
-0.3875147271688305	0.5418382010559486	1.1673283848842178
-0.435395472541334	0.5998668160698171	1.1171543307518061
-0.48869204268090205	0.6493356893827735	1.0668658557770325
-0.5452493634404146	0.6901112990212533	1.0179541989222531
-0.6030419934748265	0.7227112043288563	0.9715508023159295
-0.6603750491577264	0.748069056581617	0.9283802615234797
-0.34034290400025086	0.14944238083521894	1.4204726299725432
-0.3412200502206542	0.2234014261565784	1.3971823915286183
-0.34996767000048973	0.29967842269349687	1.3674452878389525
-0.36759531230457126	0.37607891202494675	1.3312240224418619
-0.39451466931443996	0.4500876056216166	1.2890495698624722
-0.43037077418244346	0.5192150908382259	1.2420390845035447
-0.47403175539636716	0.5813884537883275	1.1917718016026428
-0.5237564329469645	0.6352546097514679	1.1400464208989258
-0.5774878515772844	0.6802981981235099	1.0886010558517705
-0.6331695989914212	0.7167597717426835	1.0388859363604024
-0.6889949122897365	0.7454220905689015	0.9919447809383563
-0.4077233802518505	0.19261249440034733	1.4520003480388377
-0.4139242298513509	0.26774258376839705	1.4272730927807469
-0.4280404496647219	0.34415356559932786	1.3956991003397385
-0.45073419908017837	0.419470073505541	1.3574085403684424
-0.4820112764711998	0.49115495936752296	1.3131541274469698
-0.5211320995161292	0.5568917773404223	1.2642748616003645
-0.5666903945744075	0.6149462626122949	1.2125116641437956
-0.6168421961603017	0.6643835794819357	1.1597273986538044
-0.6696078229034688	0.7050817796297949	1.1076287374073674
-0.7231467079868675	0.7375734299187418	1.0575714405426855
-0.483263796868027	0.23475911664512014	1.4789836106562275
-0.4948541580772523	0.30999516598737126	1.4524443021153803
-0.5140763568533144	0.3853762366515315	1.4188308927429851
-0.5412022004109879	0.4584733515006766	1.3784879978247124
-0.5758503553563423	0.5268772474326354	1.3323979863018356
-0.6169827213957059	0.5885714434033327	1.2820825166090426
-0.6630543126771484	0.6422239136051018	1.2293701777258725
-0.7122655872716672	0.6873025341089076	1.1761052818310798
-0.7628348720098156	0.7240012637906535	1.1238959917932623
-0.5657235693139014	0.2748497607585684	1.5006854603827335
-0.5823970773054699	0.34910949584946693	1.4720942895218723
-0.6060858120672152	0.422390029601893	1.4364204963194487
-0.6366842899267158	0.49234681529451463	1.3942414751369938
-0.6734980143099696	0.5568237767885634	1.3467402033598386
-0.7153153677399635	0.6141772182739919	1.2955512744418078
-0.7605930585068444	0.6634748655338585	1.2425040026265923
-0.8076961578696843	0.7045196351345124	1.1893479923153276
-0.6533547533552172	0.31201936449784956	1.5167884116128907
-0.6744566722249844	0.384326778851389	1.486096094051672
-0.7016766728118862	0.45465091810093416	1.4485434484882371
-0.7345953542544743	0.5208485405561104	1.404921886558633
-0.7723167008586231	0.58109347348546	1.3565537080624828
-0.8135855173187284	0.6341242676389419	1.305102301786741
-0.8569767278884473	0.6793544423087311	1.2523181094474094
-0.7440872013971883	0.3456788895772132	1.5274285948879736
-0.7687047754656786	0.415262922248727	1.4947865404782708
-0.7983572460181204	0.4820568723094712	1.4557081207090907
-0.8324089350824482	0.5441935222443364	1.411148086388321
-0.8698803047922258	0.600195944495245	1.3624913757709423
-0.909582407045012	0.6491458988966657	1.3113520777138934
-0.8357689650804819	0.37555788672454155	1.5331286754728901
-0.8628585253995478	0.441899807716769	1.4988499438263208
-0.8938267749484732	0.5048734586738682	1.458700759305724
-0.9279265868462486	0.5629138149477514	1.4137322085317154
-0.9641963172810845	0.6148683312941491	1.3653191860394474
-0.9263953436748784	0.40167445725079737	1.534655851536652
-0.9549121314744557	0.4645000877180594	1.499146247869589
-0.9861812504795241	0.5235967948013307	1.4584036317097775
-1.0194363934788466	0.5776896188838336	1.4135102979036946
-1.0142785063922728	0.42425507695374304	1.5328614271782288
-1.0432784014555914	0.4834887291179007	1.496547614347346
-1.0740111276987734	0.5388133714114518	1.455648577408156
-1.0981361552214635	0.44364145232346247	1.528551329155759
-1.1268379176592174	0.4993460301403938	1.4918279724101289
-1.177104704557872	0.46021247656617836	1.5224129428669262
-1.3625369486525558	0.422116152926274	1.5479227458155287
-1.436819705345758	0.4048506593687776	1.5549912126802665
-1.5159201871341546	0.385036737345865	1.560466442401153
-1.5991872055666922	0.362382763255259	1.5637546857959483
-1.6856086956648317	0.33662751643602884	1.5641440616392497
-1.7738023609102322	0.3075943384258076	1.5608477308899644
-1.8620655606664211	0.2752608937541556	1.5530962854573258
-1.9484898010678497	0.239826362759461	1.5402697374088297
-2.031137009674011	0.20174863358850328	1.5220376820427357
-2.1082455209298425	0.16172894019241493	1.498459216058977
-2.178417490736614	0.12064078977716837	1.4700042172721202
-2.240742497143482	0.07942117501887382	1.4374873421522518
-2.294833040816931	0.038957759461134014	1.4019393289806277
-2.3545903412158995	0.06412576354738093	1.347668948890451
-2.362937405265805	0.1330906896835968	1.3259812486612843
-2.3642535309446724	0.2058454521472876	1.2989253657382396
-2.3571036528293066	0.2807970483119317	1.2663093139982937
-2.340427916869104	0.35586509966835644	1.2283400055781581
-2.3137886523232347	0.4286718301092538	1.1856990365342948
-2.277534226156584	0.4968577904225554	1.1395290137754013
-2.232807076095923	0.5584400313908304	1.0913051339156699
-2.181377707340636	0.6120962223155275	1.0426185628885678
-2.1253564668870246	0.6572808715377404	0.9949427425049975
-2.0668785464877466	0.6941617837451468	0.9494582462874644
-2.0078499474654663	0.7234332729477279	0.9069716777896379
-1.9498008801832631	0.7460888335211995	0.8679238673817603
-1.409710028375608	0.46020150633860946	1.5223964961008574
-1.459976420757429	0.4993286550835101	1.491805029080042
-1.5128025906379101	0.5387879581216999	1.455619184252814
-1.5673765196846194	0.577654299247915	1.4134747724289864
-1.6226151944475795	0.6148211257956753	1.3652782761944358
-1.6772273803608293	0.6490848433374493	1.3113070348478515
-1.7298308692123079	0.679277864977414	1.2522707820534873
-1.7791088461026383	0.7044264378809255	1.1893007806536087
-1.8239672135408387	0.7238911163368508	1.1238516526488138
-1.8636521895360514	0.7374468835938547	1.0575328168783944
-1.8978007276121012	0.7452805818110444	0.9919145036675171
-1.9264176823593062	0.7479146230108624	0.9283604582184544
-1.4886778534695084	0.443623045379971	1.528522447668953
-1.5435348055488278	0.4834621563065025	1.4965111153886412
-1.6006307958365231	0.5235599342330651	1.458359565625989
-1.6588838298967146	0.5628642585421085	1.4136810354046607
-1.7169279040483745	0.6001311710523315	1.3624341738722117
-1.7732198529386611	0.6340419491361001	1.3050409451962155
-1.8262088566939823	0.6633732294443075	1.242441188066483
-1.8745323622002488	0.6871807253140029	1.1760443774257165
-1.917185780236859	0.7049401157638817	1.1075734497478946
-1.9536196374683594	0.7165997636774256	1.0388398528874951
-1.983743159543539	0.7225353167338892	0.9715169500563653
-1.5725341877460033	0.4242285512149494	1.5328176355390388
-1.6318992393136535	0.4644631209400519	1.4990931898270143
-1.6929824458098843	0.5048232789590068	1.458638516213374
-1.7543975060458272	0.5441270433112981	1.4110773928467202
-1.8144860790710529	0.5810076125832705	1.3564762684105358
-1.8714828541031292	0.614069352215808	1.29546994208482
-1.9237385894503767	0.6420923910445171	1.2292888923130232
-1.9699449830230413	0.6642281192112146	1.1596508193743524
-2.0092933813017098	0.6801201524560014	1.0885340177808458
-2.0415262194077495	0.6899134476771436	1.0179010169650107
-1.6604150213156863	0.4016388965335083	1.534593684769178
-1.723949347871134	0.44185096786107536	1.498776292101153
-1.7884471835617666	0.48199118923495665	1.4556231986777606
-1.8522044892852663	0.5207621951566205	1.4048269837853904
-1.91329599529873	0.556713164491938	1.3466380410892054
-1.9698043485366614	0.5884338117149398	1.2819773753612065
-2.020088963651083	0.6147803540340891	1.2124091270027773
-2.0630150641566756	0.6350610413492225	1.1399526944177292
-2.0980717454942437	0.649117288396033	1.066787012448437
-1.7510376439448188	0.3755125052441345	1.533044007685218
-1.8180977454071103	0.41520087629096586	1.494687578937326
-1.8851202782736036	0.4545677728265179	1.4484307797863767
-1.9501054087501186	0.4922380078959738	1.3941173215219962
-2.0109305996016538	0.5267387167365073	1.3322665371020053
-2.0656388610139342	0.5567208267282523	1.2641423043446345
-2.1127286258043605	0.581184526622767	1.1916457676808683
-2.1513545689285682	0.5996319672180884	1.1170428700892305
-1.8427134109194214	0.3456232026364267	1.5273166383527517
-1.9123374370917665	0.384250646456517	1.485966612207
-1.9806997677279525	0.4222881237315538	1.4362747832812786
-2.0455726559331926	0.4583403852412324	1.3783296372527123
-2.104750979905052	0.4909865773058198	1.3129893295924342
-2.1563778073435085	0.5190088684623028	1.2418764050727709
-2.199220340508969	0.5415943469057831	1.1671776747355787
-1.9334371660787841	0.311953626212808	1.5166442315468565
-2.004384968326226	0.34901938638394614	1.4719291904684515
-2.0726931228232295	0.38525556344140366	1.418647280005962
-2.136020186630555	0.41931285072702557	1.3572117806438788
-2.1922228053224093	0.449889133274206	1.2888482277251587
-2.2396834741929874	0.4759434598795104	1.2154964236082417
-2.021055617811306	0.2747754059939866	1.5005046845472156
-2.0919110358578177	0.3098927068921561	1.4522393839249501
-2.1587074540164854	0.34401595116142253	1.3954738791892318
-2.2191325500120365	0.3758994377140504	1.3309859968345483
-2.2712498906627	0.4044023745148571	1.2603398664094623
-2.1034987484284438	0.23467892261262627	1.4787627552545686
-2.1728194876897162	0.26763102058083715	1.4270252430871744
-2.2367536239684087	0.2995275037573298	1.3671758646359071
-2.293161598066851	0.32926172391184544	1.3003405922515086
-2.1790184121789906	0.1925307684715724	1.4517374730716115
-2.2454975562595605	0.22328591985980267	1.3968904073199195
-2.305476755074377	0.2530279893125484	1.3346125814975554
-2.246374339047559	0.14936490713988562	1.4201677902192718
-2.308972510548648	0.17804996748784965	1.362813801761451
-2.304922130649897	0.10624274047869448	1.3850890156883415
-1.3361163746590832	0.474331275518378	1.514987167659429
-1.381902378133066	0.5125264842577744	1.4856029956814019
-1.4304114993398667	0.5510814914486691	1.45111754192427
-1.4810565701304697	0.5891863452303986	1.41120316495901
-1.5330086790562105	0.6258685239003388	1.365748177495401
-1.5852258777295558	0.6600539388056436	1.3149375481960837
-1.6365288290773314	0.6906675078287079	1.2593099428274777
-1.6857152115874232	0.7167605224116138	1.1997659033732946
-1.7316924488088117	0.7376366908755548	1.137510387403466
-1.773596099997733	0.7529419744945383	1.0739336712178007
-1.8108646208850079	0.7626923950385495	1.0104576676716173
-1.8432582892964258	0.7672363669962312	0.9483851637132324
-1.870827115571895	0.7671680292011112	0.8887886526083718
-0.7905822627270106	0.7842446017292086	0.8900426498538836
-0.8714986256958663	0.798840923898227	0.8911145112908831
-0.9582530654675456	0.8107637911395061	0.8919899997834301
-1.0500440963469466	0.8197971152836332	0.8926533544808092
-1.1457354808832034	0.8258346579733433	0.8930966728243954
-1.2439007612692976	0.8288479836568401	0.8933179455537765
-1.3429142679537724	0.8288397222290578	0.8933173389005092
-1.4410790268517781	0.8258093852167524	0.8930948169949638
-1.5367692229719776	0.8197534716576785	0.8926501496398018
-1.62855828515893	0.8107001018551045	0.8919853229500965
-1.7153096594255965	0.7987551877055715	0.8911082155049427
-1.796221701994779	0.7841351101446175	0.8900346096636388
-0.8221914934079919	0.7836145379837373	0.9508598811547613
-0.9072458659403055	0.7973016057202039	0.9529280894373813
-0.9980668811418387	0.8081229088852875	0.9545632202783567
-1.093648619413338	0.815902912441883	0.9557387509500412
-1.1926381359591975	0.8205720886721369	0.956444314037027
-1.2934075455433727	0.8221216353067781	0.9566784493029099
-1.3941766951039216	0.8205552689177743	0.9564417725331708
-1.4931653416449115	0.8158682203496831	0.9557335088962167
-1.5887454463557675	0.808068742733111	0.9545550356468454
-1.6795638401001787	0.7972259933394775	0.9529166642315237
-1.764614394083563	0.7835155956165779	0.9508449307415754
-0.8585444600409626	0.777981960122562	1.0140259963897595
-0.9474963064478158	0.7904129134573726	1.0169272991401064
-1.041959081907318	0.7998459730987327	1.019128870084988
-1.140711996588006	0.8061548190351001	1.0206012404497078
-1.2421962383658212	0.809304014789497	1.0213362260568268
-1.3446187863229582	0.8092956669192856	1.0213342777598595
-1.4461024720964657	0.806129273745714	1.0205952784727352
-1.544854104024008	0.79980174562628	1.0191185478988767
-1.6393147336464229	0.7903482234060757	1.0169122012224072
-1.7282633269350258	0.7778947036219371	1.0140056317278086
-0.8995099854193046	0.7667761712509903	1.0783704916958794
-0.9919067464439455	0.7776517061004405	1.081858469011991
-1.0893559383021234	0.7854763739056773	1.0843679289726635
-1.1904326155012335	0.790173449822908	1.085874355976185
-1.2934075455433727	0.7917323706092781	1.0863743470150455
-1.396382203369416	0.7901568868063422	1.085869043970258
-1.4974579762078732	0.7854421986079497	1.0843569684462482
-1.594905548414499	0.7775982156557989	1.0818413138287186
-1.687299445482538	0.76670145290601	1.0783465284114389
-0.9446413928960417	0.7497194492971431	1.1425072885374299
-1.0398086688883632	0.7588287405405488	1.1462745464412278
-1.139373955145838	0.764922208325776	1.1487945081367739
-1.2417418994140133	0.7679639983945081	1.150052513851632
-1.3450731240346991	0.7679560056641836	1.1500492083848175
-1.4474405025640462	0.764897746429273	1.1487843916969374
-1.5470044831132177	0.7587863677476153	1.1462570227845879
-1.6421695608297762	0.74965742498737	1.1424816378182383
-0.9931696131131778	0.7269064244163327	1.204965311729313
-1.0902366143902682	0.7341550543101862	1.208679931538112
-1.1908852119148505	0.7385061372116506	1.2109096619187725
-1.2934075455433727	0.7399501948543574	1.2116497158942354
-1.3959296094999232	0.7384907276561191	1.2109017651204863
-1.496577309821205	0.7341232614096758	1.2086636389109755
-1.593642711660075	0.7268566849548128	1.2049398221849668
-1.0440556070043883	0.6988227722638424	1.2643502038357426
-1.1420157533201887	0.7042386823163211	1.2676973801442324
-1.242638855502078	0.7069420482253264	1.2693681281968785
-1.3441761703819974	0.7069348200733021	1.2693636609538224
-1.4447987258068562	0.7042165658779924	1.2676837114346355
-1.5427576125428024	0.6987845023724046	1.2643265517416324
-1.0960976860247966	0.6662918255980738	1.319497340790587
-1.193895321960293	0.6700089201598566	1.3222144018152424
-1.2934075455433727	0.671242426590891	1.3231160832154105
-1.39291962560102	0.6699953600242783	1.322204489681755
-1.4907163010553242	0.6662638693576164	1.319476905448204
-1.1480682244002487	0.630362860526088	1.369577793597017
-1.244691680395156	0.6325895565533056	1.3714750465340622
-1.3421233508691024	0.6325833530855677	1.371469760642408
-1.4387463005326993	0.6303438847235007	1.3695616245675941
-1.1988459943658536	0.5921736557875232	1.4141375029706071
-1.2934075455433727	0.5931570045993471	1.4151034980365753
-1.3879688684411453	0.5921622818793623	1.4141263305467473
-1.2475139580947492	0.5528233262945599	1.4530729254717678
-1.3393011895907694	0.5528182204751725	1.453067193498923
-1.2934075455433727	0.5132801633467843	1.4865634245726367
-1.2934075455433727	0.3892174417378128	0.09772579761034683
-1.2934075455433727	0.3357842086846564	0.07181958381521825
-1.2934075455433727	0.2768787502756836	0.04845533359309617
-1.2934075455433727	0.21288742627604487	0.02871604755878643
-1.2934075455433727	0.14458227999847942	0.013667264842444848
-1.2934075455433727	0.07312505182346124	0.004221858194690231
-1.2934075455433727	1.0182374431710911e-16	0.0010000000000000009
-1.2934075455433727	-0.07312505182346124	0.004221858194690231
-1.2934075455433727	-0.14458227999847942	0.013667264842444848
-1.2934075455433727	-0.21288742627604487	0.02871604755878643
-1.2934075455433727	-0.2768787502756836	0.04845533359309617
-1.2934075455433727	-0.3357842086846564	0.07181958381521825
-1.2934075455433727	-0.3892174417378128	0.09772579761034683
-1.2242780174605834	-0.4221220681809004	0.11697516836284583
-1.149994833455614	-0.4048626803996639	0.1098952736591462
-1.0708934834937738	-0.38505519610070643	0.10440659678512676