# TIME=0.000000
VARIABLES=X,Y,Z
ZONE N=2562 E=5120 F=FEPOINT ET=TRIANGLE
-1.2934075866927996	0.43712124748430914	1.5397309452003332
-1.2934075866927996	0.43712124748430914	0.12517699507392555
-1.2934075866927996	-0.43712124748430914	1.5397309452003332
-1.2934075866927996	-0.43712124748430914	0.12517699507392555
-0.24613746239276682	0.	1.3650551834830709
-2.340532344916503	0.	1.3646804186860328
-0.24613746239276682	6.522483711461039e-17	0.29985275679118784
-2.340532344916503	6.517894166369782e-17	0.30022752158822585
-0.6930728493251397	0.7633970237812758	0.8324539701371294
-0.6930728493251397	-0.7633970237812758	0.8324539701371294
-1.8937231909881662	0.7632538373080936	0.8324539701371294
-1.8937231909881662	-0.7632538373080936	0.8324539701371294
-1.233215905022801	0.42411499030994343	1.5469606798384188
-1.1690583391169898	0.4094054026697889	1.5533722471464233
-1.1011231030564879	0.3928013552848383	1.5586664055281216
-1.0297749219492547	0.3741061229984039	1.5624724798081644
-0.9555831545465554	0.35313133721026496	1.5643467577257038
-0.8793354154978942	0.3297201203432141	1.5637844189217822
-0.8020311743411294	0.3037795693039756	1.560252673752704
-0.7248463553609205	0.27531784240488477	1.553245348778749
-0.6490673914936104	0.24447723469631039	1.5423542165367898
-0.5759987484302174	0.2115527216388613	1.5273412736517886
-0.5068566982563026	0.17698617536937233	1.5081931551185415
-0.4426679916844859	0.14133437130598978	1.485140886189093
-0.3841930405452972	0.10521695454484262	1.4586387368358498
-0.331887834956143	0.06925655012236755	1.429309219585316
-0.28590635538520454	0.03402422237151574	1.397869181241969
-1.2311686828924138	-0.38007882183371494	1.5712835997677141
-1.164869958262982	-0.36278019536298556	1.5777397516643261
-1.0947758130605498	-0.34343162680613476	1.5828346801780142
-1.0213529496721072	-0.3218629818289915	1.5861414286913598
-0.9452950257334493	-0.29793128010851044	1.5871594897476442
-0.8675287123099278	-0.2715494041712219	1.585336371422532
-0.789191844623124	-0.2427208280632467	1.580114123710409
-0.7115786862789966	-0.2115741339646937	1.5709983033027621
-0.6360537194083725	-0.17838645120862864	1.5576390896372758
-0.563941389037116	-0.14358480954004266	1.5399034915872565
-0.49641330572742476	-0.10771990483775341	1.5179178246329041
-0.4343916644914488	-0.07141693955987019	1.492065568935654
-0.3784899440413613	-0.03531335455210103	1.4629424498434915
-0.32899745901485783	0.	1.4312814122059314
-1.2292369409275155	-0.33159580955177437	1.5942352712996057
-1.160974611267262	-0.3115124567130386	1.6004094089387728
-1.088977131542307	-0.2892633339013819	1.6049299488904247
-1.0138272287986305	-0.26472508044305443	1.6073176963801077
-0.9363515122939768	-0.23782427984477558	1.607026463343474
-0.8576134903825372	-0.20856930980878544	1.6034769186044011
-0.7788735399479974	-0.17708289244706205	1.5961171232944853
-0.7015127302156338	-0.1436286698582689	1.5845035137918297
-0.6269273884422134	-0.10861792309845578	1.5683853351913235
-0.5564092704013689	-0.07259052681744955	1.547768150345041
-0.491033789545198	-0.0361694586035044	1.5229355430040976
-0.4315790593992443	0.	1.4944214598510457
-0.3784899440413613	0.03531335455210103	1.4629424498434915
-1.2274819427413155	-0.27873231220382616	1.6150881613542118
-1.1575097972189408	-0.25575548697220757	1.620579758957469
-1.0839538680555587	-0.23056116448678557	1.6240836744522325
-1.007521844760756	-0.2030951494192816	1.6250803008955703
-0.9291723726869804	-0.17337745780666342	1.6229987258087737
-0.8500916568644331	-0.14153253916949204	1.6172641420952627
-0.771632174293554	-0.10781539939716252	1.6073702342862521
-0.6952166288221692	-0.07262253762006485	1.5929666290045403
-0.622219512854097	-0.03647916928726159	1.5739375248515324
-0.5538463315026471	0.	1.5504471767144499
-0.491033789545198	0.0361694586035044	1.5229355430040976
-0.4343916644914488	0.07141693955987019	1.492065568935654
-1.2259693535829568	-0.22177075435522262	1.6330624652652013
-1.1546184683114789	-0.19591420970155587	1.6374157388968646
-1.0799336045089176	-0.16787741560214028	1.6394219643599084
-1.002747438402205	-0.13769631312761282	1.638542087129456
-0.9241385718821069	-0.10550194329586932	1.6342113716992666
-0.8453872502706137	-0.07154484067109061	1.6258984310654
-0.7678949228041086	-0.0362081507417854	1.6131850479362893
-0.6930728493251397	0.	1.5958509939184053
-0.622219512854097	0.03647916928726159	1.5739375248515324
-0.5564092704013689	0.07259052681744955	1.547768150345041
-0.49641330572742476	0.10771990483775341	1.5179178246329041
-1.2247639770526393	-0.16124185128836416	1.6473866082939352
-1.1524366304412954	-0.1326715015902072	1.6501242301804844
-1.0771211329877255	-0.1020663627900311	1.650156908862198
-0.9997653316609852	-0.06956676349635067	1.646955667207557
-0.9215420479520987	-0.03542115041574922	1.6399991682624977
-0.8437855737608694	0.	1.6288401840748277
-0.7678949228041086	0.0362081507417854	1.6131850479362893
-0.6952166288221692	0.07262253762006485	1.5929666290045403
-0.6269273884422134	0.10861792309845578	1.5683853351913235
-0.563941389037116	0.14358480954004266	1.5399034915872565
-1.2239236100440405	-0.09793078064019041	1.6573745174567942
-1.151076932162615	-0.06697833302243024	1.6580444297024752
-1.0756726354128714	-0.0342522129273489	1.655687516248752
-0.9987507414803506	0.	1.6498192274752408
-0.9215420479520987	0.03542115041574922	1.6399991682624977
-0.8453872502706137	0.07154484067109061	1.6258984310654
-0.771632174293554	0.10781539939716252	1.6073702342862521
-0.7015127302156338	0.1436286698582689	1.5845035137918297
-0.6360537194083725	0.17838645120862864	1.5576390896372758
-1.2234915793583236	-0.032846729743066516	1.6625081734024394
-1.1506148771728804	0.	1.6607360850513837
-1.0756726354128714	0.0342522129273489	1.655687516248752
-0.9997653316609852	0.06956676349635067	1.646955667207557
-0.9241385718821069	0.10550194329586932	1.6342113716992666
-0.8500916568644331	0.14153253916949204	1.6172641420952627
-0.7788735399479974	0.17708289244706205	1.5961171232944853
-0.7115786862789966	0.2115741339646937	1.5709983033027621
-1.2234915793583236	0.032846729743066516	1.6625081734024394
-1.151076932162615	0.06697833302243024	1.6580444297024752
-1.0771211329877255	0.1020663627900311	1.650156908862198
-1.002747438402205	0.13769631312761282	1.638542087129456
-0.9291723726869804	0.17337745780666342	1.6229987258087737
-0.8576134903825372	0.20856930980878544	1.6034769186044011
-0.789191844623124	0.2427208280632467	1.580114123710409
-1.2239236100440405	0.09793078064019041	1.6573745174567942
-1.1524366304412954	0.1326715015902072	1.6501242301804844
-1.0799336045089176	0.16787741560214028	1.6394219643599084
-1.007521844760756	0.2030951494192816	1.6250803008955703
-0.9363515122939768	0.23782427984477558	1.607026463343474
-0.8675287123099278	0.2715494041712219	1.585336371422532
-1.2247639770526393	0.16124185128836416	1.6473866082939352
-1.1546184683114789	0.19591420970155587	1.6374157388968646
-1.0839538680555587	0.23056116448678557	1.6240836744522325
-1.0138272287986305	0.26472508044305443	1.6073176963801077
-0.9452950257334493	0.29793128010851044	1.5871594897476442
-1.2259693535829568	0.22177075435522262	1.6330624652652013
-1.1575097972189408	0.25575548697220757	1.620579758957469
-1.088977131542307	0.2892633339013819	1.6049299488904247
-1.0213529496721072	0.3218629818289915	1.5861414286913598
-1.2274819427413155	0.27873231220382616	1.6150881613542118
-1.160974611267262	0.3115124567130386	1.6004094089387728
-1.0947758130605498	0.34343162680613476	1.5828346801780142
-1.2292369409275155	0.33159580955177437	1.5942352712996057
-1.164869958262982	0.36278019536298556	1.5777397516643261
-1.2311686828924138	0.38007882183371494	1.5712835997677141
-1.2934075866927996	0.3955059098811723	1.5638162467865753
-1.2934075866927996	0.3496628292311878	1.5868090657723586
-1.2934075866927996	0.2995930432099664	1.6080567762930804
-1.2934075866927996	0.2454799648020412	1.626843856362768
-1.2934075866927996	0.1877242555434433	1.6424387282267212
-1.2934075866927996	0.12696015119857257	1.6541575812186617
-1.2934075866927996	0.0640425500113925	1.6614378398504266
-1.2934075866927996	0.	1.663907940274259
-1.2934075866927996	-0.0640425500113925	1.6614378398504266
-1.2934075866927996	-0.12696015119857257	1.6541575812186617
-1.2934075866927996	-0.1877242555434433	1.6424387282267212
-1.2934075866927996	-0.2454799648020412	1.626843856362768
-1.2934075866927996	-0.2995930432099664	1.6080567762930804
-1.2934075866927996	-0.3496628292311878	1.5868090657723586
-1.2934075866927996	-0.3955059098811723	1.5638162467865753
-1.3535990655043353	-0.42410983093795734	1.546951987842177
-1.4177563070084054	-0.4093949202008873	1.5533537886615814
-1.4856910209956922	-0.39278532457140025	1.5586367678924815
-1.5570380418917418	-0.3740842762475384	1.5624298487697301
-1.631228093020756	-0.3531033130315822	1.56428867538609
-1.7074731936812497	-0.3296856721406049	1.5637080116359674
-1.7847734488769091	-0.30373865652827015	1.560154654438278
-1.8619526547551348	-0.2752708480404389	1.553122315950795
-1.9377238511592054	-0.2444251003437392	1.5422028315222214
-2.0107821995186814	-0.21149712525471315	1.527158656188082
-2.0799111772794174	-0.1769296231798261	1.5079772369520907
-2.1440841076528816	-0.14128017495832115	1.4848906056190216
-2.202540820900418	-0.10516914456504195	1.4583542020745381
-2.2548257884883562	-0.06921971138095488	1.42899174208815
-2.300785631523945	-0.0340032866873966	1.3975212716225631
-1.3556463901924178	0.3800740355349973	1.5712742957520582
-1.4219447672420107	0.36277057486627917	1.5777199875771513
-1.4920382435017265	0.3434171107597628	1.5828029633519174
-1.565459973491865	0.32184346950072595	1.5860957378293123
-1.641515919613404	0.2979066941635278	1.5870972097870557
-1.7192793556167827	0.2715198643170262	1.585254470906387
-1.7976120067138621	0.2426867954624637	1.5800092920825222
-1.8752191704998733	0.21153656278659227	1.570867153146752
-1.9507358652499711	0.1783469591789384	1.557478544752414
-2.022837449728061	0.14354577275840952	1.5397111554162244
-2.0903522110400226	0.10768446000232636	1.5176922752922284
-2.1523580510163987	0.07138890141757707	1.4918066067905482
-2.2082420133050884	0.03529703386450348	1.4626510585089199
-2.257714905665576	0.	1.4309600624658396
-1.3575781253597612	0.331591500941038	1.5942253730469789
-1.4258400867916499	0.3115039350362768	1.6003884008927831
-1.4978367512707407	0.28925072361420645	1.604896273195006
-1.572985427857178	0.26470849726301304	1.607269156571721
-1.650459153284271	0.23780398567603692	1.6069603670437704
-1.7291941072223092	0.2085458507922672	1.6033901971203024
-1.8079296604226998	0.17705725412099335	1.596006559000799
-1.885284174036452	0.14360239223699067	1.584365922368682
-1.9598609854608833	0.10859323904417785	1.5682180905116092
-2.030368368469171	0.07257036207162469	1.5475694449593496
-2.0957306347786866	0.03615737148517792	1.5227047977069397
-2.1551699786471294	0.	1.4941593949543317
-2.2082420133050884	-0.03529703386450348	1.4626510585089199
-1.3593330077362973	0.27872859014054036	1.6150777104166572
-1.4293048768702006	0.25574830134499343	1.6205576160185888
-1.502859956700764	0.23055084299432038	1.624048235699802
-1.579290785957954	0.2030820717276218	1.6250292621445968
-1.6576380574419582	0.17336226494460674	1.622929451304611
-1.736715595272073	0.14151621875261694	1.617173643972009
-1.8151705272688774	0.1077994360377292	1.6072554986647687
-1.8915797596235928	0.07260899869721582	1.5928248476436635
-1.9645682293545337	0.03647076660265469	1.5737667300507407
-2.03293072700047	0.	1.5502463229174839
-2.0957306347786866	-0.03615737148517792	1.5227047977069397
-2.1523580510163987	-0.07138890141757707	1.4918066067905482
-1.360845591482225	0.22176772384323742	1.633051524897311
-1.4321960756644512	0.19590858587122917	1.637392632005262
-1.506880169656519	0.16786973991205506	1.6393850681746167
-1.584064970483215	0.13768726527437836	1.6384891200832734
-1.662671802565215	0.1054925242085625	1.6341397917574354
-1.7414197858868021	0.07153646236769179	1.6258055142546084
-1.8189075091382212	0.03620272753096504	1.6130681110272738
-1.8937231909881662	0.	1.5957078074452231
-1.9645682293545337	-0.03647076660265469	1.5737667300507407
-2.030368368469171	-0.07257036207162469	1.5475694449593496
-2.0903522110400226	-0.10768446000232636	1.5176922752922284
-1.362050963687471	0.16123960797481873	1.6473752703601967
-1.4343780085114786	0.1326676307854632	1.6501003739499929
-1.509692602896936	0.10206162676414524	1.6501189662709375
-1.587047007766169	0.06956213414662754	1.6469014658473624
-1.6652681222771302	0.03541795873407091	1.6399264030591372
-1.743021388185514	0.	1.6287464333092827
-1.8189075091382212	-0.03620272753096504	1.6130681110272738
-1.8915797596235928	-0.07260899869721582	1.5928248476436635
-1.9598609854608833	-0.10859323904417785	1.5682180905116092
-2.022837449728061	-0.14354577275840952	1.5397111554162244
-1.3628914372389656	0.09792940099526837	1.657362896009107
-1.4357375870442604	0.06697635987572063	1.6580201082387234
-1.511141191099284	0.03425061114089379	1.6556490181713763
-1.5880615741468118	0.	1.6497646021657855
-1.6652681222771302	-0.03541795873407091	1.6399264030591372
-1.7414197858868021	-0.07153646236769179	1.6258055142546084
-1.8151705272688774	-0.1077994360377292	1.6072554986647687
-1.885284174036452	-0.14360239223699067	1.584365922368682
-1.9507358652499711	-0.1783469591789384	1.557478544752414
-1.363323356798796	0.03284626418526327	1.6624964085109428
-1.4361996387608944	0.	1.6607116027400344
-1.511141191099284	-0.03425061114089379	1.6556490181713763
-1.587047007766169	-0.06956213414662754	1.6469014658473624
-1.662671802565215	-0.1054925242085625	1.6341397917574354
-1.736715595272073	-0.14151621875261694	1.617173643972009
-1.8079296604226998	-0.17705725412099335	1.596006559000799
-1.8752191704998733	-0.21153656278659227	1.570867153146752
-1.363323356798796	-0.03284626418526327	1.6624964085109428
-1.4357375870442604	-0.06697635987572063	1.6580201082387234
-1.509692602896936	-0.10206162676414524	1.6501189662709375
-1.584064970483215	-0.13768726527437836	1.6384891200832734
-1.6576380574419582	-0.17336226494460674	1.622929451304611
-1.7291941072223092	-0.2085458507922672	1.6033901971203024
-1.7976120067138621	-0.2426867954624637	1.5800092920825222
-1.3628914372389656	-0.09792940099526837	1.657362896009107
-1.4343780085114786	-0.1326676307854632	1.6501003739499929
-1.506880169656519	-0.16786973991205506	1.6393850681746167
-1.579290785957954	-0.2030820717276218	1.6250292621445968
-1.650459153284271	-0.23780398567603692	1.6069603670437704
-1.7192793556167827	-0.2715198643170262	1.585254470906387
-1.362050963687471	-0.16123960797481873	1.6473752703601967
-1.4321960756644512	-0.19590858587122917	1.637392632005262
-1.502859956700764	-0.23055084299432038	1.624048235699802
-1.572985427857178	-0.26470849726301304	1.607269156571721
-1.641515919613404	-0.2979066941635278	1.5870972097870557
-1.360845591482225	-0.22176772384323742	1.633051524897311
-1.4293048768702006	-0.25574830134499343	1.6205576160185888
-1.4978367512707407	-0.28925072361420645	1.604896273195006
-1.565459973491865	-0.32184346950072595	1.5860957378293123
-1.3593330077362973	-0.27872859014054036	1.6150777104166572
-1.4258400867916499	-0.3115039350362768	1.6003884008927831
-1.4920382435017265	-0.3434171107597628	1.5828029633519174
-1.3575781253597612	-0.331591500941038	1.5942253730469789
-1.4219447672420107	-0.36277057486627917	1.5777199875771513
-1.3556463901924178	-0.3800740355349973	1.5712742957520582
-1.2562173902454878	0.4696188993053434	1.5183287364667155
-1.2166461311124834	0.5029243326734255	1.493421494762666
-1.1749032630161704	0.5366422564758906	1.4646879753180784
-1.1313311457968216	0.5702680338326909	1.4318734338656176
-1.086415033353158	0.6031938308085233	1.3948307758657763
-1.0407777674507883	0.6347302193276293	1.3535643381578768
-0.9951546073450617	0.6641468871332693	1.3082680618717135
-0.9503473007684019	0.690730117957113	1.25934871229521
-0.9071616214131526	0.713849849726011	1.2074247346629943
-0.8663391280461121	0.7330247141996531	1.153294527999039
-0.8284938584613915	0.7479702489414661	1.0978767236630342
-0.794069648921854	0.7586204905206703	1.0421314902981003
-0.7633197666091905	0.7651177357757836	0.9869805396759005
-0.7363148356352911	0.7677773417363677	0.9332381155894609
-0.7129679217117606	0.767036005244407	0.8815661502004822
-0.27633720380736065	0.09236072138764401	1.383436955064992
-0.2711921010131423	0.15430770044996786	1.3649467505495805
-0.27150324699692346	0.21905403052766073	1.342025650571555
-0.27821021091653697	0.2854481836462191	1.3144840584899613
-0.29202871704659916	0.3520390817436056	1.282390748740114
-0.31331746299837204	0.41718231843645703	1.2461233396462634
-0.34198111245609725	0.4792076468090247	1.2063746945419944
-0.3774415583807743	0.536615980264327	1.1641008691137034
-0.41869132083604477	0.5882553104435267	1.1204157591401824
-0.464422014666365	0.6334318524905951	1.076458033834565
-0.5131897354007369	0.671930000007523	1.0332653034277366
-0.5635772559682327	0.7039518493906503	0.9916824419777434
-0.6143200388498637	0.7300056473411244	0.9523201562271325
-0.6643796796446974	0.7507805912012261	0.9155560480695616
-0.32561038056932434	0.12972489994745195	1.4145996487771009
-0.3240958831864578	0.19348987007802668	1.3954765100940307
-0.3283116978775099	0.2595611888915966	1.3715662722791473
-0.3390753948500843	0.3266107673657226	1.342719935484122
-0.3569207605842257	0.39304663538873663	1.309090677845367
-0.3819785574149529	0.4571565273409677	1.2711755733562478
-0.4139101553672889	0.5173018202181635	1.2298006910209864
-0.4519193286207431	0.5721168528742104	1.1860416348311793
-0.49484566175299405	0.6206612131334325	1.1410950704075982
-0.541315836894646	0.6624868291743229	1.0961344167282148
-0.5899119345889695	0.6976122459752453	1.0521870490337182
-0.639316602941177	0.7264271138432824	1.010057153899122
-0.6884098843756834	0.7495645490308314	0.9702999782837365
-0.3816305132022115	0.16738325454392997	1.4433404977603408
-0.3840832881065604	0.23239902664455928	1.4232873685713048
-0.3924045232066786	0.2991040088373258	1.3981355385533658
-0.40724008610431417	0.3660256492624236	1.3678090854850542
-0.4289032010808034	0.43148877932408425	1.3325726201675874
-0.4572825385805008	0.4937896025448054	1.2930566756903465
-0.4918138509178856	0.5514001773530696	1.2502156398234119
-0.5315327172237545	0.6031513351277151	1.20522197633346
-0.5751973630136906	0.6483463645096118	1.1593202261736308
-0.6214480269323623	0.6867797291883895	1.1136814563462016
-0.6689614694742337	0.7186712331047149	1.0692920042277696
-0.7165681499858486	0.744548540561	1.0268947508453563
-0.4441126367069557	0.20465225685588295	1.4689242105743965
-0.4506998625445893	0.27025262953263635	1.4476551404953388
-0.46312139200952535	0.33683274976713323	1.4210536511083662
-0.48181308141503537	0.40282750667862993	1.3891478060386628
-0.5068518423833326	0.4665507392441584	1.3523337410076604
-0.5378968268695559	0.5263857009551347	1.3113755702494008
-0.5742033220521406	0.5809818961324468	1.2673358518651112
-0.6147076596492758	0.6294049772212016	1.221447699970114
-0.6581646523054123	0.6712038143502981	1.1749617408393316
-0.7032980916235287	0.7063850365836906	1.129009440245306
-0.7489306678266325	0.7353200587156047	1.0845100213506558
-0.5124253754086523	0.2408280530026442	1.4907492869792802
-0.5231066632784973	0.30629615664219184	1.4680306936859862
-0.5393959932106653	0.3719903862112197	1.4398547654056464
-0.5615029099851692	0.4363190580274547	1.4063774570731669
-0.5892764067339359	0.4976597605523572	1.3681315277944095
-0.6221863813877355	0.5545503262651295	1.3259988102412477
-0.6593716781186033	0.605860150114133	1.2811153499530064
-0.6997444351270512	0.650897550176548	1.2347307881761653
-0.7421259815765681	0.6894312148177305	1.188060243870908
-0.7853765303407049	0.7216326974701541	1.1421640266169653
-0.5856054258279461	0.2752569524340621	1.5084240768548105
-0.6001226369079118	0.33988612983720207	1.4841136921341653
-0.6198341047096019	0.40400093494461087	1.4543507136844203
-0.6447292581536247	0.4660512181056256	1.4194285352713507
-0.6744648525153562	0.5245435626280152	1.3800054855980513
-0.7083794167130103	0.5782151251569528	1.337049583925002
-0.7455657114225398	0.6261682443078703	1.2917269540638492
-0.7849799387946376	0.6679342320665627	1.2452600090341344
-0.8255621206442194	0.7034585416698863	1.1987930684016226
-0.6624235555573015	0.3074028181362619	1.5218154530711154
-0.6803222463880852	0.37055831617655155	1.4958864962310823
-0.7028412928468037	0.43252543014326084	1.4646434179140198
-0.7297809835484175	0.4918556416082075	1.4285103223666558
-0.7606571224357676	0.547229130824135	1.388243906403997
-0.7947421507772953	0.5975995499827338	1.3448581460406857
-0.8311473671204539	0.6422891315593583	1.2995054482213646
-0.868923923056087	0.6810147800604426	1.2533442571095061
-0.7414890095710999	0.3368960580002347	1.53105265946259
-0.7621668709713372	0.3980622468713267	1.5035961821510133
-0.7867784348972394	0.4574726562408556	1.4710838406697198
-0.8149805702029617	0.5138228071821855	1.4340481903406055
-0.8462071830921629	0.5659864156475616	1.3933082396085932
-0.879724683680269	0.6131265047213974	1.349882402371362
-0.9147121225081446	0.6547547136957916	1.3048727188265452
-0.8213722461871596	0.36355056417195447	1.536486274589834
-0.8441442509784698	0.42235577860766904	1.5076914895226405
-0.8701061671589931	0.4789643551164071	1.4741904738076448
-0.8988238056552734	0.5322374321484472	1.4365927231521267
-0.9297042530205273	0.5812403817040135	1.3957415692620703
-0.9620549695148941	0.6253223837336767	1.3526245371227161
-0.9007226905619093	0.38734984122098526	1.538614863229723
-0.9248875451788172	0.44356560915495646	1.508735170109802
-0.95149536110627	0.4972714801259172	1.474555139346632
-0.9800706536673	0.5474965253773444	1.4367273540916665
-1.0100379940389526	0.5934812847891264	1.3960866636022375
-0.9783586283105323	0.40840795763009374	1.538002053809838
-1.0032555160805081	0.4619304782158044	1.5073174768978796
-1.0298897010687598	0.5127436496955956	1.4727609156430885
-1.0577850300400216	0.5600343038881045	1.4349981252570174
-1.0533231603044833	0.4269231731324051	1.535204778261563
-1.0783714966787727	0.4777444222574958	1.5039900879323875
-1.104523122547096	0.5257505440709835	1.4693278220130874
-1.1249040061536735	0.4431340264518404	1.5307246693760466
-1.149624683576036	0.49131278298264647	1.4992289008092858
-1.1926247836274482	0.4572873501958976	1.5249853714436785
-1.3535990655043353	0.42410983093795734	1.546951987842177
-1.4177563070084054	0.4093949202008873	1.5533537886615814
-1.4856910209956922	0.39278532457140025	1.5586367678924815
-1.5570380418917418	0.3740842762475384	1.5624298487697301
-1.631228093020756	0.3531033130315822	1.56428867538609
-1.7074731936812497	0.3296856721406049	1.5637080116359674
-1.7847734488769091	0.30373865652827015	1.560154654438278
-1.8619526547551348	0.2752708480404389	1.553122315950795
-1.9377238511592054	0.2444251003437392	1.5422028315222214
-2.0107821995186814	0.21149712525471315	1.527158656188082
-2.0799111772794174	0.1769296231798261	1.5079772369520907
-2.1440841076528816	0.14128017495832115	1.4848906056190216
-2.202540820900418	0.10516914456504195	1.4583542020745381
-2.2548257884883562	0.06921971138095488	1.42899174208815
-2.300785631523945	0.0340032866873966	1.3975212716225631
-2.3528848139145895	0.05585454558480318	1.3502543588501144
-2.3612009248745567	0.1154981327010185	1.3321266099948095
-2.3644311372814353	0.17829321102562498	1.3099493882657014
-2.361566530365574	0.24328138378693273	1.2835224906066793
-2.351760657263081	0.3091946266500328	1.252858031565499
-2.3344628649552	0.37452259025720164	1.2182334888900102
-2.3095344833815066	0.4376429835495552	1.1802116411272507
-2.277311970022942	0.49699921896268395	1.1396163808328486
-2.2385948452018742	0.5512831163236209	1.0974519913806666
-2.194552842843356	0.5995786528736581	1.0547900088865023
-2.146579904886619	0.6414255259567971	1.0126461628522505
-2.096127212080559	0.6768023942397833	0.971882920583909
-2.0445590518587404	0.7060436972003062	0.9331521974848523
-1.9930513329426731	0.7297255084480615	0.8968818574893527
-1.9425418350383208	0.748550492956472	0.8632959722053121
-1.394190020188474	0.4572779760981644	1.5249711749935988
-1.437189825300549	0.491298157052506	1.4992090515322198
-1.4822910387655377	0.5257294996806293	1.469302329653457
-1.529028394702113	0.5600056002886198	1.4349672428878835
-1.5767745801678397	0.5934434902215695	1.3960507698774371
-1.624756570715505	0.6252739684897095	1.3525842632007197
-1.6720978133323305	0.6546942475704599	1.3048290912960063
-1.7178842114668942	0.680941048502405	1.25329868849994
-1.7612439284806756	0.7033706872413489	1.1987473165765716
-1.8014272075484175	0.7215302836404531	1.142120072687089
-1.8378703034306838	0.7352033383520492	1.0844700114616486
-1.8702301516443551	0.7444182721533075	1.0268607309131244
-1.8983857869671932	0.7494219841790861	0.9702737604006462
-1.9224133355761241	0.750627438026691	0.9155390959171019
-1.4619102835813478	0.4431184094608229	1.530700060822907
-1.5084422565390436	0.4777223990854031	1.503959131306209
-1.5569232647012128	0.5127137221124288	1.4727235425047271
-1.6067412220088915	0.5474570298119044	1.4366837627301265
-1.6571063096394838	0.5811895370983813	1.3956922950947264
-1.7070839422546495	0.6130625325628589	1.3498284151216766
-1.7556590982910367	0.6422103351352032	1.2994481500598964
-1.8018236544904114	0.6678393433564034	1.2452013645887736
-1.8446744421586678	0.6893194961468654	1.1880026197607736
-1.8834989877414412	0.7062564801038692	1.1289554694994175
-1.9178321600032875	0.7185265404852965	1.0692443207892903
-1.9474735338206428	0.7262677556959658	1.0100181926409553
-1.9724666393241754	0.729833644678024	0.9522919135644925
-1.5334901874876437	0.4269008043824943	1.5351679574514834
-1.5835570173494526	0.4619001846844267	1.5072732191582805
-1.635315768966604	0.4972313966325298	1.4745033815865378
-1.6879856873729868	0.5321854356879213	1.4365337023562827
-1.740599890883808	0.5659203130692188	1.3932427364228954
-1.7920620329204617	0.5975171989986706	1.3447875352309469
-1.8412349899096898	0.6260678289091367	1.2916533028044188
-1.887052292767152	0.6507778414056907	1.234656804085399
-1.9286277978559876	0.6710643653164994	1.1748905815630106
-1.9653396116729858	0.6866211848892839	1.1136165344901898
-1.9968712616720021	0.6974359940505039	1.0521315334112384
-2.0232015182137872	0.7037602677259427	0.9916391076847366
-1.6084532075463323	0.4083782952973391	1.537950810435067
-1.6619228549109697	0.4435261162697053	1.508674957380779
-1.7167020234902597	0.47891270763084404	1.4741212743433119
-1.7718248565443002	0.5137564075218141	1.4339704482642621
-1.8261448887153933	0.547145304360822	1.3881587685667038
-1.8784181460338183	0.5781114664319635	1.336959123237129
-1.9274207834378148	0.6057347468498616	1.2810224842948659
-1.9720790710614564	0.6292568426585086	1.2213561477610522
-2.0115834479752888	0.6481755929962657	1.1592341310734486
-2.045459139925107	0.6622947197823177	1.096057954090699
-2.0735795210642474	0.6717190865046133	1.0332022703413617
-1.6860868712295236	0.3873122495037137	1.5385463313812067
-1.7426628452553161	0.42230610616492026	1.5076120761495502
-1.8000252695485073	0.4574080288020793	1.4709936210417367
-1.857018436078608	0.4917729187038798	1.4284100744312287
-1.9123293517955187	0.5244396383082475	1.379897002865946
-1.9646013563699831	0.5544225779118106	1.3258851153471578
-2.0125773181593516	0.5808284391759985	1.2672209848607712
-2.0552402898115876	0.6029715542053573	1.2051108656186584
-2.0919196323063307	0.6204560267622782	1.1409930357612992
-2.1223359565871704	0.6332035053432182	1.0763700723093046
-1.7654335643523182	0.36350454167220403	1.5363971499129687
-1.8246352550413767	0.39800155216979893	1.5034938494717376
-1.8839557419888746	0.4324466075239303	1.4645282089003664
-1.9420614439261228	0.46595058300481496	1.4193017890206368
-1.9975068218907506	0.4975337677822196	1.3679959100395909
-2.0488773888132865	0.5262316071021693	1.3112353710105238
-2.0949506153617796	0.5512163673887812	1.2500763784289837
-2.134835346503657	0.5719031507540132	1.1859095596559048
-2.168053799266115	0.5880136096523378	1.1202974421594454
-1.8453114844932752	0.33684134804222016	1.5309392111035058
-1.90647244336543	0.3704861639741352	1.495757317864756
-1.9669533172121456	0.40390723816587815	1.454206482034108
-2.0252756277521122	0.43619958631670447	1.4062203068878554
-2.0799160320775716	0.46640166078819156	1.35216762215496
-2.1294735776029525	0.49360794457107593	1.2928872266907039
-2.172833522918491	0.5170862771740062	1.2296351294117713
-2.209290018557495	0.5363672101430512	1.163947120730663
-1.9243692462840645	0.30733975247924583	1.52167402614762
-1.9866620689202374	0.3398027225398637	1.483953776293463
-2.0473784998655042	0.3718819528893006	1.439677711136481
-2.104949095351078	0.4026893366911222	1.388956859841899
-2.1578449189967093	0.4313166850290176	1.3323731536445842
-2.2047545138206233	0.4569474519478169	1.270974928968186
-2.2447367718214846	0.47896047316513074	1.2061818275278846
-2.001177101139797	0.2751865526061919	1.508251190470879
-2.063664802394011	0.3062026355057936	1.4678366336033974
-2.1236363846197714	0.3367108400598531	1.4208406195226253
-2.179501518458125	0.3658701357233914	1.3675816288333291
-2.229803061346115	0.3928529153504565	1.3088557589503824
-2.2733878290202365	0.4169473337866063	1.2458903337213902
-2.0743437166272125	0.24075229634717518	1.490542208730326
-2.1360544794447023	0.2701513325351692	1.4474245487282826
-2.194332199119414	0.2989713112377146	1.3978845737248937