# TIME=0.000000
VARIABLES=X,Y,Z
ZONE N=492 E=980 F=FEPOINT ET=TRIANGLE
-1.2934075233282634	0.4371212141051902	1.536509101669629
-1.2934075233282634	0.4371212141051901	0.12195511027165873
-1.2934075233282634	-0.4371212141051902	1.536509101669629
-1.2934075233282634	-0.4371212141051901	0.12195511027165873
-0.24280053790040387	0.	1.3587970332223285
-2.343867049241004	0.	1.3584201422295408
-0.24280053790040387	6.485299930994764e-17	0.2996671787189593
-2.343867049241004	6.480684347515317e-17	0.3000440697117469
-0.6914160773962249	0.7629501819253485	0.8292321059706439
-0.6914160773962249	-0.7629501819253485	0.8292321059706439
-1.895379768619916	0.7628063857814992	0.8292321059706439
-1.895379768619916	-0.7628063857814992	0.8292321059706439
-1.1496560297955496	0.4048551777886379	1.5517773994602773
-0.9868893437031425	0.36237371344161873	1.5605145536513274
-0.8118092297028108	0.30754555120359023	1.5575104374210218
-0.6365981998193231	0.23970840100289778	1.5366995354105948
-0.4762929862834708	0.16153594841094074	1.4944426029567621
-0.34327478168428166	0.07922404974701124	1.43276319498962
-1.139188347327932	-0.2896516413125228	1.6046444056177787
-0.9667973039067925	-0.2319635244366435	1.609415753404855
-0.786289995415821	-0.16227180535079558	1.5977623757315804
-0.6129191026460912	-0.0829721634799054	1.5638759344752424
-0.4621186481985683	0.	1.5069010732466506
-1.1316919866487305	-0.15190323566751987	1.6425373792028242
-0.9551470322386667	-0.0801391399310076	1.6378495313422492
-0.7768380018633513	0.	1.6127268860467863
-0.6129191026460912	0.0829721634799054	1.5638759344752424
-1.1289393060566228	0.	1.656458652464095
-0.9551470322386667	0.0801391399310076	1.6378495313422492
-0.786289995415821	0.16227180535079558	1.5977623757315804
-1.1316919866487305	0.15190323566751987	1.6425373792028242
-0.9667973039067925	0.2319635244366435	1.609415753404855
-1.139188347327932	0.2896516413125228	1.6046444056177787
-1.2934075233282634	0.3357842510383527	1.5898664736009729
-1.2934075233282634	0.21288742806021407	1.6329700280818784
-1.2934075233282634	0.07312511952270566	1.6574642119412877
-1.2934075233282634	-0.07312511952270566	1.6574642119412877
-1.2934075233282634	-0.21288742806021407	1.6329700280818784
-1.2934075233282634	-0.3357842510383527	1.5898664736009729
-1.4371585720250803	-0.40484312626413627	1.5517558910968283
-1.5999227865169696	-0.36234827271301	1.5604632133978886
-1.7749959822422388	-0.30750540276870236	1.5574153645609004
-1.9501914359614898	-0.2396554181576784	1.5365431635973628
-2.110468014962372	-0.1614796449820763	1.4942107435331144
-2.24344375714937	-0.07918333607409381	1.4324530370586346
-1.4476260640158116	0.28964236738824545	1.6046195788468407
-1.620014343419629	0.23194589257825157	1.6093564506001374
-1.8005136599739853	0.16224884706775689	1.5976536437468785
-1.9738673648583156	0.08295253579645594	1.5637021490041974
-2.1246387108056215	0.	1.5066551829943435
-1.4551224675252914	0.15189811811717044	1.6425099793211366
-1.6316642988961092	0.08013276841022968	1.6377852416239969
-1.8099650426064318	0.	1.6126127369066623
-1.9738673648583156	-0.08295253579645594	1.5637021490041974
-1.45787512032391	0.	1.656430265152232
-1.6316642988961092	-0.08013276841022968	1.6377852416239969
-1.8005136599739853	-0.16224884706775689	1.5976536437468785
-1.4551224675252914	-0.15189811811717044	1.6425099793211366
-1.620014343419629	-0.23194589257825157	1.6093564506001374
-1.4476260640158116	-0.28964236738824545	1.6046195788468407
-1.2047040785841248	0.512532102358404	1.482388390827163
-1.1053125042253746	0.5891905808940164	1.4079854582991078
-1.0008860622761224	0.6600411710916839	1.3117063950680807
-0.9001369368212319	0.7167069751897184	1.1965166217967729
-0.8120160610855689	0.7528228223286153	1.0706735927954036
-0.7421533264929103	0.7670385155390017	0.9451333346771342
-0.33849962304948517	0.22271604379435264	1.3922280567505387
-0.3649743078487588	0.37507409896016686	1.3266696222593408
-0.4279789857434946	0.5182042239077823	1.2380197313424839
-0.5216870144796006	0.6344683235419624	1.1364438026516375
-0.6314519629858198	0.7162365358705705	1.0355133462877801
-0.4926873876116436	0.30955422644328734	1.4483406527872535
-0.539190713591802	0.45795148959095294	1.3746445642076703
-0.6152147299859582	0.5881065303377371	1.2785054601304333
-0.7107859247640741	0.6869640895870965	1.1727141507641923
-0.6728648927587796	0.38409782864252107	1.4824849442674966
-0.733180683637825	0.5206197828161689	1.4014486746872241
-0.8123934320801782	0.6339419064198635	1.3017445127558256
-0.8618000243070625	0.4418040637008848	1.4954836679592944
-0.9270389927917513	0.5628325553116174	1.4104264053461124
-1.0426812712976463	0.4834594884291689	1.4932855863732613
-1.4371585720250803	0.40484312626413627	1.5517558910968283
-1.5999227865169696	0.36234827271301	1.5604632133978886
-1.7749959822422388	0.30750540276870236	1.5574153645609004
-1.9501914359614898	0.2396554181576784	1.5365431635973628
-2.110468014962372	0.1614796449820763	1.4942107435331144
-2.24344375714937	0.07918333607409381	1.4324530370586346
-2.3661208846951065	0.13227727826591085	1.3197433910480816
-2.3602633402210804	0.27914547700793174	1.2605356352759451
-2.3167733996546307	0.4267436292976049	1.1808881762919636
-2.235478360249991	0.5568356370934445	1.0873396377314422
-2.1276382967504106	0.6561799862333383	0.9914487259355613
-2.0097383008599676	0.7227453351237426	0.9036790117696081
-1.5441318806699702	0.4834328462633761	1.4932489921531795
-1.6597714621949717	0.5627828381892402	1.4103750662616295
-1.7744118161295501	0.633859303551536	1.3016829442118858
-1.876011840271348	0.6868418159230275	1.1726530139321576
-1.955337121551994	0.716075831786392	1.0354670623631992
-1.7250077510748885	0.4417550644680245	1.4954097758923994
-1.8536191172710896	0.5205330953870443	1.4013533959735027
-1.9715721773165897	0.5879682882601891	1.2783998525939375
-2.065084005767571	0.6342738841450201	1.1363496544415221
-1.9139291252780681	0.38402137611315434	1.4823549179354543
-2.0475837205935665	0.4578179266046044	1.3744854929558685
-2.1587689833027466	0.5179969407434651	1.2378562151289692
-2.0940773921423546	0.3094512679466289	1.4481347357626952
-2.2217526703372186	0.37489365213143566	1.326430306821258
-2.2482167915631814	0.22259994831042362	1.3919345831136944
-1.3821108763040746	0.5125228736214505	1.4823766299881544
-1.481501537563445	0.58916711043091	1.4079624036039988
-1.5859263982926048	0.6599974485604269	1.3116744349448193
-1.6866724697967022	0.7166372946158261	1.1964809132063303
-1.7747891637054054	0.7527246104559266	1.070642094785696
-1.8446470801188375	0.7669142357925136	0.945114555730537
-0.9063045929241244	0.7971700147705474	0.9496863111769452
-1.0931744183342724	0.8158725818819191	0.9525123359263925
-1.2934075233282634	0.8221216364481917	0.9534565775916783
-1.4936396035650483	0.815837797965916	0.9525070799964117
-1.6805051487250755	0.7970941539188852	0.949674848429446
-0.9911819727105847	0.7775802129313657	1.0786136479421562
-1.1901898185401563	0.7901660021534105	1.0826501676415612
-1.3966249543509943	0.7901494001863644	1.0826448431422824
-1.5956302590379214	0.7775265718935788	1.0785964444633462
-1.0897540667558578	0.734126754730128	1.205443572162389
-1.2934075233282634	0.7399501918978949	1.2084278574975382
-1.49705980703768	0.7340948838599757	1.2054272395785244
-1.1936607113886393	0.6700030210908073	1.3189882745160513
-1.3931540805626865	0.6699894321252539	1.3189783413075515
-1.2934075233282634	0.5931570320397921	1.4118816059339774
-1.2934075233282634	0.3357842510383528	0.06859773834031502
-1.2934075233282634	0.21288742806021416	0.02549418385940927
-1.2934075233282634	0.07312511952270585	0.0010000000000000009
-1.2934075233282634	-0.07312511952270585	0.0010000000000000009
-1.2934075233282634	-0.21288742806021416	0.02549418385940927
-1.2934075233282634	-0.3357842510383528	0.06859773834031502
-1.1496560297955496	-0.4048551777886378	0.10668681248101042
-0.9868893437031425	-0.3623737134416187	0.09794965828996027
-0.8118092297028108	-0.30754555120359034	0.1009537745202661
-0.6365981998193231	-0.23970840100289764	0.1217646765306929
-0.4762929862834708	-0.16153594841094082	0.16402160898452556
-0.34327478168428166	-0.07922404974701126	0.2257010169516679
-1.139188347327932	0.2896516413125228	0.053819806323509134
-0.9667973039067925	0.23196352443664364	0.049048458536432804
-0.786289995415821	0.16227180535079555	0.06070183620970726
-0.6129191026460912	0.08297216347990527	0.09458827746604537
-0.4621186481985683	8.299051316560541e-17	0.15156313869463722
-1.1316919866487305	0.15190323566752004	0.015926832738463736
-0.9551470322386667	0.08013913993100764	0.020614680599038593
-0.7768380018633513	9.595043745689072e-17	0.045737325894501524
-0.6129191026460912	-0.08297216347990527	0.09458827746604537
-1.1289393060566228	1.0130603423329238e-16	0.002005559477192942
-0.9551470322386667	-0.08013913993100764	0.020614680599038593
-0.786289995415821	-0.16227180535079555	0.06070183620970726
-1.1316919866487305	-0.15190323566752004	0.015926832738463736
-0.9667973039067925	-0.23196352443664364	0.049048458536432804
-1.139188347327932	-0.2896516413125228	0.053819806323509134
-1.4371585720250803	0.4048431262641361	0.10670832084445925
-1.5999227865169696	0.36234827271300996	0.09800099854339928
-1.7749959822422388	0.3075054027687024	0.10104884738038744
-1.9501914359614898	0.23965541815767827	0.12192104834392492
-2.110468014962372	0.16147964498207637	0.16425346840817323
-2.24344375714937	0.07918333607409382	0.22601117488265332
-1.4476260640158116	-0.28964236738824545	0.05384463309444709
-1.620014343419629	-0.2319458925782517	0.04910776134115036
-1.8005136599739853	-0.16224884706775683	0.06081056819440933
-1.9738673648583156	-0.08295253579645581	0.09476206293709044
-2.1246387108056215	8.296040029456246e-17	0.15180902894694426
-1.4551224675252914	-0.1518981181171706	0.015954232620151054
-1.6316642988961092	-0.08013276841022973	0.020678970317290823
-1.8099650426064318	9.593645821898289e-17	0.0458514750346255
-1.9738673648583156	0.08295253579645581	0.09476206293709044
-1.45787512032391	1.0130255779023148e-16	0.002033946789055663
-1.6316642988961092	0.08013276841022973	0.020678970317290823
-1.8005136599739853	0.16224884706775683	0.06081056819440933
-1.4551224675252914	0.1518981181171706	0.015954232620151054
-1.620014343419629	0.2319458925782517	0.04910776134115036
-1.4476260640158116	0.28964236738824545	0.05384463309444709
-1.1496560297955496	0.4048551777886378	0.10668681248101042
-0.9868893437031425	0.3623737134416187	0.09794965828996027
-0.8118092297028108	0.30754555120359034	0.1009537745202661
-0.6365981998193231	0.23970840100289764	0.1217646765306929
-0.4762929862834708	0.16153594841094082	0.16402160898452556
-0.34327478168428166	0.07922404974701126	0.2257010169516679
-0.22053225635050358	0.13237934125657386	0.338342350385155
-0.22639390291370123	0.2793564011760609	0.3976026808668328
-0.26991014990275025	0.4270205929594231	0.47734780505312985
-0.35124337842095255	0.557115078882728	0.5709950458073904
-0.459118419631321	0.6564202736329809	0.6669560836914105
-0.5770429342922949	0.7229348053208555	0.7547656836570367
-1.0426812712976463	0.4834594884291689	0.16517862556802665
-0.9270389927917513	0.5628325553116175	0.2480378065951755
-0.8123934320801782	0.6339419064198635	0.3567196991854621
-0.7107859247640741	0.6869640895870965	0.4857500611770956
-0.6314519629858198	0.7162365358705705	0.6229508656535077
-0.8618000243070625	0.4418040637008849	0.16298054398199358
-0.733180683637825	0.5206197828161689	0.25701553725406356
-0.6152147299859582	0.5881065303377371	0.37995875181085453
-0.5216870144796006	0.6344683235419624	0.5220204092896503
-0.6728648927587796	0.3840978286425212	0.17597926767379146
-0.539190713591802	0.45795148959095294	0.28381964773361723
-0.4279789857434946	0.5182042239077823	0.4204444805988038
-0.4926873876116436	0.3095542264432874	0.21012355915403425
-0.3649743078487588	0.37507409896016697	0.33179458968194714
-0.33849962304948517	0.22271604379435261	0.26623615519074917
-1.3821108763040746	0.5125228736214505	0.17608758195313334
-1.481501537563445	0.5891671104309099	0.25050180833728897
-1.5859263982926048	0.6599974485604269	0.34678977699646873
-1.6866724697967022	0.716637294615826	0.4619832987349576
-1.7747891637054054	0.7527246104559266	0.5878221171555919
-1.8446470801188375	0.7669142357925136	0.7133496562107509
-2.2482167915631814	0.22259994831042357	0.26652962882759335
-2.2217526703372186	0.37489365213143583	0.33203390512003006
-2.1587689833027466	0.5179969407434651	0.4206079968123186
-2.065084005767571	0.6342738841450201	0.5221145574997657
-1.955337121551994	0.716075831786392	0.6229971495780887
-2.0940773921423546	0.30945126794662897	0.21032947617859254
-2.0475837205935665	0.4578179266046044	0.28397871898541927
-1.9715721773165897	0.5879682882601891	0.3800643593473502
-1.876011840271348	0.6868418159230275	0.48581119800913014
-1.9139291252780681	0.38402137611315446	0.17610929400583375
-1.8536191172710896	0.5205330953870443	0.25711081596778484
-1.7744118161295501	0.633859303551536	0.35678126772940205
-1.7250077510748885	0.44175506446802454	0.16305443604888847
-1.6597714621949717	0.5627828381892404	0.24808914567965845
-1.5441318806699702	0.4834328462633761	0.16521521978810838
-1.2047040785841248	0.512532102358404	0.176075821114125
-1.1053125042253746	0.5891905808940163	0.25047875364218
-1.0008860622761224	0.6600411710916839	0.34675781687320717
-0.9001369368212319	0.7167069751897183	0.4619475901445148
-0.8120160610855689	0.7528228223286153	0.5877906191458843
-0.7421533264929103	0.7670385155390017	0.7133308772641537
-0.8391823862867827	0.7955814544982589	0.8292321059706439
-1.0097115971019692	0.8184439418000032	0.8292321059706439
-1.196803553661239	0.8300148002853872	0.8292321059706439
-1.3900113642614824	0.8299985054978587	0.8292321059706439
-1.5771009519996653	0.8183917490190468	0.8292321059706439
-1.747624458023242	0.7954863658199713	0.8292321059706439
-1.2934075233282634	0.5931570320397921	0.2465826060073103
-1.3931540805626865	0.6699894321252539	0.3394858706337362
-1.49705980703768	0.7340948838599757	0.45303697236276325
-1.5956302590379214	0.7775265718935787	0.5798677674779416
-1.6805051487250755	0.7970941539188852	0.7087893635118416
-1.1936607113886393	0.6700030210908073	0.3394759374252364
-1.2934075233282634	0.7399501918978949	0.4500363544437495
-1.3966249543509943	0.7901494001863643	0.5758193687990054
-1.4936396035650483	0.815837797965916	0.705957131944876
-1.0897540667558578	0.734126754730128	0.4530206397788987
-1.1901898185401563	0.7901660021534104	0.5758140442997264
-1.2934075233282634	0.8221216364481917	0.7050076343496096
-0.9911819727105847	0.7775802129313656	0.5798505639991315
-1.0931744183342724	0.8158725818819191	0.7059518760148952
-0.9063045929241244	0.7971700147705474	0.7087779007643424
-1.1496560297955496	-0.4048551777886379	1.5517773994602773
-0.9868893437031425	-0.36237371344161873	1.5605145536513274
-0.8118092297028108	-0.30754555120359023	1.5575104374210218
-0.6365981998193231	-0.23970840100289778	1.5366995354105948
-0.4762929862834708	-0.16153594841094074	1.4944426029567621
-0.34327478168428166	-0.07922404974701124	1.43276319498962
-0.22053225635050358	-0.1323793412565738	1.3201218615561328
-0.22639390291370123	-0.279356401176061	1.2608615310744549
-0.26991014990275025	-0.4270205929594231	1.181116406888158
-0.35124337842095255	-0.557115078882728	1.0874691661338973
-0.459118419631321	-0.6564202736329808	0.9915081282498774
-0.5770429342922949	-0.7229348053208555	0.9036985282842512
-1.0426812712976463	-0.4834594884291689	1.4932855863732613
-0.9270389927917513	-0.5628325553116174	1.4104264053461124
-0.8123934320801782	-0.6339419064198635	1.3017445127558256
-0.7107859247640741	-0.6869640895870965	1.1727141507641923
-0.6314519629858198	-0.7162365358705705	1.0355133462877801
-0.8618000243070625	-0.4418040637008848	1.4954836679592944
-0.733180683637825	-0.5206197828161689	1.4014486746872241
-0.6152147299859582	-0.5881065303377371	1.2785054601304333
-0.5216870144796006	-0.6344683235419624	1.1364438026516375
-0.6728648927587796	-0.38409782864252107	1.4824849442674966
-0.539190713591802	-0.45795148959095294	1.3746445642076703
-0.4279789857434946	-0.5182042239077823	1.2380197313424839
-0.4926873876116436	-0.30955422644328734	1.4483406527872535
-0.3649743078487588	-0.37507409896016686	1.3266696222593408
-0.33849962304948517	-0.22271604379435264	1.3922280567505387
-1.3821108763040746	-0.5125228736214505	1.4823766299881544
-1.481501537563445	-0.58916711043091	1.4079624036039988
-1.5859263982926048	-0.6599974485604269	1.3116744349448193
-1.6866724697967022	-0.7166372946158261	1.1964809132063303
-1.7747891637054054	-0.7527246104559266	1.070642094785696
-1.8446470801188375	-0.7669142357925136	0.945114555730537
-2.2482167915631814	-0.22259994831042362	1.3919345831136944
-2.2217526703372186	-0.37489365213143566	1.326430306821258
-2.1587689833027466	-0.5179969407434651	1.2378562151289692
-2.065084005767571	-0.6342738841450201	1.1363496544415221
-1.955337121551994	-0.716075831786392	1.0354670623631992
-2.0940773921423546	-0.3094512679466289	1.4481347357626952
-2.0475837205935665	-0.4578179266046044	1.3744854929558685
-1.9715721773165897	-0.5879682882601891	1.2783998525939375
-1.876011840271348	-0.6868418159230275	1.1726530139321576
-1.9139291252780681	-0.38402137611315434	1.4823549179354543
-1.8536191172710896	-0.5205330953870443	1.4013533959735027
-1.7744118161295501	-0.633859303551536	1.3016829442118858
-1.7250077510748885	-0.4417550644680245	1.4954097758923994
-1.6597714621949717	-0.5627828381892402	1.4103750662616295
-1.5441318806699702	-0.4834328462633761	1.4932489921531795
-1.2047040785841248	-0.512532102358404	1.482388390827163
-1.1053125042253746	-0.5891905808940164	1.4079854582991078
-1.0008860622761224	-0.6600411710916839	1.3117063950680807
-0.9001369368212319	-0.7167069751897184	1.1965166217967729
-0.8120160610855689	-0.7528228223286153	1.0706735927954036
-0.7421533264929103	-0.7670385155390017	0.9451333346771342
-0.8391823862867827	-0.7955814544982589	0.8292321059706439
-1.0097115971019692	-0.8184439418000032	0.8292321059706439
-1.196803553661239	-0.8300148002853872	0.8292321059706439
-1.3900113642614824	-0.8299985054978587	0.8292321059706439
-1.5771009519996653	-0.8183917490190468	0.8292321059706439
-1.747624458023242	-0.7954863658199713	0.8292321059706439
-1.2934075233282634	-0.5931570320397921	1.4118816059339774
-1.3931540805626865	-0.6699894321252539	1.3189783413075515
-1.49705980703768	-0.7340948838599757	1.2054272395785244
-1.5956302590379214	-0.7775265718935788	1.0785964444633462
-1.6805051487250755	-0.7970941539188852	0.949674848429446
-1.1936607113886393	-0.6700030210908073	1.3189882745160513
-1.2934075233282634	-0.7399501918978949	1.2084278574975382
-1.3966249543509943	-0.7901494001863644	1.0826448431422824
-1.4936396035650483	-0.815837797965916	0.9525070799964117
-1.0897540667558578	-0.734126754730128	1.205443572162389
-1.1901898185401563	-0.7901660021534105	1.0826501676415612
-1.2934075233282634	-0.8221216364481917	0.9534565775916783
-0.9911819727105847	-0.7775802129313657	1.0786136479421562
-1.0931744183342724	-0.8158725818819191	0.9525123359263925
-0.9063045929241244	-0.7971700147705474	0.9496863111769452
-1.2047040785841248	-0.512532102358404	0.176075821114125
-1.1053125042253746	-0.5891905808940163	0.25047875364218
-1.0008860622761224	-0.6600411710916839	0.34675781687320717
-0.9001369368212319	-0.7167069751897183	0.4619475901445148
-0.8120160610855689	-0.7528228223286153	0.5877906191458843
-0.7421533264929103	-0.7670385155390017	0.7133308772641537
-0.33849962304948517	-0.22271604379435261	0.26623615519074917
-0.3649743078487588	-0.37507409896016697	0.33179458968194714
-0.4279789857434946	-0.5182042239077823	0.4204444805988038
-0.5216870144796006	-0.6344683235419624	0.5220204092896503
-0.6314519629858198	-0.7162365358705705	0.6229508656535077
-0.4926873876116436	-0.3095542264432874	0.21012355915403425
-0.539190713591802	-0.45795148959095294	0.28381964773361723
-0.6152147299859582	-0.5881065303377371	0.37995875181085453
-0.7107859247640741	-0.6869640895870965	0.4857500611770956
-0.6728648927587796	-0.3840978286425212	0.17597926767379146
-0.733180683637825	-0.5206197828161689	0.25701553725406356
-0.8123934320801782	-0.6339419064198635	0.3567196991854621
-0.8618000243070625	-0.4418040637008849	0.16298054398199358
-0.9270389927917513	-0.5628325553116175	0.2480378065951755
-1.0426812712976463	-0.4834594884291689	0.16517862556802665
-1.4371585720250803	-0.4048431262641361	0.10670832084445925
-1.5999227865169696	-0.36234827271300996	0.09800099854339928
-1.7749959822422388	-0.3075054027687024	0.10104884738038744
-1.9501914359614898	-0.23965541815767827	0.12192104834392492
-2.110468014962372	-0.16147964498207637	0.16425346840817323
-2.24344375714937	-0.07918333607409382	0.22601117488265332
-2.3661208846951065	-0.1322772782659109	0.3387208208932062
-2.3602633402210804	-0.2791454770079317	0.3979285766653427
-2.3167733996546307	-0.4267436292976049	0.4775760356493243
-2.235478360249991	-0.5568356370934445	0.5711245742098455
-2.1276382967504106	-0.6561799862333384	0.6670154860057266
-2.0097383008599676	-0.7227453351237426	0.7547852001716798
-1.5441318806699702	-0.4834328462633761	0.16521521978810838
-1.6597714621949717	-0.5627828381892404	0.24808914567965845
-1.7744118161295501	-0.633859303551536	0.35678126772940205
-1.876011840271348	-0.6868418159230275	0.48581119800913014
-1.955337121551994	-0.716075831786392	0.6229971495780887
-1.7250077510748885	-0.44175506446802454	0.16305443604888847
-1.8536191172710896	-0.5205330953870443	0.25711081596778484
-1.9715721773165897	-0.5879682882601891	0.3800643593473502
-2.065084005767571	-0.6342738841450201	0.5221145574997657
-1.9139291252780681	-0.38402137611315446	0.17610929400583375
-2.0475837205935665	-0.4578179266046044	0.28397871898541927
-2.1587689833027466	-0.5179969407434651	0.4206079968123186
-2.0940773921423546	-0.30945126794662897	0.21032947617859254
-2.2217526703372186	-0.37489365213143583	0.33203390512003006
-2.2482167915631814	-0.22259994831042357	0.26652962882759335
-1.3821108763040746	-0.5125228736214505	0.17608758195313334
-1.481501537563445	-0.5891671104309099	0.25050180833728897
-1.5859263982926048	-0.6599974485604269	0.34678977699646873
-1.6866724697967022	-0.716637294615826	0.4619832987349576
-1.7747891637054054	-0.7527246104559266	0.5878221171555919
-1.8446470801188375	-0.7669142357925136	0.7133496562107509
-0.9063045929241244	-0.7971700147705474	0.7087779007643424
-1.0931744183342724	-0.8158725818819191	0.7059518760148952
-1.2934075233282634	-0.8221216364481917	0.7050076343496096
-1.4936396035650483	-0.815837797965916	0.705957131944876
-1.6805051487250755	-0.7970941539188852	0.7087893635118416
-0.9911819727105847	-0.7775802129313656	0.5798505639991315
-1.1901898185401563	-0.7901660021534104	0.5758140442997264
-1.3966249543509943	-0.7901494001863643	0.5758193687990054
-1.5956302590379214	-0.7775265718935787	0.5798677674779416
-1.0897540667558578	-0.734126754730128	0.4530206397788987
-1.2934075233282634	-0.7399501918978949	0.4500363544437495
-1.49705980703768	-0.7340948838599757	0.45303697236276325
-1.1936607113886393	-0.6700030210908073	0.3394759374252364
-1.3931540805626865	-0.6699894321252539	0.3394858706337362
-1.2934075233282634	-0.5931570320397921	0.2465826060073103
-0.22053225635050358	0.1323793412565738	1.3201218615561328
-0.22639390291370123	0.279356401176061	1.2608615310744549
-0.26991014990275025	0.4270205929594231	1.181116406888158
-0.35124337842095255	0.557115078882728	1.0874691661338973
-0.459118419631321	0.6564202736329808	0.9915081282498774
-0.5770429342922949	0.7229348053208555	0.9036985282842512
-0.11929179510975307	0.14489701899144916	0.4710270206477014
-0.13801550490050246	0.3029780063654023	0.5483559623894849
-0.20516688033753022	0.455710685609912	0.641468971534805
-0.31387004309839	0.5810193742260776	0.739459663709771
-0.4445631314245569	0.6687963906722044	0.8292321059706439
-0.04314420899091169	0.149694017049257	0.6442001319060964
-0.08488548416129625	0.31482817105268973	0.7319448525878606
-0.1807347029543724	0.4663038526939274	0.8292321059706439
-0.31387004309839	0.5810193742260776	0.9190045482315168
-0.014352005968414638	0.13849369481039345	0.8292321059706439
-0.08488548416129625	0.31482817105268973	0.9265193593534271
-0.20516688033753022	0.45571068560991207	1.0169952404064828
-0.04314420899091169	0.14969401704925697	1.0142640800351914
-0.13801550490050246	0.3029780063654023	1.1101082495518029
-0.11929179510975307	0.14489701899144916	1.1874371912935864
-0.14030266411768505	0.	1.2454789515751146
-0.052962205993059036	0.	1.0921255339022307
-0.0013282189080576453	0.	0.8715319053809546
-0.0013282189080576453	5.180231395241213e-18	0.7869323065603332
-0.052962205993059036	3.2195159503329317e-17	0.5663386780390571
-0.14030266411768505	5.097553671246974e-17	0.41298526036617333
-0.22053225635050358	-0.13237934125657386	0.338342350385155
-0.22639390291370123	-0.2793564011760609	0.3976026808668328
-0.26991014990275025	-0.4270205929594231	0.47734780505312985
-0.35124337842095255	-0.557115078882728	0.5709950458073904
-0.459118419631321	-0.6564202736329809	0.6669560836914105
-0.5770429342922949	-0.7229348053208555	0.7547656836570367
-0.11929179510975307	-0.14489701899144916	1.1874371912935864
-0.13801550490050246	-0.3029780063654023	1.1101082495518029
-0.20516688033753022	-0.45571068560991207	1.0169952404064828
-0.31387004309839	-0.5810193742260776	0.9190045482315168
-0.4445631314245569	-0.6687963906722044	0.8292321059706439
-0.04314420899091169	-0.14969401704925697	1.0142640800351914
-0.08488548416129625	-0.31482817105268973	0.9265193593534271
-0.1807347029543724	-0.4663038526939274	0.8292321059706439
-0.31387004309839	-0.5810193742260776	0.739459663709771
-0.014352005968414638	-0.13849369481039345	0.8292321059706439
-0.08488548416129625	-0.31482817105268973	0.7319448525878606
-0.20516688033753022	-0.455710685609912	0.641468971534805
-0.04314420899091169	-0.149694017049257	0.6442001319060964
-0.13801550490050246	-0.3029780063654023	0.5483559623894849
-0.11929179510975307	-0.14489701899144916	0.4710270206477014
-2.446283949874621	0.	1.2450291848543262
-2.533504425716094	0.	1.0916075367977878
-2.584949835129923	0.	0.8709721680299503
-2.584949835129923	5.1116833397141375e-18	0.7874920439113375
-2.533504425716094	3.213172315373695e-17	0.5668566751435
-2.446283949874621	5.0920456174972125e-17	0.41343502708696145
-2.3661208846951065	0.1322772782659109	0.3387208208932062
-2.3602633402210804	0.2791454770079317	0.3979285766653427
-2.3167733996546307	0.4267436292976049	0.4775760356493243
-2.235478360249991	0.5568356370934445	0.5711245742098455
-2.1276382967504106	0.6561799862333384	0.6670154860057266
-2.0097383008599676	0.7227453351237426	0.7547852001716798
-2.4672723185688987	0.14472250478233145	1.1870057684968844
-2.4485687884805105	0.30264692886440625	1.1098013237362236
-2.381475580244922	0.45533830016831506	1.016841809161747
-2.2728356284025883	0.5806925833907564	0.9189540562639567
-2.1421896214774976	0.6685412474625909	0.8292321059706439
-2.543301931712139	0.14936347672984435	1.0138555097461817
-2.501634634676428	0.31435779550083914	0.926374005316827
-2.405888703221493	0.4658837293208028	0.8292321059706439
-2.2728356284025883	0.5806925833907564	0.7395101556773311
-2.5720107649933324	0.13794432609540075	0.8292321059706439
-2.501634634676428	0.31435779550083914	0.7320902066244608
-2.381475580244922	0.455338300168315	0.6416224027795407
-2.543301931712139	0.14936347672984437	0.6446087021951061
-2.4485687884805105	0.30264692886440625	0.5486628882050641
-2.4672723185688987	0.14472250478233145	0.4714584434444034
-2.3661208846951065	-0.13227727826591085	1.3197433910480816
-2.3602633402210804	-0.27914547700793174	1.2605356352759451
-2.3167733996546307	-0.4267436292976049	1.1808881762919636
-2.235478360249991	-0.5568356370934445	1.0873396377314422
-2.1276382967504106	-0.6561799862333383	0.9914487259355613
-2.0097383008599676	-0.7227453351237426	0.9036790117696081
-2.4672723185688987	-0.14472250478233145	0.4714584434444034
-2.4485687884805105	-0.30264692886440625	0.5486628882050641
-2.381475580244922	-0.455338300168315	0.6416224027795407
-2.2728356284025883	-0.5806925833907564	0.7395101556773311
-2.1421896214774976	-0.6685412474625909	0.8292321059706439
-2.543301931712139	-0.14936347672984437	0.6446087021951061
-2.501634634676428	-0.31435779550083914	0.7320902066244608
-2.405888703221493	-0.4658837293208028	0.8292321059706439
-2.2728356284025883	-0.5806925833907564	0.9189540562639567
-2.5720107649933324	-0.13794432609540075	0.8292321059706439
-2.501634634676428	-0.31435779550083914	0.926374005316827
-2.381475580244922	-0.45533830016831506	1.016841809161747
-2.543301931712139	-0.14936347672984435	1.0138555097461817
-2.4485687884805105	-0.30264692886440625	1.1098013237362236
-2.4672723185688987	-0.14472250478233145	1.1870057684968844
3	39	253
39	19	253
253	19	254
19	20	254
254	20	255
20	21	255
255	21	256
21	22	256
256	22	257
22	23	257
257	23	258
23	18	258
258	18	5
39	38	19
38	24	19
19	24	20
24	25	20
20	25	21
25	26	21
21	26	22
26	27	22
22	27	23
27	17	23
23	17	18
38	37	24
37	28	24
24	28	25
28	29	25
25	29	26
29	30	26
26	30	27
30	16	27
27	16	17
37	36	28
36	31	28
28	31	29
31	32	29
29	32	30
32	15	30
30	15	16
36	35	31
35	33	31
31	33	32
33	14	32
32	14	15
35	34	33
34	13	33
33	13	14
34	1	13
1	34	82
34	46	82
82	46	83
46	47	83
83	47	84
47	48	84
84	48	85
48	49	85
85	49	86
49	50	86
86	50	87
50	45	87
87	45	6
34	35	46
35	51	46
46	51	47
51	52	47
47	52	48
52	53	48