# TIME=0.000000
VARIABLES=X,Y,Z
ZONE N=642 E=1280 F=FEPOINT ET=TRIANGLE
-1.2934075904838365	0.4371212197632264	1.5397309623322022
-1.2934075904838365	0.4371212197632265	0.12517697794141036
-1.2934075904838365	-0.4371212197632264	1.5397309623322022
-1.2934075904838365	-0.4371212197632265	0.12517697794141036
-0.2437674127787279	0.	1.3629020360059043
-2.3429008042559865	0.	1.3625257753498556
-0.2437674127787279	6.496115259804954e-17	0.3020059042677081
-2.3429008042559865	6.491507395724205e-17	0.3023821649237567
-0.6918959098583373	0.7630798045457229	0.8324539701368062
-0.6918959098583373	-0.7630798045457229	0.8324539701368062
-1.8949000151551527	0.7629361790208853	0.8324539701368062
-1.8949000151551527	-0.7629361790208853	0.8324539701368062
-1.1688335018456237	0.40940102538418616	1.5533646392845242
-1.0292919955438105	0.37408665497713134	1.5624345020403034
-0.8785580304047483	0.32967055514702925	1.5636744752405414
-0.7237409413860055	0.2752204598373466	1.5529905019413734
-0.5745446543156214	0.21139676816061567	1.5268288987433993
-0.44086920954568737	0.14113604818341421	1.484225216892006
-0.32977672858496454	0.06908561358841708	1.4278362228836254
-1.1607349601444072	-0.3115087242591846	1.6004001415274218
-1.0133139607837838	-0.2647093682179879	1.6072717240808394
-0.8567917704995972	-0.20853361415977542	1.6033449362642402
-0.7003549770489882	-0.14357147954005228	1.5842040401359418
-0.5549065545732055	-0.07253169486722302	1.5471886528703536
-0.4297501113119647	0.	1.493440726730801
-1.1543673185733747	-0.1959116431151321	1.6374050452236806
-1.002212909381295	-0.13768740323519194	1.6384898594406474
-0.8445404116341302	-0.07153171834926285	1.625752571796921
-0.6918959098583373	0.	1.595533774682529
-0.5549065545732055	0.07253169486722302	1.5471886528703536
-1.1508192987384227	-0.06697739903872663	1.6580328834539384
-0.9982086450285431	0.	1.649764611149644
-0.8445404116341302	0.07153171834926285	1.625752571796921
-0.7003549770489882	0.14357147954005228	1.5842040401359418
-1.1508192987384227	0.06697739903872663	1.6580328834539384
-1.002212909381295	0.13768740323519194	1.6384898594406474
-0.8567917704995972	0.20853361415977542	1.6033449362642402
-1.1543673185733747	0.1959116431151321	1.6374050452236806
-1.0133139607837838	0.2647093682179879	1.6072717240808394
-1.1607349601444072	0.3115087242591846	1.6004001415274218
-1.2934075904838365	0.34966282202187243	1.5868090691133805
-1.2934075904838365	0.2454799909702333	1.6268438482756904
-1.2934075904838365	0.12696015524907694	1.6541575805921744
-1.2934075904838365	0.	1.6639079402736123
-1.2934075904838365	-0.12696015524907694	1.6541575805921744
-1.2934075904838365	-0.2454799909702333	1.6268438482756904
-1.2934075904838365	-0.34966282202187243	1.5868090691133805
-1.4179811502331263	-0.40939052277534566	1.553346145332879
-1.5575209679196576	-0.3740647623021195	1.5623917813863124
-1.7082505531726642	-0.3296360196158655	1.5635978742576897
-1.8630579843786	-0.27517332571501174	1.55286710320475
-2.012236053700807	-0.21134098378907673	1.5266456638276447
-2.1458823861797107	-0.14108164980830806	1.483974003277761
-2.2569359874196877	-0.06904862734925081	1.4275174741709535
-1.4260796337939279	0.3115001883218504	1.600379098327394
-1.5734986926753418	0.26469274865649595	1.6072230777809617
-1.7300157971671866	0.2085100945337779	1.6032579907265567
-1.886441944467538	0.14354511582353766	1.5840659979161442
-2.0318706984298096	0.07251146524139926	1.546989308084306
-2.156998404904976	0.	1.4931776631505658
-1.4324472312964514	0.19590600880844755	1.6373818952916448
-1.5845994949370308	0.1376783352292897	1.6384367744232105
-1.7422667111111334	0.0715233163981093	1.625659392767322
-1.8949000151551527	0.	1.5953901491576916
-2.0318706984298096	-0.07251146524139926	1.546989308084306
-1.4359952262841298	0.06697542221489747	1.6580085166661545
-1.588603665681334	0.	1.6497098638665797
-1.7422667111111334	-0.0715233163981093	1.625659392767322
-1.886441944467538	-0.14354511582353766	1.5840659979161442
-1.4359952262841298	-0.06697542221489747	1.6580085166661545
-1.5845994949370308	-0.1376783352292897	1.6384367744232105
-1.7300157971671866	-0.2085100945337779	1.6032579907265567
-1.4324472312964514	-0.19590600880844755	1.6373818952916448
-1.5734986926753418	-0.26469274865649595	1.6072230777809617
-1.4260796337939279	-0.3115001883218504	1.600379098327394
-1.2165075860959198	0.5029223339224468	1.4934188754965052
-1.1310372679542906	0.5702575860232888	1.4318624481506648
-1.0403155483203084	0.6347001261261453	1.3535397116663144
-0.9497114340031232	0.6906644753844734	1.259308095707966
-0.8655352440743798	0.7329055589051593	1.1532423561938532
-0.7931149204162681	0.7584344122502041	1.042080099179964
-0.7352348874852973	0.7675214660478867	0.9332045305611948
-0.3219618743356353	0.1929918018001435	1.394027264608381
-0.33698530648039765	0.3258351766285952	1.3415081305269816
-0.38001170618163976	0.45628822601811897	1.2703422971935283
-0.4501455449844286	0.5713497606499959	1.1855674952315445
-0.5397751389786268	0.6619097834146865	1.0959047256789325
-0.6380152018221116	0.7260330801599428	1.0099608057589227
-0.4489227725801421	0.2698880624909432	1.446825332975155
-0.48011901222523456	0.40236038887740005	1.3885022871254835
-0.5363476619158111	0.5259196705326323	1.3109515558304288
-0.6133477492103191	0.6290200837376874	1.2212097792043752
-0.7021443745928226	0.7061062587274398	1.1288924534751406
-0.5987275645429393	0.3396630572486889	1.4836859916835432
-0.6434406146601159	0.4658050200695082	1.4191184978373061
-0.7072371478097462	0.5779927593212767	1.3368555019175035
-0.7840058644261169	0.6677621324593414	1.245153642928622
-0.7611435693213038	0.39794637989393095	1.50340081566282
-0.814070240137773	0.5137105059505134	1.4339167493269176
-0.8789480856368667	0.6130345105459741	1.3498048456112683
-0.9242014461252704	0.44351556249501045	1.5086588783380237
-0.9794925350472001	0.5474544273397725	1.4366808417529797
-1.0779797731858705	0.4777285035285966	1.503967697227734
-1.4179811502331263	0.40939052277534566	1.553346145332879
-1.5575209679196576	0.3740647623021195	1.5623917813863124
-1.7082505531726642	0.3296360196158655	1.5635978742576897
-1.8630579843786	0.27517332571501174	1.55286710320475
-2.012236053700807	0.21134098378907673	1.5266456638276447
-2.1458823861797107	0.14108164980830806	1.483974003277761
-2.2569359874196877	0.06904862734925081	1.4275174741709535
-2.3636339575564906	0.11496433986141111	1.3298172096736538
-2.364000835091619	0.24215425244212413	1.2814325820502996
-2.3368125262923027	0.373062421597394	1.2167294575273677
-2.279488494796512	0.49561048218772125	1.1387580839886733
-2.196490309617988	0.5984958421043926	1.0543884830488781
-2.097797815946446	0.6760492185345922	0.97172771738563
-1.9944617263462936	0.7292308182109432	0.896838165120145
-1.5088339823669992	0.4777064354870407	1.5039366775319751
-1.6073193350683779	0.5474148436231921	1.4366371531023052
-1.7078605148692678	0.612970376337687	1.3497507215966582
-1.8027976762237872	0.6676669791266056	1.2450948349379076
-1.884652724247997	0.7059772817618201	1.1288383061912137
-1.948774774873387	0.7258732091097618	1.0099217191043324
-1.6626088235134078	0.4434759828624562	1.5085985333488932
-1.7727351388539172	0.5136439252620412	1.4338387952935367
-1.879560316664629	0.5778887872736588	1.3367647678049477
-1.973438805870275	0.6288714588088888	1.221117923942617
-2.0469994330056425	0.6617170444856704	1.0958280124806326
-1.825658487326737	0.3978855110310658	1.5032981893453221
-1.9433499330402992	0.4657040626312426	1.4189913456056082
-2.0504264063563813	0.5257649915644689	1.3108108242378096
-2.136608654532182	0.571135264210738	1.185434929159056
-1.988056949525229	0.3395793702240371	1.4835255395263887
-2.1066429176762687	0.40222166711951385	1.3883105783933751
-2.206720667639914	0.4560783409283486	1.2701408757550756
-2.1378310900182718	0.269786388901247	1.4465938839021955
-2.249730504914187	0.32566452970780524	1.341241527866444
-2.2647473698369818	0.19288597784094846	1.393719334899218
-1.3703073319271435	0.5029144887242764	1.493408564956852
-1.455777094517418	0.5702382927877715	1.4318421686678122
-1.5464975916905919	0.634664767439494	1.3535106823551564
-1.637099765818324	0.6906084117654054	1.259273446485447
-1.7212728533005983	0.7328252715696446	1.1532072149065924
-1.793689174505686	0.7583293625696382	1.0420510641605363
-1.851565108434174	0.7673944485381812	0.933187857300768
-0.8755953634224725	0.7948200466741602	0.9367879650105285
-1.0340993391538353	0.8136917531426382	0.9392651975646401
-1.2054196442547735	0.8231998899364592	0.9405132910712837
-1.3813952290761278	0.8231851899854901	0.9405113614467309
-1.552713703074957	0.813645138452104	0.9392590785738886
-1.7112132056952536	0.7947359149758246	0.9367769212576444
-0.9454099142040705	0.7820749626351368	1.0486141982716366
-1.114592729418679	0.7965738783254087	1.0526215634518028
-1.2934075904838365	0.8014062654393934	1.0539572481503416
-1.4722214469851858	0.796543876660649	1.0526132711960494
-1.6414010425598677	0.7820104510924752	1.0485963677177317
-1.027401357903202	0.751271945805304	1.1612812354356694
-1.2030612132218415	0.7605365233581456	1.1653363050137564
-1.3837536496876361	0.7605225754127408	1.1653302000806067
-1.5594115729390048	0.7512276098199882	1.1612618298384192
-1.1169246427481194	0.7031249640921441	1.2670091118240883
-1.2934075904838365	0.707276992195396	1.2695751899000327
-1.469889561619216	0.703098868499047	1.266992983860021
-1.2076025704781712	0.6417470811546933	1.3593252143865158
-1.3792124218407815	0.6417359050420388	1.3593160388521768
-1.2934075904838365	0.5730962614553772	1.4348461841984812
-1.2934075904838365	0.34966282202187243	0.07809887116023184
-1.2934075904838365	0.24547999097023324	0.038064091997922045
-1.2934075904838365	0.1269601552490771	0.010750359681438226
-1.2934075904838365	1.0182374431663987e-16	0.0010000000000000009
-1.2934075904838365	-0.1269601552490771	0.010750359681438226
-1.2934075904838365	-0.24547999097023324	0.038064091997922045
-1.2934075904838365	-0.34966282202187243	0.07809887116023184
-1.1688335018456237	-0.40940102538418616	0.11154330098908827
-1.0292919955438105	-0.37408665497713134	0.10247343823330901
-0.8785580304047483	-0.3296705551470292	0.10123346503307107
-0.7237409413860055	-0.2752204598373465	0.111917438332239
-0.5745446543156214	-0.21139676816061562	0.1380790415302129
-0.44086920954568737	-0.14113604818341424	0.1806827233816065
-0.32977672858496454	-0.06908561358841714	0.2370717173899871
-1.1607349601444072	0.31150872425918474	0.06450779874619073
-1.0133139607837838	0.264709368217988	0.05763621619277315
-0.8567917704995972	0.20853361415977537	0.0615630040093722
-0.7003549770489882	0.14357147954005217	0.0807039001376707
-0.5549065545732055	0.07253169486722291	0.11771928740325888
-0.4297501113119647	8.094753157416262e-17	0.17146721354281158
-1.1543673185733747	0.19591164311513207	0.027502895049931975
-1.002212909381295	0.1376874032351919	0.02641808083296504
-0.8445404116341302	0.071531718349263	0.03915536847669143
-0.6918959098583373	9.345032401309074e-17	0.06937416559108334
-0.5549065545732055	-0.07253169486722291	0.11771928740325888
-1.1508192987384227	0.06697739903872663	0.00687505681967393
-0.9982086450285431	1.0009168604254434e-16	0.015143329123968319
-0.8445404116341302	-0.071531718349263	0.03915536847669143
-0.7003549770489882	-0.14357147954005217	0.0807039001376707
-1.1508192987384227	-0.06697739903872663	0.00687505681967393
-1.002212909381295	-0.1376874032351919	0.02641808083296504
-0.8567917704995972	-0.20853361415977537	0.0615630040093722
-1.1543673185733747	-0.19591164311513207	0.027502895049931975
-1.0133139607837838	-0.264709368217988	0.05763621619277315
-1.1607349601444072	-0.31150872425918474	0.06450779874619073
-1.4179811502331263	0.40939052277534566	0.1115617949407336
-1.5575209679196576	0.3740647623021195	0.10251615888730004
-1.7082505531726642	0.3296360196158655	0.10131006601592274
-1.8630579843786	0.27517332571501163	0.11204083706886236
-2.012236053700807	0.2113409837890767	0.13826227644596756
-2.1458823861797107	0.14108164980830806	0.18093393699585147
-2.2569359874196877	0.06904862734925088	0.2373904661026589
-1.4260796337939279	-0.31150018832185056	0.06452884194621855
-1.5734986926753418	-0.26469274865649606	0.05768486249265081
-1.7300157971671866	-0.2085100945337778	0.061649949547055716
-1.886441944467538	-0.14354511582353754	0.08084194235746811
-2.0318706984298096	-0.07251146524139915	0.11791863218930643
-2.156998404904976	8.09153155770119e-17	0.17173027712304667
-1.4324472312964514	-0.19590600880844752	0.027526044981967535
-1.5845994949370308	-0.13767833522928968	0.0264711658504021
-1.7422667111111334	-0.07152331639810945	0.039248547506290365
-1.8949000151551527	9.343273495916392e-17	0.06951779111592093
-2.0318706984298096	0.07251146524139915	0.11791863218930643
-1.4359952262841298	-0.06697542221489747	0.006899423607457877
-1.588603665681334	1.0008498143404765e-16	0.015198076407032746
-1.7422667111111334	0.07152331639810945	0.039248547506290365
-1.886441944467538	0.14354511582353754	0.08084194235746811
-1.4359952262841298	0.06697542221489747	0.006899423607457877
-1.5845994949370308	0.13767833522928968	0.0264711658504021
-1.7300157971671866	0.2085100945337778	0.061649949547055716
-1.4324472312964514	0.19590600880844752	0.027526044981967535
-1.5734986926753418	0.26469274865649606	0.05768486249265081
-1.4260796337939279	0.31150018832185056	0.06452884194621855
-1.1688335018456237	0.40940102538418616	0.11154330098908827
-1.0292919955438105	0.37408665497713134	0.10247343823330901
-0.8785580304047483	0.3296705551470292	0.10123346503307107
-0.7237409413860055	0.2752204598373465	0.111917438332239
-0.5745446543156214	0.21139676816061562	0.1380790415302129
-0.44086920954568737	0.14113604818341424	0.1806827233816065
-0.32977672858496454	0.06908561358841714	0.2370717173899871
-0.22302090716828166	0.11505225066019416	0.33471040745170466
-0.22265393830422958	0.2423397429367118	0.3831314399813526
-0.24985937845389206	0.3733215991784565	0.4479115151142408
-0.30721397243669313	0.49589528450413867	0.5259738387786749
-0.3902456813658024	0.598763165199133	0.6104203283475599
-0.48896601047337424	0.6762764925502204	0.6931334018830305
-0.592321844296581	0.7294138479836308	0.7680536153529239
-1.0779797731858705	0.47772850352859647	0.1609402430458784
-0.9794925350472001	0.5474544273397725	0.2282270985206325
-0.8789480856368667	0.613034510545974	0.315103094662344
-0.7840058644261169	0.6677621324593414	0.4197542973449903
-0.7021443745928226	0.7061062587274397	0.5360154867984718
-0.6380152018221116	0.7260330801599428	0.6549471345146898
-0.9242014461252704	0.44351556249501045	0.15624906193558885
-0.814070240137773	0.5137105059505135	0.23099119094669485
-0.7072371478097462	0.5779927593212766	0.32805243835610887
-0.6133477492103191	0.6290200837376874	0.4436981610692373
-0.5397751389786268	0.6619097834146865	0.5690032145946798
-0.7611435693213038	0.3979463798939307	0.16150712461079253
-0.6434406146601159	0.4658050200695082	0.24578944243630607
-0.5363476619158111	0.5259196705326323	0.3539563844431835
-0.4501455449844286	0.5713497606499959	0.479340445042068
-0.5987275645429393	0.33966305724868895	0.18122194859006924
-0.48011901222523456	0.40236038887739994	0.2764056531481289
-0.38001170618163976	0.456288226018119	0.394565643080084
-0.4489227725801421	0.2698880624909433	0.21808260729845763
-0.33698530648039765	0.3258351766285951	0.32339980974663074
-0.3219618743356353	0.19299180180014347	0.27088067566523144
-1.3703073319271435	0.5029144887242762	0.17149937531676018
-1.455777094517418	0.5702382927877716	0.23306577160580022
-1.5464975916905919	0.6346647674394941	0.3113972579184562
-1.637099765818324	0.6906084117654055	0.4056344937881655
-1.7212728533005983	0.7328252715696445	0.51170072536702
-1.793689174505686	0.7583293625696382	0.622856876113076
-1.851565108434174	0.7673944485381812	0.7317200829728445
-2.2647473698369818	0.19288597784094844	0.2711886053743945
-2.249730504914187	0.32566452970780513	0.3236664124071683
-2.206720667639914	0.4560783409283487	0.39476706451853694
-2.136608654532182	0.571135264210738	0.47947301111455654
-2.0469994330056425	0.6617170444856704	0.5690799277929797
-1.948774774873387	0.7258732091097618	0.65498622116928
-2.1378310900182718	0.26978638890124707	0.218314056371417
-2.1066429176762687	0.4022216671195138	0.2765973618802372
-2.0504264063563813	0.5257649915644689	0.35409711603580263
-1.973438805870275	0.6288714588088887	0.44379001633099524
-1.884652724247997	0.70597728176182	0.5360696340823987
-1.988056949525229	0.33957937022403717	0.18138240074722367
-1.9433499330402992	0.4657040626312426	0.24591659466800397
-1.879560316664629	0.5778887872736587	0.32814317246866487
-1.8027976762237872	0.6676669791266056	0.41981310533570476
-1.825658487326737	0.3978855110310656	0.16160975092829033
-1.7727351388539172	0.5136439252620413	0.2310691449800757
-1.7078605148692678	0.6129703763376869	0.315157218676954
-1.6626088235134078	0.4434759828624562	0.1563094069247194
-1.6073193350683779	0.5474148436231921	0.2282707871713071
-1.5088339823669992	0.4777064354870406	0.1609712627416372
-1.2165075860959198	0.5029223339224467	0.17148906477710724
-1.1310372679542906	0.5702575860232889	0.23304549212294756
-1.0403155483203084	0.6347001261261455	0.3113682286072983
-0.9497114340031232	0.6906644753844735	0.40559984456564646
-0.8655352440743798	0.7329055589051592	0.5116655840797592
-0.7931149204162681	0.758434412250204	0.6228278410936484
-0.7352348874852973	0.7675214660478867	0.7317034097124178
-0.8197582570660477	0.7920566101920972	0.8324539701368062
-0.9654488930593991	0.8137829165750164	0.8324539701368062
-1.1254161657023003	0.8270400053765717	0.8324539701368062
-1.2934075904838365	0.8314539701368062	0.8324539701368062
-1.4613981374050846	0.8270109567174835	0.8324539701368062
-1.6213627451215686	0.8137207318472865	0.8324539701368062
-1.7670474666688867	0.79195581705143	0.8324539701368062
-1.2934075904838365	0.5730962614553772	0.23006175607513113
-1.3792124218407815	0.6417359050420388	0.3055919014214358
-1.469889561619216	0.703098868499047	0.3979149564135916
-1.5594115729390048	0.7512276098199882	0.5036461104351933
-1.6414010425598677	0.7820104510924751	0.6163115725558808
-1.7112132056952536	0.7947359149758246	0.7281310190159682
-1.2076025704781712	0.6417470811546933	0.3055827258870968
-1.2934075904838365	0.707276992195396	0.39533275037357984
-1.3837536496876361	0.7605225754127408	0.4995777401930056
-1.4722214469851858	0.796543876660649	0.612294669077563
-1.552713703074957	0.813645138452104	0.725648861699724
-1.1169246427481194	0.7031249640921441	0.39789882844952423
-1.2030612132218415	0.7605365233581456	0.4995716352598558
-1.2934075904838365	0.8014062654393934	0.6109506921232709
-1.3813952290761278	0.8231851899854901	0.7243965788268816
-1.027401357903202	0.751271945805304	0.5036267048379429
-1.114592729418679	0.7965738783254087	0.6122863768218096
-1.2054196442547735	0.8231998899364592	0.7243946492023288
-0.9454099142040705	0.7820749626351367	0.6162937420019758
-1.0340993391538353	0.8136917531426382	0.7256427427089724
-0.8755953634224725	0.7948200466741602	0.728119975263084
-1.1688335018456237	-0.40940102538418616	1.5533646392845242
-1.0292919955438105	-0.37408665497713134	1.5624345020403034
-0.8785580304047483	-0.32967055514702925	1.5636744752405414
-0.7237409413860055	-0.2752204598373466	1.5529905019413734
-0.5745446543156214	-0.21139676816061567	1.5268288987433993
-0.44086920954568737	-0.14113604818341421	1.484225216892006
-0.32977672858496454	-0.06908561358841708	1.4278362228836254
-0.22302090716828166	-0.11505225066019424	1.3301975328219078
-0.22265393830422958	-0.24233974293671176	1.2817765002922599
-0.24985937845389206	-0.37332159917845653	1.2169964251593717
-0.30721397243669313	-0.4958952845041386	1.1389341014949377
-0.3902456813658024	-0.598763165199133	1.0544876119260524
-0.48896601047337424	-0.6762764925502204	0.971774538390582
-0.592321844296581	-0.7294138479836308	0.8968543249206886
-1.0779797731858705	-0.4777285035285966	1.503967697227734
-0.9794925350472001	-0.5474544273397725	1.4366808417529797
-0.8789480856368667	-0.6130345105459741	1.3498048456112683
-0.7840058644261169	-0.6677621324593414	1.245153642928622
-0.7021443745928226	-0.7061062587274398	1.1288924534751406
-0.6380152018221116	-0.7260330801599428	1.0099608057589227
-0.9242014461252704	-0.44351556249501045	1.5086588783380237
-0.814070240137773	-0.5137105059505134	1.4339167493269176
-0.7072371478097462	-0.5779927593212767	1.3368555019175035
-0.6133477492103191	-0.6290200837376874	1.2212097792043752
-0.5397751389786268	-0.6619097834146865	1.0959047256789325
-0.7611435693213038	-0.39794637989393095	1.50340081566282
-0.6434406146601159	-0.4658050200695082	1.4191184978373061
-0.5363476619158111	-0.5259196705326323	1.3109515558304288
-0.4501455449844286	-0.5713497606499959	1.1855674952315445
-0.5987275645429393	-0.3396630572486889	1.4836859916835432
-0.48011901222523456	-0.40236038887740005	1.3885022871254835
-0.38001170618163976	-0.45628822601811897	1.2703422971935283
-0.4489227725801421	-0.2698880624909432	1.446825332975155
-0.33698530648039765	-0.3258351766285952	1.3415081305269816
-0.3219618743356353	-0.1929918018001435	1.394027264608381
-1.3703073319271435	-0.5029144887242764	1.493408564956852
-1.455777094517418	-0.5702382927877715	1.4318421686678122
-1.5464975916905919	-0.634664767439494	1.3535106823551564
-1.637099765818324	-0.6906084117654054	1.259273446485447
-1.7212728533005983	-0.7328252715696446	1.1532072149065924
-1.793689174505686	-0.7583293625696382	1.0420510641605363
-1.851565108434174	-0.7673944485381812	0.933187857300768
-2.2647473698369818	-0.19288597784094846	1.393719334899218
-2.249730504914187	-0.32566452970780524	1.341241527866444
-2.206720667639914	-0.4560783409283486	1.2701408757550756
-2.136608654532182	-0.571135264210738	1.185434929159056
-2.0469994330056425	-0.6617170444856704	1.0958280124806326
-1.948774774873387	-0.7258732091097618	1.0099217191043324
-2.1378310900182718	-0.269786388901247	1.4465938839021955
-2.1066429176762687	-0.40222166711951385	1.3883105783933751
-2.0504264063563813	-0.5257649915644689	1.3108108242378096
-1.973438805870275	-0.6288714588088888	1.221117923942617
-1.884652724247997	-0.7059772817618201	1.1288383061912137
-1.988056949525229	-0.3395793702240371	1.4835255395263887
-1.9433499330402992	-0.4657040626312426	1.4189913456056082
-1.879560316664629	-0.5778887872736588	1.3367647678049477
-1.8027976762237872	-0.6676669791266056	1.2450948349379076
-1.825658487326737	-0.3978855110310658	1.5032981893453221
-1.7727351388539172	-0.5136439252620412	1.4338387952935367
-1.7078605148692678	-0.612970376337687	1.3497507215966582
-1.6626088235134078	-0.4434759828624562	1.5085985333488932
-1.6073193350683779	-0.5474148436231921	1.4366371531023052
-1.5088339823669992	-0.4777064354870407	1.5039366775319751
-1.2165075860959198	-0.5029223339224468	1.4934188754965052
-1.1310372679542906	-0.5702575860232888	1.4318624481506648
-1.0403155483203084	-0.6347001261261453	1.3535397116663144
-0.9497114340031232	-0.6906644753844734	1.259308095707966
-0.8655352440743798	-0.7329055589051593	1.1532423561938532
-0.7931149204162681	-0.7584344122502041	1.042080099179964
-0.7352348874852973	-0.7675214660478867	0.9332045305611948
-0.8197582570660477	-0.7920566101920972	0.8324539701368062
-0.9654488930593991	-0.8137829165750164	0.8324539701368062
-1.1254161657023003	-0.8270400053765717	0.8324539701368062
-1.2934075904838365	-0.8314539701368062	0.8324539701368062
-1.4613981374050846	-0.8270109567174835	0.8324539701368062
-1.6213627451215686	-0.8137207318472865	0.8324539701368062
-1.7670474666688867	-0.79195581705143	0.8324539701368062
-1.2934075904838365	-0.5730962614553772	1.4348461841984812
-1.3792124218407815	-0.6417359050420388	1.3593160388521768
-1.469889561619216	-0.703098868499047	1.266992983860021
-1.5594115729390048	-0.7512276098199882	1.1612618298384192
-1.6414010425598677	-0.7820104510924752	1.0485963677177317
-1.7112132056952536	-0.7947359149758246	0.9367769212576444
-1.2076025704781712	-0.6417470811546933	1.3593252143865158
-1.2934075904838365	-0.707276992195396	1.2695751899000327
-1.3837536496876361	-0.7605225754127408	1.1653302000806067
-1.4722214469851858	-0.796543876660649	1.0526132711960494
-1.552713703074957	-0.813645138452104	0.9392590785738886
-1.1169246427481194	-0.7031249640921441	1.2670091118240883
-1.2030612132218415	-0.7605365233581456	1.1653363050137564
-1.2934075904838365	-0.8014062654393934	1.0539572481503416
-1.3813952290761278	-0.8231851899854901	0.9405113614467309
-1.027401357903202	-0.751271945805304	1.1612812354356694
-1.114592729418679	-0.7965738783254087	1.0526215634518028
-1.2054196442547735	-0.8231998899364592	0.9405132910712837
-0.9454099142040705	-0.7820749626351368	1.0486141982716366
-1.0340993391538353	-0.8136917531426382	0.9392651975646401
-0.8755953634224725	-0.7948200466741602	0.9367879650105285
-1.2165075860959198	-0.5029223339224467	0.17148906477710724
-1.1310372679542906	-0.5702575860232889	0.23304549212294756
-1.0403155483203084	-0.6347001261261455	0.3113682286072983
-0.9497114340031232	-0.6906644753844735	0.40559984456564646
-0.8655352440743798	-0.7329055589051592	0.5116655840797592
-0.7931149204162681	-0.758434412250204	0.6228278410936484
-0.7352348874852973	-0.7675214660478867	0.7317034097124178
-0.3219618743356353	-0.19299180180014347	0.27088067566523144
-0.33698530648039765	-0.3258351766285951	0.32339980974663074
-0.38001170618163976	-0.456288226018119	0.394565643080084
-0.4501455449844286	-0.5713497606499959	0.479340445042068
-0.5397751389786268	-0.6619097834146865	0.5690032145946798
-0.6380152018221116	-0.7260330801599428	0.6549471345146898
-0.4489227725801421	-0.2698880624909433	0.21808260729845763
-0.48011901222523456	-0.40236038887739994	0.2764056531481289
-0.5363476619158111	-0.5259196705326323	0.3539563844431835
-0.6133477492103191	-0.6290200837376874	0.4436981610692373
-0.7021443745928226	-0.7061062587274397	0.5360154867984718
-0.5987275645429393	-0.33966305724868895	0.18122194859006924
-0.6434406146601159	-0.4658050200695082	0.24578944243630607
-0.7072371478097462	-0.5779927593212766	0.32805243835610887
-0.7840058644261169	-0.6677621324593414	0.4197542973449903
-0.7611435693213038	-0.3979463798939307	0.16150712461079253
-0.814070240137773	-0.5137105059505135	0.23099119094669485
-0.8789480856368667	-0.613034510545974	0.315103094662344
-0.9242014461252704	-0.44351556249501045	0.15624906193558885
-0.9794925350472001	-0.5474544273397725	0.2282270985206325
-1.0779797731858705	-0.47772850352859647	0.1609402430458784
-1.4179811502331263	-0.40939052277534566	0.1115617949407336
-1.5575209679196576	-0.3740647623021195	0.10251615888730004
-1.7082505531726642	-0.3296360196158655	0.10131006601592274
-1.8630579843786	-0.27517332571501163	0.11204083706886236
-2.012236053700807	-0.2113409837890767	0.13826227644596756
-2.1458823861797107	-0.14108164980830806	0.18093393699585147
-2.2569359874196877	-0.06904862734925088	0.2373904661026589
-2.3636339575564906	-0.11496433986141104	0.33509073059995875
-2.364000835091619	-0.24215425244212418	0.38347535822331286
-2.3368125262923027	-0.37306242159739395	0.4481784827462447
-2.279488494796512	-0.49561048218772136	0.5261498562849393
-2.196490309617988	-0.5984958421043926	0.6105194572247342
-2.097797815946446	-0.6760492185345923	0.6931802228879825
-1.9944617263462936	-0.7292308182109432	0.7680697751534675
-1.5088339823669992	-0.4777064354870406	0.1609712627416372
-1.6073193350683779	-0.5474148436231921	0.2282707871713071
-1.7078605148692678	-0.6129703763376869	0.315157218676954
-1.8027976762237872	-0.6676669791266056	0.41981310533570476
-1.884652724247997	-0.70597728176182	0.5360696340823987
-1.948774774873387	-0.7258732091097618	0.65498622116928
-1.6626088235134078	-0.4434759828624562	0.1563094069247194
-1.7727351388539172	-0.5136439252620413	0.2310691449800757
-1.879560316664629	-0.5778887872736587	0.32814317246866487
-1.973438805870275	-0.6288714588088887	0.44379001633099524
-2.0469994330056425	-0.6617170444856704	0.5690799277929797
-1.825658487326737	-0.3978855110310656	0.16160975092829033
-1.9433499330402992	-0.4657040626312426	0.24591659466800397
-2.0504264063563813	-0.5257649915644689	0.35409711603580263
-2.136608654532182	-0.571135264210738	0.47947301111455654
-1.988056949525229	-0.33957937022403717	0.18138240074722367
-2.1066429176762687	-0.4022216671195138	0.2765973618802372
-2.206720667639914	-0.4560783409283487	0.39476706451853694
-2.1378310900182718	-0.26978638890124707	0.218314056371417
-2.249730504914187	-0.32566452970780513	0.3236664124071683
-2.2647473698369818	-0.19288597784094844	0.2711886053743945
-1.3703073319271435	-0.5029144887242762	0.17149937531676018
-1.455777094517418	-0.5702382927877716	0.23306577160580022
-1.5464975916905919	-0.6346647674394941	0.3113972579184562
-1.637099765818324	-0.6906084117654055	0.4056344937881655
-1.7212728533005983	-0.7328252715696445	0.51170072536702
-1.793689174505686	-0.7583293625696382	0.622856876113076
-1.851565108434174	-0.7673944485381812	0.7317200829728445
-0.8755953634224725	-0.7948200466741602	0.728119975263084
-1.0340993391538353	-0.8136917531426382	0.7256427427089724
-1.2054196442547735	-0.8231998899364592	0.7243946492023288
-1.3813952290761278	-0.8231851899854901	0.7243965788268816
-1.552713703074957	-0.813645138452104	0.725648861699724
-1.7112132056952536	-0.7947359149758246	0.7281310190159682
-0.9454099142040705	-0.7820749626351367	0.6162937420019758
-1.114592729418679	-0.7965738783254087	0.6122863768218096
-1.2934075904838365	-0.8014062654393934	0.6109506921232709