# TIME = 0.000000
VARIABLES = X, Y, Z
ZONE N=2562 E=5120 F=FEPOINT ET=TRIANGLE
0.41948464318110534	0.25925578944719513	-1.7566839704435226
-0.41948464318110534	0.25925578944719513	-1.7566839704435226
0.41948464318110534	-0.25925578944719513	-1.7566839704435226
-0.41948464318110534	-0.25925578944719513	-1.7566839704435226
0.5561818603874096	0.	-0.41262959187219406
0.5561814282455464	0.	-3.10073985627418
-0.5561818603874096	6.811263350672612e-17	-0.41262959187219406
-0.5561814282455464	6.811258058461116e-17	-3.10073985627418
3.6056135410236735e-17	0.5888413775357992	-1.0245212367264465
3.6056135410236735e-17	-0.5888413775357992	-1.0245212367264465
3.605580635367117e-17	0.5888360036342661	-2.4888471742303153
3.605580635367117e-17	-0.5888360036342661	-2.4888471742303153
0.4252562714716682	0.25242248533936157	-1.68323122920634
0.4339301301686956	0.24642646099812848	-1.6050245220312203
0.4458606432959405	0.24116175435707443	-1.522379918203937
0.46114726171875925	0.23632005480337254	-1.435784412991819
0.4795269011589234	0.2313671875254707	-1.3458699014793756
0.5003062976824589	0.2255629489438947	-1.2533779762599653
0.52236194375402	0.21803128462042504	-1.1591391800078454
0.5442194939742945	0.20787337545303614	-1.0640745735771355
0.5642085742438606	0.19430356972355736	-0.9692178519487715
0.580666244743921	0.1767790601700096	-0.8757333117942184
0.5921512293958057	0.1550932425709756	-0.7849009979024929
0.5976234202559352	0.1294107914565324	-0.6980514531826564
0.5965511044884305	0.1002376515410098	-0.6164570507759145
0.5889280566599526	0.06833671231382758	-0.5412087026772238
0.5752077464455733	0.03461349445594199	-0.47311197469450433
0.43983865858016563	-0.22626780579124547	-1.6807339247132829
0.44904361313520436	-0.21857941441721396	-1.5999238007998082
0.46172879247978943	-0.21132242370133208	-1.514668251412125
0.47792121916291064	-0.2040967339090373	-1.4255736771604828
0.4972154394431848	-0.1962832237393374	-1.3334016796693853
0.5187168922521509	-0.18709065689958043	-1.2390263783567534
0.5410744425274918	-0.175654722411605	-1.143408094673703
0.5626071247546611	-0.16117260648676365	-1.0475931065180812
0.5815082741772377	-0.14304374785080062	-0.9527305880171755
0.5960864688663405	-0.12098242985044383	-0.860074666228696
0.6049916756354563	-0.09507378879229589	-0.7709479515398987
0.6073772154450292	-0.06576146017518597	-0.6866541480267225
0.602965679479605	-0.0337718158341743	-0.6083605312118614
0.5920149876086178	0.	-0.5369835288160362
0.4536086592678982	-0.1974513293514834	-1.6783775741135734
0.46314333047214223	-0.18786886503567138	-1.5951805541557504
0.4763209925486425	-0.17836437908943573	-1.507624582332763
0.49306667700750656	-0.16845170487909975	-1.4164509923487731
0.5128050457809362	-0.15745135772737684	-1.3225612961029676
0.5344278139519354	-0.1445679931059855	-1.226964556275987
0.556370118546683	-0.12901451308213144	-1.1307447612068902
0.5767914818020541	-0.11015736132784121	-1.035056049611178
0.5938255878769527	-0.08764418137439266	-0.941128871820807
0.60584375864573	-0.06148140051742662	-0.850255943704017
0.611671849477014	-0.0320411731579263	-0.7637347894014321
0.6107140880672877	0.	-0.6827699405792645
0.602965679479605	0.0337718158341743	-0.6083605312118614
0.4661279123474271	-0.16600975557852027	-1.6762368904487603
0.4757212850508368	-0.15437678939973945	-1.590962057438447
0.4890378620118444	-0.14243166764583423	-1.501523928656579
0.5058730219833466	-0.129620166527375	-1.408808490946049
0.5254652230388738	-0.1152418302476623	-1.3138579910183907
0.5465008395179595	-0.0985558727943731	-1.2178078692017693
0.5672432918898286	-0.07892151049070524	-1.1218456329312647
0.5857670298326408	-0.05593580549200441	-1.0271991842094186
0.6002396176170316	-0.029530314576439422	-0.9351309059519568
0.6091857199700527	0.	-0.846908320976511
0.611671849477014	0.0320411731579263	-0.7637347894014321
0.6073772154450292	0.06576146017518597	-0.6866541480267225
0.4769255830128092	-0.13210969776074571	-1.674391946305426
0.48624413195605787	-0.1183436760990123	-1.5874421602911952
0.49926749451719343	-0.10386500737792984	-1.4966421341265435
0.5156417852808506	-0.08808214788308212	-1.4030220848812471
0.5344209718324003	-0.07032358037048388	-1.3077545344285044
0.5541202244485492	-0.04996498825440081	-1.21207793107677
0.5728999622430941	-0.0265695177029924	-1.1172487426364313
0.5888413775357992	0.	-1.0245212367264465
0.6002396176170316	0.029530314576439422	-0.9351309059519568
0.60584375864573	0.06148140051742662	-0.850255943704017
0.6049916756354563	0.09507378879229589	-0.7709479515398987
0.4855349799230028	-0.09606752185691667	-1.672921756368575
0.49420202056911855	-0.08018699879624205	-1.5847862187730315
0.5064517003740581	-0.06321572363015164	-1.4932273429539875
0.5217752121655357	-0.044564932048065976	-1.3994080544794512
0.539066003047444	-0.02364491550725055	-1.3046059178479843
0.5567265283684084	0.	-1.2101265401718582
0.5728999622430941	0.0265695177029924	-1.1172487426364313
0.5857670298326408	0.05593580549200441	-1.0271991842094186
0.5938255878769527	0.08764418137439266	-0.941128871820807
0.5960864688663405	0.12098242985044383	-0.860074666228696
0.49154050891455076	-0.05835343283748378	-1.6718967869681312
0.4991681079637082	-0.04049640760985974	-1.5831311616075499
0.510160986320411	-0.021226227737206085	-1.4914687573684455
0.5238676552363163	0.	-1.3981784950334573
0.539066003047444	0.02364491550725055	-1.3046059178479843
0.5541202244485492	0.04996498825440081	-1.21207793107677
0.5672432918898286	0.07892151049070524	-1.1218456329312647
0.5767914818020541	0.11015736132784121	-1.035056049611178
0.5815082741772377	0.14304374785080062	-0.9527305880171755
0.4946280534464964	-0.01957331693639185	-1.6713698593490944
0.5008569720117245	0.	-1.5825687543562492
0.510160986320411	0.021226227737206085	-1.4914687573684455
0.5217752121655357	0.044564932048065976	-1.3994080544794512
0.5344209718324003	0.07032358037048388	-1.3077545344285044
0.5465008395179595	0.0985558727943731	-1.2178078692017693
0.556370118546683	0.12901451308213144	-1.1307447612068902
0.5626071247546611	0.16117260648676365	-1.0475931065180812
0.4946280534464964	0.01957331693639185	-1.6713698593490944
0.4991681079637082	0.04049640760985974	-1.5831311616075499
0.5064517003740581	0.06321572363015164	-1.4932273429539875
0.5156417852808506	0.08808214788308212	-1.4030220848812471
0.5254652230388738	0.1152418302476623	-1.3138579910183907
0.5344278139519354	0.1445679931059855	-1.226964556275987
0.5410744425274918	0.175654722411605	-1.143408094673703
0.49154050891455076	0.05835343283748378	-1.6718967869681312
0.49420202056911855	0.08018699879624205	-1.5847862187730315
0.49926749451719343	0.10386500737792984	-1.4966421341265435
0.5058730219833466	0.129620166527375	-1.408808490946049
0.5128050457809362	0.15745135772737684	-1.3225612961029676
0.5187168922521509	0.18709065689958043	-1.2390263783567534
0.4855349799230028	0.09606752185691667	-1.672921756368575
0.48624413195605787	0.1183436760990123	-1.5874421602911952
0.4890378620118444	0.14243166764583423	-1.501523928656579
0.49306667700750656	0.16845170487909975	-1.4164509923487731
0.4972154394431848	0.1962832237393374	-1.3334016796693853
0.4769255830128092	0.13210969776074571	-1.674391946305426
0.4757212850508368	0.15437678939973945	-1.590962057438447
0.4763209925486425	0.17836437908943573	-1.507624582332763
0.47792121916291064	0.2040967339090373	-1.4255736771604828
0.4661279123474271	0.16600975557852027	-1.6762368904487603
0.46314333047214223	0.18786886503567138	-1.5951805541557504
0.46172879247978943	0.21132242370133208	-1.514668251412125
0.4536086592678982	0.1974513293514834	-1.6783775741135734
0.44904361313520436	0.21857941441721396	-1.5999238007998082
0.43983865858016563	0.22626780579124547	-1.6807339247132829
0.4337695902358446	0.23457381101328234	-1.7566839704435226
0.4474065879157382	0.20738436613270644	-1.7566839704435226
0.46000856504839394	0.17768807024892	-1.7566839704435226
0.4711511468901731	0.1455937052579613	-1.7566839704435226
0.48040043605121346	0.11133890276301289	-1.7566839704435226
0.48735086571192265	0.0752998268026372	-1.7566839704435226
0.491668773408747	0.037983515916853325	-1.7566839704435226
0.4931337853226725	0.	-1.7566839704435226
0.491668773408747	-0.037983515916853325	-1.7566839704435226
0.48735086571192265	-0.0752998268026372	-1.7566839704435226
0.48040043605121346	-0.11133890276301289	-1.7566839704435226
0.4711511468901731	-0.1455937052579613	-1.7566839704435226
0.46000856504839394	-0.17768807024892	-1.7566839704435226
0.4474065879157382	-0.20738436613270644	-1.7566839704435226
0.4337695902358446	-0.23457381101328234	-1.7566839704435226
0.42525559427536225	-0.2524220833709813	-1.8301365944936656
0.43392874578860907	-0.24642567481652533	-1.908343348088981
0.44585855214259495	-0.24116062327224555	-1.9909881589192393
0.461144431827636	-0.23631860459412085	-2.0775836310866262
0.4795233407858429	-0.23136546967918475	-2.1674982893762764
0.50030218839999	-0.22556109627508752	-2.259990284264778
0.5223573146663488	-0.21802935246218946	-2.35422916963107
0.5442145349408718	-0.20787148127058222	-2.449293828467489
0.5642034642455062	-0.19430180992945487	-2.5441505461927547
0.5806612019109042	-0.17677752492099286	-2.63763512481808
0.5921464821132232	-0.15509199918683217	-2.7284674026242945
0.5976192000158547	-0.12940987759574574	-2.8153169503260305
0.5965476327231866	-0.10023706818512941	-2.8969114026619005
0.5889255176634064	-0.06833641769944372	-2.9721598893877355
0.5752062229883568	-0.0346134027809285	-3.0402569131416524
0.4398379390220102	0.2262674356263184	-1.8326340337018479
0.4490421582159318	0.218578706211166	-1.9134442025244245
0.46172656836621084	0.21132140577678488	-1.9986998320804776
0.47791823555202934	0.2040954597550309	-2.087794514871415
0.49721166848682213	0.19628173509797045	-2.1799665328704574
0.5187125471984021	0.18708908972686583	-2.2743419071930098
0.5410696167235629	0.17565315575980459	-2.369960267658546
0.5626019978266165	0.16117113775250866	-2.4657753200257315
0.5815030331336295	0.14304245861975498	-2.560637828913177
0.5960813517225034	0.12098139126874866	-2.6532936931202764
0.6049869157586786	0.09507304078279813	-2.7424204025448944
0.6073730158527088	0.06576100548028449	-2.826714268215655
0.6029622252258983	0.03377162236309626	-2.9050081470892897
0.5920125024708437	0.	-2.97638506191699
0.453607896227695	0.19745099720768636	-1.834990385011573
0.46314179877707506	0.1878682437208539	-1.9181874488786608
0.47631862459150137	0.1783634923781385	-2.005743374296999
0.49306347374847603	0.1684506105150512	-2.096917102611439
0.5128011268214949	0.1574501544523896	-2.1908069092573212
0.5344232765582153	0.14456676569624577	-2.2864037448910612
0.5563651350996041	0.12901335748987922	-2.382623611121821
0.5767862245534491	0.11015635728278778	-2.478312382189455
0.593820260563462	0.087643395103071	-2.572239591738072
0.6058386056771744	0.06148087759098049	-2.6631126089518253
0.6116670875864969	0.032040923716074844	-2.749633725113223
0.6107098922124428	0.	-2.830598657503556
0.6029622252258983	-0.03377162236309626	-2.9050081470892897
0.4661271047775578	0.16600946796545726	-1.8371309354965595
0.47571967636832746	0.15437626736457147	-1.9224059478153934
0.48903537697498567	0.14243094388194713	-2.0118440360818677
0.5058696715812836	0.1296193080517211	-2.1045597701248937
0.5254611885668558	0.11524094543184757	-2.199510205858086
0.5464961706539233	0.09855503081218978	-2.295560439859385
0.5672381962463922	0.07892080152528831	-2.391522746695832
0.5857617094777716	0.05593529744303621	-2.4861693886741874
0.6002342453996523	0.0295300502765423	-2.5782375627889387
0.6091805378784148	0.	-2.6664600807766674
0.6116670875864969	-0.032040923716074844	-2.749633725113223
0.6073730158527088	-0.06576100548028449	-2.826714268215655
0.47692474120938716	0.13210946457888337	-1.838975879916675
0.4862424400996172	0.11834326432949681	-1.9259257150637517
0.499264913051952	0.1038644703433556	-2.016725837633111
0.5156383025212268	0.08808155295660992	-2.110346050776565
0.5344168640354616	0.07032303983221276	-2.2056138061808017
0.554115476496191	0.049964560131814134	-2.3012903819630552
0.5728948088155188	0.026569278701256995	-2.39611964119056
0.5888360036342661	0.	-2.4888471742303153
0.6002342453996523	-0.0295300502765423	-2.5782375627889387
0.6058386056771744	-0.06148087759098049	-2.6631126089518253
0.6049869157586786	-0.09507304078279813	-2.7424204025448944
0.48553411060228174	0.09606734985388737	-1.8404460700429701
0.49420028165362245	0.08018671664762875	-1.9285817948112622
0.5064490502506138	0.06321539283953308	-2.020140633878299
0.5217716652658743	0.044564629106610146	-2.113960083915442
0.5390618128320185	0.023644731712893025	-2.208762289913074
0.5567217536649114	0.	-2.303241774132998
0.5728948088155188	-0.026569278701256995	-2.39611964119056
0.5857617094777716	-0.05593529744303621	-2.4861693886741874
0.593820260563462	-0.087643395103071	-2.572239591738072
0.5960813517225034	-0.12098139126874866	-2.6532936931202764
0.49153962599925854	0.058353328021833246	-1.8414711732084497
0.4991663200766773	0.04049626256252836	-1.9302367206783404
0.5101583174725687	0.021226116694665367	-2.0218993572321837
0.5238640873319867	0.	-2.1151896437008277
0.5390618128320185	-0.023644731712893025	-2.208762289913074
0.554115476496191	-0.049964560131814134	-2.3012903819630552
0.5672381962463922	-0.07892080152528831	-2.391522746695832
0.5767862245534491	-0.11015635728278778	-2.478312382189455
0.5815030331336295	-0.14304245861975498	-2.560637828913177
0.49462715469759133	0.019573281371289865	-1.8419979672611875
0.5008551711955632	0.	-1.9307991289126534
0.5101583174725687	-0.021226116694665367	-2.0218993572321837
0.5217716652658743	-0.044564629106610146	-2.113960083915442
0.5344168640354616	-0.07032303983221276	-2.2056138061808017
0.5464961706539233	-0.09855503081218978	-2.295560439859385
0.5563651350996041	-0.12901335748987922	-2.382623611121821
0.5626019978266165	-0.16117113775250866	-2.4657753200257315
0.49462715469759133	-0.019573281371289865	-1.8419979672611875
0.4991663200766773	-0.04049626256252836	-1.9302367206783404
0.5064490502506138	-0.06321539283953308	-2.020140633878299
0.5156383025212268	-0.08808155295660992	-2.110346050776565
0.5254611885668558	-0.11524094543184757	-2.199510205858086
0.5344232765582153	-0.14456676569624577	-2.2864037448910612
0.5410696167235629	-0.17565315575980459	-2.369960267658546
0.49153962599925854	-0.058353328021833246	-1.8414711732084497
0.49420028165362245	-0.08018671664762875	-1.9285817948112622
0.499264913051952	-0.1038644703433556	-2.016725837633111
0.5058696715812836	-0.1296193080517211	-2.1045597701248937
0.5128011268214949	-0.1574501544523896	-2.1908069092573212
0.5187125471984021	-0.18708908972686583	-2.2743419071930098
0.48553411060228174	-0.09606734985388737	-1.8404460700429701
0.4862424400996172	-0.11834326432949681	-1.9259257150637517
0.48903537697498567	-0.14243094388194713	-2.0118440360818677
0.49306347374847603	-0.1684506105150512	-2.096917102611439
0.49721166848682213	-0.19628173509797045	-2.1799665328704574
0.47692474120938716	-0.13210946457888337	-1.838975879916675
0.47571967636832746	-0.15437626736457147	-1.9224059478153934
0.47631862459150137	-0.1783634923781385	-2.005743374296999
0.47791823555202934	-0.2040954597550309	-2.087794514871415
0.4661271047775578	-0.16600946796545726	-1.8371309354965595
0.46314179877707506	-0.1878682437208539	-1.9181874488786608
0.46172656836621084	-0.21132140577678488	-1.9986998320804776
0.453607896227695	-0.19745099720768636	-1.834990385011573
0.4490421582159318	-0.218578706211166	-1.9134442025244245
0.4398379390220102	-0.2262674356263184	-1.8326340337018479
0.4073348478997578	0.2789024357071497	-1.7112951485270298
0.3942488270436587	0.29998043907005045	-1.6630214161857475
0.3800418200716858	0.322580718859156	-1.6121437373391558
0.3644432909854376	0.34671940363938386	-1.5591047233308564
0.3470971205026745	0.3722892545458884	-1.5045128367127891
0.32758760713830093	0.3990128895682009	-1.4491271174749778
0.3054957956514358	0.4264146128471111	-1.3938205218565833
0.2804806929615285	0.45382723889878235	-1.3395247694348162
0.25236652880901844	0.48044227899737035	-1.28716276514823
0.22121022479787147	0.5053992016816388	-1.237579731837071
0.1873270599245068	0.5278939570323283	-1.191480689665382
0.15126418544540277	0.5472790334066575	-1.1493878135914328
0.11373247978970628	0.5631312316101856	-1.1116173122958557
0.07551491001360246	0.575275373040963	-1.0782836548447003
0.03737768375035777	0.5837661694549088	-1.0493211168916587
0.5640766960816264	0.0945556069664816	-0.4586971383301071
0.546998112971344	0.15851110863456544	-0.4509108506693067
0.5233454024533402	0.22497506075649631	-0.4513824362063982
0.4928761016034948	0.29187096690604414	-0.4615253983241402
0.4558801367082319	0.3566892780141596	-0.4822896735113063
0.41325683035885563	0.41676627593526044	-0.5139350106801748
0.36647394866516286	0.46966404131827033	-0.555906697303026
0.3173936437674962	0.513553727791654	-0.6068693703100498
0.26800292863511027	0.5474828675354204	-0.6648995551769185
0.22012686410775237	0.571446906259801	-0.7277846581142713
0.17520792583513864	0.5862590506151948	-0.7933307457631988
0.13419715476144028	0.5932879602828885	-0.859600651051332
0.09756029678832775	0.5941589528699883	-0.9250460979478727
0.06536092083444664	0.5904992029855276	-0.9885367692326522
0.576824594101309	0.12853915351882164	-0.5320230355457094
0.5584397457694826	0.1919149344600213	-0.5298017632945381
0.5332230832598666	0.2567257636033579	-0.5359800142066611
0.5010767259083222	0.32072892387939383	-0.5516842857840073
0.46249098124633453	0.38138171302530044	-0.5775037384713266
0.41858431600717433	0.4361730785562902	-0.61331625956055
0.3710080298351991	0.48301173524822333	-0.6582392144889863
0.32172181744319195	0.520556829537124	-0.7107352374135708
0.2727001591506858	0.5483858483261739	-0.7688477936751186
0.22565749620778955	0.5669556505793989	-0.8304918237571327
0.18186660929675527	0.5773931463415246	-0.8937147990515082
0.14209803016785552	0.5812050198153088	-0.9568704994865105
0.10666265062739376	0.579998961819218	-1.0186914926581803
0.5829837111925845	0.15973786703919707	-0.6128222791046384
0.5629143932089324	0.2214173359405026	-0.6163014801620998
0.5359313102868573	0.2833735661867797	-0.6280698955848777
0.5021337359931567	0.34331198388571443	-0.6489193141562964
0.4622369454742693	0.3988054741590598	-0.6790693621061827
0.41756133424873537	0.44764705632615803	-0.7180616441619638
0.3698816662038917	0.4882037562173496	-0.7647818409732173
0.3211673415277067	0.519659701535196	-0.8176161192948596
0.27328868454699473	0.5420740801946583	-0.8746947813532768
0.2277774056069663	0.5562504115322845	-0.9341471417827544
0.18569625535569295	0.5634844814170752	-0.9943012564916428
0.1476252473291649	0.5652834865635564	-1.0537967878811259
0.5822014510941945	0.18720253256356398	-0.7000359710194903
0.5602241702132688	0.24610170204929738	-0.7090666731374481
0.5314739220360313	0.3041418953770508	-0.7260159019974449
0.4962791221482729	0.3591110023122447	-0.7513294716759766
0.45557291659764126	0.40884045298077015	-0.7848945252924222
0.4108253068405312	0.451540642686958	-0.8259979426580975
0.36384782375216623	0.48608371014964796	-0.8734061519581781
0.3165217142339748	0.5121428112041454	-0.9255415639288075
0.27053049220887043	0.5301517623859563	-0.9807056981158009
0.22717236315982972	0.5411168372747386	-1.0372818433300248
0.1872837857469165	0.5463607148841704	-1.0938768397012655
0.5746642910200122	0.2102328222542703	-0.7923145751213344
0.5507765394661914	0.2654293824122603	-0.8064840788887856
0.5204996958785886	0.31876955776309684	-0.8279691962769653
0.48439118688950955	0.36825310549450635	-0.8568990677465895
0.4435582998582853	0.4120783373189443	-0.8928954240673611
0.3995394019802907	0.44892517907228774	-0.9350886632568693
0.35408460736481184	0.4781462435193028	-0.9822276510044932
0.308898297766288	0.49980793387470873	-1.0328506040869379
0.2654188805709842	0.514580520040566	-1.0854709506343865
0.22468888404333026	0.5235310965574143	-1.1387279514692126
0.5611394233172278	0.2284975711469093	-0.8881588122735239
0.5355881957181021	0.279346709462494	-0.9068539294110332
0.504256886547707	0.3275789039439482	-0.9320883421206276
0.4678956903626135	0.3715039277553789	-0.9637289586875557
0.42771203737953395	0.4097397039931294	-1.0012157272243063
0.3852180801099169	0.4414206432185001	-1.0436116023139799
0.34201257887500813	0.466296567706541	-1.0897214343769754
0.2995601636679977	0.4846985485288393	-1.1382413123885402
0.2590279023741574	0.49739542221719607	-1.1879025382066941
0.5429152149888732	0.2420989150515334	-0.986073483404868
0.5161736488325831	0.2883072967378469	-1.0085638492134603
0.4844294536711471	0.33143238717442736	-1.0367124456762684
0.44855908155424734	0.37014338330899105	-1.070192534656472
0.40978157196385256	0.40346972627776	-1.108337916168827
0.369495004496404	0.4309294474787413	-1.1502119130401416
0.3290818615241642	0.45255333291584504	-1.194718300506888
0.28973831521732496	0.46880643512155856	-1.2407229274731724
0.5216436100106485	0.25156027141030934	-1.0846835342554042
0.49433915666487566	0.2931982996987029	-1.1101975546987477
0.4628931511031693	0.3315863681951909	-1.1404479344418337
0.4282267896028252	0.36574934358564404	-1.1749781196431817
0.3914869245570989	0.3950692599911349	-1.2130767790105088
0.3538928086250161	0.41934506741614513	-1.2538509607522088
0.31657992658942813	0.43876793580046947	-1.296322502470102
0.4991187621115607	0.257736621468703	-1.182786846924947
0.47193070891417876	0.29518896135052963	-1.210563557091026
0.4414524122531337	0.3294809766002704	-1.2421603813442663
0.40857149092591816	0.35994552591476464	-1.2770445349357797
0.3742993290916563	0.3862287848174955	-1.314502844708961
0.33964380280375633	0.4083023643963706	-1.3537123707504675
0.47704061835399386	0.2616706894743761	-1.2793492354688356
0.45059384078373743	0.29553968301467837	-1.3086627149111854
0.42161675145913613	0.3265186174665866	-1.3409160954714867
0.3909028880460028	0.35417408518733856	-1.3755423237400897
0.35929473642159787	0.37832209568705727	-1.4118581254348062
0.4568143836076402	0.2644279443777662	-1.3734678348776888
0.43159394922730987	0.29541736568117233	-1.40363783953458
0.40445632607457377	0.32387968649954124	-1.4359235832748858
0.37606783032845637	0.34953601953171654	-1.469758492129944
0.43942092302712044	0.26694949707733534	-1.4643449085548554
0.4157232160117404	0.29575393249825205	-1.4947454459414746
0.39055349584868193	0.3224087663929738	-1.5265114836785687
0.42537370915399403	0.2699491253028619	-1.5512878046655656
0.40330110142973036	0.297172220202792	-1.5813635330256708
0.41475937456035944	0.27387092484729036	-1.6337364138025154
0.42525559427536225	0.2524220833709813	-1.8301365944936656
0.43392874578860907	0.24642567481652533	-1.908343348088981
0.44585855214259495	0.24116062327224555	-1.9909881589192393
0.461144431827636	0.23631860459412085	-2.0775836310866262
0.4795233407858429	0.23136546967918475	-2.1674982893762764
0.50030218839999	0.22556109627508752	-2.259990284264778
0.5223573146663488	0.21802935246218946	-2.35422916963107
0.5442145349408718	0.20787148127058222	-2.449293828467489
0.5642034642455062	0.19430180992945487	-2.5441505461927547
0.5806612019109042	0.17677752492099286	-2.63763512481808
0.5921464821132232	0.15509199918683217	-2.7284674026242945
0.5976192000158547	0.12940987759574574	-2.8153169503260305
0.5965476327231866	0.10023706818512941	-2.8969114026619005
0.5889255176634064	0.06833641769944372	-2.9721598893877355
0.5752062229883568	0.0346134027809285	-3.0402569131416524
0.5455114318832538	0.058843704646277285	-3.11985323474739
0.5292882964289207	0.12234372071173531	-3.1328081317951257
0.5068663588734529	0.1892601002091316	-3.137859295834964
0.47791770927499555	0.25776234955981775	-3.1333792990908034
0.4425764696494707	0.32550177044536843	-3.118107420859728
0.4015367267727085	0.3898200077610784	-3.091404324206419
0.3560551277440697	0.44808509319255	-3.053439670855004
0.3078322479393184	0.49808303838624846	-3.0052387351430596
0.2587840276575581	0.5383559641403022	-2.9485567112477598
0.2107666913718456	0.5683793306483277	-2.885609985669002
0.16533392161668303	0.5885349194853405	-2.818749853086421
0.12358887039591666	0.5999130246431444	-2.750166302683882
0.08614832089606526	0.6040273060917165	-2.6816945793146183
0.053198048780381105	0.6025336975971598	-2.614731833734684
0.024598291974844616	0.5970125915610557	-2.5502477648048005
0.41475831261677026	0.27387022363234326	-1.8796314289995844
0.40329963946815117	0.2971711429571142	-1.9320043523719994
0.3905516888868104	0.32240727471423036	-1.9868565913319658
0.37606566835227223	0.3495340100842478	-2.043609550815195
0.35929236421092675	0.378319597849985	-2.1015099890137594
0.3396413396754477	0.40829940334981557	-2.1596559355733578
0.31657742536476113	0.4387644691966455	-2.2170457286406173
0.2897358943142733	0.46880251801819395	-2.2726453549890095
0.25902565174689135	0.4973911004754494	-2.3254657923071482
0.22468688717903668	0.5235264438103158	-2.3746405618308346
0.18728209097449028	0.5463557707451426	-2.4194915615945143
0.1476239018877732	0.5652783346277281	-2.4595716294294236
0.10666168112375125	0.5799936899541103	-2.494677062829433
0.06536032737324349	0.5904938413969362	-2.5248316870317913
0.4253719332428256	0.2699479982805372	-1.9620801038178628
0.4157210521327855	0.2957523930708501	-2.018622528625043
0.4044538444594901	0.3238776992770317	-2.077444460970129
0.39090015679003987	0.354171610557164	-2.137825803362335
0.3742964736656733	0.38622583838499663	-2.198865491522517
0.3538899032111623	0.41934162464777375	-2.2595172993434427
0.3290790321904132	0.4525494420164408	-2.318650168214065
0.29955748713577807	0.48469421780853905	-2.3751270541162355
0.265416473395174	0.5145758531314991	-2.4278974521431738
0.22717029284065024	0.5411119058449161	-2.476086589592644
0.18569457421691704	0.5634793800992833	-2.519067350007148
0.142096752357025	0.5811997933525058	-2.556498062029914
0.0975594269884552	0.5941536556394704	-2.588322331046133
0.43941834600393664	0.26694793152820734	-2.0490231497599165
0.4315910552733393	0.2954153848279654	-2.1097304320699894
0.4216135902925701	0.3265161693197017	-2.172452107074409
0.40856819989603316	0.35994262656542414	-2.236323865257773
0.391483571746319	0.39506587650016595	-2.3002915333684704
0.36949171738414066	0.4309256138315899	-2.363156443737271
0.34200948060941094	0.4662923435618661	-2.4236469681292983
0.3088954817226766	0.4998033774205317	-2.480517825443541
0.2705280485081061	0.5301469735273829	-2.5326629058012484
0.22777536772975074	0.5562454348751977	-2.5792213254956495
0.18186501211986436	0.5773880755976762	-2.6196536468840645
0.13419600314253408	0.5932828689556313	-2.6537677074790325
0.45681118276500193	0.2644260915634296	-2.1399002926751236
0.45059038198698287	0.29553741442686393	-2.204705624231524
0.44144873178601635	0.3294782296588867	-2.2712078983418893
0.42822302942907386	0.3657461320138445	-2.338390218821973
0.40977789555359667	0.40346610649507303	-2.40503062474248
0.38521456986835007	0.44141662083956645	-2.4697568285257026
0.35408139546676315	0.47814190625935254	-2.5311407986027508
0.3165188917269985	0.512138244292643	-2.5878268678351652
0.2732863129105602	0.5420693760019438	-2.6386736494202787
0.22565560426636014	0.5669508971504104	-2.6828768011701083
0.1752065086271955	0.5862543085295882	-2.7200376421779913
0.477036781881849	0.2616685850575347	-2.2340191641804013
0.47192668458739384	0.29518644416565193	-2.3028049002538427
0.4628890183172982	0.33158340773778455	-2.372920430291296
0.4485549969341658	0.37014001274944003	-2.4431758628001865
0.42770815920100846	0.4097359887745192	-2.512152860501955
0.3995358261113055	0.44892116120166825	-2.5782798054364924
0.36384466916145647	0.4860794957636984	-2.6399622713093143
0.3211646791129553	0.5196553936574133	-2.695752275116103
0.2726980211913004	0.5483815490009557	-2.7445207343114038
0.22012523309728624	0.5714426721746577	-2.7855837097553153
0.4991144058541151	0.25773437196986326	-2.3305814872543027
0.4943347237930948	0.2931956705109248	-2.4031709844875366
0.4844250387313586	0.3314293666024488	-2.4766559870640017
0.46789145783743075	0.37150056717787816	-2.5496394290981557
0.44355441783374167	0.41207473080719625	-2.6204731933527645
0.41082187085737354	0.45153686617655947	-2.687370492961094
0.3698787813548894	0.4881999485289787	-2.748586493151248
0.3217195067745641	0.5205530907967907	-2.8026330898963
0.2680011649195822	0.5474792645746627	-2.848468832128778
0.5216389009555875	0.25155800048980637	-2.4286850191243423
0.5161689415577304	0.28830466750311	-2.5048045608522016
0.5042523785815866	0.3275759754473027	-2.5812801199065025
0.48438704840899877	0.36824995925993115	-2.6564694607134594
0.45556926429319705	0.408837175328063	-2.7284738752267854
0.41755829794583993	0.44764380125452713	-2.7953066808616325
0.37100561757701733	0.48300859475282554	-2.855129204870625
0.3173918336418152	0.5135507989466392	-2.9064993109144903
0.5429102875970091	0.24209671780932798	-2.527294972472265
0.5355834598828745	0.2793442393931423	-2.6065144476971054
0.5204953340309044	0.3187668864373145	-2.685399246941025
0.4962753152976339	0.35910824764881516	-2.7620388866219505
0.46223380606741604	0.39880276556414773	-2.834299029706155
0.4185819010433821	0.4361705621165872	-2.900052202969266
0.366472237944725	0.46966184890083557	-2.957461883309999
0.5611345106560802	0.2284955706973001	-2.62520965479724
0.5507720345992296	0.26542721143370573	-2.7068844519439104
0.5314699945110158	0.30413964780693903	-2.7873526440858925
0.5021305378185194	0.34330979727366095	-2.864449125760209