# TIME=0.000000
VARIABLES=X,Y,Z
ZONE N=5762 E=11520 F=FEPOINT ET=TRIANGLE
-1.6453126203981836	0.3020848439241476	0.48878355396182
-1.6453126203981836	0.3020848439241475	-0.48878355396182
-1.6453126203981836	-0.3020848439241476	0.48878355396182
-1.6453126203981836	-0.3020848439241475	-0.48878355396182
-0.37063139437488424	0.	0.5505417392659785
-2.9199617634647823	0.	0.5503856728365323
-0.37063139437488424	6.742191787890972e-17	-0.5505417392659785
-2.9199617634647823	6.740280525358217e-17	-0.5503856728365323
-0.9462592786167945	0.6322856128811652	3.8716327598092073e-17
-0.9462592786167945	-0.6322856128811652	3.8716327598092073e-17
-2.3443658091106694	0.6323012507496228	3.871728514136968e-17
-2.3443658091106694	-0.6323012507496228	3.871728514136968e-17
-1.599346132855713	0.2965121562760515	0.492658616443887
-1.5513276004456593	0.29105481948430734	0.4973961546245437
-1.5013025637438886	0.28569630628754616	0.5030801545166825
-1.4493492716956116	0.2803939408904021	0.5097656909346711
-1.3955785908225344	0.27507377363669155	0.517466497326217
-1.340134518905826	0.2696275960273599	0.5261425148107104
-1.2831924656114666	0.26391263668968373	0.5356895066855468
-1.2249571481798276	0.2577542418641523	0.5459322836026678
-1.1656617170813643	0.25095340287457335	0.556623122496742
-1.1055661172033957	0.24329710405775595	0.5674466798803731
-1.0449581676361661	0.2345727765637436	0.5780313574695863
-0.9841536097878663	0.22458348423244956	0.5879672250333651
-0.9234960104407994	0.2131643904809803	0.5968287744058047
-0.8633545279336318	0.20019681293762506	0.6042007856932511
-0.8041190580637851	0.18561938946253756	0.6097042462205253
-0.7461905070574252	0.16943458144020884	0.6130199690079551
-0.6899678848344662	0.15170922987577035	0.613907355132367
-0.6358338372277899	0.1325707428918084	0.6122160655149917
-0.5841377875770982	0.11219757811467773	0.6078904346470333
-0.5351823974209047	0.09080735580156671	0.6009661403369903
-0.48921094317677083	0.06864219740595595	0.5915606021969325
-0.44640095403854146	0.04595471356974655	0.5798587776742614
-0.4068606047124081	0.022995184826294254	0.5660962102937279
-1.5982954386980104	-0.27693170045489207	0.503946869910751
-1.5491846430846257	-0.2706902948699645	0.5088537568970782
-1.4980400363029593	-0.26448258650749934	0.514748776366824
-1.4449572951625815	-0.25825393190483664	0.5216827025807504
-1.390068155657809	-0.25191736535498016	0.529658476839911
-1.3335400857385722	-0.24535179308292265	0.5386178893736137
-1.2755734880396317	-0.2384029812074189	0.5484313225500019
-1.2163997093406502	-0.23088876791098192	0.5588917100322381
-1.1562787174835465	-0.222608475126694	0.5697152156358068
-1.095498159859097	-0.21335563433123625	0.5805490632563711
-1.034372620464643	-0.20293339425706572	0.5909871076894816
-0.9732434454111377	-0.1911712390102557	0.600591309805172
-0.9124774057269509	-0.1779401109896962	0.6089184970570263
-0.8524628143562434	-0.16316547815603555	0.6155485496758204
-0.7936021189247803	-0.14683507476730462	0.6201117575134065
-0.73630056317716	-0.12900204320856856	0.6223118382348055
-0.6809524563442756	-0.10978204175511715	0.6219424998079084
-0.6279250604864061	-0.0893448034466875	0.618896087350125
-0.5775431780834863	-0.06790257590422481	0.6131637364864836
-0.5300759233388418	-0.045695454989681326	0.6048280320838827
-0.48572779429241214	-0.022977013724675074	0.5940497396730832
-0.4446341421176519	0.	0.5810509146177127
-1.597275153801222	-0.2560090232189257	0.5149121074571372
-1.547114007160649	-0.248925418528084	0.519932595937674
-1.4949058217560351	-0.2418033554987076	0.5259750744862104
-1.4407665496558038	-0.23457582567895283	0.5330835647021471
-1.3848508708045961	-0.22714346303199923	0.5412472461720906
-1.3273515424235096	-0.21937367971745764	0.5503868134123865
-1.2684958194690104	-0.21110399507422847	0.5603443850020438
-1.208542583881145	-0.20214946443236376	0.570879217045824
-1.1477792819734314	-0.19231393154187976	0.5816711432222776
-1.0865200666826988	-0.1814049522563946	0.5923320577622845
-1.0251050579551175	-0.16924998699358546	0.6024255166456635
-0.9638977756985657	-0.15571292665648825	0.6114925162764815
-0.9032838683521498	-0.14070769368285824	0.6190811987021838
-0.8436639134125569	-0.12420870037398113	0.624776963784326
-0.7854453466802915	-0.10625523891947353	0.6282297914432637
-0.7290292821760562	-0.08694993072674387	0.6291757625290147
-0.6747958771542888	-0.06645256848319915	0.6274503743823194
-0.6230881887503686	-0.04496815546264834	0.6229931407552293
-0.5741986900735327	-0.022733081350148274	0.6158433945249645
-0.5283579187671288	0.	0.6061289832836807
-0.48572779429241214	0.022977013724675074	0.5940497396730832
-1.5962975804100876	-0.23373445491932934	0.5254182326920818
-1.545143150759464	-0.22575739323845556	0.530483929480497
-1.4919452438581575	-0.21766399364234032	0.5365955753740631
-1.4368418307172721	-0.20937531628443096	0.543787713646969
-1.3800131105361837	-0.20078056487767554	0.5520329438671704
-1.321678646189337	-0.19173841719695225	0.5612280498691706
-1.2620935281685834	-0.18208221972586103	0.5711849368748373
-1.2015443379652755	-0.17162986881961026	0.5816287229467516
-1.1403450250618943	-0.16019711794388097	0.5922044355798881
-1.078834936690169	-0.14761337115337705	0.6024927251434248
-1.017375647242726	-0.13373841959057528	0.6120336683069811
-0.9563492339518587	-0.11847746578721942	0.6203562312917194
-0.8961531211054362	-0.1017927620960018	0.6270103775254365
-0.837193232824801	-0.08370984838401224	0.6315979073249324
-0.7798730361595789	-0.06431822118664354	0.6337986251456438
-0.724580364217655	-0.043766082606270545	0.6333889193255173
-0.6716723839340282	-0.022249774115810632	0.6302512480358574
-0.6214603702384046	0.	0.6243740656060781
-0.5741986900735327	0.022733081350148274	0.6158433945249645
-0.5300759233388418	0.045695454989681326	0.6048280320838827
-1.5953766704585595	-0.21012199801391218	0.5353177048181686
-1.5433019562948913	-0.20121064040951717	0.5403476314692854
-1.4892058333936586	-0.19210140220449526	0.5464356493864702
-1.4332511141296584	-0.18270418947598605	0.5536041043042439
-1.375644440256551	-0.17289904098998768	0.561806308630487
-1.3166333814281213	-0.16253934055714225	0.5709130782775147
-1.256500801582789	-0.151459459717911	0.5807053151999566
-1.195560025680898	-0.13948668664295155	0.5908751449048094
-1.1341499092458092	-0.1264559861843429	0.6010364319026303
-1.072631114677529	-0.11222639622637304	0.6107449166625608
-1.0113828409887242	-0.09669686767169522	0.6195259122260379
-0.9507989696994609	-0.07981907394692359	0.6269068861426071
-0.8912816035699058	-0.06160563025052466	0.632450810322857
-0.833233321523008	-0.042132491082215506	0.6357863735279239
-0.7770452529763835	-0.021535240223963536	0.6366317858479654
-0.7230827695446632	0.	0.634809534238715
-0.6716723839340282	0.022249774115810632	0.6302512480358574
-0.6230881887503686	0.04496815546264834	0.6229931407552293
-0.5775431780834863	0.06790257590422481	0.6131637364864836
-1.5945267574767557	-0.1852139763237607	0.5444548126624805
-1.5416214597093436	-0.175341664608293	0.5493563538701702
-1.4867373247532971	-0.16518864091569424	0.555314823046548
-1.4300633637334192	-0.15465547278911582	0.5623377540412328
-1.371834087511095	-0.14361590473239427	0.5703570101212914
-1.3123247732455805	-0.13192261325780874	0.5792163500800269
-1.2518452385512548	-0.11941679622991615	0.5886663844169717
-1.1907335978540114	-0.1059418885819963	0.5983693024888651
-1.129349816605613	-0.09135923982799012	0.6079135977454719
-1.0680716998036195	-0.07556403596811351	0.6168383705381006
-1.007289857199347	-0.058499309481747766	0.6246644940746449
-0.9474026614975705	-0.04016557078004553	0.630929134007982
-0.8888092843164578	-0.020625083404757986	0.6352190426531124
-0.831900275000325	0.	0.6371989505182237
-0.7770452529763835	0.021535240223963536	0.6366317858479654
-0.724580364217655	0.043766082606270545	0.6333889193255173
-0.6747958771542888	0.06645256848319915	0.6274503743823194
-0.6279250604864061	0.0893448034466875	0.618896087350125
-1.5937626832652771	-0.15908442090806701	0.5526705396874438
-1.5401325782540245	-0.14824196046530386	0.557341549825447
-1.4845882058068676	-0.13703790602978994	0.5630539935511513
-1.4273454275460353	-0.12536586077344933	0.5697984343484394
-1.368666481890617	-0.11309704898971303	0.5774839612330186
-1.3088537652431482	-0.10008837509593176	0.5859274992151602
-1.2482414360098821	-0.08619398887761516	0.5948518262472287
-1.1871888317399215	-0.07128001722421003	0.6038942309817895
-1.1260730489762691	-0.05524040416665152	0.6126254041471189
-1.0652826791215115	-0.038011085940580606	0.6205776851837803
-1.0052130106845125	-0.01958140971082354	0.6272785004750902
-0.9462592786167945	0.	0.6322856128811652
-0.8888092843164578	0.020625083404757986	0.6352190426531124
-0.833233321523008	0.042132491082215506	0.6357863735279239
-0.7798730361595789	0.06431822118664354	0.6337986251456438
-0.7290292821760562	0.08694993072674387	0.6291757625290147
-0.6809524563442756	0.10978204175511715	0.6219424998079084
-1.593098909936782	-0.13184105582278507	0.5598086893943989
-1.5388655994358582	-0.12004027186939563	0.5641403871430677
-1.4828044296903018	-0.10780215485617135	0.5694836052056733
-1.4251587939244101	-0.09501641522162878	0.5758103651986685
-1.366217281196581	-0.08155618807553885	0.5830067246423365
-1.3063067426794415	-0.06728779206866717	0.5908645545233682
-1.2457829207610434	-0.052084238423060286	0.5990829095321404
-1.1850216725451335	-0.0358399179771285	0.6072809684912278
-1.12441095830237	-0.018485474633217355	0.6150207838333346
-1.064343851182004	0.	0.6218383862129695
-1.0052130106845125	0.01958140971082354	0.6272785004750902
-0.9474026614975705	0.04016557078004553	0.630929134007982
-0.8912816035699058	0.06160563025052466	0.632450810322857
-0.837193232824801	0.08370984838401224	0.6315979073249324
-0.7854453466802915	0.10625523891947353	0.6282297914432637
-0.73630056317716	0.12900204320856856	0.6223118382348055
-1.5925491390805895	-0.10362639113638271	0.5657227108125771
-1.537847762768311	-0.09090207184041849	0.5696038603545633
-1.4814269752139095	-0.07767344480115938	0.5744528684986266
-1.423555953079526	-0.06382970523144138	0.5802226209392736
-1.3645477001304682	-0.04925015341670334	0.5867771784654392
-1.3047504744579472	-0.03381599203394756	0.593886504619534
-1.2445363303627126	-0.017423697550834522	0.6012317970561863
-1.184292365950477	0.	0.6084221708565136
-1.12441095830237	0.018485474633217355	0.6150207838333346
-1.0652826791215115	0.038011085940580606	0.6205776851837803
-1.007289857199347	0.058499309481747766	0.6246644940746449
-0.9507989696994609	0.07981907394692359	0.6269068861426071
-0.8961531211054362	0.1017927620960018	0.6270103775254365
-0.8436639134125569	0.12420870037398113	0.624776963784326
-0.7936021189247803	0.14683507476730462	0.6201117575134065
-1.5921250430788119	-0.07461556461579691	0.5702833358078556
-1.5371027468456742	-0.06102708335804996	0.5736049459811884
-1.480489022611751	-0.04687878205228767	0.5778388184794381
-1.42257726766626	-0.03206314632196229	0.5829190082519541
-1.3637016844983167	-0.01647026283343856	0.5886898242586646
-1.304226946080602	0.	0.5949040248302074
-1.2445363303627126	0.017423697550834522	0.6012317970561863
-1.1850216725451335	0.0358399179771285	0.6072809684912278
-1.1260730489762691	0.05524040416665152	0.6126254041471189
-1.0680716998036195	0.07556403596811351	0.6168383705381006
-1.0113828409887242	0.09669686767169522	0.6195259122260379
-0.9563492339518587	0.11847746578721942	0.6203562312917194
-0.9032838683521498	0.14070769368285824	0.6190811987021838
-0.8524628143562434	0.16316547815603555	0.6155485496758204
-1.5918366450575419	-0.045012853477852964	0.573385752383675
-1.53664812286253	-0.030643422598409194	0.5760464494396663
-1.480013894705809	-0.01567264873446359	0.5795543833590104
-1.422248105275997	0.	0.5838261663395345
-1.3637016844983167	0.01647026283343856	0.5886898242586646
-1.3047504744579472	0.03381599203394756	0.593886504619534
-1.2457829207610434	0.052084238423060286	0.5990829095321404
-1.1871888317399215	0.07128001722421003	0.6038942309817895
-1.129349816605613	0.09135923982799012	0.6079135977454719
-1.072631114677529	0.11222639622637304	0.6107449166625608
-1.017375647242726	0.13373841959057528	0.6120336683069811
-0.9638977756985657	0.15571292665648825	0.6114925162764815
-0.9124774057269509	0.1779401109896962	0.6089184970570263
-1.5916906697045448	-0.015045373920091126	0.5749560652046664
-1.5364953504914503	0.	0.5768672350419619
-1.480013894705809	0.01567264873446359	0.5795543833590104
-1.42257726766626	0.03206314632196229	0.5829190082519541
-1.3645477001304682	0.04925015341670334	0.5867771784654392
-1.3063067426794415	0.06728779206866717	0.5908645545233682
-1.2482414360098821	0.08619398887761516	0.5948518262472287
-1.1907335978540114	0.1059418885819963	0.5983693024888651
-1.1341499092458092	0.1264559861843429	0.6010364319026303
-1.078834936690169	0.14761337115337705	0.6024927251434248
-1.0251050579551175	0.16924998699358546	0.6024255166456635
-0.9732434454111377	0.1911712390102557	0.600591309805172
-1.5916906697045448	0.015045373920091126	0.5749560652046664
-1.53664812286253	0.030643422598409194	0.5760464494396663
-1.480489022611751	0.04687878205228767	0.5778388184794381
-1.423555953079526	0.06382970523144138	0.5802226209392736
-1.366217281196581	0.08155618807553885	0.5830067246423365
-1.3088537652431482	0.10008837509593176	0.5859274992151602
-1.2518452385512548	0.11941679622991615	0.5886663844169717
-1.195560025680898	0.13948668664295155	0.5908751449048094
-1.1403450250618943	0.16019711794388097	0.5922044355798881
-1.0865200666826988	0.1814049522563946	0.5923320577622845
-1.034372620464643	0.20293339425706572	0.5909871076894816
-1.5918366450575419	0.045012853477852964	0.573385752383675
-1.5371027468456742	0.06102708335804996	0.5736049459811884
-1.4814269752139095	0.07767344480115938	0.5744528684986266
-1.4251587939244101	0.09501641522162878	0.5758103651986685
-1.368666481890617	0.11309704898971303	0.5774839612330186
-1.3123247732455805	0.13192261325780874	0.5792163500800269
-1.256500801582789	0.151459459717911	0.5807053151999566
-1.2015443379652755	0.17162986881961026	0.5816287229467516
-1.1477792819734314	0.19231393154187976	0.5816711432222776
-1.095498159859097	0.21335563433123625	0.5805490632563711
-1.5921250430788119	0.07461556461579691	0.5702833358078556
-1.537847762768311	0.09090207184041849	0.5696038603545633
-1.4828044296903018	0.10780215485617135	0.5694836052056733
-1.4273454275460353	0.12536586077344933	0.5697984343484394
-1.371834087511095	0.14361590473239427	0.5703570101212914
-1.3166333814281213	0.16253934055714225	0.5709130782775147
-1.2620935281685834	0.18208221972586103	0.5711849368748373
-1.208542583881145	0.20214946443236376	0.570879217045824
-1.1562787174835465	0.222608475126694	0.5697152156358068
-1.5925491390805895	0.10362639113638271	0.5657227108125771
-1.5388655994358582	0.12004027186939563	0.5641403871430677
-1.4845882058068676	0.13703790602978994	0.5630539935511513
-1.4300633637334192	0.15465547278911582	0.5623377540412328
-1.375644440256551	0.17289904098998768	0.561806308630487
-1.321678646189337	0.19173841719695225	0.5612280498691706
-1.2684958194690104	0.21110399507422847	0.5603443850020438
-1.2163997093406502	0.23088876791098192	0.5588917100322381
-1.593098909936782	0.13184105582278507	0.5598086893943989
-1.5401325782540245	0.14824196046530386	0.557341549825447
-1.4867373247532971	0.16518864091569424	0.555314823046548
-1.4332511141296584	0.18270418947598605	0.5536041043042439
-1.3800131105361837	0.20078056487767554	0.5520329438671704
-1.3273515424235096	0.21937367971745764	0.5503868134123865
-1.2755734880396317	0.2384029812074189	0.5484313225500019
-1.5937626832652771	0.15908442090806701	0.5526705396874438
-1.5416214597093436	0.175341664608293	0.5493563538701702
-1.4892058333936586	0.19210140220449526	0.5464356493864702
-1.4368418307172721	0.20937531628443096	0.543787713646969
-1.3848508708045961	0.22714346303199923	0.5412472461720906
-1.3335400857385722	0.24535179308292265	0.5386178893736137
-1.5945267574767557	0.1852139763237607	0.5444548126624805
-1.5433019562948913	0.20121064040951717	0.5403476314692854
-1.4919452438581575	0.21766399364234032	0.5365955753740631
-1.4407665496558038	0.23457582567895283	0.5330835647021471
-1.390068155657809	0.25191736535498016	0.529658476839911
-1.5953766704585595	0.21012199801391218	0.5353177048181686
-1.545143150759464	0.22575739323845556	0.530483929480497
-1.4949058217560351	0.2418033554987076	0.5259750744862104
-1.4449572951625815	0.25825393190483664	0.5216827025807504
-1.5962975804100876	0.23373445491932934	0.5254182326920818
-1.547114007160649	0.248925418528084	0.519932595937674
-1.4980400363029593	0.26448258650749934	0.514748776366824
-1.597275153801222	0.2560090232189257	0.5149121074571372
-1.5491846430846257	0.2706902948699645	0.5088537568970782
-1.5982954386980104	0.27693170045489207	0.503946869910751
-1.6453126203981836	0.28323349739527226	0.49994339830171397
-1.6453126203981836	0.26309191054562425	0.5108299738246349
-1.6453126203981836	0.2416442994184614	0.5213181831768242
-1.6453126203981836	0.21889584225342112	0.5312713297331123
-1.6453126203981836	0.19487676211464977	0.5405438586645251
-1.6453126203981836	0.16964583329787353	0.5489853429709158
-1.6453126203981836	0.14329266147068145	0.5564457104883392
-1.6453126203981836	0.11593932591085765	0.5627812081613598
-1.6453126203981836	0.087739374720215	0.5678612662225956
-1.6453126203981836	0.05887547677702733	0.5715752739460495
-1.6453126203981836	0.029554323694156035	0.5738389647829825
-1.6453126203981836	0.	0.5745995262373821
-1.6453126203981836	-0.029554323694156035	0.5738389647829825
-1.6453126203981836	-0.05887547677702733	0.5715752739460495
-1.6453126203981836	-0.087739374720215	0.5678612662225956
-1.6453126203981836	-0.11593932591085765	0.5627812081613598
-1.6453126203981836	-0.14329266147068145	0.5564457104883392
-1.6453126203981836	-0.16964583329787353	0.5489853429709158
-1.6453126203981836	-0.19487676211464977	0.5405438586645251
-1.6453126203981836	-0.21889584225342112	0.5312713297331123
-1.6453126203981836	-0.2416442994184614	0.5213181831768242
-1.6453126203981836	-0.26309191054562425	0.5108299738246349
-1.6453126203981836	-0.28323349739527226	0.49994339830171397
-1.6912790600199548	-0.2965149924559967	0.4926633287919585
-1.7392974439008126	-0.29106043086196887	0.4974057441502417
-1.7893222345059787	-0.2857045187559705	0.5030946157812946
-1.8412752034419104	-0.2804044603186568	0.5097848156118857
-1.8950455221469311	-0.27508618470482976	0.5174898449244726
-1.950489244956669	-0.2696413683125752	0.526169389599807
-2.007431042592597	-0.2639271161535312	0.5357188970813339
-2.065666221029201	-0.2577687420819687	0.5459629955590182
-2.124961687844717	-0.2509671819816881	0.5566536850216552
-2.1850575434446275	-0.24330943138549427	0.5674754311522964
-2.2456659632074145	-0.2345829344564129	0.5780563884240504
-2.306471099786579	-0.22459085444356666	0.5879865204975585
-2.3671292941966335	-0.21316850553720362	0.5968402959547691
-2.427271251811769	-0.2001973877076473	0.6042025203687135
-2.4865068533944528	-0.18561635751773514	0.6096942871875509
-2.5444350562629885	-0.16942811790337461	0.6129965837160263
-2.6006567451690885	-0.15169975778289851	0.6138690253123076
-2.654789001839969	-0.13255895156426092	0.6121616127752632
-2.7064823273412366	-0.11218439846286002	0.607819026828731
-2.755434041728431	-0.09079393183700808	0.6008773000872372
-2.801400952094157	-0.06862984582587897	0.5914541558938631
-2.8442054747581413	-0.04594490436213842	0.5797350046226686
-2.8837395221695354	-0.022989480687766805	0.5659557856253562
-1.6923297518425415	0.2769344102390246	0.5039518010444186
-1.7414403923205595	0.2706956279015537	0.5088637821296457
-1.7925847434278381	0.2644903436118746	0.5147638736177926
-1.8456671511069553	0.25826379597556287	0.521702628376408
-1.900555920510752	0.25192890352512637	0.5296827359441475
-1.9570836393476692	0.24536446692977745	0.5386457121197098
-2.015049981303009	0.23841615459919996	0.5484616271235453
-2.0742236468674546	0.23090176429483797	0.5589231692117524
-2.134344713611203	0.22262059863473485	0.5697462429675103
-2.195125565814596	0.21336622958063642	0.5805778933462514
-2.2562516016414724	0.20294185609972593	0.5910117504543542
-2.3173813609533305	0.19117709019211943	0.6006096921151765
-2.378147991593883	0.1779430507174189	0.6089285569281633
-2.4381629962724025	0.1631654080348087	0.615548285140577
-2.4970237710836916	0.14683212811756585	0.6200993132649789
-2.5543249271387505	0.1289965977413012	0.6222855690482026
-2.609671971199887	0.10977472485601708	0.6219010477594278
-2.66269748845862	0.08933648141006892	0.618838440170845
-2.7130765393789233	0.0678943329796948	0.6130893024560053
-2.7605400657667722	0.04568854533305759	0.6047365754167141
-2.8048836751148416	0.022972820826926935	0.5939413361248411
-2.8459720259515953	0.	0.5809260434285856
-1.6933501612153883	0.25601158412296	0.5149172582150155
-1.7435110192843217	0.2489304245389363	0.5199430520342556
-1.79571893943391	0.24181058311843226	0.52599079613662
-1.8498578677856612	0.23458493671031527	0.5331042699093558
-1.9057731686427783	0.227154011831098	0.5412723823058205
-1.9632721453803896	0.21938512636235047	0.550415531909587
-2.022127619003372	0.21111572544984766	0.5603755215521117
-2.082080764161018	0.20216083846405705	0.5709113378250007
-2.1428441775997604	0.19232431855817747	0.5817025597067522
-2.204103719876067	0.18141378379674708	0.5923608949268995
-2.265519236518869	0.16925679156448428	0.6024497367192486
-2.32672711778605	0.15571738579808572	0.6115100275504292
-2.3873416046933706	0.14070968060487954	0.6190899406979801
-2.4469619396827156	0.12420830606741765	0.6247749803994521
-2.5051805515925194	0.10625279025935812	0.6282153138396249
-2.5615961502146245	0.08694599485780866	0.6291472823069164
-2.6158283858087277	0.0664479455192004	0.6274067239929066
-2.667534163545164	0.044963849981405554	0.6229334922049539
-2.7164208224557322	0.022730275811158312	0.6157673919528346
-2.7622579219963104	0.	0.6060366290510366
-2.8048836751148416	-0.022972820826926935	0.5939413361248411
-1.69432760550503	0.23373684010092574	0.5254235944086479
-1.7454818668485272	0.22576202144314111	0.530494804819607
-1.7986796265251914	0.21767061802425822	0.5366119061137837
-1.8537825583474952	0.20938357492539406	0.5438091629159986
-1.9106108932713046	0.2007900071916657	0.5520589048878104
-1.968945013806097	0.19174850418186434	0.5612575749844503
-2.0285298903382736	0.18209237703184555	0.5712167999539799
-2.089079009510237	0.17163951051889906	0.5816613972666875
-2.1502784629363023	0.1602056968106744	0.5922361492775657
-2.211788901028788	0.1476204251253334	0.6025215163481366
-2.2732487115744635	0.13374362283920901	0.6120574801881007
-2.334275739848017	0.11848066435289736	0.6203729792035382
-2.3944724144845724	0.10179400504875816	0.6270180337110136
-2.4534328176221667	0.08370941020040754	0.6315946011924629
-2.510752864302022	0.06431660585126898	0.633782707458235
-2.566045016208429	0.043764018840794984	0.633359052220525
-2.618951962994587	0.022248192376790727	0.6302064434016093
-2.6691619103221274	0.	0.624313736475778
-2.7164208224557322	-0.022730275811158312	0.6157673919528346
-2.7605400657667722	-0.04568854533305759	0.6047365754167141
-1.6952485132415227	0.21012418303445332	0.5353232714898742
-1.7473230527723975	0.20121483898910975	0.5403589066808436
-1.8014188918931664	0.1921073408273423	0.5464525418984177
-1.857373247822055	0.18271149675047976	0.5536262457623168
-1.9149795326773384	0.17290726044863144	0.5618330163767714
-1.973990259293291	0.16254794668821923	0.5709433069764153
-2.034122605103551	0.15146793000018535	0.5807377908072717
-2.0950633264905445	0.13949450382798784	0.5909082590352847
-2.1564736043897277	0.12646270227082038	0.6010683529905485
-2.2179927658900738	0.11223167376065306	0.6107736374211561
-2.2792415750901123	0.09670052975628163	0.6195493747884628
-2.3398260682061673	0.079821130260394	0.6269230366315934
-2.3993439757741553	0.061606300568713586	0.632457691890013
-2.4573925945271364	0.04213221638257311	0.6357822282641391
-2.51358064408722	0.02153467653995288	0.6366151220376421
-2.5675425890242516	0.	0.6347791948781267
-2.618951962994587	-0.022248192376790727	0.6302064434016093
-2.667534163545164	-0.044963849981405554	0.6229334922049539
-2.7130765393789233	-0.0678943329796948	0.6130893024560053
-1.696098424131931	0.1852159355979505	0.5444605721428564
-1.7490035413110585	0.17534538213105733	0.5493680011004838
-1.8038873840046075	0.16519382096835314	0.5553322368348673
-1.8605609744389002	0.1546617324867845	0.5623605147251226
-1.9187898600406395	0.14362279372996808	0.5703843691249216
-1.978298853489688	0.1319296335078328	0.57924717302611
-2.038778161025595	0.11942348505703962	0.5886993570623874
-2.099889759582415	0.10594781124350616	0.5984027542130506
-2.1612737175177403	0.09136405817262025	0.6079456594966949
-2.2225522143108987	0.07556754576242634	0.6168670214138396
-2.28333460367528	0.058501482896509555	0.6246877021269214
-2.343222413935439	0.040166574651611366	0.6309449030311873
-2.401816317073275	0.020625293744004344	0.6352255207599924
-2.458725648489444	0.	0.6371945192475558
-2.51358064408722	-0.02153467653995288	0.6366151220376421
-2.566045016208429	-0.043764018840794984	0.633359052220525
-2.6158283858087277	-0.0664479455192004	0.6274067239929066
-2.66269748845862	-0.08933648141006892	0.618838440170845
-1.6968624964063808	0.15908612951176973	0.5526764754976577
-1.7504924153880577	0.14824514752220586	0.5573535321226831
-1.806036488369943	0.13704225595155506	0.5630718662762421
-1.8632788910737272	0.1253709852023688	0.5698217253110447
-1.9219574454985455	0.11310251315867727	0.577511861783621
-1.9817698509700379	0.1000937216911967	0.5859587987261163
-2.042381959263614	0.08619882142490053	0.5948851771759368
-2.103434530397516	0.07128399391986641	0.6039279221011072
-2.1645504999735223	0.05524330312453928	0.6126575540792997
-2.225341256732205	0.03801283777492953	0.6206062860321429
-2.2854114746377907	0.019582129983994553	0.627301573986207
-2.3443658091106694	0.	0.6323012507496228
-2.401816317073275	-0.020625293744004344	0.6352255207599924
-2.4573925945271364	-0.04213221638257311	0.6357822282641391
-2.510752864302022	-0.06431660585126898	0.633782707458235
-2.5615961502146245	-0.08694599485780866	0.6291472823069164
-2.609671971199887	-0.10977472485601708	0.6219010477594278
-1.697526267999877	0.13184249037482326	0.5598147806282058
-1.751759387776186	0.12004288295715432	0.5641526581920758
-1.807820252564611	0.10780561073982092	0.5695018615112412
-1.8654655093978345	0.09502032920697825	0.5758340843984321
-1.924406631104743	0.08156014965993423	0.5830350441407982
-1.9843168658184707	0.06729139627173443	0.5908962035903723
-2.0448404719825253	0.05208716015954274	0.5991165159060798
-2.105601692806793	0.03584191476915075	0.6073148026588708
-2.1662125985120886	0.018486442226121436	0.6150529761225837
-2.226280092235068	0.	0.6218669690071633
-2.2854114746377907	-0.019582129983994553	0.627301573986207
-2.343222413935439	-0.040166574651611366	0.6309449030311873
-2.3993439757741553	-0.061606300568713586	0.632457691890013
-2.4534328176221667	-0.08370941020040754	0.6315946011924629
-2.5051805515925194	-0.10625279025935812	0.6282153138396249
-2.5543249271387505	-0.1289965977413012	0.6222855690482026
-1.698076037385944	0.1036275307631854	0.5657289323238839
-1.752777219223357	0.09090406751063622	0.5696163654761409
-1.8091976979803839	0.07767595356144956	0.5744714226460417
-1.8670683392485399	0.06383234919294999	0.5802466549884772
-1.9260762021049616	0.0492525543478442	0.5868057836880181
-1.9858731292007357	0.03381780631500333	0.5939183675627687
-2.0460870611825897	0.017424675197570468	0.601265532278129
-2.106331000540521	0.	0.6084560526217881
-2.1662125985120886	-0.018486442226121436	0.6150529761225837
-2.225341256732205	-0.03801283777492953	0.6206062860321429
-2.28333460367528	-0.058501482896509555	0.6246877021269214
-2.3398260682061673	-0.079821130260394	0.6269230366315934
-2.3944724144845724	-0.10179400504875816	0.6270180337110136
-2.4469619396827156	-0.12420830606741765	0.6247749803994521
-2.4970237710836916	-0.14683212811756585	0.6200993132649789
-1.698500132235041	0.07461639190250825	0.5702896587222214
-1.7535223584174364	0.0610284327036576	0.5736176287323832
-1.810135644480109	0.04688030382956938	0.5778575762617002
-1.8680470180320605	0.03206447889850738	0.5829432349510522
-1.9269222126976673	0.01647106719801763	0.5887185743306872
-1.986396655915554	0.	0.594935959809538
-2.0460870611825897	-0.017424675197570468	0.601265532278129
-2.105601692806793	-0.03584191476915075	0.6073148026588708
-2.1645504999735223	-0.05524330312453928	0.6126575540792997
-2.2225522143108987	-0.07556754576242634	0.6168670214138396
-2.2792415750901123	-0.09670052975628163	0.6195493747884628
-2.334275739848017	-0.11848066435289736	0.6203729792035382
-2.3873416046933706	-0.14070968060487954	0.6190899406979801
-2.4381629962724025	-0.1631654080348087	0.615548285140577
-1.6987885294639111	0.045013355299091284	0.5733921447166658
-1.7539768529843278	0.030644102613995403	0.5760592326254459
-1.8106107693144597	0.015673158789572636	0.5795732445406276
-1.8683761782058914	0.	0.5838504578982446
-1.9269222126976673	-0.01647106719801763	0.5887185743306872
-1.9858731292007357	-0.03381780631500333	0.5939183675627687
-2.0448404719825253	-0.05208716015954274	0.5991165159060798
-2.103434530397516	-0.07128399391986641	0.6039279221011072
-2.1612737175177403	-0.09136405817262025	0.6079456594966949
-2.2179927658900738	-0.11223167376065306	0.6107736374211561