# TIME = 0.000000
VARIABLES = X, Y, Z
ZONE N=2562 E=5120 F=FEPOINT ET=TRIANGLE
0.5584706999269171	0.34515390383473776	-1.5394850050678384
-0.5584706999269171	0.34515390383473776	-1.5394850050678384
0.5584706999269171	-0.34515390383473776	-1.5394850050678384
-0.5584706999269171	-0.34515390383473776	-1.5394850050678384
0.5436344801458967	0.	-0.3315145620565241
0.5436333026668116	0.	-2.7474561326135003
-0.5436344801458967	6.657602260168077e-17	-0.3315145620565241
-0.5436333026668116	6.657587840208152e-17	-2.7474561326135003
4.123162933232748e-17	0.673363607548471	-0.8708522454810498
4.123162933232748e-17	-0.673363607548471	-0.8708522454810498
4.123148393294564e-17	0.6733612329963644	-2.2081177098879685
4.123148393294564e-17	-0.6733612329963644	-2.2081177098879685
0.5649353141573458	0.3353327995894608	-1.473023358294187
0.57248788142464	0.32511262246054495	-1.4021685691566181
0.581175606317965	0.31435232267439067	-1.327100358260968
0.5908890147735097	0.3028076624233508	-1.248165001135611
0.601299943470935	0.2901215269547259	-1.1658901315091412
0.6118225006859929	0.27583999666650433	-1.080989157673435
0.6216174978961975	0.2594600606522444	-0.9943599823303856
0.6296547094453723	0.24050672802340406	-0.9070743983468808
0.6348320950313173	0.2186250756734433	-0.8203546012180176
0.6361295809836006	0.1936644165052444	-0.735526655593367
0.6327621769534588	0.1657298556993868	-0.6539443146600511
0.6242933212107628	0.13518595500208672	-0.5768875179303026
0.6106818051163423	0.10261201349409949	-0.5054536868951781
0.5922575263138509	0.0687230498423645	-0.4404679819529929
0.5696409878727176	0.034278511194346876	-0.3824311579682942
0.5842207019340241	-0.3005427871009652	-1.4707627471333133
0.5920668092270278	-0.28819832343934576	-1.3975419977515204
0.6010462211672439	-0.2750847386653898	-1.320083027172636
0.6109876671799843	-0.2609228934186109	-1.2388374777907356
0.621463805071623	-0.24533212249679534	-1.1544585718169214
0.6317610244637091	-0.22786338142427665	-1.0677996346430823
0.6409057897961364	-0.20806402918007122	-0.9799020598649854
0.6477609237565563	-0.18556700025376457	-0.8919719325870527
0.6511780554083629	-0.16018164091577192	-0.8053406566702448
0.6501737750223554	-0.1319600548504953	-0.7213977801862799
0.6440832446659371	-0.10121698666962148	-0.6414981686147626
0.6326514367711282	-0.06849793045581262	-0.5668514089233476
0.6160437216157697	-0.03450431064362235	-0.4984193859869082
0.5947829969095381	0.	-0.4368453812687525
0.6024238070978719	-0.2622290803187814	-1.4686296398747982
0.610301691865201	-0.24756199352623923	-1.3932389712330782
0.6192564060000172	-0.23188834017654372	-1.3136715245013768
0.6290412959546815	-0.21490618547988236	-1.2305003379418242
0.6391206925593249	-0.19623523914800778	-1.1445156178111955
0.6486558075013232	-0.17546779164349888	-1.056712632406896
0.656561114108665	-0.1522474152038483	-0.9682663705921548
0.6616366330204032	-0.12636134192490997	-0.8804923001991652
0.662749306095276	-0.09781680273636731	-0.7947882626457633
0.659018101053367	-0.0668775657764739	-0.7125513454947983
0.6499515759872683	-0.03404637798564857	-0.6350736413244153
0.6355038693239886	0.	-0.5634353178281635
0.6160437216157697	0.03450431064362235	-0.4984193859869082
0.6189666624270976	-0.2204427188736708	-1.4666916886771035
0.6265429796762698	-0.20332008817522768	-1.3894114123095758
0.6350770429776456	-0.18496539704056777	-1.3081168236192922
0.6442378240880545	-0.1650734678716992	-1.223513386567778
0.6533823895686979	-0.1432958436145971	-1.1365303387902723
0.6615655273650267	-0.11930661994525125	-1.0482951486679335
0.6676310542736431	-0.09288862822552618	-0.9600912822522026
0.6703768665469121	-0.06401533050472476	-0.8733021821023145
0.6687533200271862	-0.03290102041721799	-0.7893370599257138
0.6620399674794838	0.	-0.7095375700275803
0.6499515759872683	0.03404637798564857	-0.6350736413244153
0.6326514367711282	0.06849793045581262	-0.5668514089233476
0.6332292751297998	-0.17540625022081724	-1.4650214077518064
0.6401118105233529	-0.1557924914527788	-1.386217285900827
0.6477699429397086	-0.13475868275321307	-1.3036708397172856
0.6557877070184963	-0.11202193351737212	-1.2182218037422623
0.6634298548208257	-0.0872996479829429	-1.1309291591501018
0.669680971572479	-0.060385094068916255	-1.043027514621546
0.6733711385732725	-0.031229093325398243	-0.9558690915973593
0.673363607548471	0.	-0.8708522454810498
0.6687533200271862	0.03290102041721799	-0.7893370599257138
0.659018101053367	0.0668775657764739	-0.7125513454947983
0.6440832446659371	0.10121698666962148	-0.6414981686147626
0.6445977737607839	-0.12753954561523892	-1.4636903610208
0.6503617266053895	-0.10552477087886479	-1.3838068949107838
0.656666194552354	-0.08196562207496805	-1.3005603286630127
0.6630209075317416	-0.05662875698515364	-1.2149161706755038
0.6686278098884599	-0.029327852213338685	-1.1280392630967775
0.6724513633138003	0.	-1.0412335308196254
0.6733711385732725	0.031229093325398243	-0.9558690915973593
0.6703768665469121	0.06401533050472476	-0.8733021821023145
0.662749306095276	0.09781680273636731	-0.7947882626457633
0.6501737750223554	0.1319600548504953	-0.7213977801862799
0.652525996416968	-0.07746489092163314	-1.462762375644184
0.6567530611257516	-0.05328092728292894	-1.3823047390001562
0.6612536498490741	-0.02751272821740194	-1.298958261367012
0.6654852930216222	0.	-1.213791419536743
0.6686278098884599	0.029327852213338685	-1.1280392630967775
0.669680971572479	0.060385094068916255	-1.043027514621546
0.6676310542736431	0.09288862822552618	-0.9600912822522026
0.6616366330204032	0.12636134192490997	-0.8804923001991652
0.6511780554083629	0.16018164091577192	-0.8053406566702448
0.6566013988996706	-0.02598289197709583	-1.4622852994763935
0.6589257295251099	0.	-1.381794269250215
0.6612536498490741	0.02751272821740194	-1.298958261367012
0.6630209075317416	0.05662875698515364	-1.2149161706755038
0.6634298548208257	0.0872996479829429	-1.1309291591501018
0.6615655273650267	0.11930661994525125	-1.0482951486679335
0.656561114108665	0.1522474152038483	-0.9682663705921548
0.6477609237565563	0.18556700025376457	-0.8919719325870527
0.6566013988996706	0.02598289197709583	-1.4622852994763935
0.6567530611257516	0.05328092728292894	-1.3823047390001562
0.656666194552354	0.08196562207496805	-1.3005603286630127
0.6557877070184963	0.11202193351737212	-1.2182218037422623
0.6533823895686979	0.1432958436145971	-1.1365303387902723
0.6486558075013232	0.17546779164349888	-1.056712632406896
0.6409057897961364	0.20806402918007122	-0.9799020598649854
0.652525996416968	0.07746489092163314	-1.462762375644184
0.6503617266053895	0.10552477087886479	-1.3838068949107838
0.6477699429397086	0.13475868275321307	-1.3036708397172856
0.6442378240880545	0.1650734678716992	-1.223513386567778
0.6391206925593249	0.19623523914800778	-1.1445156178111955
0.6317610244637091	0.22786338142427665	-1.0677996346430823
0.6445977737607839	0.12753954561523892	-1.4636903610208
0.6401118105233529	0.1557924914527788	-1.386217285900827
0.6350770429776456	0.18496539704056777	-1.3081168236192922
0.6290412959546815	0.21490618547988236	-1.2305003379418242
0.621463805071623	0.24533212249679534	-1.1544585718169214
0.6332292751297998	0.17540625022081724	-1.4650214077518064
0.6265429796762698	0.20332008817522768	-1.3894114123095758
0.6192564060000172	0.23188834017654372	-1.3136715245013768
0.6109876671799843	0.2609228934186109	-1.2388374777907356
0.6189666624270976	0.2204427188736708	-1.4666916886771035
0.610301691865201	0.24756199352623923	-1.3932389712330782
0.6010462211672439	0.2750847386653898	-1.320083027172636
0.6024238070978719	0.2622290803187814	-1.4686296398747982
0.5920668092270278	0.28819832343934576	-1.3975419977515204
0.5842207019340241	0.3005427871009652	-1.4707627471333133
0.5774886175307208	0.3122941508124626	-1.5394850050678384
0.5956439034583249	0.27609614318593817	-1.5394850050678384
0.6124212398975488	0.23656070031086976	-1.5394850050678384
0.6272556458318915	0.19383264632470182	-1.5394850050678384
0.6395694625008904	0.14822834629564696	-1.5394850050678384
0.6488227483613057	0.1002485970879484	-1.5394850050678384
0.6545712899893821	0.05056843215738904	-1.5394850050678384
0.6565216980490592	0.	-1.5394850050678384
0.6545712899893821	-0.05056843215738904	-1.5394850050678384
0.6488227483613057	-0.1002485970879484	-1.5394850050678384
0.6395694625008904	-0.14822834629564696	-1.5394850050678384
0.6272556458318915	-0.19383264632470182	-1.5394850050678384
0.6124212398975488	-0.23656070031086976	-1.5394850050678384
0.5956439034583249	-0.27609614318593817	-1.5394850050678384
0.5774886175307208	-0.3122941508124626	-1.5394850050678384
0.5649349692529667	-0.3353325948620378	-1.6059465369890535
0.5724872346978478	-0.3251122551880659	-1.6768013358394322
0.5811746821371365	-0.3143518227938264	-1.7518696783270833
0.5908877780847601	-0.3028070286684153	-1.8308049257233214
0.6012984020734243	-0.2901207832450277	-1.9130798091952992
0.611820706945821	-0.27583918795926904	-1.997980792450593
0.6216154629285447	-0.25945921126683874	-2.0846099579176833
0.6296525224697732	-0.24050589267295291	-2.1718955433052156
0.6348298193578488	-0.21862429197128305	-2.25861535742447
0.6361272839630109	-0.19366371719622705	-2.3434433167088287
0.6327599645473768	-0.16572927623722222	-2.425025618529577
0.6242911987000586	-0.13518549538858968	-2.502082536625537
0.6106799316485455	-0.10261169869791392	-2.573516371149473
0.592255907437963	-0.0687228619948769	-2.638502179754867
0.5696396228931111	-0.034278429055825045	-2.696539166544841
0.5842203330905509	0.3005425973554717	-1.608207269505963
0.5920661375971203	0.2881979965123667	-1.6814280280056946
0.6010452623726207	0.2750842998476099	-1.7588870074013894
0.6109863157463704	0.2609223162875365	-1.8401325796446182
0.6214622012103657	0.2453314893486003	-1.9245113705324093
0.6317591175926265	0.22786269365457257	-2.0111703074753247
0.6409036924915403	0.20806334830988465	-2.09906791079432
0.6477586663608221	0.18556635356740328	-2.186998054754953
0.6511757140942335	0.16018106498183798	-2.2736292925835007
0.6501714259131853	0.1319595780724602	-2.3575722161978536
0.6440809940167695	0.10121663298253417	-2.4374717935868926
0.6326493136579342	0.06849770058379866	-2.512118639757629
0.6160418050128639	0.03450420329562135	-2.580550846074365
0.594781362220307	0.	-2.64212480499072
0.6024234173557378	0.26222891066791404	-1.6103403769032671
0.6103009959333509	0.24756171122933843	-1.6857310536661374
0.6192553934501785	0.23188796101453724	-1.7652983876632535
0.6290398621840328	0.21490569564529927	-1.8484695971146161
0.6391190032906563	0.19623472047595567	-1.9344543252356472
0.6486538107268722	0.17546725149632178	-2.0222573061817615
0.6565589361289538	0.15224691016056402	-2.110703588865019
0.6616343142131406	0.1263608990721676	-2.1984776834368716
0.6627469172655094	0.09781645016309728	-2.284181705396348
0.6590157116144605	0.06687732329473117	-2.366418785150896
0.6499492630000315	0.0340462568245642	-2.443896526226262
0.6355017076051017	0.	-2.5155348939079203
0.6160418050128639	-0.03450420329562135	-2.580550846074365
0.6189662544435776	0.22044257357182845	-1.612278207068274
0.626542261402546	0.20331985508750408	-1.6895586118895363
0.6350759704344096	0.18496508466368738	-1.7708530908699551
0.6442363611427121	0.1650730930202826	-1.8554566725418924
0.6533806197107404	0.14329545546013636	-1.9424396030530033
0.6615634791620849	0.11930625057266481	-2.0306747947183776
0.6676288148202717	0.09288831664662298	-2.118878662764687
0.6703745026740101	0.0640151047748217	-2.205667922478701
0.6687509072079957	0.0329009017124414	-2.2896329141969054
0.6620375916633344	0.	-2.3694323908754567
0.6499492630000315	-0.0340462568245642	-2.443896526226262
0.6326493136579342	-0.06849770058379866	-2.512118639757629
0.6332288544664545	0.175406133695914	-1.6139484878030446
0.6401110683678124	0.15579231082455294	-1.6927526161945052
0.6477688145996984	0.13475844801923825	-1.7752990774733663
0.6557862203338563	0.11202167956127303	-1.860748129240986
0.66342803787905	0.08729940889455055	-1.948040910254743
0.6696789002862394	0.06038490730115708	-2.0359424364475256
0.6733688708138111	0.031228988152978757	-2.123100850966134
0.6733612329963644	0.	-2.2081177098879685
0.6687509072079957	-0.0329009017124414	-2.2896329141969054
0.6590157116144605	-0.06687732329473117	-2.366418785150896
0.6440809940167695	-0.10121663298253417	-2.4374717935868926
0.6445973440380485	0.12753946059067842	-1.6152795343098818
0.6503609705115795	0.10552464819848124	-1.6951631287312527
0.656665024759255	0.08196547606041782	-1.7784095906298292
0.6630194086723438	0.05662862896725311	-1.8640537616010062
0.6686259618179082	0.029327771151888327	-1.9509306784068812
0.6724492845026757	0.	-2.0377364231869213
0.6733688708138111	-0.031228988152978757	-2.123100850966134
0.6703745026740101	-0.0640151047748217	-2.205667922478701
0.6627469172655094	-0.09781645016309728	-2.284181705396348
0.6501714259131853	-0.1319595780724602	-2.3575722161978536
0.6525255627050769	0.07746483943334836	-1.6162076404886283
0.6567522896374205	0.05328086469378227	-1.6966651629050216
0.6612524632450705	0.02751267884646318	-1.7800117821252424
0.6654837894132902	0.	-1.865178512545261
0.6686259618179082	-0.029327771151888327	-1.9509306784068812
0.6696789002862394	-0.06038490730115708	-2.0359424364475256
0.6676288148202717	-0.09288831664662298	-2.118878662764687
0.6616343142131406	-0.1263608990721676	-2.1984776834368716
0.6511757140942335	-0.16018106498183798	-2.2736292925835007
0.6566009605356359	0.02598287463024677	-1.616684595557604
0.6589249537743294	0.	-1.6971756326681648
0.6612524632450705	-0.02751267884646318	-1.7800117821252424
0.6630194086723438	-0.05662862896725311	-1.8640537616010062
0.66342803787905	-0.08729940889455055	-1.948040910254743
0.6615634791620849	-0.11930625057266481	-2.0306747947183776
0.6565589361289538	-0.15224691016056402	-2.110703588865019
0.6477586663608221	-0.18556635356740328	-2.186998054754953
0.6566009605356359	-0.02598287463024677	-1.616684595557604
0.6567522896374205	-0.05328086469378227	-1.6966651629050216
0.656665024759255	-0.08196547606041782	-1.7784095906298292
0.6557862203338563	-0.11202167956127303	-1.860748129240986
0.6533806197107404	-0.14329545546013636	-1.9424396030530033
0.6486538107268722	-0.17546725149632178	-2.0222573061817615
0.6409036924915403	-0.20806334830988465	-2.09906791079432
0.6525255627050769	-0.07746483943334836	-1.6162076404886283
0.6503609705115795	-0.10552464819848124	-1.6951631287312527
0.6477688145996984	-0.13475844801923825	-1.7752990774733663
0.6442363611427121	-0.1650730930202826	-1.8554566725418924
0.6391190032906563	-0.19623472047595567	-1.9344543252356472
0.6317591175926265	-0.22786269365457257	-2.0111703074753247
0.6445973440380485	-0.12753946059067842	-1.6152795343098818
0.6401110683678124	-0.15579231082455294	-1.6927526161945052
0.6350759704344096	-0.18496508466368738	-1.7708530908699551
0.6290398621840328	-0.21490569564529927	-1.8484695971146161
0.6214622012103657	-0.2453314893486003	-1.9245113705324093
0.6332288544664545	-0.175406133695914	-1.6139484878030446
0.626542261402546	-0.20331985508750408	-1.6895586118895363
0.6192553934501785	-0.23188796101453724	-1.7652983876632535
0.6109863157463704	-0.2609223162875365	-1.8401325796446182
0.6189662544435776	-0.22044257357182845	-1.612278207068274
0.6103009959333509	-0.24756171122933843	-1.6857310536661374
0.6010452623726207	-0.2750842998476099	-1.7588870074013894
0.6024234173557378	-0.26222891066791404	-1.6103403769032671
0.5920661375971203	-0.2881979965123667	-1.6814280280056946
0.5842203330905509	-0.3005425973554717	-1.608207269505963
0.5418478751141851	0.37100359306670433	-1.4984215499193478
0.5230416982947145	0.39797779357506646	-1.454726010192856
0.5018028727885328	0.425931891914372	-1.4086247350059005
0.47787185570497637	0.4546316228735177	-1.3604877330640388
0.45099804727760856	0.4837312582123208	-1.3108384357530443
0.4209731329028405	0.5127596481976363	-1.2603471986824344
0.3876770628118308	0.5411241889470337	-1.2098044586016568
0.35112997503431553	0.5681401645933576	-1.1600731751468
0.3115367431121127	0.5930874571939392	-1.112024916699202
0.26930761004395287	0.6152873414751556	-1.066469982642595
0.22504430444159254	0.634182420986785	-1.0240912639572155
0.17948981555221155	0.6494003353967025	-0.9853974294326915
0.13345515298862515	0.6607854221254056	-0.9506973890525627
0.08773849733203275	0.6683951126161292	-0.920103739030453
0.04305701013805765	0.6724661175997696	-0.8935547880733066
0.5568515175374585	0.09334445758301882	-0.37024195181398295
0.5390753439014231	0.1562152197110974	-0.3636719174137833
0.5158181551187883	0.22173925717728943	-0.36406955815197756
0.48686420195632335	0.2883108450878967	-0.3726308673405474
0.4523863111408103	0.35395564252797784	-0.39020945292223813
0.4130105424934987	0.41651789655248367	-0.4171339699677121
0.36980278362106594	0.47393019470779646	-0.45309189982338577
0.3241614692319467	0.5245042999425502	-0.4971249469389123
0.27763489317644685	0.5671592777670046	-0.547746507150471
0.23171234101366006	0.601522676258435	-0.6031548626950689
0.18764783494894766	0.6278839330058655	-0.6614754043196264
0.14635455037809028	0.6470360182098732	-0.7209704698978702
0.10838238303662867	0.6600673156449617	-0.7801783974117942
0.0739575486074076	0.6681649057248527	-0.8379722507330191
0.5788620012294649	0.12899316777255573	-0.4325959502680017
0.5601271659251016	0.19249483789817276	-0.43069435467656575
0.5355926467650463	0.2578666144392874	-0.43598539989975393
0.5051322097929447	0.32332475584458314	-0.4494618225241739
0.4690601451048026	0.3867988110165628	-0.47170297837269287
0.42817436061074654	0.44616609338812285	-0.5027237645864638
0.3837055564911807	0.49954252135059024	-0.5419110746729017
0.33716971296896364	0.5455520492639813	-0.5880779304417392
0.29015894143339566	0.5834945521958899	-0.6396269446030696
0.24413020475441452	0.6133676097122411	-0.6947760787431309
0.2002485191603053	0.6357523405494236	-0.751781933351673
0.15931327893572741	0.6516183041475208	-0.8091086879622862
0.12176377256759725	0.6621142570617871	-0.8655202392681589
0.5962691552532411	0.16337808623601918	-0.502294541867357
0.5762266465375375	0.2266535915824698	-0.5053184322211985
0.5501750735695462	0.2909049529892702	-0.5155603799017658
0.5181220160287677	0.35424327119922167	-0.5337564221206003
0.48055183479622265	0.4146070629150562	-0.5601827299941242
0.43843567467533145	0.4700254143739113	-0.5945518638267289
0.3931385201248549	0.5189002856196847	-0.636005804944209
0.34623834090769384	0.5602254327612312	-0.6832196996791917
0.29930522378504887	0.5936784545239266	-0.7345888072087153
0.25370512050727323	0.6195679387688243	-0.788443259983409
0.21047457658265245	0.638672855357169	-0.843234036611522
0.1702814145932045	0.6520380048786172	-0.8976551360315642
0.6084904829727759	0.19565557461123567	-0.5786368999057291
0.5868730757355407	0.25780833906262973	-0.58660454552246
0.5591897878096406	0.3200026095135197	-0.6015888978696247
0.5256162918717473	0.38033958105800486	-0.624040219324406
0.48681619976176427	0.43687881429694125	-0.6539385354409025
0.4439095549485261	0.48790374497096006	-0.690740515334322
0.3983416484575199	0.5321658499770133	-0.7334252580068493
0.3516824306121472	0.5690340364189745	-0.7806281581897498
0.3054131737750539	0.5985104710774044	-0.8308276626131796
0.26076037990862827	0.6211223500080526	-0.8825297935802267
0.21860806718990478	0.6377426609195376	-0.9344108302085141
0.6152978708845993	0.22509804410068734	-0.6605670996040329
0.5919791549686173	0.2852856834761694	-0.6732437788824251
0.5627196350517196	0.34462630935309807	-0.6925104440800289
0.5278773657631848	0.40131299768443857	-0.7185355253481884
0.48827731189870704	0.45362357755917954	-0.7510405292116977
0.44513899377224436	0.5001611893615454	-0.7892986786098147
0.39991838525540746	0.5400389332009732	-0.8322158703457607
0.3541061960616834	0.572955848269935	-0.8784736846108575
0.30904021559860767	0.5991513283232687	-0.9266972036000333
0.26577752967029955	0.6192687374858274	-0.9756013885564321
0.6168879770646412	0.2511985409895423	-0.746755919251599
0.5919211648420097	0.30872829345710934	-0.7636794102137984
0.5613242215663018	0.3646513873449751	-0.7865729996359041
0.5256251025439724	0.41734043322898806	-0.8153539382098534
0.48576655825808046	0.4653547910642721	-0.8495483389433984
0.44300123892634674	0.5076342516884536	-0.8883254142863223
0.39872437733958754	0.5436168728821085	-0.9305973499352223
0.3542894875994086	0.5732524588575827	-0.9751542277178687
0.3108571169853958	0.5969198898458022	-1.0208016440783327
0.6138804992787463	0.2737440372705782	-0.8357244508042471
0.5875007065028345	0.3281468182393494	-0.8562619059024539
0.5559601058092514	0.3803715559524869	-0.8820085425082638
0.5199186178339642	0.42902806823926537	-0.9126834245367059
0.48037569181421186	0.4729764883225801	-0.9476860862238196
0.43854871176694205	0.5114644359314506	-0.9861548181749812
0.3957136547094782	0.5441853661871743	-1.027067818040388
0.35305153179947985	0.571249370015053	-1.0693589484427841
0.6072333988895849	0.2928355599543343	-0.9259747560063909
0.5798198237441062	0.34389787691575097	-0.949393662822892
0.5478203619076052	0.39242266556636074	-0.9771818714097424
0.5119720818381591	0.43727636246241736	-1.0089197729850587
0.4732673420891032	0.4775980164053805	-1.0439457850689442
0.4328318025772899	0.5128837800825402	-1.0814237948771792
0.3917865296710833	0.5430014743832818	-1.1204352785377043
0.5980935923016992	0.3088455764511309	-1.0160985245697585
0.5701013726781211	0.3565939424721121	-1.041635297538786
0.5381379175485211	0.40164285367604513	-1.0706800988210259
0.5029591994778722	0.4430997208333299	-1.1027323044027644
0.4654975990642983	0.48033367427714524	-1.1371220651965572
0.42675173742384354	0.5130190569120767	-1.17307797171298
0.5876208896944576	0.322327192779616	-1.1048491381399437
0.5595037354691544	0.3669725186178138	-1.131762666005155
0.5280070048887234	0.40891192451979447	-1.1613487958621747
0.4938571713336628	0.44745489792780085	-1.1930746020609393
0.4578926715885399	0.48214153327270576	-1.2263017078599645
0.5768319724839123	0.3339003722490099	-1.1911750635217426
0.5489762418451284	0.3757631808272255	-1.2187849638928536
0.5182642591328779	0.4150145638738861	-1.2482921041406456
0.4853610431956391	0.4511185307347147	-1.2791699062028357
0.5664970878001936	0.34414863917324956	-1.2742325798020522
0.5391829284395908	0.38358567739317495	-1.3019432166514462
0.5094445105250209	0.4205553859583988	-1.33085898395059
0.5571039284819972	0.3535472808030529	-1.3533853392465895
0.5304959981600443	0.390895717921526	-1.3807003139252942
0.5488793178688167	0.3624320404418164	-1.428197896977234
0.5649349692529667	0.3353325948620378	-1.6059465369890535
0.5724872346978478	0.3251122551880659	-1.6768013358394322
0.5811746821371365	0.3143518227938264	-1.7518696783270833
0.5908877780847601	0.3028070286684153	-1.8308049257233214
0.6012984020734243	0.2901207832450277	-1.9130798091952992
0.611820706945821	0.27583918795926904	-1.997980792450593
0.6216154629285447	0.25945921126683874	-2.0846099579176833
0.6296525224697732	0.24050589267295291	-2.1718955433052156
0.6348298193578488	0.21862429197128305	-2.25861535742447
0.6361272839630109	0.19366371719622705	-2.3434433167088287
0.6327599645473768	0.16572927623722222	-2.425025618529577
0.6242911987000586	0.13518549538858968	-2.502082536625537
0.6106799316485455	0.10261169869791392	-2.573516371149473
0.592255907437963	0.0687228619948769	-2.638502179754867
0.5696396228931111	0.034278429055825045	-2.696539166544841
0.5310574375526239	0.0572845685335577	-2.7634218627912155
0.5138713879509528	0.11878013928023053	-2.774209210500925
0.4915863844628356	0.1835546722644287	-2.7784077803039264
0.4639419683731576	0.25022460876933333	-2.7746841797126325
0.4310077675304571	0.31699333567820503	-2.7619660467789933
0.3932587597126841	0.38178358925082023	-2.7396361470253243
0.35158917384821625	0.4424648192189772	-2.7076878603625643
0.3072454955584305	0.49713365309406615	-2.666787378464255
0.261678538170647	0.5443774988234636	-2.618213158386975
0.21635255358477426	0.583442852332012	-2.5636810444098086
0.17256220315701973	0.6142652478581367	-2.50510736949949
0.1313053879490957	0.6373697905332266	-2.4443706165795165
0.09323123871457673	0.6536890490564584	-2.383131979309257
0.05865685619731705	0.6643614430277442	-2.3227332373612732
0.02762852742031519	0.6705578896732423	-2.264170098852294
0.5488788737188993	0.3624317471639399	-1.6507719971607848
0.5304953703692983	0.3908952553342204	-1.698269588055741
0.5094437038263724	0.4205547200145041	-1.748111053386782
0.48536008934085406	0.4511176441749563	-1.7998000208462832
0.4578916263025278	0.48214043263093564	-1.8526682268652956
0.4267506495958605	0.5130177491810543	-1.9058920942259003
0.3917854318095591	0.5429999527882775	-1.9585346635749352
0.3530504697814921	0.5712476516338769	-2.0096109946421277
0.31085613337663676	0.5969180010821227	-2.05816830635092
0.2657766573832019	0.6192667050336094	-2.1033687172764224
0.21860732497477348	0.6377404956643441	-2.1445591454868427
0.17028082191200747	0.6520357353962655	-2.181314834375573
0.12176334110230067	0.6621119108851019	-2.2134498453218896
0.07395728466843923	0.6681625211845422	-2.240997736619407
0.5571031187937184	0.3535467669616049	-1.7255845729813697
0.5391819774660217	0.38358500085127895	-1.7770267016963373
0.518263175402736	0.41501369604674143	-1.8306778226281444
0.493855975344584	0.4474538143125326	-1.8858953336681608
0.46549634398455675	0.48033237919621474	-1.9418480043953934
0.4328305347198908	0.5128822777356896	-1.9975461554306924
0.39571242062495504	0.5441836690742995	-2.0519022749675755
0.3542883232704473	0.5732505749336635	-2.103815742503292
0.309039159552893	0.599149280915971	-2.1522727642821446
0.26075946716135046	0.6211201758751022	-2.196440194385978
0.2104738248182855	0.6386705741719418	-2.235736091032085
0.1593127045223832	0.651615954699617	-2.269861404646578
0.10838199159952348	0.660064931725804	-2.2987915805698322
0.566495979344248	0.34414796578301776	-1.8047373451103275
0.5489750011918488	0.37576233162504313	-1.8601850942506255
0.5280056496739951	0.4089108749817058	-1.9176211455408028
0.5029577647837157	0.44309845688869803	-1.9762377708990517
0.47326587790304575	0.4775965388211602	-2.035024164507674
0.4385472783236419	0.5114627641553189	-2.0928151424793557
0.3987230197692921	0.5436150219841933	-2.148372624319626
0.3541049534601906	0.5729538376985293	-2.2004962937996786
0.30541207869893555	0.5985083250844356	-2.2481424623640907
0.2537042050325822	0.6195657031073358	-2.2905267148668376
0.20024779744631874	0.6357500492398146	-2.3271880109141625
0.14635402164211644	0.647033680658917	-2.3579995263524007
0.5768305616125674	0.3338995555632337	-1.887794872719166
0.5595022060976849	0.366971515519417	-1.947207403388686
0.5381363035146951	0.40164164903104493	-2.0082898451188766
0.5119704215872515	0.43727494443885045	-2.0700501564475102
0.48037406833412594	0.47297488984887925	-2.1312840037409555
0.4429996929909929	0.5076324802041606	-2.190644578161738
0.39991695579150655	0.5400370028917186	-2.2467541119434573
0.35168116050549797	0.5690319813435701	-2.298341819788547
0.29930414282316714	0.5936763104124032	-2.3443811676511284
0.2441293270263455	0.6133654044547301	-2.384194015489268
0.18764717158098346	0.6278817133261847	-2.417494567654374
0.5876192165478644	0.32232627500992145	-1.9741209364049472
0.5700996134048407	0.3565928420604573	-2.0373347875740655
0.5478185655154154	0.39242137874852684	-2.1017880999909937
0.5199168172695604	0.42902658244390934	-2.16628651437231
0.4857648267832492	0.46535313234550146	-2.2294217702368555
0.44513738772974065	0.5001593848013067	-2.2896712955456096
0.39834020952082627	0.5321639276247522	-2.3455447199683177
0.34623710079808245	0.5602234262216264	-2.3957502919803555
0.2901579131335812	0.5834924843384018	-2.439343191976318
0.23171155722243947	0.6015206415450892	-2.475815087012621
0.59809167999423	0.3088445889673821	-2.062871416565385
0.5798178652406247	0.3438967153045718	-2.1295764236944885
0.5559581591626763	0.38037022411414295	-2.196961444456998
0.5256232163137758	0.4173389355833778	-2.263616011798419
0.48827554191249	0.4536219331913983	-2.3279295662508455
0.4439079706978941	0.487902003711265	-2.3882294385422087
0.39313713983630105	0.5188984637882228	-2.4429641941675677
0.3371685667148862	0.5455501945859457	-2.490892085976017
0.2776339961841682	0.5671574453694731	-2.5312235005311665
0.6072313219465589	0.29283455835795447	-2.1529953485655207
0.5874986206910474	0.32814565321521616	-2.222708037263726
0.5613221955516993	0.3646500711911246	-2.2923969764912977
0.5278754459533269	0.40131153816997733	-2.360434622979827
0.4868144976561418	0.4368772867925433	-2.425031397730304
0.4384341934997361	0.4700238264780963	-2.484418109380356
0.3837043205358683	0.4995409122724245	-2.5370589467423046
0.3241604615437444	0.5245026694687115	-2.5818452888878247
0.6138783070964074	0.27374305972389845	-2.2432455354931804
0.5919190275552415	0.3087271787125525	-2.3152905545850917
0.5627176282160103	0.34462508030697836	-2.3864595019780914
0.5256144462743616	0.3803382455709826	-2.4549298159113966
0.48055024263767004	0.41460568924392777	-2.518787303628429
0.4281730574849237	0.4461647355054212	-2.576246288106882
0.36980175528660164	0.47392887681952073	-2.6258782260179485
0.6168857537328066	0.25119763564248787	-2.332214027330472
0.5919770116946139	0.28528465059285957	-2.4057263999779774
0.5591878687851083	0.3200015113302706	-2.4773812169902842
0.5181203400170018	0.35424212529946797	-2.545213640537684
0.4690587426669616	0.38679765453099246	-2.6072671758418138