# TIME=0.000000
VARIABLES=X,Y,Z
ZONE N=642 E=1280 F=FEPOINT ET=TRIANGLE
-1.6453126691655335	0.3020848475162768	0.4887835517453216
-1.6453126691655335	0.30208484751627684	-0.48878355174532157
-1.6453126691655335	-0.3020848475162768	0.4887835517453216
-1.6453126691655335	-0.30208484751627684	-0.48878355174532157
-0.3666627071049891	0.	0.5486504115817571
-2.923929566890904	0.	0.5484926279095359
-0.3666627071049891	6.719029703944768e-17	-0.5486504115817571
-2.923929566890904	6.717097411253333e-17	-0.5484926279095359
-0.9445889683131888	0.6324005057328154	3.8723362756242984e-17
-0.9445889683131888	-0.6324005057328154	3.8723362756242984e-17
-2.3460361027996277	0.632415901667296	3.872430548533707e-17
-2.3460361027996277	-0.632415901667296	3.872430548533707e-17
-1.5009939731805424	0.285704532073637	0.5030946007095594
-1.3394717691713456	0.2696576980742062	0.5262012618015343
-1.164588226865006	0.2510043532624777	0.5567361934825171
-0.9825950142412277	0.22462941316440213	0.5880874495974169
-0.801990772685462	0.18561674511798557	0.6096952912807201
-0.6330736911261508	0.1324913316200041	0.611849640865704
-0.4858150827446051	0.0685257879622799	0.5905576557703679
-1.491616298543041	-0.21767102172473526	0.5366129894234106
-1.3209741780116775	-0.19176191277033852	0.5612968499942523
-1.1392081558218285	-0.16023102936240444	0.5923296995856863
-0.9547091574499472	-0.11849985470360495	0.6204733304532885
-0.7776599476630648	-0.06431372938969761	0.6337540168460792
-0.6186415596236353	0.	0.6239526414953925
-1.4842433818653962	-0.13704279203182204	0.5630739501995509
-1.3081199740945828	-0.10010142122856798	0.5860037751073267
-1.1248999559315147	-0.05525231649871072	0.6127573393790979
-0.9445889683131888	0.	0.6324005057328154
-0.7776599476630648	0.06431372938969761	0.6337540168460792
-1.4801354068571104	-0.04688053379362529	0.5778603036330164
-1.3034826642229653	0.	0.5949830823327985
-1.1248999559315147	0.05525231649871072	0.6127573393790979
-0.9547091574499472	0.11849985470360495	0.6204733304532885
-1.4801354068571104	0.04688053379362529	0.5778603036330164
-1.3081199740945828	0.10010142122856798	0.5860037751073267
-1.1392081558218285	0.16023102936240444	0.5923296995856863
-1.4842433818653962	0.13704279203182204	0.5630739501995509
-1.3209741780116775	0.19176191277033852	0.5612968499942523
-1.491616298543041	0.21767102172473526	0.5366129894234106
-1.6453126691655335	0.24164427508187167	0.5213181944607922
-1.6453126691655335	0.16964581513729207	0.5489853485860141
-1.6453126691655335	0.08773936703378209	0.5678612674132785
-1.6453126691655335	0.	0.5745995262404101
-1.6453126691655335	-0.08773936703378209	0.5678612674132785
-1.6453126691655335	-0.16964581513729207	0.5489853485860141
-1.6453126691655335	-0.24164427508187167	0.5213181944607922
-1.7896307939974543	-0.28571275977911553	0.5031090888038589
-1.951151960953175	-0.26967148635940186	0.5262281678128213
-2.126035149551058	-0.2510181212337824	0.5567667313111904
-2.3080296757445065	-0.22463671435821642	0.5881065643713406
-2.4886350921640785	-0.18561357491186253	0.6096848781052041
-2.6575490074064474	-0.13247935545688436	0.6117943345221556
-2.804796351252302	-0.06851328919808997	0.5904499409800746
-1.7990084129238122	0.21767765580886442	0.5366293440841662
-1.9696494490038674	0.1917720094958938	0.5613264036223298
-2.151415305285168	0.160239596755857	0.5923613708644029
-2.3359159492705666	0.11850301250279696	0.6204898649054739
-2.5129659127301602	0.06431206091826037	0.6337375755591973
-2.671980729074361	0.	0.6238913812879352
-1.8063812806002066	0.13704715007849066	0.5630918563040346
-1.9825036098036608	0.10010677220491025	0.5860351002603424
-2.1657237043222897	0.05525521187937324	0.6127894496301006
-2.3460361027996277	0.	0.632415901667296
-2.5129659127301602	-0.06431206091826037	0.6337375755591973
-1.8104892285484304	0.0468820583556486	0.5778790957371672
-1.987140905238087	0.	0.5950150431057512
-2.1657237043222897	-0.05525521187937324	0.6127894496301006
-2.3359159492705666	-0.11850301250279696	0.6204898649054739
-1.8104892285484304	-0.0468820583556486	0.5778790957371672
-1.9825036098036608	-0.10010677220491025	0.5860351002603424
-2.151415305285168	-0.160239596755857	0.5923613708644029
-1.8063812806002066	-0.13704715007849066	0.5630918563040346
-1.9696494490038674	-0.1917720094958938	0.5613264036223298
-1.7990084129238122	-0.21767765580886442	0.5366293440841662
-1.556211148881025	0.3488620788281277	0.4584914515881864
-1.457233565555056	0.400632859402462	0.42111273638885494
-1.3522316929988987	0.45601907958290766	0.37438946433868475
-1.2472783141414983	0.5113884850869518	0.31605546891265257
-1.1494091958409784	0.561061959700335	0.24557346897346263
-1.064624297662266	0.5993378229949481	0.16565291051447853
-0.9962536895355713	0.6230283057555352	0.08178331648278764
-0.47518459226186166	0.19216376309601413	0.5591638427814484
-0.49558756343240845	0.3220514223613945	0.5031427794535244
-0.5532709393090278	0.44150809834298027	0.4237042104998898
-0.6450653349981365	0.5338751701711082	0.329952957511009
-0.7588075776503977	0.5913706882831997	0.23537505946798998
-0.8796626243721819	0.6177385693605668	0.151030058664505
-0.6434871424623866	0.2523403065809995	0.5744257697889762
-0.6835192182960818	0.370376786109141	0.5118480701896719
-0.7545241281829149	0.47067916929065673	0.4282381108007723
-0.8496416097545186	0.5417580231872858	0.334824887262024
-0.9568475992132369	0.5822983976976035	0.2444612998826997
-0.831751361444134	0.2946723481671145	0.5649718593043567
-0.8862391656224758	0.39526909870994587	0.49782709313581386
-0.9629293949264075	0.4754828943648218	0.4149434337806713
-1.053905464046042	0.5298809814769208	0.3274844395095232
-1.0269380106553423	0.3191261498808467	0.5380541057930639
-1.089231976267182	0.40214042254126575	0.47083424100665633
-1.165042609092985	0.46667647165605364	0.39383668785557874
-1.2176720237255563	0.33156800973681616	0.5055243480640355
-1.2818019455730179	0.40106326542720205	0.44265456645735296
-1.395822776880342	0.33970710967794154	0.4775054987387121
-1.7896307939974543	0.28571275977911553	0.5031090888038589
-1.951151960953175	0.26967148635940186	0.5262281678128213
-2.126035149551058	0.2510181212337824	0.5567667313111904
-2.3080296757445065	0.22463671435821642	0.5881065643713406
-2.4886350921640785	0.18561357491186253	0.6096848781052041
-2.6575490074064474	0.13247935545688436	0.6117943345221556
-2.804796351252302	0.06851328919808997	0.5904499409800746
-2.953402783041661	0.12015486512486968	0.5198186936632633
-2.9539270169732195	0.253131943909811	0.4693323683619977
-2.9153311976522827	0.3848916324181248	0.39646024653654616
-2.835588152427434	0.4972449071886548	0.3073142440237682
-2.723786032704483	0.5763611617148183	0.21372652019912053
-2.59583830471761	0.619731722945698	0.12767170936268274
-2.4667368337929227	0.63481003951576	0.056047731857844806
-1.8948013080130819	0.3397224251095979	0.4775270267039007
-2.008821525070786	0.40108529743421845	0.4426788832406506
-2.125580766162435	0.46670207938732144	0.39385829868166183
-2.236718543462774	0.5299045948276435	0.327499033362099
-2.333777482667265	0.5823141896320839	0.24446792967396483
-2.410963173062118	0.6177432860448222	0.15103121184019314
-2.072951303515357	0.3315866706292431	0.5055527993476374
-2.2013917600408326	0.40216012015324765	0.47085730337409637
-2.327695474266334	0.47549640991998415	0.41495522850753735
-2.440984175928642	0.5417573171833578	0.33482445092758034
-2.53181811452463	0.5913510868974797	0.2353672578007432
-2.263686379463253	0.3191390815724049	0.538075908925588
-2.4043864229562977	0.3952728461884745	0.497831812949097
-2.5361016655741246	0.4706627750950261	0.42822319486689836
-2.645557804188033	0.5338302429970567	0.32992519099407935
-2.458874526334677	0.2946702843835983	0.5649679024362704
-2.6071054056597633	0.3703525404688238	0.5118145635427321
-2.7373470577240093	0.44144791593152233	0.42364645495423064
-2.6471359353121886	0.2523188680543156	0.5743769672716122
-2.7950250325958845	0.3219949651203165	0.503054575982824
-2.8154255237015158	0.19212718687251468	0.5590574121966342
-1.7344138854211981	0.3488684693462895	0.45849985031687096
-1.833390929463729	0.4006473953232674	0.4211280153687055
-1.9383921088206886	0.4560418652612119	0.37440817127064624
-2.043345182037533	0.5114171727579473	0.3160731988685919
-2.141214362811087	0.5610923254479389	0.2455867598798378
-2.225999611065041	0.5993653902646073	0.16566052992089472
-2.2943710125058208	0.623050212760385	0.08178619215873088
-1.1611364893401275	0.605903759508869	0.0795354369873905
-1.34503649959016	0.5856964117480287	0.07688286429998818
-1.5433669300673327	0.5716876606782725	0.07504396095616878
-1.7472580500297112	0.5716995813281683	0.07504552574905636
-1.9455872621131607	0.585726067940932	0.07688675719229367
-2.1294870319968986	0.6059369119404204	0.07953978882229704
-1.2422885622154634	0.5799935040972483	0.16030628028284127
-1.4381981710592142	0.5615476291909667	0.15520793916896589
-1.6453126691655335	0.5538342193155971	0.15307603689273805
-1.8524261984601098	0.5615696596823022	0.15521402824668845
-2.0483347966983643	0.5800260573484202	0.16031527778120913
-1.3372831896615642	0.5418602101325553	0.23716899328799296
-1.5406350752536044	0.5283097007254529	0.2312380290943828
-1.7499898916242902	0.5283210047632795	0.23124297680483416
-1.953340527750288	0.5418880211726689	0.2371811660149485
-1.4408973517317347	0.49542117079546966	0.3061871332471864
-1.6453126691655335	0.4887835517453216	0.30208484751627684
-1.8497270371224779	0.4954404013612246	0.3061990183908708
-1.5458955364587408	0.44556762892115814	0.3658088644901764
-1.74472958232456	0.44557669982496123	0.3658163116582486
-1.6453126691655335	0.39605420402073166	0.4162999916324865
-1.6453126691655335	0.24164427508187167	-0.5213181944607922
-1.6453126691655335	0.16964581513729202	-0.5489853485860141
-1.6453126691655335	0.08773936703378218	-0.5678612674132785
-1.6453126691655335	7.036814706019037e-17	-0.5745995262404101
-1.6453126691655335	-0.08773936703378218	-0.5678612674132785
-1.6453126691655335	-0.16964581513729202	-0.5489853485860141
-1.6453126691655335	-0.24164427508187167	-0.5213181944607922
-1.5009939731805424	-0.285704532073637	-0.5030946007095594
-1.3394717691713456	-0.2696576980742062	-0.5262012618015343
-1.164588226865006	-0.2510043532624777	-0.5567361934825171
-0.9825950142412277	-0.224629413164402	-0.5880874495974169
-0.801990772685462	-0.18561674511798548	-0.6096952912807202
-0.6330736911261508	-0.13249133162000412	-0.611849640865704
-0.4858150827446051	-0.06852578796227997	-0.5905576557703679
-1.491616298543041	0.21767102172473535	-0.5366129894234105
-1.3209741780116775	0.19176191277033858	-0.5612968499942523
-1.1392081558218285	0.16023102936240435	-0.5923296995856863
-0.9547091574499472	0.11849985470360488	-0.6204733304532885
-0.7776599476630648	0.06431372938969751	-0.6337540168460792
-0.6186415596236353	7.641216052268685e-17	-0.6239526414953925
-1.4842433818653962	0.137042792031822	-0.5630739501995509
-1.3081199740945828	0.10010142122856795	-0.5860037751073267
-1.1248999559315147	0.055252316498710846	-0.6127573393790979
-0.9445889683131888	7.744672551248597e-17	-0.6324005057328154
-0.7776599476630648	-0.06431372938969751	-0.6337540168460792
-1.4801354068571104	0.04688053379362529	-0.5778603036330164
-1.3034826642229653	7.286441273256878e-17	-0.5949830823327985
-1.1248999559315147	-0.055252316498710846	-0.6127573393790979
-0.9547091574499472	-0.11849985470360488	-0.6204733304532885
-1.4801354068571104	-0.04688053379362529	-0.5778603036330164
-1.3081199740945828	-0.10010142122856795	-0.5860037751073267
-1.1392081558218285	-0.16023102936240435	-0.5923296995856863
-1.4842433818653962	-0.137042792031822	-0.5630739501995509
-1.3209741780116775	-0.19176191277033858	-0.5612968499942523
-1.491616298543041	-0.21767102172473535	-0.5366129894234105
-1.7896307939974543	0.28571275977911553	-0.5031090888038589
-1.951151960953175	0.26967148635940186	-0.5262281678128213
-2.126035149551058	0.2510181212337824	-0.5567667313111904
-2.3080296757445065	0.2246367143582163	-0.5881065643713406
-2.4886350921640785	0.18561357491186245	-0.6096848781052042
-2.6575490074064474	0.13247935545688438	-0.6117943345221556
-2.804796351252302	0.06851328919809004	-0.5904499409800746
-1.7990084129238122	-0.21767765580886447	-0.5366293440841661
-1.9696494490038674	-0.19177200949589387	-0.5613264036223298
-2.151415305285168	-0.16023959675585692	-0.5923613708644029
-2.3359159492705666	-0.1185030125027969	-0.6204898649054739
-2.5129659127301602	-0.06431206091826026	-0.6337375755591973
-2.671980729074361	7.640465831098908e-17	-0.6238913812879352
-1.8063812806002066	-0.13704715007849064	-0.5630918563040346
-1.9825036098036608	-0.10010677220491022	-0.5860351002603424
-2.1657237043222897	-0.05525521187937336	-0.6127894496301006
-2.3460361027996277	7.744861097067414e-17	-0.632415901667296
-2.5129659127301602	0.06431206091826026	-0.6337375755591973
-1.8104892285484304	-0.0468820583556486	-0.5778790957371672
-1.987140905238087	7.286832679839825e-17	-0.5950150431057512
-2.1657237043222897	0.05525521187937336	-0.6127894496301006
-2.3359159492705666	0.1185030125027969	-0.6204898649054739
-1.8104892285484304	0.0468820583556486	-0.5778790957371672
-1.9825036098036608	0.10010677220491022	-0.5860351002603424
-2.151415305285168	0.16023959675585692	-0.5923613708644029
-1.8063812806002066	0.13704715007849064	-0.5630918563040346
-1.9696494490038674	0.19177200949589387	-0.5613264036223298
-1.7990084129238122	0.21767765580886447	-0.5366293440841661
-1.5009939731805424	0.285704532073637	-0.5030946007095594
-1.3394717691713456	0.2696576980742062	-0.5262012618015343
-1.164588226865006	0.2510043532624777	-0.5567361934825171
-0.9825950142412277	0.224629413164402	-0.5880874495974169
-0.801990772685462	0.18561674511798548	-0.6096952912807202
-0.6330736911261508	0.13249133162000412	-0.611849640865704
-0.4858150827446051	0.06852578796227997	-0.5905576557703679
-0.33718282696292756	0.12019337087738617	-0.5199852787611775
-0.33665868818616557	0.2532132756046899	-0.46948316559600467
-0.3752628771175463	0.38499893197730073	-0.3965707711780327
-0.45501944572082026	0.49734755891814725	-0.30737768627966777
-0.5668329649790552	0.5764348864231267	-0.21375385883053108
-0.6947863816939519	0.6197690408343783	-0.12767939726772481
-0.8238890875123983	0.6348161316606403	-0.056048269736708387
-1.395822776880342	0.3397071096779415	-0.4775054987387122
-1.2818019455730179	0.40106326542720205	-0.442654566457353
-1.165042609092985	0.4666764716560535	-0.39383668785557885
-1.053905464046042	0.5298809814769208	-0.32748443950952333
-0.9568475992132369	0.5822983976976034	-0.2444612998826998
-0.8796626243721819	0.6177385693605668	-0.15103005866450506
-1.2176720237255563	0.33156800973681616	-0.5055243480640355
-1.089231976267182	0.40214042254126586	-0.4708342410066563
-0.9629293949264075	0.4754828943648218	-0.4149434337806713
-0.8496416097545186	0.5417580231872857	-0.334824887262024
-0.7588075776503977	0.5913706882831997	-0.23537505946799006
-1.0269380106553423	0.31912614988084653	-0.538054105793064
-0.8862391656224758	0.39526909870994575	-0.497827093135814
-0.7545241281829149	0.4706791692906567	-0.42823811080077245
-0.6450653349981365	0.5338751701711082	-0.32995295751100895
-0.831751361444134	0.2946723481671146	-0.5649718593043567
-0.6835192182960818	0.37037678610914093	-0.511848070189672
-0.5532709393090278	0.4415080983429803	-0.4237042104998898
-0.6434871424623866	0.2523403065809995	-0.5744257697889761
-0.49558756343240845	0.32205142236139445	-0.5031427794535244
-0.47518459226186166	0.1921637630960141	-0.5591638427814484
-1.7344138854211981	0.34886846934628946	-0.458499850316871
-1.833390929463729	0.40064739532326743	-0.4211280153687055
-1.9383921088206886	0.45604186526121193	-0.37440817127064613
-2.043345182037533	0.5114171727579473	-0.3160731988685918
-2.141214362811087	0.5610923254479387	-0.24558675987983786
-2.225999611065041	0.5993653902646072	-0.1656605299208948
-2.2943710125058208	0.623050212760385	-0.08178619215873081
-2.8154255237015158	0.19212718687251462	-0.5590574121966342
-2.7950250325958845	0.32199496512031645	-0.5030545759828241
-2.7373470577240093	0.4414479159315224	-0.42364645495423064
-2.645557804188033	0.5338302429970567	-0.3299251909940793
-2.53181811452463	0.5913510868974797	-0.23536725780074327
-2.410963173062118	0.6177432860448222	-0.1510312118401932
-2.6471359353121886	0.25231886805431564	-0.5743769672716121
-2.6071054056597633	0.3703525404688237	-0.5118145635427322
-2.5361016655741246	0.470662775095026	-0.4282231948668985
-2.440984175928642	0.5417573171833577	-0.33482445092758034
-2.333777482667265	0.5823141896320838	-0.2444679296739649
-2.458874526334677	0.2946702843835984	-0.5649679024362704
-2.4043864229562977	0.39527284618847447	-0.4978318129490972
-2.327695474266334	0.47549640991998415	-0.41495522850753735
-2.236718543462774	0.5299045948276434	-0.32749903336209907
-2.263686379463253	0.3191390815724047	-0.538075908925588
-2.2013917600408326	0.40216012015324776	-0.4708573033740963
-2.125580766162435	0.46670207938732133	-0.3938582986816619
-2.072951303515357	0.3315866706292431	-0.5055527993476374
-2.008821525070786	0.40108529743421845	-0.44267888324065063
-1.8948013080130819	0.3397224251095978	-0.4775270267039008
-1.556211148881025	0.34886207882812764	-0.45849145158818644
-1.457233565555056	0.40063285940246207	-0.42111273638885494
-1.3522316929988987	0.45601907958290777	-0.37438946433868464
-1.2472783141414983	0.5113884850869518	-0.31605546891265246
-1.1494091958409784	0.5610619597003349	-0.24557346897346272
-1.064624297662266	0.599337822994948	-0.1656529105144786
-0.9962536895355713	0.6230283057555352	-0.08178331648278757
-1.095899908358811	0.6184686875177873	3.7870284927076136e-17
-1.2655263626509365	0.5991215868717215	3.668561668312683e-17
-1.4507266070203189	0.5816944918900996	3.5618514878742824e-17
-1.6453126691655335	0.5745995262404101	3.5184073530095186e-17
-1.8398978474563832	0.5817161887344676	3.561984342729317e-17
-2.0250971669513445	0.59915495483169	3.6687659881395306e-17
-2.1947237825965513	0.618499423058042	3.7872166936125785e-17
-1.6453126691655335	0.3960542040207316	-0.4162999916324866
-1.74472958232456	0.44557669982496123	-0.3658163116582486
-1.8497270371224779	0.4954404013612246	-0.30619901839087077
-1.953340527750288	0.5418880211726689	-0.2371811660149486
-2.0483347966983643	0.58002605734842	-0.1603152777812092
-2.1294870319968986	0.6059369119404204	-0.07953978882229694
-1.5458955364587408	0.44556762892115814	-0.3658088644901764
-1.6453126691655335	0.4887835517453216	-0.3020848475162768
-1.7499898916242902	0.5283210047632795	-0.23124297680483424
-1.8524261984601098	0.5615696596823022	-0.15521402824668848
-1.9455872621131607	0.585726067940932	-0.0768867571922936
-1.4408973517317347	0.49542117079546966	-0.3061871332471864
-1.5406350752536044	0.5283097007254529	-0.23123802909438287
-1.6453126691655335	0.5538342193155971	-0.153076036892738
-1.7472580500297112	0.5716995813281683	-0.0750455257490564
-1.3372831896615642	0.5418602101325553	-0.237168993287993
-1.4381981710592142	0.5615476291909667	-0.1552079391689659
-1.5433669300673327	0.5716876606782725	-0.07504396095616882
-1.2422885622154634	0.5799935040972483	-0.16030628028284136
-1.34503649959016	0.5856964117480287	-0.07688286429998813
-1.1611364893401275	0.605903759508869	-0.0795354369873904
-1.5009939731805424	-0.285704532073637	0.5030946007095594
-1.3394717691713456	-0.2696576980742062	0.5262012618015343
-1.164588226865006	-0.2510043532624777	0.5567361934825171
-0.9825950142412277	-0.22462941316440213	0.5880874495974169
-0.801990772685462	-0.18561674511798557	0.6096952912807201
-0.6330736911261508	-0.1324913316200041	0.611849640865704
-0.4858150827446051	-0.0685257879622799	0.5905576557703679
-0.33718282696292756	-0.12019337087738625	0.5199852787611775
-0.33665868818616557	-0.25321327560468987	0.4694831655960047
-0.3752628771175463	-0.38499893197730084	0.3965707711780327
-0.45501944572082026	-0.4973475589181472	0.3073776862796679
-0.5668329649790552	-0.5764348864231267	0.213753858830531
-0.6947863816939519	-0.6197690408343782	0.1276793972677249
-0.8238890875123983	-0.6348161316606403	0.05604826973670846
-1.395822776880342	-0.33970710967794154	0.4775054987387121
-1.2818019455730179	-0.40106326542720205	0.44265456645735296
-1.165042609092985	-0.46667647165605364	0.39383668785557874
-1.053905464046042	-0.5298809814769208	0.3274844395095232
-0.9568475992132369	-0.5822983976976035	0.2444612998826997
-0.8796626243721819	-0.6177385693605668	0.151030058664505
-1.2176720237255563	-0.33156800973681616	0.5055243480640355
-1.089231976267182	-0.40214042254126575	0.47083424100665633
-0.9629293949264075	-0.4754828943648218	0.4149434337806713
-0.8496416097545186	-0.5417580231872858	0.334824887262024
-0.7588075776503977	-0.5913706882831997	0.23537505946798998
-1.0269380106553423	-0.3191261498808467	0.5380541057930639
-0.8862391656224758	-0.39526909870994587	0.49782709313581386
-0.7545241281829149	-0.47067916929065673	0.4282381108007723
-0.6450653349981365	-0.5338751701711082	0.329952957511009
-0.831751361444134	-0.2946723481671145	0.5649718593043567
-0.6835192182960818	-0.370376786109141	0.5118480701896719
-0.5532709393090278	-0.44150809834298027	0.4237042104998898
-0.6434871424623866	-0.2523403065809995	0.5744257697889762
-0.49558756343240845	-0.3220514223613945	0.5031427794535244
-0.47518459226186166	-0.19216376309601413	0.5591638427814484
-1.7344138854211981	-0.3488684693462895	0.45849985031687096
-1.833390929463729	-0.4006473953232674	0.4211280153687055
-1.9383921088206886	-0.4560418652612119	0.37440817127064624
-2.043345182037533	-0.5114171727579473	0.3160731988685919
-2.141214362811087	-0.5610923254479389	0.2455867598798378
-2.225999611065041	-0.5993653902646073	0.16566052992089472
-2.2943710125058208	-0.623050212760385	0.08178619215873088
-2.8154255237015158	-0.19212718687251468	0.5590574121966342
-2.7950250325958845	-0.3219949651203165	0.503054575982824
-2.7373470577240093	-0.44144791593152233	0.42364645495423064
-2.645557804188033	-0.5338302429970567	0.32992519099407935
-2.53181811452463	-0.5913510868974797	0.2353672578007432
-2.410963173062118	-0.6177432860448222	0.15103121184019314
-2.6471359353121886	-0.2523188680543156	0.5743769672716122
-2.6071054056597633	-0.3703525404688238	0.5118145635427321
-2.5361016655741246	-0.4706627750950261	0.42822319486689836
-2.440984175928642	-0.5417573171833578	0.33482445092758034
-2.333777482667265	-0.5823141896320839	0.24446792967396483
-2.458874526334677	-0.2946702843835983	0.5649679024362704
-2.4043864229562977	-0.3952728461884745	0.497831812949097
-2.327695474266334	-0.47549640991998415	0.41495522850753735
-2.236718543462774	-0.5299045948276435	0.327499033362099
-2.263686379463253	-0.3191390815724049	0.538075908925588
-2.2013917600408326	-0.40216012015324765	0.47085730337409637
-2.125580766162435	-0.46670207938732144	0.39385829868166183
-2.072951303515357	-0.3315866706292431	0.5055527993476374
-2.008821525070786	-0.40108529743421845	0.4426788832406506
-1.8948013080130819	-0.3397224251095979	0.4775270267039007
-1.556211148881025	-0.3488620788281277	0.4584914515881864
-1.457233565555056	-0.400632859402462	0.42111273638885494
-1.3522316929988987	-0.45601907958290766	0.37438946433868475
-1.2472783141414983	-0.5113884850869518	0.31605546891265257
-1.1494091958409784	-0.561061959700335	0.24557346897346263
-1.064624297662266	-0.5993378229949481	0.16565291051447853
-0.9962536895355713	-0.6230283057555352	0.08178331648278764
-1.095899908358811	-0.6184686875177873	3.7870284927076136e-17
-1.2655263626509365	-0.5991215868717215	3.668561668312683e-17
-1.4507266070203189	-0.5816944918900996	3.5618514878742824e-17
-1.6453126691655335	-0.5745995262404101	3.5184073530095186e-17
-1.8398978474563832	-0.5817161887344676	3.561984342729317e-17
-2.0250971669513445	-0.59915495483169	3.6687659881395306e-17
-2.1947237825965513	-0.618499423058042	3.7872166936125785e-17
-1.6453126691655335	-0.39605420402073166	0.4162999916324865
-1.74472958232456	-0.44557669982496123	0.3658163116582486
-1.8497270371224779	-0.4954404013612246	0.3061990183908708
-1.953340527750288	-0.5418880211726689	0.2371811660149485
-2.0483347966983643	-0.5800260573484202	0.16031527778120913
-2.1294870319968986	-0.6059369119404204	0.07953978882229704
-1.5458955364587408	-0.44556762892115814	0.3658088644901764
-1.6453126691655335	-0.4887835517453216	0.30208484751627684
-1.7499898916242902	-0.5283210047632795	0.23124297680483416
-1.8524261984601098	-0.5615696596823022	0.15521402824668845
-1.9455872621131607	-0.585726067940932	0.07688675719229367
-1.4408973517317347	-0.49542117079546966	0.3061871332471864
-1.5406350752536044	-0.5283097007254529	0.2312380290943828
-1.6453126691655335	-0.5538342193155971	0.15307603689273805
-1.7472580500297112	-0.5716995813281683	0.07504552574905636
-1.3372831896615642	-0.5418602101325553	0.23716899328799296
-1.4381981710592142	-0.5615476291909667	0.15520793916896589
-1.5433669300673327	-0.5716876606782725	0.07504396095616878
-1.2422885622154634	-0.5799935040972483	0.16030628028284127
-1.34503649959016	-0.5856964117480287	0.07688286429998818
-1.1611364893401275	-0.605903759508869	0.0795354369873905
-1.556211148881025	-0.34886207882812764	-0.45849145158818644
-1.457233565555056	-0.40063285940246207	-0.42111273638885494
-1.3522316929988987	-0.45601907958290777	-0.37438946433868464
-1.2472783141414983	-0.5113884850869518	-0.31605546891265246
-1.1494091958409784	-0.5610619597003349	-0.24557346897346272
-1.064624297662266	-0.599337822994948	-0.1656529105144786
-0.9962536895355713	-0.6230283057555352	-0.08178331648278757
-0.47518459226186166	-0.1921637630960141	-0.5591638427814484
-0.49558756343240845	-0.32205142236139445	-0.5031427794535244
-0.5532709393090278	-0.4415080983429803	-0.4237042104998898
-0.6450653349981365	-0.5338751701711082	-0.32995295751100895
-0.7588075776503977	-0.5913706882831997	-0.23537505946799006
-0.8796626243721819	-0.6177385693605668	-0.15103005866450506
-0.6434871424623866	-0.2523403065809995	-0.5744257697889761
-0.6835192182960818	-0.37037678610914093	-0.511848070189672
-0.7545241281829149	-0.4706791692906567	-0.42823811080077245
-0.8496416097545186	-0.5417580231872857	-0.334824887262024
-0.9568475992132369	-0.5822983976976034	-0.2444612998826998
-0.831751361444134	-0.2946723481671146	-0.5649718593043567
-0.8862391656224758	-0.39526909870994575	-0.497827093135814
-0.9629293949264075	-0.4754828943648218	-0.4149434337806713
-1.053905464046042	-0.5298809814769208	-0.32748443950952333
-1.0269380106553423	-0.31912614988084653	-0.538054105793064
-1.089231976267182	-0.40214042254126586	-0.4708342410066563
-1.165042609092985	-0.4666764716560535	-0.39383668785557885
-1.2176720237255563	-0.33156800973681616	-0.5055243480640355
-1.2818019455730179	-0.40106326542720205	-0.442654566457353
-1.395822776880342	-0.3397071096779415	-0.4775054987387122
-1.7896307939974543	-0.28571275977911553	-0.5031090888038589
-1.951151960953175	-0.26967148635940186	-0.5262281678128213
-2.126035149551058	-0.2510181212337824	-0.5567667313111904
-2.3080296757445065	-0.2246367143582163	-0.5881065643713406
-2.4886350921640785	-0.18561357491186245	-0.6096848781052042
-2.6575490074064474	-0.13247935545688438	-0.6117943345221556
-2.804796351252302	-0.06851328919809004	-0.5904499409800746
-2.953402783041661	-0.1201548651248696	-0.5198186936632633
-2.9539270169732195	-0.253131943909811	-0.46933236836199765
-2.9153311976522827	-0.38489163241812474	-0.39646024653654616
-2.835588152427434	-0.49724490718865494	-0.3073142440237681
-2.723786032704483	-0.5763611617148183	-0.2137265201991206
-2.59583830471761	-0.6197317229456981	-0.12767170936268266
-2.4667368337929227	-0.63481003951576	-0.056047731857844736
-1.8948013080130819	-0.3397224251095978	-0.4775270267039008
-2.008821525070786	-0.40108529743421845	-0.44267888324065063
-2.125580766162435	-0.46670207938732133	-0.3938582986816619
-2.236718543462774	-0.5299045948276434	-0.32749903336209907
-2.333777482667265	-0.5823141896320838	-0.2444679296739649
-2.410963173062118	-0.6177432860448222	-0.1510312118401932
-2.072951303515357	-0.3315866706292431	-0.5055527993476374
-2.2013917600408326	-0.40216012015324776	-0.4708573033740963
-2.327695474266334	-0.47549640991998415	-0.41495522850753735
-2.440984175928642	-0.5417573171833577	-0.33482445092758034
-2.53181811452463	-0.5913510868974797	-0.23536725780074327
-2.263686379463253	-0.3191390815724047	-0.538075908925588
-2.4043864229562977	-0.39527284618847447	-0.4978318129490972
-2.5361016655741246	-0.470662775095026	-0.4282231948668985
-2.645557804188033	-0.5338302429970567	-0.3299251909940793
-2.458874526334677	-0.2946702843835984	-0.5649679024362704
-2.6071054056597633	-0.3703525404688237	-0.5118145635427322
-2.7373470577240093	-0.4414479159315224	-0.42364645495423064
-2.6471359353121886	-0.25231886805431564	-0.5743769672716121
-2.7950250325958845	-0.32199496512031645	-0.5030545759828241
-2.8154255237015158	-0.19212718687251462	-0.5590574121966342
-1.7344138854211981	-0.34886846934628946	-0.458499850316871
-1.833390929463729	-0.40064739532326743	-0.4211280153687055
-1.9383921088206886	-0.45604186526121193	-0.37440817127064613
-2.043345182037533	-0.5114171727579473	-0.3160731988685918
-2.141214362811087	-0.5610923254479387	-0.24558675987983786
-2.225999611065041	-0.5993653902646072	-0.1656605299208948
-2.2943710125058208	-0.623050212760385	-0.08178619215873081
-1.1611364893401275	-0.605903759508869	-0.0795354369873904
-1.34503649959016	-0.5856964117480287	-0.07688286429998813
-1.5433669300673327	-0.5716876606782725	-0.07504396095616882