# TIME = 0.000000
VARIABLES = X, Y, Z
ZONE N=1442 E=2880 F=FEPOINT ET=TRIANGLE
-1.6453126392971753	0.30208484426843296	0.4887835537504191
-1.6453126392971753	0.30208484426843296	-0.4887835537504192
-1.6453126392971753	-0.30208484426843296	0.4887835537504191
-1.6453126392971753	-0.30208484426843296	-0.4887835537504192
-0.3691433688032984	0.	0.5498358774002792
-2.9214493237417933	0.	0.5496792343256915
-0.3691433688032984	6.733547473146285e-17	-0.5498358774002792
-2.9214493237417933	6.73162914874726e-17	-0.5496792343256915
-0.9456326358109883	0.6323288458633491	3.871897485475453e-17
-0.9456326358109883	-0.6323288458633491	3.871897485475453e-17
-2.3449925029329157	0.6323443970823658	3.871992709228411e-17
-2.3449925029329157	-0.6323443970823658	3.871992709228411e-17
-1.5512521774449135	0.29105620364564905	0.4973984789390666
-1.4491911432633557	0.2803993554403923	0.509775519862334
-1.3398858188050886	0.2696389204258774	0.5261645334529315
-1.2246085310131245	0.25777139065833354	0.5459684803679795
-1.1051061074976216	0.2433171701923627	0.5674934520775169
-0.9835688010279733	0.22460078480253948	0.5880124104400808
-0.8626307160323284	0.20020379097302587	0.6042217643043246
-0.745314926545656	0.16942439151521155	0.6129833229603914
-0.634798660517181	0.13254110669735167	0.6120794617255998
-0.533986804797054	0.09076456027277496	0.6006826155624794
-0.44505223646740777	0.04591709017157123	0.5793827974691044
-1.5470351395233655	-0.2489266980446907	0.5199352557008617
-1.4406013642748174	-0.23458073572595947	0.5330946880155029
-1.3270919863108945	-0.21938347200910888	0.5504114369120883
-1.2081791374255453	-0.20216350735593283	0.5709188140835769
-1.08604147090189	-0.18142004346441648	0.592381430862845
-0.9632908846936921	-0.15572423020145162	0.6115370377931167
-0.8429157960641832	-0.12421159047370377	0.6247914345428354
-0.728130110593541	-0.08694305430724258	0.629125661048863
-0.6220335820498832	-0.04495695465492599	0.6228384218853481
-0.5271509837060644	0.	0.6058299108475457
-1.5432201518034048	-0.2012117641240068	0.5403506023564294
-1.4330797694326125	-0.18270828998227445	0.5536164415890166
-1.3163646911071083	-0.16254696407310135	0.570939982618577
-1.1951847380223928	-0.1394967170450525	0.5909174603061189
-1.0721384937159313	-0.1122357576887793	0.6107960290131882
-0.9501773498647041	-0.07982461207916614	0.6269505248316495
-0.8324721421171195	-0.04213315716888321	0.6357968041102529
-0.7221751341932843	0.	0.6347543514300792
-0.6220335820498832	0.04495695465492599	0.6228384218853481
-1.5400480921489932	-0.1482428486344302	0.557344809745947
-1.4271693511867627	-0.12536878543664104	0.5698117858460233
-1.3085783944535472	-0.10009323284543487	0.5859561191440974
-1.1868060081112393	-0.07128524203241875	0.6039383006934681
-1.0647828061642843	-0.03801424244198778	0.6206296198591802
-0.9456326358109883	0.	0.6323288458633491
-0.8324721421171195	0.04213315716888321	0.6357968041102529
-0.728130110593541	0.08694305430724258	0.629125661048863
-1.5377614874337504	-0.09090263643023712	0.5696073372546132
-1.423376719656184	-0.06383122779131162	0.5802366499670403
-1.3044716082392056	-0.03381765247157434	0.5939160449292866
-1.1839067800272758	0.	0.6084668656679266
-1.0647828061642843	0.03801424244198778	0.6206296198591802
-0.9501773498647041	0.07982461207916614	0.6269505248316495
-0.8429157960641832	0.12421159047370377	0.6247914345428354
-1.5365608253113563	-0.03064359405099332	0.5760500478552785
-1.4220678175589407	0.	0.5838404290059577
-1.3044716082392056	0.03381765247157434	0.5939160449292866
-1.1868060081112393	0.07128524203241875	0.6039383006934681
-1.0721384937159313	0.1122357576887793	0.6107960290131882
-0.9632908846936921	0.15572423020145162	0.6115370377931167
-1.5365608253113563	0.03064359405099332	0.5760500478552785
-1.423376719656184	0.06383122779131162	0.5802366499670403
-1.3085783944535472	0.10009323284543487	0.5859561191440974
-1.1951847380223928	0.1394967170450525	0.5909174603061189
-1.08604147090189	0.18142004346441648	0.592381430862845
-1.5377614874337504	0.09090263643023712	0.5696073372546132
-1.4271693511867627	0.12536878543664104	0.5698117858460233
-1.3163646911071083	0.16254696407310135	0.570939982618577
-1.2081791374255453	0.20216350735593283	0.5709188140835769
-1.5400480921489932	0.1482428486344302	0.557344809745947
-1.4330797694326125	0.18270828998227445	0.5536164415890166
-1.3270919863108945	0.21938347200910888	0.5504114369120883
-1.5432201518034048	0.2012117641240068	0.5403506023564294
-1.4406013642748174	0.23458073572595947	0.5330946880155029
-1.5470351395233655	0.2489266980446907	0.5199352557008617
-1.6453126392971753	0.26309192837748585	0.5108299646420403
-1.6453126392971753	0.21889582634588675	0.5312713362886461
-1.6453126392971753	0.16964582959740623	0.5489853441156514
-1.6453126392971753	0.11593929280510613	0.5627812149827179
-1.6453126392971753	0.058875506880302256	0.5715752708464212
-1.6453126392971753	0.	0.5745995262385554
-1.6453126392971753	-0.058875506880302256	0.5715752708464212
-1.6453126392971753	-0.11593929280510613	0.5627812149827179
-1.6453126392971753	-0.16964582959740623	0.5489853441156514
-1.6453126392971753	-0.21889582634588675	0.5312713362886461
-1.6453126392971753	-0.26309192837748585	0.5108299646420403
-1.7393729044702404	-0.29106182005872433	0.4974080770692068
-1.8414333690149136	-0.2804098832485358	0.5097946597739109
-1.950737982365861	-0.26965270099277044	0.5261914243985655
-2.0660148773846685	-0.2577858943121935	0.5459991995949561
-2.1855175972818293	-0.24332948956612183	0.5675221847967757
-2.30705581144894	-0.22460812653384268	0.5880316313396168
-2.4279951129173054	-0.20020432289581477	0.6042233696651642
-2.545310678796799	-0.16941786765318337	0.6129597194013713
-2.6558241953022983	-0.13252924417596665	0.6120246801873663
-2.7566293916825892	-0.09075107631370655	0.6005933783119819
-2.8455540551910645	-0.04590723639211377	0.57925846227525
-1.7435899244591315	0.2489317085779816	0.5199457212432415
-1.8500229621289324	0.23458985024009588	0.5331154011361047
-1.96353160868483	0.2193949202976863	0.5504401595360324
-2.082444250314963	0.20217488315037951	0.570950939837427
-2.2045823604361505	0.1814288672024977	0.5924102425558107
-2.327334058784451	0.15572867020002215	0.6115544738951935
-2.4477101083866453	0.1242111669340445	0.6247893041140221
-2.5624953631084675	0.08693908526437233	0.6290969407935261
-2.668588778381303	0.04495262409461977	0.6227784258431849
-2.763464811157174	0.	0.6057370926914273
-1.7474048947701066	0.2012159665182313	0.5403618878111365
-1.8575445012744032	0.18271560004452997	0.5536385914906663
-1.9742589875939351	0.16255557451313155	0.570970226459237
-2.095438654573893	0.13950453448234343	0.5909505754954072
-2.2184852919532347	0.112241026863023	0.6108247042836235
-2.3404477392699947	0.07982665775510524	0.6269665917760449
-2.458153825469414	0.042132872063418036	0.6357925018182868
-2.568450260521804	0.	0.6347237656411145
-2.668588778381303	-0.04495262409461977	0.6227784258431849
-1.7505768118912204	0.14824603729202163	0.5573567980595486
-1.863455004438233	0.12537391384557575	0.5698350949005337
-1.9820452598940999	0.10009858197871231	0.5859874335225717
-2.103817394738788	0.07128921863336278	0.6039719909994586
-2.2258411756537138	0.038015992212219574	0.6206581870267479
-2.3449925029329157	0.	0.6323443970823658
-2.458153825469414	-0.042132872063418036	0.6357925018182868
-2.5624953631084675	-0.08693908526437233	0.6290969407935261
-1.752863532017137	0.09090463391234968	0.5696198537284145
-1.867247609720719	0.0638338737735857	0.58026070239316
-1.9861520335311638	0.03381946760549721	0.5939479228711809
-2.1067166272762416	0.	0.6085007460300027
-2.2258411756537138	-0.038015992212219574	0.6206581870267479
-2.3404477392699947	-0.07982665775510524	0.6269665917760449
-2.4477101083866453	-0.1242111669340445	0.6247893041140221
-1.7540641879957242	0.030644274680948675	0.5760628425985355
-1.8685563746523943	0.	0.5838647288740293
-1.9861520335311638	-0.03381946760549721	0.5939479228711809
-2.103817394738788	-0.07128921863336278	0.6039719909994586
-2.2184852919532347	-0.112241026863023	0.6108247042836235
-2.327334058784451	-0.15572867020002215	0.6115544738951935
-1.7540641879957242	-0.030644274680948675	0.5760628425985355
-1.867247609720719	-0.0638338737735857	0.58026070239316
-1.9820452598940999	-0.10009858197871231	0.5859874335225717
-2.095438654573893	-0.13950453448234343	0.5909505754954072
-2.2045823604361505	-0.1814288672024977	0.5924102425558107
-1.752863532017137	-0.09090463391234968	0.5696198537284145
-1.863455004438233	-0.12537391384557575	0.5698350949005337
-1.9742589875939351	-0.16255557451313155	0.570970226459237
-2.082444250314963	-0.20217488315037951	0.570950939837427
-1.7505768118912204	-0.14824603729202163	0.5573567980595486
-1.8575445012744032	-0.18271560004452997	0.5536385914906663
-1.96353160868483	-0.2193949202976863	0.5504401595360324
-1.7474048947701066	-0.2012159665182313	0.5403618878111365
-1.8500229621289324	-0.23458985024009588	0.5331154011361047
-1.7435899244591315	-0.2489317085779816	0.5199457212432415
-1.587205257737746	0.3326945858015557	0.46928255866614993
-1.5243388645513438	0.36558950607910484	0.44691236300195386
-1.457485524767739	0.4006210028895646	0.4211002197177745
-1.3879107994410271	0.437304666320146	0.3911371560708499
-1.317342154057585	0.4746908655231354	0.3562890229746624
-1.24782445790657	0.5113358438237395	0.31602296835375376
-1.181476863637714	0.5454525874770813	0.2702891323213665
-1.1202061083940094	0.5752372011561883	0.21972106531389723
-1.0654556838245886	0.5992544137788843	0.16562985118925433
-1.018057511154092	0.6167181307613294	0.10977474577967221
-0.9782205958187524	0.6275642610182192	0.05401636761021619
-0.43067919117904346	0.1266105835420169	0.5618589982417269
-0.4282939647383397	0.21308363824362608	0.5341106569513233
-0.4410794085057208	0.30144045857221563	0.49525348697155774
-0.47109858464583265	0.3864833779942742	0.44575295515813246
-0.51849412290972	0.4626492898724712	0.3877240497047722
-0.5811712374340585	0.5253645372210272	0.32469315696773776
-0.6552248325033715	0.5722101189568869	0.2608010812396898
-0.7359346734448149	0.6032994449109458	0.19979944223301335
-0.8188300933998941	0.6207651043287881	0.14431986444214956
-0.9003836856703461	0.6277681748480354	0.09566274865606413
-0.5285395043652616	0.1718807900133144	0.5812948543011873
-0.5355806738051136	0.2567656804979052	0.5509930443104679
-0.5575616090373183	0.3409852699911336	0.5092348860082845
-0.595537493521019	0.4192421053488361	0.4570450719563278
-0.6486109646277164	0.4865442074132192	0.3971401527153675
-0.7139673453507418	0.5395051090454956	0.3334325088910207
-0.7875563440462005	0.5771203488451545	0.27006584388886884
-0.865080914336327	0.6006489324033539	0.21045107896969234
-0.9428241997207396	0.612794865389797	0.15673187741647066
-0.6387221873254814	0.21192235566415676	0.5898767587366176
-0.654983637666308	0.29275969729104406	0.5565050816789414
-0.685119462761709	0.37046269288764283	0.5119669139867776
-0.7291755710453778	0.4401658989603822	0.4579157016331558
-0.785462166831953	0.497927149971177	0.39753205957825405
-0.8508713392859182	0.5417333229296393	0.3348095935464747
-0.9216335810175642	0.5717928198176497	0.2735628891939648
-0.9941327538814054	0.59004246165297	0.2166401164770003
-0.7582694142016193	0.24496967528844268	0.5874411542287276
-0.7827185069509792	0.3197216407634271	0.5510743069593907
-0.8192729741622565	0.3893910573603097	0.5045285160210273
-0.8671629143086262	0.44999080901074323	0.44999080901074334
-0.9242676229795682	0.4988421647631856	0.3908216590817785
-0.9875735242703209	0.5351562114356033	0.3307447706410989
-1.0538445243949761	0.5599183021067455	0.27298193424637934
-0.8835715842508178	0.2702890767614148	0.5754607877304366
-0.9145903499023544	0.3377735007889011	0.5368474145318468
-0.9555197438026044	0.3990523002302244	0.48960428220455643
-1.0050681885785224	0.4512263370903015	0.4362026953533571
-1.0610205790679665	0.49277815748267195	0.37984347151455167
-1.1206986849495466	0.5237598476987908	0.3237014281286345
-1.0109861251917247	0.2883959469244956	0.5568085538825256
-1.0467092733772292	0.3484693525045359	0.5171994272715322
-1.0900226031725042	0.402084796922643	0.47076903930701575
-1.1393943823065975	0.4473635939303222	0.4199621303139056
-1.1927426116648037	0.4836282419980529	0.3675462797165297
-1.1372956118221245	0.3008617195419088	0.5350498905219012
-1.1758859241047899	0.35427407686990847	0.4958363491908054
-1.219841824981653	0.40164337335932854	0.45152259441498976
-1.2676020516279043	0.44185370574276106	0.404271015795583
-1.2598720092621158	0.30978885815269486	0.5135517097081506
-1.2996681862120354	0.3578014029919201	0.4758854763934558
-1.342830796569242	0.40052690654982387	0.4344960555634686
-1.3766510968201175	0.3171962142926438	0.4947714567027918
-1.416235072695028	0.36115326559192434	0.45932871053169916
-1.4860946362893013	0.32456798669727144	0.47995972004035387
-1.7393729044702404	0.29106182005872433	0.4974080770692068
-1.8414333690149136	0.2804098832485358	0.5097946597739109
-1.950737982365861	0.26965270099277044	0.5261914243985655
-2.0660148773846685	0.2577858943121935	0.5459991995949561
-2.1855175972818293	0.24332948956612183	0.5675221847967757
-2.30705581144894	0.22460812653384268	0.5880316313396168
-2.4279951129173054	0.20020432289581477	0.6042233696651642
-2.545310678796799	0.16941786765318337	0.6129597194013713
-2.6558241953022983	0.13252924417596665	0.6120246801873663
-2.7566293916825892	0.09075107631370655	0.6005933783119819
-2.8455540551910645	0.04590723639211377	0.57925846227525
-2.9436316969864946	0.0783913502895787	0.5329339404769867
-2.954807842644885	0.16403286750999949	0.5068893751142166
-2.951351520882913	0.2537853212001763	0.47054388930942365
-2.9303888550495354	0.3430037074207113	0.423975954276358
-2.890707702891176	0.4261345433559536	0.36871182374800077
-2.833376529467251	0.49788418173040627	0.3077093514003401
-2.761679201949269	0.5545479321477993	0.24480678745407122
-2.680317346773208	0.5948433644853759	0.18381668712155466
-2.5942651755275428	0.6198589689762576	0.1276979486774646
-2.5078089468191416	0.6322811345383431	0.07815428983609111
-2.4240716294033287	0.6354032641971528	0.03570010746157106
-1.804530106136967	0.32457820331134535	0.4799748280098138
-1.874389081174753	0.36116858874440166	0.4593481991104807
-1.947792891532096	0.40054726254602874	0.43451813797519534
-2.023021422844454	0.441878276522968	0.4042934966623134
-2.0978807835112363	0.48365531191369165	0.36756685222640667
-2.169924931292458	0.5237871048454382	0.32371827397379666
-2.236779558445159	0.5599432561748351	0.27299410032444604
-2.296491902513293	0.5900629680153262	0.21664764559739091
-2.3478008194756512	0.6128095296623886	0.15673562803369026
-2.390241857828031	0.627776557242033	0.09566402601111693
-1.913972792443731	0.31721125227183666	0.4947949133600149
-1.9909553083185176	0.35782069521733634	0.47591113557144143
-2.070781576024865	0.4016659811333504	0.4515480097995259
-2.151229013585017	0.44738751436547364	0.41998458559869084
-2.229603293431934	0.4928005842201278	0.3798607585019731
-2.303051051548659	0.5351741260218554	0.3307558424657259
-2.3689917845435198	0.5718035954736626	0.273568044592021
-2.425544904412083	0.6006509670929808	0.2104517918696981
-2.471795920320032	0.6207580952536593	0.14431823492276227
-2.0307514434269245	0.3098061605503216	0.513580392714816
-2.1147373627256387	0.3542936825323259	0.49586378896331823
-2.200601201421131	0.402104532003488	0.47079214554013166
-2.285556341544373	0.4512429258702914	0.4362187318076804
-2.3663577198182097	0.4988518921783808	0.39082928009863255
-2.439754367335279	0.5417328218869453	0.3348092838850719
-2.503069600376268	0.5771074967176073	0.27005982968285663
-2.5546908645842534	0.6032738838474423	0.19979097697372303
-2.153327929530513	0.3008777699581274	0.535078434443852
-2.2439148825911577	0.34848453349435216	0.5172219589495175
-2.3351052837019304	0.39906300259142885	0.489617413119658
-2.4234628942944005	0.4499926109156383	0.44999261091563836
-2.5051637800553648	0.49791567768311434	0.39752290040245514
-2.5766577124395615	0.5394772196041595	0.33341527226760354
-2.6353988158491037	0.5721648669256839	0.26078045633587377
-2.27963819392865	0.288406844800972	0.5568295945070764
-2.376035075041042	0.3377792654034365	0.5368565766431488
-2.47135287969823	0.38938671831211447	0.5045228939773119
-2.561449744123163	0.4401460062862882	0.4578950067818812
-2.642012234298573	0.48650414340550985	0.3971074505972503
-2.709448754946704	0.5253018921080302	0.3246544401567114
-2.407054108426303	0.270291438570575	0.5754658161562098
-2.50790744219716	0.3197139495812598	0.5510610503876041
-2.6055051159053897	0.3704387237965994	0.5119337895134956
-2.6950831909975226	0.41919563213041794	0.45699440825822835
-2.772120909445773	0.462575657721526	0.387662342151388
-2.532356357521729	0.24496150311608894	0.587421557230224
-2.63564000108309	0.2927365100616307	0.5564610052192442
-2.733056639213781	0.34093971227965947	0.5091668491220872
-2.819511142372331	0.3864085685016404	0.44566667317470426
-2.6519008088919143	0.21190382473456593	0.5898251786914206
-2.7550358587483217	0.25672778412346486	0.5509117225439424
-2.849526286951661	0.30137478022053543	0.4951455803128358
-2.762076410008159	0.17185461801272614	0.5812063415053854
-2.8623097283257746	0.2130349069818699	0.5339885082662098
-2.859924882537008	0.12658188819858576	0.5617316570948545
-1.7034198146551758	0.3326986171751849	0.46928824512277534
-1.7662859613135082	0.36559847972195736	0.4469233327695901
-1.8331390393789861	0.4006355256694737	0.4211154848830218
-1.9027133002413867	0.43732481395473627	0.39115517666176086
-1.9732815280381661	0.4747159809557269	0.35630787388077745
-2.042798976413933	0.5113645189574522	0.3160406905631066
-2.1091465477467337	0.5454829094325311	0.27030415781618855
-2.170417372693962	0.5752670987503677	0.2197324851790072
-2.225168292591424	0.5992820495879594	0.16563748953924284
-2.2725667408969903	0.61674218735746	0.10977902781159708
-2.312404210204057	0.6275841129418017	0.054018076325751174
-1.0827570516098537	0.6176090559673273	0.05315952167473959
-1.1960124016584603	0.604827373857239	0.052059339942581204
-1.317342154057585	0.5913396929681418	0.050898459934331196
-1.4454389956211302	0.5799274181111844	0.0499161553119316
-1.578139558203145	0.5733478034738668	0.04934983008004201
-1.71248561502637	0.573355818422282	0.049350519951599885
-1.8451854920507533	0.5799495282513757	0.049918058400416965
-1.9732815280381661	0.5913709801768835	0.050901152922404776
-2.09461099014128	0.604861281604027	0.05206225848594254
-2.207866801577112	0.6176388609329277	0.053162087080313794
-1.1284958613335312	0.6053223174738214	0.10774626622591647
-1.24782445790657	0.5918092044831161	0.1053410043388361
-1.3750861987941594	0.5787638814085702	0.10301891759698342
-1.5084942900020095	0.5692179065268747	0.10131976783841298
-1.6453126392971753	0.5657076445445078	0.10069496738902677
-1.7821305847295599	0.5692335361494429	0.101322549883236
-1.9155378088514199	0.5787914357119172	0.10302382221283304
-2.042798976413933	0.5918423924715506	0.10534691174278857
-2.1621277175052014	0.6053542062569182	0.1077519423710279
-1.181476863637714	0.5867490957975898	0.16217348370553933
-1.3062713414078784	0.5731960853950668	0.15842749800071987
-1.438475856813484	0.5615277335950809	0.15520245542150093
-1.5757591740733428	0.5547313080657654	0.1533239672753105
-1.714865992141883	0.5547393286084997	0.15332618409886786
-1.8521484543500948	0.5615497349945492	0.1552085364590275
-1.9843523059619992	0.573226793192322	0.1584359854269466
-2.1091465477467337	0.5867817134445704	0.16218249900267231
-1.2411390044293569	0.562250686373914	0.2147606518102727
-1.3703652575509901	0.5495702869770647	0.209917187802843
-1.5060432940414417	0.5402241961262554	0.20634728545162406
-1.6453126392971753	0.5367749900834271	0.20502981630609024
-1.7845815678824306	0.5402392678277386	0.20635304232943605
-1.92025871909598	0.5495967409983297	0.20992729234066393
-2.0494842909119195	0.5622822430161788	0.21477270537503654
-1.3062713414078784	0.532853479001956	0.26404581865749893
-1.438475856813484	0.5220063730366674	0.25867072558446724
-1.5757591740733428	0.515688286846317	0.2555399262324896
-1.714865992141883	0.515695742888336	0.25554362093814054
-1.8521484543500948	0.5220268259369448	0.25868086064570084
-1.9843523059619992	0.5328820255273368	0.2640599643672691
-1.3750861987941594	0.5000644218835643	0.30905679376487455
-1.5084942900020095	0.49181648002539896	0.30395932366205525
-1.6453126392971753	0.4887835537504191	0.3020848442684331
-1.7821305847295599	0.49182998435452757	0.30396766979707746
-1.9155378088514199	0.5000882293933558	0.3090715076143742
-1.4454389956211302	0.4655298117345647	0.3494129751806736
-1.578139558203145	0.4602480846191036	0.3454487083224995
-1.71248561502637	0.4602545185229819	0.34545353742197543
-1.8451854920507533	0.46554756038565315	0.349426296795801
-1.51513720037919	0.4306904290524802	0.38522120283048283
-1.6453126392971753	0.4282812122636619	0.3830663373040503
-1.7754877078585745	0.43070173665088146	0.3852313166532275
-1.5822483765456516	0.39658173901445504	0.4168544922348411
-1.7083768085664883	0.39658695186026577	0.4168599715546881
-1.6453126392971753	0.3638187525914196	0.44474771592038076
-1.6453126392971753	0.2630919283774859	-0.5108299646420403
-1.6453126392971753	0.21889582634588683	-0.5312713362886461
-1.6453126392971753	0.16964582959740632	-0.5489853441156513
-1.6453126392971753	0.11593929280510605	-0.5627812149827179
-1.6453126392971753	0.05887550688030227	-0.5715752708464212
-1.6453126392971753	7.036814705996324e-17	-0.5745995262385554
-1.6453126392971753	-0.05887550688030227	-0.5715752708464212
-1.6453126392971753	-0.11593929280510605	-0.5627812149827179
-1.6453126392971753	-0.16964582959740632	-0.5489853441156513
-1.6453126392971753	-0.21889582634588683	-0.5312713362886461
-1.6453126392971753	-0.2630919283774859	-0.5108299646420403
-1.5512521774449135	-0.29105620364564916	-0.4973984789390666
-1.4491911432633557	-0.28039935544039235	-0.509775519862334
-1.3398858188050886	-0.26963892042587734	-0.5261645334529315
-1.2246085310131245	-0.2577713906583336	-0.5459684803679795
-1.1051061074976216	-0.2433171701923627	-0.5674934520775169
-0.9835688010279733	-0.22460078480253956	-0.5880124104400807
-0.8626307160323284	-0.20020379097302587	-0.6042217643043246
-0.745314926545656	-0.1694243915152115	-0.6129833229603914
-0.634798660517181	-0.13254110669735164	-0.6120794617255999
-0.533986804797054	-0.09076456027277488	-0.6006826155624794
-0.44505223646740777	-0.045917090171571265	-0.5793827974691044
-1.5470351395233655	0.2489266980446907	-0.5199352557008617
-1.4406013642748174	0.2345807357259594	-0.533094688015503
-1.3270919863108945	0.21938347200910893	-0.5504114369120883
-1.2081791374255453	0.20216350735593291	-0.5709188140835769
-1.08604147090189	0.1814200434644164	-0.592381430862845
-0.9632908846936921	0.1557242302014515	-0.6115370377931167
-0.8429157960641832	0.12421159047370385	-0.6247914345428354
-0.728130110593541	0.08694305430724246	-0.6291256610488631
-0.6220335820498832	0.04495695465492598	-0.6228384218853481
-0.5271509837060644	7.419276611471732e-17	-0.6058299108475457
-1.5432201518034048	0.20121176412400685	-0.5403506023564294
-1.4330797694326125	0.18270828998227442	-0.5536164415890166
-1.3163646911071083	0.1625469640731014	-0.570939982618577
-1.1951847380223928	0.13949671704505243	-0.5909174603061189
-1.0721384937159313	0.11223575768877934	-0.6107960290131882
-0.9501773498647041	0.07982461207916619	-0.6269505248316495
-0.8324721421171195	0.042133157168883155	-0.6357968041102529
-0.7221751341932843	7.773498847237005e-17	-0.6347543514300792
-0.6220335820498832	-0.04495695465492598	-0.6228384218853481
-1.5400480921489932	0.14824284863443013	-0.557344809745947
-1.4271693511867627	0.125368785436641	-0.5698117858460233
-1.3085783944535472	0.1000932328454349	-0.5859561191440974
-1.1868060081112393	0.07128524203241882	-0.6039383006934681
-1.0647828061642843	0.038014242441987825	-0.6206296198591802
-0.9456326358109883	7.743794970950907e-17	-0.6323288458633491
-0.8324721421171195	-0.042133157168883155	-0.6357968041102529
-0.728130110593541	-0.08694305430724246	-0.6291256610488631
-1.5377614874337504	0.09090263643023702	-0.5696073372546132
-1.423376719656184	0.06383122779131171	-0.5802366499670403
-1.3044716082392056	0.03381765247157445	-0.5939160449292866
-1.1839067800272758	7.451569994274489e-17	-0.6084668656679266
-1.0647828061642843	-0.038014242441987825	-0.6206296198591802
-0.9501773498647041	-0.07982461207916619	-0.6269505248316495
-0.8429157960641832	-0.12421159047370385	-0.6247914345428354
-1.5365608253113563	0.030643594050993365	-0.5760500478552785
-1.4220678175589407	7.149983125949635e-17	-0.5838404290059577
-1.3044716082392056	-0.03381765247157445	-0.5939160449292866
-1.1868060081112393	-0.07128524203241882	-0.6039383006934681
-1.0721384937159313	-0.11223575768877934	-0.6107960290131882
-0.9632908846936921	-0.1557242302014515	-0.6115370377931167
-1.5365608253113563	-0.030643594050993365	-0.5760500478552785
-1.423376719656184	-0.06383122779131171	-0.5802366499670403
-1.3085783944535472	-0.1000932328454349	-0.5859561191440974
-1.1951847380223928	-0.13949671704505243	-0.5909174603061189
-1.08604147090189	-0.1814200434644164	-0.592381430862845
-1.5377614874337504	-0.09090263643023702	-0.5696073372546132
-1.4271693511867627	-0.125368785436641	-0.5698117858460233
-1.3163646911071083	-0.1625469640731014	-0.570939982618577
-1.2081791374255453	-0.20216350735593291	-0.5709188140835769
-1.5400480921489932	-0.14824284863443013	-0.557344809745947
-1.4330797694326125	-0.18270828998227442	-0.5536164415890166
-1.3270919863108945	-0.21938347200910893	-0.5504114369120883
-1.5432201518034048	-0.20121176412400685	-0.5403506023564294
-1.4406013642748174	-0.2345807357259594	-0.533094688015503
-1.5470351395233655	-0.2489266980446907	-0.5199352557008617
-1.7393729044702404	0.2910618200587244	-0.4974080770692068
-1.8414333690149136	0.28040988324853583	-0.5097946597739109
-1.950737982365861	0.2696527009927704	-0.5261914243985655
-2.0660148773846685	0.25778589431219356	-0.5459991995949561
-2.1855175972818293	0.24332948956612183	-0.5675221847967757
-2.30705581144894	0.22460812653384277	-0.5880316313396168
-2.4279951129173054	0.20020432289581477	-0.6042233696651642
-2.545310678796799	0.16941786765318334	-0.6129597194013713
-2.6558241953022983	0.13252924417596662	-0.6120246801873663
-2.7566293916825892	0.09075107631370646	-0.6005933783119819
-2.8455540551910645	0.0459072363921138	-0.57925846227525
-1.7435899244591315	-0.2489317085779816	-0.5199457212432415
-1.8500229621289324	-0.2345898502400958	-0.5331154011361048
-1.96353160868483	-0.21939492029768634	-0.5504401595360324
-2.082444250314963	-0.2021748831503796	-0.570950939837427
-2.2045823604361505	-0.18142886720249762	-0.5924102425558107
-2.327334058784451	-0.15572867020002204	-0.6115544738951936
-2.4477101083866453	-0.12421116693404459	-0.6247893041140221
-2.5624953631084675	-0.08693908526437222	-0.6290969407935262
-2.668588778381303	-0.04495262409461975	-0.6227784258431849
-2.763464811157174	7.4181399168938e-17	-0.6057370926914273
-1.7474048947701066	-0.20121596651823137	-0.5403618878111365
-1.8575445012744032	-0.18271560004452994	-0.5536385914906663
-1.9742589875939351	-0.1625555745131316	-0.570970226459237
-2.095438654573893	-0.13950453448234335	-0.5909505754954072
-2.2184852919532347	-0.11224102686302304	-0.6108247042836235
-2.3404477392699947	-0.07982665775510529	-0.6269665917760449
-2.458153825469414	-0.04213287206341799	-0.6357925018182868
-2.568450260521804	7.773124279351458e-17	-0.6347237656411145
-2.668588778381303	0.04495262409461975	-0.6227784258431849
-1.7505768118912204	-0.14824603729202154	-0.5573567980595486
-1.863455004438233	-0.12537391384557575	-0.5698350949005337
-1.9820452598940999	-0.10009858197871235	-0.5859874335225717
-2.103817394738788	-0.07128921863336285	-0.6039719909994585
-2.2258411756537138	-0.038015992212219615	-0.6206581870267479
-2.3449925029329157	7.743985418456822e-17	-0.6323443970823658
-2.458153825469414	0.04213287206341799	-0.6357925018182868
-2.5624953631084675	0.08693908526437222	-0.6290969407935262
-1.752863532017137	-0.0909046339123496	-0.5696198537284145
-1.867247609720719	-0.06383387377358578	-0.58026070239316
-1.9861520335311638	-0.03381946760549732	-0.5939479228711809
-2.1067166272762416	7.451984909044194e-17	-0.6085007460300027
-2.2258411756537138	0.038015992212219615	-0.6206581870267479
-2.3404477392699947	0.07982665775510529	-0.6269665917760449
-2.4477101083866453	0.12421116693404459	-0.6247893041140221
-1.7540641879957242	-0.03064427468094872	-0.5760628425985355
-1.8685563746523943	7.150280713506172e-17	-0.5838647288740293
-1.9861520335311638	0.03381946760549732	-0.5939479228711809
-2.103817394738788	0.07128921863336285	-0.6039719909994585
-2.2184852919532347	0.11224102686302304	-0.6108247042836235
-2.327334058784451	0.15572867020002204	-0.6115544738951936
-1.7540641879957242	0.03064427468094872	-0.5760628425985355
-1.867247609720719	0.06383387377358578	-0.58026070239316
-1.9820452598940999	0.10009858197871235	-0.5859874335225717
-2.095438654573893	0.13950453448234335	-0.5909505754954072
-2.2045823604361505	0.18142886720249762	-0.5924102425558107
-1.752863532017137	0.0909046339123496	-0.5696198537284145
-1.863455004438233	0.12537391384557575	-0.5698350949005337
-1.9742589875939351	0.1625555745131316	-0.570970226459237
-2.082444250314963	0.2021748831503796	-0.570950939837427
-1.7505768118912204	0.14824603729202154	-0.5573567980595486