# TIME=0.000000
VARIABLES=X,Y,Z
ZONE N=1002 E=2000 F=FEPOINT ET=TRIANGLE
-1.6453126556599498	0.3020848484268377	0.4887835511815781
-1.6453126556599498	0.30208484842683775	-0.48878355118157807
-1.6453126556599498	-0.3020848484268377	0.4887835511815781
-1.6453126556599498	-0.30208484842683775	-0.48878355118157807
-0.368270318288993	0.	0.5494199099223834
-2.9223222473549795	0.	0.5492628570500736
-0.368270318288993	6.728453340742739e-17	-0.5494199099223834
-2.9223222473549795	6.726529997769028e-17	-0.5492628570500736
-0.9452651848315577	0.6323541247676107	3.872052274121402e-17
-0.9452651848315577	-0.6323541247676107	3.872052274121402e-17
-2.3453599962123337	0.6323696259119039	3.8721471912551114e-17
-2.3453599962123337	-0.6323696259119039	3.8721471912551114e-17
-1.5314098418456454	0.2889044331669581	0.4995576736487161
-1.4061649946598576	0.27615599257997003	0.5158687965308228
-1.2711539895965074	0.26274617780335846	0.5377378152923432
-1.1289897396707855	0.24650755557630263	0.5631959040704289
-0.9832259261839136	0.2246108491853594	0.5880388765508369
-0.8383342611805602	0.19456663173245553	0.6066654627858193
-0.6995676520425881	0.15534352522896147	0.6138194582242569
-0.5723230995167682	0.10793145942518961	0.6063626370818259
-0.46104435688281603	0.055011268212323175	0.5841110297136981
-1.5253535376519358	-0.23683856862132488	0.5265363262734659
-1.3939331978122824	-0.21840025673630006	0.5439721136052146
-1.2533654913066528	-0.19787039762771177	0.5669477733779325
-1.1071379378744939	-0.17289534260127096	0.5925212684747255
-0.9596819969499008	-0.14103009810510683	0.6153693100864477
-0.8161872758719689	-0.1009118561758914	0.6292930864870736
-0.682193577064866	-0.05309873598242294	0.6294381546730431
-0.562689744356823	0.	0.6139373228270939
-1.5201188349452017	-0.17667905152369215	0.5499066276365734
-1.3839487829731532	-0.15178942031826312	0.5670955284111798
-1.2399878320211555	-0.12338643279775459	0.5892211329090028
-1.0926030698760536	-0.08934001357147787	0.6123454268207801
-0.9469128278427787	-0.04815856598174228	0.6304035405660505
-0.8083818965402181	0.	0.6373434897394451
-0.682193577064866	0.05309873598242294	0.6294381546730431
-1.516222689636369	-0.10936688213789385	0.5673335068354004
-1.377354740573555	-0.07795100262396282	0.58246068115577
-1.2327619398805731	-0.04197636077706628	0.6013631271461639
-1.0874875228609369	0.	0.6193832352835695
-0.9469128278427787	0.04815856598174228	0.6304035405660505
-0.8161872758719689	0.1009118561758914	0.6292930864870736
-1.5141329916041035	-0.037056943364915614	0.5766918179192696
-1.375043081658145	0.	0.5878649295037361
-1.2327619398805731	0.04197636077706628	0.6013631271461639
-1.0926030698760536	0.08934001357147787	0.6123454268207801
-0.9596819969499008	0.14103009810510683	0.6153693100864477
-1.5141329916041035	0.037056943364915614	0.5766918179192696
-1.377354740573555	0.07795100262396282	0.58246068115577
-1.2399878320211555	0.12338643279775459	0.5892211329090028
-1.1071379378744939	0.17289534260127096	0.5925212684747255
-1.516222689636369	0.10936688213789385	0.5673335068354004
-1.3839487829731532	0.15178942031826312	0.5670955284111798
-1.2533654913066528	0.19787039762771177	0.5669477733779325
-1.5201188349452017	0.17667905152369215	0.5499066276365734
-1.3939331978122824	0.21840025673630006	0.5439721136052146
-1.5253535376519358	0.23683856862132488	0.5265363262734659
-1.6453126556599498	0.25466977427054105	0.5150805001431636
-1.6453126556599498	0.19977984180733688	0.5387509910544717
-1.6453126556599498	0.13789751983147527	0.557807215423992
-1.6453126556599498	0.07048795870603544	0.5702596454530131
-1.6453126556599498	0.	0.5745995262395714
-1.6453126556599498	-0.07048795870603544	0.5702596454530131
-1.6453126556599498	-0.13789751983147527	0.557807215423992
-1.6453126556599498	-0.19977984180733688	0.5387509910544717
-1.6453126556599498	-0.25466977427054105	0.5150805001431636
-1.759215178499968	-0.2889111405302302	0.499569271652789
-1.8844591286582373	-0.27616807938964355	0.5158913751028172
-2.0194694011708516	-0.26276074632932084	0.537767631320072
-2.1616337351604455	-0.24652054677639573	0.5632255850701219
-2.307398727046165	-0.22461817706242876	0.5880580611833468
-2.4522915542466617	-0.19456568347524575	0.606662506087161
-2.59105710069812	-0.15533450897957454	0.613783831703578
-2.7182964008944004	-0.10791801275782546	0.6062870932438541
-2.8295639850799272	-0.05500018375089785	0.583993334623449
-1.7652714531503892	0.23684433991014323	0.5265491569252891
-1.896690976011166	0.21841015777107758	0.5439967742301393
-2.0372578517108573	0.1978814734679549	0.5669795084077267
-2.1834857901512494	0.172904131147772	0.5925513872774792
-2.330942874409118	0.14103400727849905	0.6153863673342671
-2.474438777660014	0.10091062662134284	0.6292854189026471
-2.6084309781368766	0.05309522724811676	0.6293965617573914
-2.727929119038797	0.	0.6138572007806159
-1.770506130512992	0.17668352913280388	0.549920564019553
-1.9066751926906191	0.15179648499450984	0.5671219225188904
-2.0506356292042804	0.12339336304738825	0.5892542277108209
-2.1980207529533935	0.08934442410472736	0.6123756570586903
-2.3437123355672154	0.04815976468169023	0.630419231745301
-2.4822441271771045	0.	0.637334022108342
-2.6084309781368766	-0.05309522724811676	0.6293965617573914
-1.774402256808197	0.10936973214686346	0.5673482910694541
-1.9132693160423426	0.07795469380998675	0.5824882622086546
-2.0578613812885007	0.041978719616256537	0.6013969204261346
-2.2031361954193267	0.	0.6194134502909999
-2.3437123355672154	-0.04815976468169023	0.630419231745301
-2.474438777660014	-0.10091062662134284	0.6292854189026471
-1.776491817255134	0.03705792275872049	0.5767070595539675
-1.9155808298988557	0.	0.5878929111976837
-2.0578613812885007	-0.041978719616256537	0.6013969204261346
-2.1980207529533935	-0.08934442410472736	0.6123756570586903
-2.330942874409118	-0.14103400727849905	0.6153863673342671
-1.776491817255134	-0.03705792275872049	0.5767070595539675
-1.9132693160423426	-0.07795469380998675	0.5824882622086546
-2.0506356292042804	-0.12339336304738825	0.5892542277108209
-2.1834857901512494	-0.172904131147772	0.5925513872774792
-1.774402256808197	-0.10936973214686346	0.5673482910694541
-1.9066751926906191	-0.15179648499450984	0.5671219225188904
-2.0372578517108573	-0.1978814734679549	0.5669795084077267
-1.770506130512992	-0.17668352913280388	0.549920564019553
-1.896690976011166	-0.21841015777107758	0.5439967742301393
-1.7652714531503892	-0.23684433991014323	0.5265491569252891
-1.574961838562375	0.3390924507766674	0.4650548655558845
-1.497946936288723	0.37936617917400833	0.4370406911898824
-1.4158571296663818	0.4224886301365769	0.40367513743815414
-1.3312900392362585	0.46723219469046456	0.36368956395526636
-1.2476321832577741	0.5113543796576802	0.3160343999256348
-1.1685280579294512	0.5518341608942874	0.26054072070393697
-1.0971883448848314	0.5856250197978999	0.1984249576668304
-1.0357977319006026	0.610568261374227	0.13221391334440447
-0.9852502169660395	0.6259339546969837	0.06507918796742819
-0.4471878903816014	0.15284699133336085	0.561523474144239
-0.4517525592167169	0.25741729253494056	0.523700537658741
-0.4794880408141106	0.36108436572860797	0.46988470228358153
-0.5320158154086174	0.4544160621423433	0.4024740395379379
-0.6065414540891341	0.5291522987750872	0.327034090739714
-0.6965115553454195	0.5811832232238342	0.25064184359574027
-0.7939366613082042	0.6114660243013705	0.17947935688457484
-0.8917952622828491	0.6245093642151095	0.11725149504913157
-0.5716906066159374	0.2052075612398926	0.580568926028265
-0.5897704919092078	0.3053678228751619	0.5386481090320397
-0.629489332483487	0.4001362219835883	0.4808141246382832
-0.6903341063313164	0.4808807129071148	0.41072114962281525
-0.7679998954922229	0.541672547206934	0.33477201046914823
-0.8557912573993746	0.5812442193077053	0.25994032769519687
-0.9468481854157171	0.6025359325721262	0.19153065229001615
-0.7122772700119255	0.2482560987708274	0.5834943895554852
-0.7425130083661082	0.34001866469715814	0.5372903170832481
-0.7912262312280197	0.42286642857674983	0.47670656239610876
-0.8562577568645032	0.4901329013514282	0.40640821779897224
-0.9327801244720844	0.5386157187069089	0.33288287085725476
-1.014871482460092	0.5692155636255519	0.26221214883702804
-0.8629284290632048	0.279944076252336	0.571651361442057
-0.9025693740694175	0.3609271191847231	0.5223385918831687
-0.9565907559924839	0.4312684350657324	0.4613718846640558
-1.0219838141693067	0.48671030638361695	0.3937569531258849
-1.0942123842235532	0.5262576803879662	0.3252451180969995
-1.017154821896867	0.30081803794859374	0.5495501567775879
-1.0628990657957065	0.3708386087257501	0.49934783167051294
-1.118782143023304	0.4303444223474136	0.44065388871435085
-1.1816363149714766	0.4771090193489807	0.37804659157263787
-1.1692853193721893	0.3137162181027932	0.5233332227577674
-1.2179788613505962	0.37440886021317493	0.47462349758290395
-1.272946505416479	0.42591309903557195	0.42018808358452703
-1.3149195668187328	0.32244360789735516	0.4986009871673924
-1.3638720969242515	0.37623015965965084	0.4530550804016908
-1.4508426272326005	0.33027261451784823	0.47883083344058835
-1.759215178499968	0.2889111405302302	0.499569271652789
-1.8844591286582373	0.27616807938964355	0.5158913751028172
-2.0194694011708516	0.26276074632932084	0.537767631320072
-2.1616337351604455	0.24652054677639573	0.5632255850701219
-2.307398727046165	0.22461817706242876	0.5880580611833468
-2.4522915542466617	0.19456568347524575	0.606662506087161
-2.59105710069812	0.15533450897957454	0.613783831703578
-2.7182964008944004	0.10791801275782546	0.6062870932438541
-2.8295639850799272	0.05500018375089785	0.583993334623449
-2.947768413268946	0.09493321032310256	0.5280476629168376
-2.956280022614509	0.19948562888316435	0.49315551214908143
-2.94189391301647	0.30746551110149506	0.44338966157224746
-2.9009744473890375	0.40999011965026927	0.38008183117480915
-2.834154922226978	0.4976598605659131	0.3075706755405717
-2.746708515492353	0.5637660394879359	0.23228433435448653
-2.6467948234901195	0.606484114672393	0.16064046737566534
-2.542723148239722	0.6285943753432569	0.09712316875474532
-2.4409264521345477	0.6353762573302574	0.04363160218844304
-1.839781928647543	0.33028493156496286	0.47884869075504977
-1.9267517439039124	0.37624852367085543	0.45307719428161025
-2.0176770248807236	0.42593669153593333	0.4202113589605046
-2.1089871309638024	0.47713554813055264	0.378067612167607
-2.1964112885070697	0.5262837377194461	0.3252612224127565
-2.275752835503898	0.5692374598128778	0.2622222354311005
-2.3437768300851514	0.6025509114136695	0.19153541367790394
-2.398830397630466	0.624516251300822	0.11725278809795132
-1.9757040102707037	0.3224607122980104	0.4986274360435454
-2.0726445713581407	0.37442993947388364	0.47465021893890585
-2.171841518725927	0.4303667503918984	0.44067675165649367
-2.2686404418301045	0.4867296170088317	0.3937725757515984
-2.357845030753733	0.5386273336780133	0.3328900493052499
-2.4348344745694477	0.5812445602565929	0.25994048017218097
-2.496689156636553	0.6114538280601151	0.17947577700695297
-2.1213380166621967	0.3137334914603938	0.5233620377229472
-2.2277248270814898	0.37085558017538117	0.49937068435190635
-2.3340341494516283	0.43128009777627235	0.461384361456477
-2.4343679740354522	0.4901332584787309	0.406408513921657
-2.522625880809679	0.5416565123461552	0.33476210038120263
-2.5941133027143026	0.5811486753848591	0.2506269444491253
-2.2734696188037775	0.30082973383816863	0.549571523441613
-2.3880560375788473	0.36093214550020275	0.5223458660346814
-2.4993995883794327	0.4228575793657368	0.4766965864872239
-2.600290627594964	0.48085076387879333	0.4106955700996359
-2.6840799530998343	0.5290968836506164	0.3269998423108846
-2.4276974389308763	0.2799448454992427	0.5716529322595122
-2.548112450214826	0.34000518643706784	0.537269019021143
-2.6611331957384565	0.40009929325457516	0.48076975011396145
-2.7586004505753863	0.45434791807701835	0.4024136846791933
-2.578347963138203	0.24824307763293046	0.58346378502675
-2.7008498823577622	0.30533296219151773	0.5385866171526804
-2.8111225631353722	0.36101682310613425	0.4697968080182386
-2.7189288540054948	0.20518191631301858	0.5804963719393057
-2.838854545537175	0.2573634853045651	0.5235910699722462
-2.8434187681369347	0.15281445356447942	0.561403938124172
-1.715663231152693	0.339097406231077	0.4650616618091745
-1.792677913798447	0.3793773146209432	0.4370535195433105
-1.8747670549317688	0.4225065793002203	0.4036922873223967
-1.9593336143663642	0.4672564158796186	0.3637084175227688
-2.0429912850574232	0.5113830603955208	0.316052125597172
-2.122095279884304	0.5518645263340327	0.2605550573182976
-2.1934353078773574	0.5856541980528526	0.1984348440169829
-2.254826558064396	0.6105938642157268	0.13221945744500968
-2.3053745637323995	0.6259546383666829	0.06508133847614898
-1.11326694017989	0.6132435925290115	0.0637597570591187
-1.2537499201316655	0.5972225373943242	0.062094037140037084
-1.405150899162442	0.5820820333645365	0.06051984866526876
-1.5643082358454174	0.5727733054707725	0.0595520302551993
-1.7263168002238485	0.5727828859055876	0.059553026346215614
-1.8854732177857312	0.582107586177016	0.06052250542540838
-2.036873423453909	0.597255962881998	0.06209751243332072
-2.1773567517724497	0.6132751121887805	0.06376303420032971
-1.1722401772397273	0.5960049258634127	0.12906032603939147
-1.3212030190551416	0.5796909203666633	0.12552766342854832
-1.4803265164659687	0.566614914666717	0.12269612511839757
-1.6453126556599498	0.5615838598906091	0.12160667689360061
-1.810298092983985	0.5666333206891031	0.12270011080173765
-1.969420581133721	0.5797214303955625	0.12553427014344468
-2.1183832873955395	0.5960378353964103	0.1290674523480412
-1.2412172854189962	0.5700297006800745	0.1931408515346713
-1.397120053742317	0.5549144325885172	0.1880194406683913
-1.5615327364659832	0.5454871015139644	0.1848251989237832
-1.7290924170519484	0.5454965270815764	0.18482839255091757
-1.893504140881469	0.5549393687841866	0.18802788969996592
-2.0494060442465836	0.5700616972214212	0.1931516927930031
-1.3185253417264184	0.5366020133341467	0.25334910379005554
-1.4789148376191046	0.5243311846938852	0.24755560145587838
-1.6453126556599498	0.5195981621617322	0.2453209437306366
-1.8117097627474406	0.524348344941994	0.2475637034259037
-1.972098247924295	0.5366303536151455	0.2533624842556777
-1.401234587163049	0.49809889480991476	0.3078420247194395
-1.5629555608095673	0.48989248249385775	0.3027701817863207
-1.7276694706743176	0.48990080698372207	0.3027753266036011
-1.8893896337412914	0.4981210195262014	0.3078556985451174
-1.485634152963325	0.4572370620395387	0.355909419084234
-1.6453126556599498	0.4534265222851568	0.3529433445230667
-1.8049906192648109	0.4572514939770846	0.35592065278100676
-1.5679985368668576	0.41627889526321177	0.3977419915280084
-1.7226265113114414	0.4162855551468857	0.39774835484698984
-1.6453126556599498	0.37666147999978095	0.4339248149612033
-1.6453126556599498	0.2546697742705411	-0.5150805001431636
-1.6453126556599498	0.19977984180733682	-0.5387509910544717
-1.6453126556599498	0.13789751983147538	-0.557807215423992
-1.6453126556599498	0.07048795870603544	-0.5702596454530131
-1.6453126556599498	7.036814706008767e-17	-0.5745995262395714
-1.6453126556599498	-0.07048795870603544	-0.5702596454530131
-1.6453126556599498	-0.13789751983147538	-0.557807215423992
-1.6453126556599498	-0.19977984180733682	-0.5387509910544717
-1.6453126556599498	-0.2546697742705411	-0.5150805001431636
-1.5314098418456454	-0.2889044331669581	-0.4995576736487161
-1.4061649946598576	-0.27615599257997003	-0.5158687965308228
-1.2711539895965074	-0.26274617780335857	-0.5377378152923431
-1.1289897396707855	-0.24650755557630266	-0.5631959040704289
-0.9832259261839136	-0.2246108491853595	-0.5880388765508369
-0.8383342611805602	-0.19456663173245556	-0.6066654627858193
-0.6995676520425881	-0.15534352522896155	-0.6138194582242569
-0.5723230995167682	-0.1079314594251895	-0.6063626370818259
-0.46104435688281603	-0.055011268212323175	-0.5841110297136981
-1.5253535376519358	0.2368385686213249	-0.5265363262734659
-1.3939331978122824	0.21840025673629995	-0.5439721136052147
-1.2533654913066528	0.1978703976277117	-0.5669477733779325
-1.1071379378744939	0.17289534260127096	-0.5925212684747255
-0.9596819969499008	0.14103009810510686	-0.6153693100864477
-0.8161872758719689	0.10091185617589149	-0.6292930864870735
-0.682193577064866	0.053098735982423026	-0.6294381546730431
-0.562689744356823	7.518563772772958e-17	-0.6139373228270939
-1.5201188349452017	0.17667905152369218	-0.5499066276365734
-1.3839487829731532	0.15178942031826317	-0.5670955284111798
-1.2399878320211555	0.12338643279775459	-0.5892211329090028
-1.0926030698760536	0.08934001357147783	-0.6123454268207801
-0.9469128278427787	0.04815856598174242	-0.6304035405660505
-0.8083818965402181	7.805206646668153e-17	-0.6373434897394451
-0.682193577064866	-0.053098735982423026	-0.6294381546730431
-1.516222689636369	0.10936688213789386	-0.5673335068354004
-1.377354740573555	0.07795100262396287	-0.58246068115577
-1.2327619398805731	0.04197636077706617	-0.6013631271461639
-1.0874875228609369	7.585256965355553e-17	-0.6193832352835695
-0.9469128278427787	-0.04815856598174242	-0.6304035405660505
-0.8161872758719689	-0.10091185617589149	-0.6292930864870735
-1.5141329916041035	0.037056943364915655	-0.5766918179192696
-1.375043081658145	7.199269042477348e-17	-0.5878649295037361
-1.2327619398805731	-0.04197636077706617	-0.6013631271461639
-1.0926030698760536	-0.08934001357147783	-0.6123454268207801
-0.9596819969499008	-0.14103009810510686	-0.6153693100864477
-1.5141329916041035	-0.037056943364915655	-0.5766918179192696
-1.377354740573555	-0.07795100262396287	-0.58246068115577
-1.2399878320211555	-0.12338643279775459	-0.5892211329090028
-1.1071379378744939	-0.17289534260127096	-0.5925212684747255
-1.516222689636369	-0.10936688213789386	-0.5673335068354004
-1.3839487829731532	-0.15178942031826317	-0.5670955284111798
-1.2533654913066528	-0.1978703976277117	-0.5669477733779325
-1.5201188349452017	-0.17667905152369218	-0.5499066276365734
-1.3939331978122824	-0.21840025673629995	-0.5439721136052147
-1.5253535376519358	-0.2368385686213249	-0.5265363262734659
-1.759215178499968	0.28891114053023026	-0.499569271652789
-1.8844591286582373	0.27616807938964355	-0.5158913751028172
-2.0194694011708516	0.26276074632932095	-0.537767631320072
-2.1616337351604455	0.2465205467763958	-0.5632255850701219
-2.307398727046165	0.22461817706242887	-0.5880580611833468
-2.4522915542466617	0.1945656834752458	-0.606662506087161
-2.59105710069812	0.1553345089795746	-0.613783831703578
-2.7182964008944004	0.10791801275782537	-0.6062870932438541
-2.8295639850799272	0.05500018375089785	-0.583993334623449
-1.7652714531503892	-0.23684433991014325	-0.5265491569252891
-1.896690976011166	-0.21841015777107747	-0.5439967742301393
-2.0372578517108573	-0.19788147346795482	-0.5669795084077267
-2.1834857901512494	-0.172904131147772	-0.5925513872774792
-2.330942874409118	-0.14103400727849907	-0.6153863673342671
-2.474438777660014	-0.10091062662134292	-0.629285418902647
-2.6084309781368766	-0.05309522724811684	-0.6293965617573914
-2.727929119038797	7.517582560695355e-17	-0.6138572007806159
-1.770506130512992	-0.1766835291328039	-0.549920564019553
-1.9066751926906191	-0.1517964849945099	-0.5671219225188904
-2.0506356292042804	-0.12339336304738825	-0.5892542277108209
-2.1980207529533935	-0.08934442410472733	-0.6123756570586903
-2.3437123355672154	-0.04815976468169038	-0.630419231745301
-2.4822441271771045	7.805090701626894e-17	-0.637334022108342
-2.6084309781368766	0.05309522724811684	-0.6293965617573914
-1.774402256808197	-0.10936973214686348	-0.5673482910694541
-1.9132693160423426	-0.07795469380998682	-0.5824882622086546
-2.0578613812885007	-0.04197871961625643	-0.6013969204261346
-2.2031361954193267	7.585626992476912e-17	-0.6194134502909999
-2.3437123355672154	0.04815976468169038	-0.630419231745301
-2.474438777660014	0.10091062662134292	-0.629285418902647
-1.776491817255134	-0.03705792275872053	-0.5767070595539675
-1.9155808298988557	7.199611719396625e-17	-0.5878929111976837
-2.0578613812885007	0.04197871961625643	-0.6013969204261346
-2.1980207529533935	0.08934442410472733	-0.6123756570586903
-2.330942874409118	0.14103400727849907	-0.6153863673342671
-1.776491817255134	0.03705792275872053	-0.5767070595539675
-1.9132693160423426	0.07795469380998682	-0.5824882622086546
-2.0506356292042804	0.12339336304738825	-0.5892542277108209
-2.1834857901512494	0.172904131147772	-0.5925513872774792
-1.774402256808197	0.10936973214686348	-0.5673482910694541
-1.9066751926906191	0.1517964849945099	-0.5671219225188904
-2.0372578517108573	0.19788147346795482	-0.5669795084077267
-1.770506130512992	0.1766835291328039	-0.549920564019553
-1.896690976011166	0.21841015777107747	-0.5439967742301393
-1.7652714531503892	0.23684433991014325	-0.5265491569252891
-1.5314098418456454	0.2889044331669581	-0.4995576736487161
-1.4061649946598576	0.27615599257997003	-0.5158687965308228
-1.2711539895965074	0.26274617780335857	-0.5377378152923431
-1.1289897396707855	0.24650755557630266	-0.5631959040704289
-0.9832259261839136	0.2246108491853595	-0.5880388765508369
-0.8383342611805602	0.19456663173245556	-0.6066654627858193
-0.6995676520425881	0.15534352522896155	-0.6138194582242569
-0.5723230995167682	0.1079314594251895	-0.6063626370818259
-0.46104435688281603	0.055011268212323175	-0.5841110297136981
-0.3428187316824434	0.09496303470317019	-0.5282135552756766
-0.3343050552078331	0.19955026309457796	-0.49331529667997953
-0.3486943841936344	0.3075599965816148	-0.44352591713113493
-0.3896226830149384	0.41009865099647136	-0.38018244528921646
-0.45645282457332076	0.49776200651251196	-0.30763380520058375
-0.543908819512923	0.5638462473271937	-0.23231738179481992
-0.6438282292259189	0.6065355345853691	-0.16065408705448797
-0.7479025248820985	0.6286179252604679	-0.09712680741693067
-0.8496994566825385	0.6353770710809129	-0.04363165806910338
-1.4508426272326005	0.3302726145178481	-0.47883083344058835
-1.3638720969242515	0.37623015965965073	-0.45305508040169085
-1.272946505416479	0.42591309903557195	-0.42018808358452703
-1.1816363149714766	0.4771090193489807	-0.37804659157263787
-1.0942123842235532	0.5262576803879663	-0.32524511809699946
-1.014871482460092	0.5692155636255519	-0.2622121488370281
-0.9468481854157171	0.6025359325721262	-0.1915306522900161
-0.8917952622828491	0.6245093642151095	-0.11725149504913149
-1.3149195668187328	0.3224436078973551	-0.4986009871673925
-1.2179788613505962	0.37440886021317493	-0.47462349758290395
-1.118782143023304	0.4303444223474136	-0.4406538887143509
-1.0219838141693067	0.48671030638361695	-0.3937569531258849
-0.9327801244720844	0.5386157187069089	-0.3328828708572547
-0.8557912573993746	0.5812442193077053	-0.2599403276951969
-0.7939366613082042	0.6114660243013705	-0.17947935688457492
-1.1692853193721893	0.3137162181027932	-0.5233332227577674
-1.0628990657957065	0.3708386087257499	-0.49934783167051305
-0.9565907559924839	0.4312684350657324	-0.4613718846640558
-0.8562577568645032	0.4901329013514282	-0.40640821779897224
-0.7679998954922229	0.541672547206934	-0.33477201046914823
-0.6965115553454195	0.5811832232238343	-0.2506418435957402
-1.017154821896867	0.30081803794859363	-0.549550156777588
-0.9025693740694175	0.3609271191847231	-0.5223385918831687
-0.7912262312280197	0.42286642857674994	-0.4767065623961087
-0.6903341063313164	0.4808807129071149	-0.41072114962281514
-0.6065414540891341	0.5291522987750872	-0.3270340907397141
-0.8629284290632048	0.27994407625233614	-0.5716513614420569
-0.7425130083661082	0.3400186646971583	-0.537290317083248
-0.629489332483487	0.4001362219835883	-0.4808141246382832
-0.5320158154086174	0.4544160621423433	-0.402474039537938
-0.7122772700119255	0.2482560987708273	-0.5834943895554852
-0.5897704919092078	0.3053678228751618	-0.5386481090320399
-0.4794880408141106	0.3610843657286079	-0.4698847022835816
-0.5716906066159374	0.2052075612398926	-0.580568926028265
-0.4517525592167169	0.25741729253494056	-0.523700537658741
-0.4471878903816014	0.15284699133336085	-0.561523474144239
-1.715663231152693	0.339097406231077	-0.4650616618091745
-1.792677913798447	0.3793773146209433	-0.4370535195433105
-1.8747670549317688	0.4225065793002203	-0.4036922873223966
-1.9593336143663642	0.4672564158796186	-0.36370841752276883
-2.0429912850574232	0.5113830603955208	-0.316052125597172
-2.122095279884304	0.5518645263340328	-0.2605550573182975
-2.1934353078773574	0.5856541980528526	-0.19843484401698297
-2.254826558064396	0.6105938642157268	-0.13221945744500962
-2.3053745637323995	0.6259546383666829	-0.0650813384761489
-2.8434187681369347	0.15281445356447942	-0.561403938124172
-2.838854545537175	0.2573634853045651	-0.5235910699722462
-2.8111225631353722	0.36101682310613414	-0.46979680801823864
-2.7586004505753863	0.45434791807701835	-0.4024136846791934
-2.6840799530998343	0.5290968836506164	-0.32699984231088464
-2.5941133027143026	0.5811486753848593	-0.25062694444912526
-2.496689156636553	0.6114538280601151	-0.17947577700695302
-2.398830397630466	0.624516251300822	-0.11725278809795124
-2.7189288540054948	0.20518191631301858	-0.5804963719393057
-2.7008498823577622	0.3053329621915176	-0.5385866171526805
-2.6611331957384565	0.40009929325457516	-0.48076975011396145
-2.600290627594964	0.48085076387879344	-0.41069557009963586
-2.522625880809679	0.5416565123461552	-0.33476210038120263
-2.4348344745694477	0.5812445602565929	-0.259940480172181
-2.3437768300851514	0.6025509114136695	-0.19153541367790392
-2.578347963138203	0.24824307763293033	-0.58346378502675
-2.548112450214826	0.340005186437068	-0.5372690190211428
-2.4993995883794327	0.42285757936573687	-0.47669658648722385
-2.4343679740354522	0.4901332584787309	-0.406408513921657
-2.357845030753733	0.5386273336780133	-0.33289004930524985
-2.275752835503898	0.5692374598128777	-0.26222223543110057
-2.4276974389308763	0.2799448454992428	-0.5716529322595121
-2.3880560375788473	0.36093214550020275	-0.5223458660346814
-2.3340341494516283	0.43128009777627235	-0.461384361456477
-2.2686404418301045	0.4867296170088317	-0.3937725757515984
-2.1964112885070697	0.5262837377194463	-0.3252612224127564
-2.2734696188037775	0.3008297338381685	-0.5495715234416131
-2.2277248270814898	0.370855580175381	-0.49937068435190646
-2.171841518725927	0.4303667503918984	-0.4406767516564937
-2.1089871309638024	0.47713554813055264	-0.378067612167607
-2.1213380166621967	0.3137334914603938	-0.5233620377229472
-2.0726445713581407	0.37442993947388364	-0.47465021893890585
-2.0176770248807236	0.42593669153593333	-0.4202113589605046
-1.9757040102707037	0.3224607122980104	-0.4986274360435455
-1.9267517439039124	0.3762485236708553	-0.4530771942816103
-1.839781928647543	0.3302849315649628	-0.47884869075504977
-1.574961838562375	0.3390924507766674	-0.4650548655558845
-1.497946936288723	0.37936617917400844	-0.4370406911898824
-1.4158571296663818	0.4224886301365769	-0.40367513743815403
-1.3312900392362585	0.46723219469046456	-0.3636895639552664
-1.2476321832577741	0.5113543796576802	-0.31603439992563487
-1.1685280579294512	0.5518341608942875	-0.26054072070393686
-1.0971883448848314	0.5856250197978999	-0.1984249576668305
-1.0357977319006026	0.610568261374227	-0.13221391334440438
-0.9852502169660395	0.6259339546969837	-0.0650791879674281
-1.0646698627017426	0.6218044861285248	3.807454368163813e-17
-1.195992945291505	0.6070659471717849	3.7172068453764123e-17
-1.338265581606579	0.5913927598712829	3.62123625207643e-17
-1.4892949863250724	0.5792140216126256	3.546662987945839e-17
-1.6453126556599498	0.5745995262395714	3.5184073530043836e-17
-1.801329810489693	0.5792319222521453	3.546772597750291e-17
-1.9523582437668934	0.5914230724046298	3.621421862811116e-17
-2.0946304812050256	0.6070999841324017	3.7174152616507736e-17
-2.2259540156757605	0.6218330873619493	3.807629500208638e-17
-1.6453126556599498	0.37666147999978095	-0.4339248149612033
-1.7226265113114414	0.4162855551468857	-0.39774835484698984
-1.8049906192648109	0.4572514939770847	-0.3559206527810067
-1.8893896337412914	0.49812101952620147	-0.3078556985451174
-1.972098247924295	0.5366303536151455	-0.25336248425567776
-2.0494060442465836	0.5700616972214212	-0.19315169279300298
-2.1183832873955395	0.5960378353964103	-0.12906745234804126
-2.1773567517724497	0.6132751121887806	-0.06376303420032962
-1.5679985368668576	0.41627889526321177	-0.3977419915280084
-1.6453126556599498	0.4534265222851568	-0.3529433445230667
-1.7276694706743176	0.48990080698372196	-0.3027753266036011
-1.8117097627474406	0.524348344941994	-0.24756370342590361
-1.893504140881469	0.5549393687841866	-0.18802788969996598
-1.969420581133721	0.5797214303955625	-0.1255342701434446
-2.036873423453909	0.597255962881998	-0.06209751243332077
-1.485634152963325	0.4572370620395388	-0.35590941908423396
-1.5629555608095673	0.4898924824938577	-0.3027701817863207
-1.6453126556599498	0.5195981621617322	-0.2453209437306365
-1.7290924170519484	0.5454965270815764	-0.18482839255091754
-1.810298092983985	0.5666333206891031	-0.1227001108017377
-1.8854732177857312	0.582107586177016	-0.06052250542540831
-1.401234587163049	0.49809889480991487	-0.30784202471943944
-1.4789148376191046	0.5243311846938852	-0.24755560145587832
-1.5615327364659832	0.5454871015139644	-0.18482519892378316
-1.6453126556599498	0.5615838598906091	-0.12160667689360065
-1.7263168002238485	0.5727828859055876	-0.05955302634621567
-1.3185253417264184	0.5366020133341467	-0.2533491037900556
-1.397120053742317	0.5549144325885171	-0.18801944066839138
-1.4803265164659687	0.5666149146667169	-0.12269612511839763