# TIME = 0.000000
VARIABLES = X, Y, Z
ZONE N=2562 E=5120 F=FEPOINT ET=TRIANGLE
0.6263883857321608	0.3871293456943889	-1.4320391449160237
-0.6263883857321608	0.3871293456943889	-1.4320391449160237
0.6263883857321608	-0.3871293456943889	-1.4320391449160237
-0.6263883857321608	-0.3871293456943889	-1.4320391449160237
0.5379896072620857	0.	-0.2937046506556482
0.5380008996845542	0.	-2.5703728844632248
-0.5379896072620857	6.588472505080549e-17	-0.2937046506556482
-0.5380008996845542	6.588610797370857e-17	-2.5703728844632248
4.3716206771451434e-17	0.7139398363983536	-0.7938709134055981
4.3716206771451434e-17	-0.7139398363983536	-0.7938709134055981
4.371698168996008e-17	0.7139524917779975	-2.0702076507042664
4.371698168996008e-17	-0.7139524917779975	-2.0702076507042664
0.6331901027686103	0.3758472952791874	-1.3685523379288211
0.6401890339196282	0.3635597231685523	-1.3008574457938993
0.6472739730369558	0.35010429656527436	-1.2291157576369558
0.6542197463840049	0.3352622018022649	-1.153657175267989
0.6606527651273554	0.31875870118866045	-1.0750055920476318
0.666033908831537	0.30028119427755473	-0.9938926169183399
0.6696731681374556	0.2795182590743923	-0.9112582877019637
0.6707854704910087	0.2562172827318918	-0.8282310363221551
0.6685867373329193	0.23024958439831122	-0.7460833489573825
0.6624110975666355	0.20166560797012864	-0.6661600058787633
0.6518210727424963	0.17072166488765814	-0.5897826289857023
0.636680537978044	0.1378683122716713	-0.5181429985330048
0.6171721034872582	0.10370256929326935	-0.4522054545298038
0.5937589827608621	0.06889727247637019	-0.3926392294058955
0.5671068416780529	0.03412601732443362	-0.33979179137624754
0.6547735185553195	-0.3368375299524125	-1.3663927819912247
0.6619491421385154	-0.3222147061671914	-1.296436570002367
0.6690968671114318	-0.306229921009626	-1.2224082305159512
0.6759331458477716	-0.2886579249400636	-1.1447398029667526
0.6820060454594362	-0.26923207646650665	-1.064079766152265
0.6866864761238848	-0.24767387725561957	-0.9813005952066147
0.6892003284013503	-0.22374239634350337	-0.8974866098204859
0.6887092674602896	-0.19729765739559255	-0.8138972264991934
0.6844297384906736	-0.16836113823620225	-0.731903532262956
0.6757628730193788	-0.1371536490940432	-0.652896126821533
0.6623999515318669	-0.10409543738237331	-0.5781771022532396
0.6443733590558236	-0.06976707705186463	-0.5088507871195234
0.6220429482426796	-0.03484032442299091	-0.44573817395627474
0.5960275331537048	0.	-0.38933080499981354
0.6751427625451397	-0.2938829170098361	-1.3643550186521727
0.682203805139731	-0.2767282742989357	-1.29232477654416
0.6890713773977288	-0.2580314332152741	-1.2162796271950056
0.6953981913303838	-0.23757640976752148	-1.136769280523239
0.7006540803828829	-0.21512841412375336	-1.0545775115950604
0.7041306995200485	-0.19047429691427364	-0.9707183822608684
0.7049958473915978	-0.16347875801406822	-0.8864082120636086
0.7023996971537759	-0.13414639376121795	-0.803009157568896
0.695611267295333	-0.10266698054368142	-0.7219457610549064
0.6841499443285194	-0.06942796082485199	-0.6445988199985486
0.6678729506050953	-0.0349851523756239	-0.5721915421818671
0.6469953476933898	0.	-0.5056899792829256
0.6220429482426796	0.03484032442299091	-0.44573817395627474
0.6936516545228218	-0.24704150636261601	-1.3625036784793962
0.7002343516376424	-0.2272337488991597	-1.2886672562143435
0.7064052337638843	-0.20573964368488618	-1.2109699051337959
0.7117539309755142	-0.18237316292901076	-1.130089615712085
0.7156820509107287	-0.1569590256523055	-1.0469467894037965
0.7174261741341613	-0.1293805199268986	-0.9626858376192505
0.7161363129355615	-0.09963724620845063	-0.8786274751561408
0.7110032884652822	-0.0678948107733758	-0.7961928744460376
0.701402233229856	-0.03450726673811453	-0.7168044960889608
0.6870118695151795	0.	-0.6417734689794768
0.6678729506050953	0.0349851523756239	-0.5721915421818671
0.6443733590558236	0.06976707705186463	-0.5088507871195234
0.709607322143457	-0.19656317923852373	-1.3609080380614347
0.715290864387839	-0.17408981375501068	-1.2856149815912719
0.720298844024387	-0.14984721731434672	-1.2067199299701599
0.7241671102397413	-0.12370253210076682	-1.1250307984569707
0.726251009203414	-0.09556618079516194	-1.0415946755074665
0.7257691018266057	-0.06544255749600499	-0.9576598891349248
0.7219037253277752	-0.03347990063545112	-0.8746098973868573
0.7139398363983536	0.	-0.7938709134055981
0.701402233229856	0.03450726673811453	-0.7168044960889608
0.6841499443285194	0.06942796082485199	-0.6445988199985486
0.6623999515318669	0.10409543738237331	-0.5781771022532396
0.7223239812365758	-0.14291838430719064	-1.3596364670887364
0.726660189656923	-0.11790461659018511	-1.2833116082097082
0.7300294972715107	-0.09112289070663422	-1.2037465148096287
0.7319331211661066	-0.06251456383510222	-1.1218705965366307
0.7317127994470994	-0.0320949331263573	-1.0388334104277788
0.7286145131477603	0.	-0.9559483600493764
0.7219037253277752	0.03347990063545112	-0.8746098973868573
0.7110032884652822	0.0678948107733758	-0.7961928744460376
0.695611267295333	0.10266698054368142	-0.7219457610549064
0.6757628730193788	0.1371536490940432	-0.652896126821533
0.7311916742957824	-0.0868037190903498	-1.3587499445005595
0.7337475873197101	-0.05952732337020715	-1.2818761332909383
0.7350449051042681	-0.030582955128240864	-1.2022150474919673
0.734577658807492	0.	-1.1207953334202712
0.7317127994470994	0.0320949331263573	-1.0388334104277788
0.7257691018266057	0.06544255749600499	-0.9576598891349248
0.7161363129355615	0.09963724620845063	-0.8786274751561408
0.7023996971537759	0.13414639376121795	-0.803009157568896
0.6844297384906736	0.16836113823620225	-0.731903532262956
0.7357497653037168	-0.029114934427639207	-1.3582941833986515
0.7361565332381359	0.	-1.2813883212185302
0.7350449051042681	0.030582955128240864	-1.2022150474919673
0.7319331211661066	0.06251456383510222	-1.1218705965366307
0.726251009203414	0.09556618079516194	-1.0415946755074665
0.7174261741341613	0.1293805199268986	-0.9626858376192505
0.7049958473915978	0.16347875801406822	-0.8864082120636086
0.6887092674602896	0.19729765739559255	-0.8138972264991934
0.7357497653037168	0.029114934427639207	-1.3582941833986515
0.7337475873197101	0.05952732337020715	-1.2818761332909383
0.7300294972715107	0.09112289070663422	-1.2037465148096287
0.7241671102397413	0.12370253210076682	-1.1250307984569707
0.7156820509107287	0.1569590256523055	-1.0469467894037965
0.7041306995200485	0.19047429691427364	-0.9707183822608684
0.6892003284013503	0.22374239634350337	-0.8974866098204859
0.7311916742957824	0.0868037190903498	-1.3587499445005595
0.726660189656923	0.11790461659018511	-1.2833116082097082
0.720298844024387	0.14984721731434672	-1.2067199299701599
0.7117539309755142	0.18237316292901076	-1.130089615712085
0.7006540803828829	0.21512841412375336	-1.0545775115950604
0.6866864761238848	0.24767387725561957	-0.9813005952066147
0.7223239812365758	0.14291838430719064	-1.3596364670887364
0.715290864387839	0.17408981375501068	-1.2856149815912719
0.7064052337638843	0.20573964368488618	-1.2109699051337959
0.6953981913303838	0.23757640976752148	-1.136769280523239
0.6820060454594362	0.26923207646650665	-1.064079766152265
0.709607322143457	0.19656317923852373	-1.3609080380614347
0.7002343516376424	0.2272337488991597	-1.2886672562143435
0.6890713773977288	0.2580314332152741	-1.2162796271950056
0.6759331458477716	0.2886579249400636	-1.1447398029667526
0.6936516545228218	0.24704150636261601	-1.3625036784793962
0.682203805139731	0.2767282742989357	-1.29232477654416
0.6690968671114318	0.306229921009626	-1.2224082305159512
0.6751427625451397	0.2938829170098361	-1.3643550186521727
0.6619491421385154	0.3222147061671914	-1.296436570002367
0.6547735185553195	0.3368375299524125	-1.3663927819912247
0.6477191425818803	0.35027339666452223	-1.4320391449160237
0.6680823599291573	0.3096732155505152	-1.4320391449160237
0.6869000502581686	0.2653297213529487	-1.4320391449160237
0.7035385231229482	0.21740535080786053	-1.4320391449160237
0.717349868546272	0.1662549433086255	-1.4320391449160237
0.7277284806983192	0.11244019947698464	-1.4320391449160237
0.7341761237191545	0.05671824608205649	-1.4320391449160237
0.7363637281112562	0.	-1.4320391449160237
0.7341761237191545	-0.05671824608205649	-1.4320391449160237
0.7277284806983192	-0.11244019947698464	-1.4320391449160237
0.717349868546272	-0.1662549433086255	-1.4320391449160237
0.7035385231229482	-0.21740535080786053	-1.4320391449160237
0.6869000502581686	-0.2653297213529487	-1.4320391449160237
0.6680823599291573	-0.3096732155505152	-1.4320391449160237
0.6477191425818803	-0.35027339666452223	-1.4320391449160237
0.6331914695184268	-0.3758481065509044	-1.495525837324736
0.6401918305080729	-0.36356131133527636	-1.563220732006679
0.6472782914099314	-0.3501066323318831	-1.6349625448637934
0.6542256016368835	-0.33526520239187263	-1.710421022004961
0.660660150513085	-0.31876226456731743	-1.7890726285231822
0.6660428272240468	-0.30028521513222656	-1.8701856725693724
0.6696834522824144	-0.27952255162549294	-1.9528200881836633
0.6707969213118969	-0.25622165655682116	-2.0358474166172074
0.668599125289993	-0.2302538505941666	-2.1179952888960645
0.6624241499001976	-0.2016695816456798	-2.1979186834295765
0.6518344805216213	-0.17072517658507078	-2.2742961222305538
0.6366939578250029	-0.1378712182371293	-2.3459357939489025
0.6171853129146038	-0.10370478885495545	-2.4118731860829556
0.5937717663925004	-0.06889875583473241	-2.471439113499494
0.5671190426036209	-0.034126751522942096	-2.524286105122423
0.6547749917699264	0.33683828782357744	-1.4976855089076542
0.6619521365517166	0.3222161637474016	-1.5676417243263447
0.6691014689195065	0.30623202714909914	-1.641670072771109
0.6759393335478615	0.2886605674035662	-1.7193385097223677
0.6820139175106061	0.2692351840763243	-1.7999984746758382
0.6866958752184784	0.24767726731830703	-1.882777695292287
0.6892111156330386	0.22374589831668648	-1.9665917729242168
0.6887212194208351	0.19730108132776292	-2.050181296813889
0.6844425762942136	0.16836429617498674	-2.1321751027667375
0.6757763149979298	0.13715637729424912	-2.2111825366443334
0.662413629509866	0.10409758686185175	-2.2859016869281703
0.6443869876764141	0.06976855263897495	-2.3552279841226937
0.6220562360601064	0.03484106866721285	-2.41834057827798
0.596040389194797	0.	-2.4747475009452153
0.675144338739959	0.29388360311173484	-1.4997232723539005
0.6822069815206313	0.2767295627619997	-1.5717535180699866
0.6890762360013435	0.2580332525804302	-1.6477985586019699
0.695404711825798	0.23757863743493524	-1.7273089141437012
0.7006623708538533	0.215130959625053	-1.8095007416005773
0.7041405098532232	0.19047695070612677	-1.8933599080376535
0.7050070513373694	0.16348135605368275	-1.9776701857078505
0.7024120332065535	0.1341487497374521	-2.061069412787599
0.6956244243207066	0.102668922421468	-2.142132861307557
0.6841635719358758	0.06942934376290165	-2.2194800410476057
0.6678867297232164	0.03498587416641754	-2.29188740583308
0.6470089965141292	0.	-2.3583889336107706
0.6220562360601064	-0.03484106866721285	-2.41834057827798
0.6936533259861293	0.24704210164817555	-1.5015744970566098
0.700237685849817	0.22723483088768298	-1.575411038506094
0.706410315415892	0.20574112370969833	-1.6531082802127284
0.7117607648393127	0.18237491397428318	-1.7339887047111595
0.7156906521827252	0.15696091203085896	-1.8171314627046193
0.7174363041292777	0.12938234676857552	-1.9013924551621841
0.7161478171101376	0.09963884680355238	-1.985450943694761
0.7110158457335927	0.0678960098864736	-2.0678858291063227
0.701415555846162	0.03450792217810708	-2.14727412067698
0.687025602833614	0.	-2.222305269005006
0.6678867297232164	-0.03498587416641754	-2.29188740583308
0.6443869876764141	-0.06976855263897495	-2.3552279841226937
0.7096090765102715	0.19656366520295482	-1.5031701375398159
0.7152943296312444	0.1740906571372054	-1.578463196768771
0.7203041073518013	0.14984831226954953	-1.6573582550437596
0.7241742014457192	0.12370374342357159	-1.7390474097688
0.7262598154640723	0.09556733959657844	-1.8224836926013652
0.725779436000882	0.06544348932789554	-1.9064184071606407
0.721915386253202	0.03348044143696094	-1.9894685340832612
0.7139524917779975	0.	-2.0702076507042664
0.701415555846162	-0.03450792217810708	-2.14727412067698
0.6841635719358758	-0.06942934376290165	-2.2194800410476057
0.662413629509866	-0.10409758686185175	-2.2859016869281703
0.7223258020444361	0.14291874457062406	-1.50444170856054
0.7266637548147807	0.11790519505667645	-1.580766686345535
0.7300348904354107	0.0911235638858502	-1.6603316700742845
0.7319403749224407	0.0625151833799763	-1.742207616420002
0.7317217191889065	0.03209532437073216	-1.8252448322623709
0.7286249176877784	0.	-1.9081299378756789
0.721915386253202	-0.03348044143696094	-1.9894685340832612
0.7110158457335927	-0.0678960098864736	-2.0678858291063227
0.6956244243207066	-0.102668922421468	-2.142132861307557
0.6757763149979298	-0.13715637729424912	-2.2111825366443334
0.7311935414076073	0.08680394074529482	-1.5053283467657979
0.7337512166802918	0.059527617812226034	-1.5822020448858962
0.7350503652197601	0.03058318230683353	-1.6618632550537265
0.7345849679303736	0.	-1.7432828810968128
0.7317217191889065	-0.03209532437073216	-1.8252448322623709
0.725779436000882	-0.06544348932789554	-1.9064184071606407
0.7161478171101376	-0.09963884680355238	-1.985450943694761
0.7024120332065535	-0.1341487497374521	-2.061069412787599
0.6844425762942136	-0.16836429617498674	-2.1321751027667375
0.7357516564196237	0.02911500926247874	-1.5057839922969583
0.7361601845105122	0.	-1.5826898569414947
0.7350503652197601	-0.03058318230683353	-1.6618632550537265
0.7319403749224407	-0.0625151833799763	-1.742207616420002
0.7262598154640723	-0.09556733959657844	-1.8224836926013652
0.7174363041292777	-0.12938234676857552	-1.9013924551621841
0.7050070513373694	-0.16348135605368275	-1.9776701857078505
0.6887212194208351	-0.19730108132776292	-2.050181296813889
0.7357516564196237	-0.02911500926247874	-1.5057839922969583
0.7337512166802918	-0.059527617812226034	-1.5822020448858962
0.7300348904354107	-0.0911235638858502	-1.6603316700742845
0.7241742014457192	-0.12370374342357159	-1.7390474097688
0.7156906521827252	-0.15696091203085896	-1.8171314627046193
0.7041405098532232	-0.19047695070612677	-1.8933599080376535
0.6892111156330386	-0.22374589831668648	-1.9665917729242168
0.7311935414076073	-0.08680394074529482	-1.5053283467657979
0.7266637548147807	-0.11790519505667645	-1.580766686345535
0.7203041073518013	-0.14984831226954953	-1.6573582550437596
0.7117607648393127	-0.18237491397428318	-1.7339887047111595
0.7006623708538533	-0.215130959625053	-1.8095007416005773
0.6866958752184784	-0.24767726731830703	-1.882777695292287
0.7223258020444361	-0.14291874457062406	-1.50444170856054
0.7152943296312444	-0.1740906571372054	-1.578463196768771
0.706410315415892	-0.20574112370969833	-1.6531082802127284
0.695404711825798	-0.23757863743493524	-1.7273089141437012
0.6820139175106061	-0.2692351840763243	-1.7999984746758382
0.7096090765102715	-0.19656366520295482	-1.5031701375398159
0.700237685849817	-0.22723483088768298	-1.575411038506094
0.6890762360013435	-0.2580332525804302	-1.6477985586019699
0.6759393335478615	-0.2886605674035662	-1.7193385097223677
0.6936533259861293	-0.24704210164817555	-1.5015744970566098
0.6822069815206313	-0.2767295627619997	-1.5717535180699866
0.6691014689195065	-0.30623202714909914	-1.641670072771109
0.675144338739959	-0.29388360311173484	-1.4997232723539005
0.6619521365517166	-0.3222161637474016	-1.5676417243263447
0.6547749917699264	-0.33683828782357744	-1.4976855089076542
0.6075790696390282	0.4160097847771438	-1.3928144036977166
0.5859760426076868	0.4458639785033998	-1.3510725475185803
0.5612977109520181	0.4764313018465899	-1.307026430341391
0.5332880289304733	0.5073527540014023	-1.261026505219388
0.5017461329632925	0.5381626143762467	-1.2135714989898496
0.46656413565502125	0.5682910460590315	-1.1653036316830083
0.4277688731310293	0.5970848077802524	-1.1169838161856545
0.385559958940606	0.6238490419728946	-1.069445861126375
0.340332914025561	0.6479081104927157	-1.0235336047770298
0.29267571105645196	0.6686764631006338	-0.9800313547237866
0.24333409038103782	0.6857236530796766	-0.939597896568217
0.193148641544192	0.6988184383293288	-0.9027203536280511
0.14297901927209872	0.7079415780433969	-0.8696897222363188
0.09362884078335051	0.7132679665424049	-0.8406055617738744
0.045788391174581486	0.7151249365801736	-0.8153990172857082
0.5535739707598014	0.09279504572630641	-0.3287350519460978
0.535487157341764	0.1551754219200783	-0.32278160175415205
0.5124087780325856	0.22027363846063577	-0.323141801762865
0.4841353251132575	0.28669486102991154	-0.3309008463581468
0.45079111692840657	0.3527075322768422	-0.3468551847217533
0.4128863650070127	0.41639266453017726	-0.3713515558608999
0.37131339525950513	0.47586615760381124	-0.4041783515048547
0.3272653019947766	0.5295264070864502	-0.4445485901012179
0.28208938367476555	0.5762590187431536	-0.49118726866542106
0.23711323553816724	0.6155433387503804	-0.5425059418070756
0.19349146084830127	0.6474371498799067	-0.596811235501083
0.15210602485219235	0.6724633871091994	-0.6524952062729046
0.11353471621935533	0.6914459090837265	-0.7081708649188029
0.07807290667861765	0.7053448540796939	-0.7627392943875817
0.5797732725385988	0.12919623477749947	-0.3854515577057213
0.5608792883241127	0.1927533143443885	-0.38371619356702835
0.5366571126360902	0.2583791125327735	-0.388545596348684
0.5069699612091741	0.3245010627924196	-0.40085862010739837
0.47205717257485963	0.38927023536182026	-0.42121846014497755
0.43257698171673725	0.45075371105099754	-0.4496950271882319
0.38957252289078165	0.5071806676801267	-0.4857987707723407
0.3443561125155498	0.5571798878528841	-0.5285145989772717
0.2983374334240203	0.599941074567845	-0.5764333747806553
0.2528429258229283	0.6352579812918647	-0.6279448572337653
0.208974235273889	0.6634548896890745	-0.6814378586724417
0.16753265304917594	0.6852369369240148	-0.735460927410359
0.12901011277305327	0.7015176449527865	-0.7888184981364975
0.6023678010467651	0.16504911863740868	-0.4493003797860079
0.5823408824907275	0.22905857154460854	-0.45208105814521
0.5567286678893	0.29437016459024207	-0.4615056701568677
0.525500080151704	0.3592876999036012	-0.4782739503916079
0.4890377499144292	0.4219284798539761	-0.5026814417925362
0.44815527036263964	0.48044531689178227	-0.534519929907047
0.404027975808169	0.5332731882355871	-0.5730597983656709
0.3580468560555073	0.5793320126148903	-0.6171305205206322
0.31163198667703834	0.6181288581969839	-0.6652791237235437
0.26605938784668803	0.6497380351987889	-0.7159616957352327
0.22234192105322545	0.6746836216054698	-0.7677172979078426
0.18118096260054026	0.6937743244514847	-0.8192899242920834
0.620703857124045	0.19958269394075112	-0.5197636386616148
0.5992676417500814	0.2632531662488249	-0.5271483830064264
0.5721075357571809	0.3273949352361383	-0.5410518012948531
0.5393311536182422	0.39026374979401346	-0.5619201734143808
0.5014787988610966	0.450037330616165	-0.5897772371374059
0.4595063892459127	0.5050463222787831	-0.6241672365326699
0.4146828894628427	0.5539969852423086	-0.6641863383540663
0.3684230068240926	0.5961208534580903	-0.708594715219566
0.3221014240328794	0.6312140129705426	-0.7559825468516784
0.27690005244198024	0.659566500671542	-0.8049411839730224
0.2337178242606811	0.6818221718178878	-0.854202007761742
0.6343832610829193	0.232080164806491	-0.5959632891904116
0.6113621856009519	0.2946267237735735	-0.6078036380560794
0.5826274784497639	0.35681846717040416	-0.6258238807053689
0.5484443237219756	0.41694880267819723	-0.6502108985423644
0.5095033149243204	0.47334314100217273	-0.6807406299154386
0.4668685368263907	0.5245766511617881	-0.7167683037321235
0.4218485093071536	0.5696527775114977	-0.7572951680050939
0.3758223955934974	0.6080933964470988	-0.8010952344926852
0.3300704183331606	0.6399236073579192	-0.8468704602307139
0.2856495686305054	0.6655711186292663	-0.8933913842349679
0.6433370059911473	0.2619686608880411	-0.6767120661362093
0.6186955202589527	0.32269299272325774	-0.6926316836330395
0.5885111075278132	0.3823127233475296	-0.7141983170888508
0.5532041164896575	0.43923786082978955	-0.7413589851943813
0.5135865468383688	0.4920057919475243	-0.7736931032259979
0.470779831961392	0.539465687019152	-0.8104379215299095
0.42607302493027727	0.5809037485429448	-0.8505771128140062
0.3807579735789966	0.6160793707505835	-0.8929656202684431
0.33598592799642707	0.6451732071451628	-0.9364610699418122
0.6478460230326855	0.2888900789046375	-0.7606132016435433
0.6217006594236837	0.3472491029016369	-0.7800491818027693
0.5903305010665999	0.4038867696991818	-0.8044468949572402
0.5542871660742283	0.45738841417405435	-0.8335572507750614
0.5144581409308898	0.5065339671278856	-0.8668253406769431
0.4719663391193313	0.550438277298109	-0.9034417612545173
0.4280293808831938	0.5886259485935581	-0.9424364383667856
0.3838158683959899	0.6210271115535569	-0.9827891056631638
0.6484948466141038	0.31273370648420434	-0.8461839242886293
0.6210940186728721	0.36837808167272695	-0.8684495622287601
0.5888982654566122	0.4218481881052582	-0.8948962942693505
0.5525502368915715	0.4719342445357628	-0.925133465896993
0.5129616400351963	0.517655540505763	-0.9585359829322463
0.4712070823262009	0.5583565443807039	-0.9943076164703941
0.4283969004072343	0.5937420787224306	-1.031568325353632
0.6460689765909785	0.3336192664003334	-0.9319768882810964
0.6177460776537258	0.38639533218875116	-0.9563316543660959
0.5851205935377053	0.4367086898534996	-0.9840503025103559
0.5488802617479707	0.48355550709466805	-1.0146571123851615
0.5099147585755887	0.5261664722806109	-1.0475122219254271
0.4692156829277108	0.5640670348457283	-1.0818758929095598
0.6414237685927563	0.3518396407250381	-1.0166790506001717
0.6125389430421377	0.40175774428240496	-1.0423910988703817
0.579856498468218	0.44906646036621967	-1.0706650538143714
0.5440673082059025	0.4929473458929429	-1.1009906007287709
0.5060063353593984	0.5328031774990069	-1.132755300104311
0.635361551519387	0.36778033931007287	-1.0991747602681556
0.6062494397434988	0.41496553127158253	-1.125569184316094
0.5738173199519225	0.4595002271265475	-1.1537786891600799
0.5387288277643016	0.5007211861202184	-1.1832981658404322
0.6285452469567155	0.3818430774974477	-1.1785781370124433
0.5994801059058499	0.4264823131049689	-1.205068455547123
0.5675213596580121	0.4684988443680331	-1.2327083692155396
0.6214596179647325	0.3943884557752412	-1.2542386042234237
0.5926419610135453	0.4366879403884238	-1.2803429184024566
0.6144150918263311	0.40570615098688245	-1.3257279630948382
0.6331914695184268	0.3758481065509044	-1.495525837324736
0.6401918305080729	0.36356131133527636	-1.563220732006679
0.6472782914099314	0.3501066323318831	-1.6349625448637934
0.6542256016368835	0.33526520239187263	-1.710421022004961
0.660660150513085	0.31876226456731743	-1.7890726285231822
0.6660428272240468	0.30028521513222656	-1.8701856725693724
0.6696834522824144	0.27952255162549294	-1.9528200881836633
0.6707969213118969	0.25622165655682116	-2.0358474166172074
0.668599125289993	0.2302538505941666	-2.1179952888960645
0.6624241499001976	0.2016695816456798	-2.1979186834295765
0.6518344805216213	0.17072517658507078	-2.2742961222305538
0.6366939578250029	0.1378712182371293	-2.3459357939489025
0.6171853129146038	0.10370478885495545	-2.4118731860829556
0.5937717663925004	0.06889875583473241	-2.471439113499494
0.5671190426036209	0.034126751522942096	-2.524286105122423
0.5245864019759646	0.056586545203571856	-2.584770300738963
0.5069814624946214	0.11718754953010503	-2.594483404394972
0.48476240345416066	0.18100664889117213	-2.598260674965427
0.457696602107926	0.24685620401858696	-2.594910803014993
0.4258272485804322	0.31318321877028527	-2.583458556024804
0.38953824100652445	0.3781716341438311	-2.5633116971345027
0.3495710781286338	0.43992510405096374	-2.5343994489768553
0.3069771370969202	0.49669943998357985	-2.4972365823638065
0.2630014932814486	0.5471296809447358	-2.4528861288158965
0.2189276009451851	0.5903870411199637	-2.402822819561559
0.1759220501045186	0.626225208847351	-2.3487373713688453
0.13492081789974944	0.6549194575067486	-2.292328962669986
0.09657443165659718	0.6771297824974475	-2.2351397258809986
0.061250606980437494	0.6937388785884155	-2.1784507111355658
0.02907666493048824	0.7057048961714709	-2.123243035770589
0.6144172010030894	0.405707543703298	-1.5383502122446666
0.5926449178480921	0.4366901191305198	-1.5837352597280705
0.5675250771755583	0.4685019132440228	-1.6313699323341417
0.538733157671266	0.5007252105496516	-1.6807800247970166
0.5060111471560387	0.5328082441164783	-1.731322897775679
0.46922082503328244	0.5640732164213835	-1.7822024392258216
0.428402195703448	0.5937494178048991	-1.8325099142984311
0.38382110865739083	0.6210355904744916	-1.8812891849935196
0.33599089037488655	0.6451827360967022	-1.927617267617593
0.2856540605742457	0.6655815849780671	-1.9706871310693015
0.2337217008476206	0.6818334809379119	-2.0098764731904186
0.18118408747365444	0.6937862901497714	-2.0447885672201727
0.12901240769664415	0.7015301240473181	-2.075260185756488
0.07807433209227561	0.7053577318913621	-2.1013392841480574
0.6214632254277034	0.3943907451303485	-1.6098395757480293
0.5994845130733104	0.4264854484533388	-1.6590097293799428
0.5738224540343483	0.4595043383862789	-1.7102995081740953
0.5440730295721499	0.49295252968594794	-1.7630876193098317
0.5099208777780241	0.5261727865107925	-1.8165661526913943
0.4712133870356582	0.5583640151423244	-1.8697706727149221
0.428035631553588	0.5886345445146663	-1.9216420086484962
0.38076397013940744	0.616089073389585	-1.971112766741808
0.33007593984032546	0.639934312172973	-2.017208019279599
0.2769049056371322	0.6595780608172163	-2.0591373817558503
0.2223459559090649	0.6746958651407308	-2.0963613866311133
0.16753578052997478	0.6852497288503878	-2.1286178494055084
0.11353688734814255	0.6914591316306972	-2.155907760525152
0.6285504132151394	0.38184621601456364	-1.6855000574471393
0.6062553622229284	0.41496958508946974	-1.7385091426300086
0.5798630642824725	0.44907154522251513	-1.7934131746445332
0.548887295068362	0.4835617033473764	-1.8494212696760797
0.5129689333499032	0.5176629005585858	-1.9055423126191846
0.47197366623581094	0.5504468226646708	-1.9606366179549075
0.4260801224270833	0.5809134251998994	-2.013501369358894
0.37582900918961043	0.6081040974701625	-2.062983338125136
0.32210733088171895	0.631225588472797	-2.108096203797541
0.2660644449199613	0.6497503849710673	-2.1481169203868076
0.20897830459679906	0.6634678090433617	-2.1826408782057234
0.15210905113460083	0.672476766356476	-2.2115834587831102
0.6353682568461038	0.3677842207022175	-1.7649034579250038
0.6125463602705095	0.4017626091631988	-1.8216872702037887
0.5851285650676286	0.43671463945846545	-1.880027988281099
0.552558551241826	0.47194134583867464	-1.9389448981556803
0.5144665298947759	0.5065422268769677	-1.9972532451283806
0.47078803383509255	0.5394750855301551	-2.0536406210901306
0.4218562486569613	0.5696632285194231	-2.1067834400988072
0.36843004999204926	0.596132249541439	-2.1554839089778226
0.3116381315400258	0.6181410466670529	-2.198799560742435
0.25284800085349257	0.6352707321080513	-2.2361340852931306
0.19349543238547098	0.6474504389454528	-2.2672674825675645
0.6414319509648834	0.3518441289947444	-1.8473993279715757
0.6177548871378507	0.38640084245205825	-1.9077467688761698
0.5889075155041943	0.4218548142341523	-1.969182090702817
0.5542965718590607	0.45739617566894697	-2.0305211993062584
0.5135958147993247	0.4920146704715003	-2.0903855575161883
0.4668774049103907	0.5245866154010547	-2.1473103130029907
0.4146910734919594	0.5540079187232237	-2.1998923403392645
0.35805411540236654	0.579343758485452	-2.2469482399624114
0.29834357842128834	0.5999534318380069	-2.28764556840863
0.23711822067922195	0.6155562801214599	-2.3215727705481646
0.6460785926850124	0.33362423199124314	-1.9321014624551422
0.6211041247348471	0.36838407569555076	-1.995629018694828
0.5903408531697762	0.40389385230376335	-2.0596316721637282
0.5532144088814606	0.43924603287338726	-2.12271965537324
0.5095132202482081	0.4733523433311553	-2.1833382500904763
0.4595156592606086	0.505056511009428	-2.239911552267271
0.40403633529598126	0.5332842218545061	-2.2910189977904487
0.34436336593359934	0.5571916241296875	-2.335564157404582
0.2820954066095236	0.5762713225400155	-2.3728913990246943
0.6485056909768622	0.3127389361290929	-2.017894685608352
0.6217118272984127	0.3472553406857251	-2.0840293433522348
0.5885223095672483	0.38232000049514614	-2.1498802984455714
0.5484552221949015	0.4169570881231201	-2.2138679226808993
0.5014891141577025	0.4500465877743132	-2.274301514103242
0.44816470971905886	0.4804554363635056	-2.32955879612752
0.3895808582800527	0.5071915194421157	-2.3782798746819664
0.32727229728757257	0.5295377257084922	-2.4195301521624093
0.647857873608107	0.2888953633604293	-2.103465389600299
0.6187074776716176	0.32269922935040585	-2.171447014574079
0.5826392192398148	0.3568256575808539	-2.238254912185331
0.539342369430195	0.390271865633049	-2.302158615379648
0.4890481267496568	0.4219374327053951	-2.361397296380256
0.43258625194444605	0.4507633708103436	-2.4143835944636605
0.3713213528035106	0.4758763557974078	-2.4599000980191317
0.6433495764540097	0.2619737796163159	-2.1873666700143852
0.6113746271238595	0.2946327195731492	-2.256275229458786
0.5721195273553201	0.3274017975622759	-2.323027063749692
0.525511326450327	0.3592953890684888	-2.3858046987256527
0.4720673445070158	0.3892786233933016	-2.4428600153678874
0.41289528648096435	0.416401661766766	-2.492726605283254