# TIME = 0.000000
VARIABLES = X, Y, Z
ZONE N=2562 E=5120 F=FEPOINT ET=TRIANGLE
0.7072769750632039	0.43712124748430914	-1.2934075866927996
-0.7072769750632039	0.43712124748430914	-1.2934075866927996
0.7072769750632039	-0.43712124748430914	-1.2934075866927996
-0.7072769750632039	-0.43712124748430914	-1.2934075866927996
0.5326012133459416	0.	-0.24613746239276682
0.5322264485489036	0.	-2.340532344916503
-0.5326012133459416	6.522483711461039e-17	-0.24613746239276682
-0.5322264485489036	6.517894166369782e-17	-2.340532344916503
4.674458608261777e-17	0.7633970237812758	-0.6930728493251397
4.674458608261777e-17	-0.7633970237812758	-0.6930728493251397
4.673581843981457e-17	0.7632538373080936	-1.8937231909881662
4.673581843981457e-17	-0.7632538373080936	-1.8937231909881662
0.7145067097012895	0.42411499030994343	-1.233215905022801
0.7209182770092938	0.4094054026697889	-1.1690583391169898
0.7262124353909922	0.3928013552848383	-1.1011231030564879
0.7300185096710349	0.3741061229984039	-1.0297749219492547
0.7318927875885743	0.35313133721026496	-0.9555831545465554
0.7313304487846527	0.3297201203432141	-0.8793354154978942
0.7277987036155746	0.3037795693039756	-0.8020311743411294
0.7207913786416197	0.27531784240488477	-0.7248463553609205
0.7099002463996604	0.24447723469631039	-0.6490673914936104
0.6948873035146591	0.2115527216388613	-0.5759987484302174
0.675739184981412	0.17698617536937233	-0.5068566982563026
0.6526869160519635	0.14133437130598978	-0.4426679916844859
0.6261847666987205	0.10521695454484262	-0.3841930405452972
0.5968552494481866	0.06925655012236755	-0.331887834956143
0.5654152111048395	0.03402422237151574	-0.28590635538520454
0.7388296296305847	-0.38007882183371494	-1.2311686828924138
0.7452857815271968	-0.36278019536298556	-1.164869958262982
0.7503807100408848	-0.34343162680613476	-1.0947758130605498
0.7536874585542305	-0.3218629818289915	-1.0213529496721072
0.7547055196105148	-0.29793128010851044	-0.9452950257334493
0.7528824012854025	-0.2715494041712219	-0.8675287123099278
0.7476601535732796	-0.2427208280632467	-0.789191844623124
0.7385443331656327	-0.2115741339646937	-0.7115786862789966
0.7251851195001464	-0.17838645120862864	-0.6360537194083725
0.7074495214501272	-0.14358480954004266	-0.563941389037116
0.6854638544957747	-0.10771990483775341	-0.49641330572742476
0.6596115987985244	-0.07141693955987019	-0.4343916644914488
0.6304884797063621	-0.03531335455210103	-0.3784899440413613
0.598827442068802	0.	-0.32899745901485783
0.7617813011624764	-0.33159580955177437	-1.2292369409275155
0.7679554388016434	-0.3115124567130386	-1.160974611267262
0.7724759787532952	-0.2892633339013819	-1.088977131542307
0.7748637262429783	-0.26472508044305443	-1.0138272287986305
0.7745724932063447	-0.23782427984477558	-0.9363515122939768
0.7710229484672717	-0.20856930980878544	-0.8576134903825372
0.7636631531573558	-0.17708289244706205	-0.7788735399479974
0.7520495436547003	-0.1436286698582689	-0.7015127302156338
0.7359313650541941	-0.10861792309845578	-0.6269273884422134
0.7153141802079116	-0.07259052681744955	-0.5564092704013689
0.6904815728669681	-0.0361694586035044	-0.491033789545198
0.6619674897139164	0.	-0.4315790593992443
0.6304884797063621	0.03531335455210103	-0.3784899440413613
0.7826341912170824	-0.27873231220382616	-1.2274819427413155
0.7881257888203398	-0.25575548697220757	-1.1575097972189408
0.791629704315103	-0.23056116448678557	-1.0839538680555587
0.7926263307584408	-0.2030951494192816	-1.007521844760756
0.7905447556716443	-0.17337745780666342	-0.9291723726869804
0.7848101719581333	-0.14153253916949204	-0.8500916568644331
0.7749162641491228	-0.10781539939716252	-0.771632174293554
0.7605126588674109	-0.07262253762006485	-0.6952166288221692
0.7414835547144031	-0.03647916928726159	-0.622219512854097
0.7179932065773205	0.	-0.5538463315026471
0.6904815728669681	0.0361694586035044	-0.491033789545198
0.6596115987985244	0.07141693955987019	-0.4343916644914488
0.8006084951280718	-0.22177075435522262	-1.2259693535829568
0.8049617687597352	-0.19591420970155587	-1.1546184683114789
0.806967994222779	-0.16787741560214028	-1.0799336045089176
0.8060881169923266	-0.13769631312761282	-1.002747438402205
0.8017574015621372	-0.10550194329586932	-0.9241385718821069
0.7934444609282708	-0.07154484067109061	-0.8453872502706137
0.7807310777991597	-0.0362081507417854	-0.7678949228041086
0.7633970237812758	0.	-0.6930728493251397
0.7414835547144031	0.03647916928726159	-0.622219512854097
0.7153141802079116	0.07259052681744955	-0.5564092704013689
0.6854638544957747	0.10771990483775341	-0.49641330572742476
0.8149326381568059	-0.16124185128836416	-1.2247639770526393
0.817670260043355	-0.1326715015902072	-1.1524366304412954
0.8177029387250684	-0.1020663627900311	-1.0771211329877255
0.8145016970704274	-0.06956676349635067	-0.9997653316609852
0.8075451981253683	-0.03542115041574922	-0.9215420479520987
0.7963862139376982	0.	-0.8437855737608694
0.7807310777991597	0.0362081507417854	-0.7678949228041086
0.7605126588674109	0.07262253762006485	-0.6952166288221692
0.7359313650541941	0.10861792309845578	-0.6269273884422134
0.7074495214501272	0.14358480954004266	-0.563941389037116
0.8249205473196649	-0.09793078064019041	-1.2239236100440405
0.8255904595653458	-0.06697833302243024	-1.151076932162615
0.8232335461116226	-0.0342522129273489	-1.0756726354128714
0.8173652573381114	0.	-0.9987507414803506
0.8075451981253683	0.03542115041574922	-0.9215420479520987
0.7934444609282708	0.07154484067109061	-0.8453872502706137
0.7749162641491228	0.10781539939716252	-0.771632174293554
0.7520495436547003	0.1436286698582689	-0.7015127302156338
0.7251851195001464	0.17838645120862864	-0.6360537194083725
0.8300542032653099	-0.032846729743066516	-1.2234915793583236
0.8282821149142542	0.	-1.1506148771728804
0.8232335461116226	0.0342522129273489	-1.0756726354128714
0.8145016970704274	0.06956676349635067	-0.9997653316609852
0.8017574015621372	0.10550194329586932	-0.9241385718821069
0.7848101719581333	0.14153253916949204	-0.8500916568644331
0.7636631531573558	0.17708289244706205	-0.7788735399479974
0.7385443331656327	0.2115741339646937	-0.7115786862789966
0.8300542032653099	0.032846729743066516	-1.2234915793583236
0.8255904595653458	0.06697833302243024	-1.151076932162615
0.8177029387250684	0.1020663627900311	-1.0771211329877255
0.8060881169923266	0.13769631312761282	-1.002747438402205
0.7905447556716443	0.17337745780666342	-0.9291723726869804
0.7710229484672717	0.20856930980878544	-0.8576134903825372
0.7476601535732796	0.2427208280632467	-0.789191844623124
0.8249205473196649	0.09793078064019041	-1.2239236100440405
0.817670260043355	0.1326715015902072	-1.1524366304412954
0.806967994222779	0.16787741560214028	-1.0799336045089176
0.7926263307584408	0.2030951494192816	-1.007521844760756
0.7745724932063447	0.23782427984477558	-0.9363515122939768
0.7528824012854025	0.2715494041712219	-0.8675287123099278
0.8149326381568059	0.16124185128836416	-1.2247639770526393
0.8049617687597352	0.19591420970155587	-1.1546184683114789
0.791629704315103	0.23056116448678557	-1.0839538680555587
0.7748637262429783	0.26472508044305443	-1.0138272287986305
0.7547055196105148	0.29793128010851044	-0.9452950257334493
0.8006084951280718	0.22177075435522262	-1.2259693535829568
0.7881257888203398	0.25575548697220757	-1.1575097972189408
0.7724759787532952	0.2892633339013819	-1.088977131542307
0.7536874585542305	0.3218629818289915	-1.0213529496721072
0.7826341912170824	0.27873231220382616	-1.2274819427413155
0.7679554388016434	0.3115124567130386	-1.160974611267262
0.7503807100408848	0.34343162680613476	-1.0947758130605498
0.7617813011624764	0.33159580955177437	-1.2292369409275155
0.7452857815271968	0.36278019536298556	-1.164869958262982
0.7388296296305847	0.38007882183371494	-1.2311686828924138
0.7313622766494459	0.3955059098811723	-1.2934075866927996
0.7543550956352292	0.3496628292311878	-1.2934075866927996
0.775602806155951	0.2995930432099664	-1.2934075866927996
0.7943898862256387	0.2454799648020412	-1.2934075866927996
0.8099847580895918	0.1877242555434433	-1.2934075866927996
0.8217036110815322	0.12696015119857257	-1.2934075866927996
0.8289838697132972	0.0640425500113925	-1.2934075866927996
0.8314539701371294	0.	-1.2934075866927996
0.8289838697132972	-0.0640425500113925	-1.2934075866927996
0.8217036110815322	-0.12696015119857257	-1.2934075866927996
0.8099847580895918	-0.1877242555434433	-1.2934075866927996
0.7943898862256387	-0.2454799648020412	-1.2934075866927996
0.775602806155951	-0.2995930432099664	-1.2934075866927996
0.7543550956352292	-0.3496628292311878	-1.2934075866927996
0.7313622766494459	-0.3955059098811723	-1.2934075866927996
0.7144980177050476	-0.42410983093795734	-1.3535990655043353
0.720899818524452	-0.4093949202008873	-1.4177563070084054
0.726182797755352	-0.39278532457140025	-1.4856910209956922
0.7299758786326007	-0.3740842762475384	-1.5570380418917418
0.7318347052489608	-0.3531033130315822	-1.631228093020756
0.7312540414988379	-0.3296856721406049	-1.7074731936812497
0.7277006843011488	-0.30373865652827015	-1.7847734488769091
0.7206683458136655	-0.2752708480404389	-1.8619526547551348
0.709748861385092	-0.2444251003437392	-1.9377238511592054
0.6947046860509527	-0.21149712525471315	-2.0107821995186814
0.6755232668149613	-0.1769296231798261	-2.0799111772794174
0.6524366354818923	-0.14128017495832115	-2.1440841076528816
0.6259002319374087	-0.10516914456504195	-2.202540820900418
0.5965377719510204	-0.06921971138095488	-2.2548257884883562
0.5650673014854337	-0.0340032866873966	-2.300785631523945
0.7388203256149287	0.3800740355349973	-1.3556463901924178
0.745266017440022	0.36277057486627917	-1.4219447672420107
0.7503489932147879	0.3434171107597628	-1.4920382435017265
0.7536417676921829	0.32184346950072595	-1.565459973491865
0.7546432396499262	0.2979066941635278	-1.641515919613404
0.7528005007692575	0.2715198643170262	-1.7192793556167827
0.7475553219453928	0.2426867954624637	-1.7976120067138621
0.7384131830096227	0.21153656278659227	-1.8752191704998733
0.7250245746152845	0.1783469591789384	-1.9507358652499711
0.7072571852790951	0.14354577275840952	-2.022837449728061
0.6852383051550991	0.10768446000232636	-2.0903522110400226
0.6593526366534188	0.07138890141757707	-2.1523580510163987
0.6301970883717904	0.03529703386450348	-2.2082420133050884
0.5985060923287102	0.	-2.257714905665576
0.7617714029098495	0.331591500941038	-1.3575781253597612
0.7679344307556538	0.3115039350362768	-1.4258400867916499
0.7724423030578766	0.28925072361420645	-1.4978367512707407
0.7748151864345917	0.26470849726301304	-1.572985427857178
0.7745063969066409	0.23780398567603692	-1.650459153284271
0.770936226983173	0.2085458507922672	-1.7291941072223092
0.7635525888636696	0.17705725412099335	-1.8079296604226998
0.7519119522315526	0.14360239223699067	-1.885284174036452
0.7357641203744798	0.10859323904417785	-1.9598609854608833
0.7151154748222202	0.07257036207162469	-2.030368368469171
0.6902508275698104	0.03615737148517792	-2.0957306347786866
0.6617054248172023	0.	-2.1551699786471294
0.6301970883717904	-0.03529703386450348	-2.2082420133050884
0.7826237402795277	0.27872859014054036	-1.3593330077362973
0.7881036458814595	0.25574830134499343	-1.4293048768702006
0.7915942655626726	0.23055084299432038	-1.502859956700764
0.7925752920074675	0.2030820717276218	-1.579290785957954
0.7904754811674816	0.17336226494460674	-1.6576380574419582
0.7847196738348796	0.14151621875261694	-1.736715595272073
0.7748015285276393	0.1077994360377292	-1.8151705272688774
0.760370877506534	0.07260899869721582	-1.8915797596235928
0.7413127599136113	0.03647076660265469	-1.9645682293545337
0.7177923527803544	0.	-2.03293072700047
0.6902508275698104	-0.03615737148517792	-2.0957306347786866
0.6593526366534188	-0.07138890141757707	-2.1523580510163987
0.8005975547601816	0.22176772384323742	-1.360845591482225
0.8049386618681326	0.19590858587122917	-1.4321960756644512
0.8069310980374873	0.16786973991205506	-1.506880169656519
0.806035149946144	0.13768726527437836	-1.584064970483215
0.8016858216203059	0.1054925242085625	-1.662671802565215
0.7933515441174789	0.07153646236769179	-1.7414197858868021
0.7806141408901444	0.03620272753096504	-1.8189075091382212
0.7632538373080936	0.	-1.8937231909881662
0.7413127599136113	-0.03647076660265469	-1.9645682293545337
0.7151154748222202	-0.07257036207162469	-2.030368368469171
0.6852383051550991	-0.10768446000232636	-2.0903522110400226
0.8149213002230673	0.16123960797481873	-1.362050963687471
0.8176464038128634	0.1326676307854632	-1.4343780085114786
0.8176649961338082	0.10206162676414524	-1.509692602896936
0.814447495710233	0.06956213414662754	-1.587047007766169
0.8074724329220078	0.03541795873407091	-1.6652681222771302
0.7962924631721532	0.	-1.743021388185514
0.7806141408901444	-0.03620272753096504	-1.8189075091382212
0.760370877506534	-0.07260899869721582	-1.8915797596235928
0.7357641203744798	-0.10859323904417785	-1.9598609854608833
0.7072571852790951	-0.14354577275840952	-2.022837449728061
0.8249089258719775	0.09792940099526837	-1.3628914372389656
0.8255661381015938	0.06697635987572063	-1.4357375870442604
0.823195048034247	0.03425061114089379	-1.511141191099284
0.8173106320286561	0.	-1.5880615741468118
0.8074724329220078	-0.03541795873407091	-1.6652681222771302
0.7933515441174789	-0.07153646236769179	-1.7414197858868021
0.7748015285276393	-0.1077994360377292	-1.8151705272688774
0.7519119522315526	-0.14360239223699067	-1.885284174036452
0.7250245746152845	-0.1783469591789384	-1.9507358652499711
0.8300424383738133	0.03284626418526327	-1.363323356798796
0.828257632602905	0.	-1.4361996387608944
0.823195048034247	-0.03425061114089379	-1.511141191099284
0.814447495710233	-0.06956213414662754	-1.587047007766169
0.8016858216203059	-0.1054925242085625	-1.662671802565215
0.7847196738348796	-0.14151621875261694	-1.736715595272073
0.7635525888636696	-0.17705725412099335	-1.8079296604226998
0.7384131830096227	-0.21153656278659227	-1.8752191704998733
0.8300424383738133	-0.03284626418526327	-1.363323356798796
0.8255661381015938	-0.06697635987572063	-1.4357375870442604
0.8176649961338082	-0.10206162676414524	-1.509692602896936
0.806035149946144	-0.13768726527437836	-1.584064970483215
0.7904754811674816	-0.17336226494460674	-1.6576380574419582
0.770936226983173	-0.2085458507922672	-1.7291941072223092
0.7475553219453928	-0.2426867954624637	-1.7976120067138621
0.8249089258719775	-0.09792940099526837	-1.3628914372389656
0.8176464038128634	-0.1326676307854632	-1.4343780085114786
0.8069310980374873	-0.16786973991205506	-1.506880169656519
0.7925752920074675	-0.2030820717276218	-1.579290785957954
0.7745063969066409	-0.23780398567603692	-1.650459153284271
0.7528005007692575	-0.2715198643170262	-1.7192793556167827
0.8149213002230673	-0.16123960797481873	-1.362050963687471
0.8049386618681326	-0.19590858587122917	-1.4321960756644512
0.7915942655626726	-0.23055084299432038	-1.502859956700764
0.7748151864345917	-0.26470849726301304	-1.572985427857178
0.7546432396499262	-0.2979066941635278	-1.641515919613404
0.8005975547601816	-0.22176772384323742	-1.360845591482225
0.7881036458814595	-0.25574830134499343	-1.4293048768702006
0.7724423030578766	-0.28925072361420645	-1.4978367512707407
0.7536417676921829	-0.32184346950072595	-1.565459973491865
0.7826237402795277	-0.27872859014054036	-1.3593330077362973
0.7679344307556538	-0.3115039350362768	-1.4258400867916499
0.7503489932147879	-0.3434171107597628	-1.4920382435017265
0.7617714029098495	-0.331591500941038	-1.3575781253597612
0.745266017440022	-0.36277057486627917	-1.4219447672420107
0.7388203256149287	-0.3800740355349973	-1.3556463901924178
0.6858747663295862	0.4696188993053434	-1.2562173902454878
0.6609675246255365	0.5029243326734255	-1.2166461311124834
0.632234005180949	0.5366422564758906	-1.1749032630161704
0.5994194637284881	0.5702680338326909	-1.1313311457968216
0.5623768057286469	0.6031938308085233	-1.086415033353158
0.5211103680207474	0.6347302193276293	-1.0407777674507883
0.4758140917345841	0.6641468871332693	-0.9951546073450617
0.42689474215808065	0.690730117957113	-0.9503473007684019
0.3749707645258648	0.713849849726011	-0.9071616214131526
0.32084055786190957	0.7330247141996531	-0.8663391280461121
0.26542275352590483	0.7479702489414661	-0.8284938584613915
0.20967752016097088	0.7586204905206703	-0.794069648921854
0.15452656953877106	0.7651177357757836	-0.7633197666091905
0.10078414545233154	0.7677773417363677	-0.7363148356352911
0.0491121800633528	0.767036005244407	-0.7129679217117606
0.5509829849278626	0.09236072138764401	-0.27633720380736065
0.5324927804124512	0.15430770044996786	-0.2711921010131423
0.5095716804344257	0.21905403052766073	-0.27150324699692346
0.4820300883528319	0.2854481836462191	-0.27821021091653697
0.4499367786029846	0.3520390817436056	-0.29202871704659916
0.4136693695091341	0.41718231843645703	-0.31331746299837204
0.3739207244048649	0.4792076468090247	-0.34198111245609725
0.3316468989765739	0.536615980264327	-0.3774415583807743
0.287961789003053	0.5882553104435267	-0.41869132083604477
0.24400406369743577	0.6334318524905951	-0.464422014666365
0.2008113332906071	0.671930000007523	-0.5131897354007369
0.15922847184061392	0.7039518493906503	-0.5635772559682327
0.1198661860900031	0.7300056473411244	-0.6143200388498637
0.08310207793243214	0.7507805912012261	-0.6643796796446974
0.5821456786399714	0.12972489994745195	-0.32561038056932434
0.5630225399569013	0.19348987007802668	-0.3240958831864578
0.5391123021420178	0.2595611888915966	-0.3283116978775099
0.5102659653469924	0.3266107673657226	-0.3390753948500843
0.47663670770823763	0.39304663538873663	-0.3569207605842257
0.4387216032191183	0.4571565273409677	-0.3819785574149529
0.397346720883857	0.5173018202181635	-0.4139101553672889
0.35358766469404984	0.5721168528742104	-0.4519193286207431
0.3086411002704688	0.6206612131334325	-0.49484566175299405
0.26368044659108547	0.6624868291743229	-0.541315836894646
0.2197330788965888	0.6976122459752453	-0.5899119345889695
0.1776031837619928	0.7264271138432824	-0.639316602941177
0.13784600814660702	0.7495645490308314	-0.6884098843756834
0.6108865276232114	0.16738325454392997	-0.3816305132022115
0.5908333984341753	0.23239902664455928	-0.3840832881065604
0.5656815684162364	0.2991040088373258	-0.3924045232066786
0.5353551153479248	0.3660256492624236	-0.40724008610431417
0.5001186500304581	0.43148877932408425	-0.4289032010808034
0.4606027055532171	0.4937896025448054	-0.4572825385805008
0.41776166968628237	0.5514001773530696	-0.4918138509178856
0.3727680061963305	0.6031513351277151	-0.5315327172237545
0.3268662560365014	0.6483463645096118	-0.5751973630136906
0.28122748620907223	0.6867797291883895	-0.6214480269323623
0.23683803409064008	0.7186712331047149	-0.6689614694742337
0.19444078070822685	0.744548540561	-0.7165681499858486
0.6364702404372671	0.20465225685588295	-0.4441126367069557
0.6152011703582094	0.27025262953263635	-0.4506998625445893
0.5885996809712368	0.33683274976713323	-0.46312139200952535
0.5566938359015335	0.40282750667862993	-0.48181308141503537
0.5198797708705309	0.4665507392441584	-0.5068518423833326
0.4789216001122714	0.5263857009551347	-0.5378968268695559
0.43488188172798187	0.5809818961324468	-0.5742033220521406
0.3889937298329846	0.6294049772212016	-0.6147076596492758
0.3425077707022021	0.6712038143502981	-0.6581646523054123
0.2965554701081765	0.7063850365836906	-0.7032980916235287
0.2520560512135265	0.7353200587156047	-0.7489306678266325
0.6582953168421508	0.2408280530026442	-0.5124253754086523
0.6355767235488566	0.30629615664219184	-0.5231066632784973
0.6074007952685171	0.3719903862112197	-0.5393959932106653
0.5739234869360375	0.4363190580274547	-0.5615029099851692
0.5356775576572802	0.4976597605523572	-0.5892764067339359
0.49354484010411837	0.5545503262651295	-0.6221863813877355
0.44866137981587695	0.605860150114133	-0.6593716781186033
0.402276818039036	0.650897550176548	-0.6997444351270512
0.35560627373377873	0.6894312148177305	-0.7421259815765681
0.30971005647983574	0.7216326974701541	-0.7853765303407049
0.6759701067176811	0.2752569524340621	-0.5856054258279461
0.651659721997036	0.33988612983720207	-0.6001226369079118
0.6218967435472909	0.40400093494461087	-0.6198341047096019
0.5869745651342212	0.4660512181056256	-0.6447292581536247
0.5475515154609218	0.5245435626280152	-0.6744648525153562
0.5045956137878728	0.5782151251569528	-0.7083794167130103
0.45927298392671984	0.6261682443078703	-0.7455657114225398
0.41280603889700496	0.6679342320665627	-0.7849799387946376
0.3663390982644932	0.7034585416698863	-0.8255621206442194
0.6893614829339859	0.3074028181362619	-0.6624235555573015
0.6634325260939529	0.37055831617655155	-0.6803222463880852
0.6321894477768903	0.43252543014326084	-0.7028412928468037
0.5960563522295264	0.4918556416082075	-0.7297809835484175
0.5557899362668677	0.547229130824135	-0.7606571224357676
0.5124041759035561	0.5975995499827338	-0.7947421507772953
0.46705147808423525	0.6422891315593583	-0.8311473671204539
0.4208902869723768	0.6810147800604426	-0.868923923056087
0.6985986893254605	0.3368960580002347	-0.7414890095710999
0.671142212013884	0.3980622468713267	-0.7621668709713372
0.6386298705325905	0.4574726562408556	-0.7867784348972394
0.6015942202034761	0.5138228071821855	-0.8149805702029617
0.5608542694714638	0.5659864156475616	-0.8462071830921629
0.5174284322342325	0.6131265047213974	-0.879724683680269
0.47241874868941586	0.6547547136957916	-0.9147121225081446
0.7040323044527046	0.36355056417195447	-0.8213722461871596
0.6752375193855112	0.42235577860766904	-0.8441442509784698
0.6417365036705155	0.4789643551164071	-0.8701061671589931
0.6041387530149973	0.5322374321484472	-0.8988238056552734
0.5632875991249409	0.5812403817040135	-0.9297042530205273
0.5201705669855867	0.6253223837336767	-0.9620549695148941
0.7061608930925936	0.38734984122098526	-0.9007226905619093
0.6762811999726727	0.44356560915495646	-0.9248875451788172
0.6421011692095026	0.4972714801259172	-0.95149536110627
0.6042733839545372	0.5474965253773444	-0.9800706536673
0.563632693465108	0.5934812847891264	-1.0100379940389526
0.7055480836727085	0.40840795763009374	-0.9783586283105323
0.6748635067607502	0.4619304782158044	-1.0032555160805081
0.6403069455059591	0.5127436496955956	-1.0298897010687598
0.6025441551198881	0.5600343038881045	-1.0577850300400216
0.7027508081244337	0.4269231731324051	-1.0533231603044833
0.6715361177952581	0.4777444222574958	-1.0783714966787727
0.636873851875958	0.5257505440709835	-1.104523122547096
0.6982706992389172	0.4431340264518404	-1.1249040061536735
0.6667749306721564	0.49131278298264647	-1.149624683576036
0.6925314013065491	0.4572873501958976	-1.1926247836274482
0.7144980177050476	0.42410983093795734	-1.3535990655043353
0.720899818524452	0.4093949202008873	-1.4177563070084054
0.726182797755352	0.39278532457140025	-1.4856910209956922
0.7299758786326007	0.3740842762475384	-1.5570380418917418
0.7318347052489608	0.3531033130315822	-1.631228093020756
0.7312540414988379	0.3296856721406049	-1.7074731936812497
0.7277006843011488	0.30373865652827015	-1.7847734488769091
0.7206683458136655	0.2752708480404389	-1.8619526547551348
0.709748861385092	0.2444251003437392	-1.9377238511592054
0.6947046860509527	0.21149712525471315	-2.0107821995186814
0.6755232668149613	0.1769296231798261	-2.0799111772794174
0.6524366354818923	0.14128017495832115	-2.1440841076528816
0.6259002319374087	0.10516914456504195	-2.202540820900418
0.5965377719510204	0.06921971138095488	-2.2548257884883562
0.5650673014854337	0.0340032866873966	-2.300785631523945
0.517800388712985	0.05585454558480318	-2.3528848139145895
0.49967263985768007	0.1154981327010185	-2.3612009248745567
0.47749541812857194	0.17829321102562498	-2.3644311372814353
0.4510685204695499	0.24328138378693273	-2.361566530365574
0.42040406142836945	0.3091946266500328	-2.351760657263081
0.3857795187528807	0.37452259025720164	-2.3344628649552
0.3477576709901214	0.4376429835495552	-2.3095344833815066
0.3071624106957192	0.49699921896268395	-2.277311970022942
0.26499802124353716	0.5512831163236209	-2.2385948452018742
0.22233603874937294	0.5995786528736581	-2.194552842843356
0.18019219271512119	0.6414255259567971	-2.146579904886619
0.1394289504467796	0.6768023942397833	-2.096127212080559
0.10069822734772296	0.7060436972003062	-2.0445590518587404
0.06442788735222328	0.7297255084480615	-1.9930513329426731
0.03084200206818266	0.748550492956472	-1.9425418350383208
0.6925172048564694	0.4572779760981644	-1.394190020188474
0.6667550813950905	0.491298157052506	-1.437189825300549
0.6368483595163277	0.5257294996806293	-1.4822910387655377
0.6025132727507541	0.5600056002886198	-1.529028394702113
0.5635967997403076	0.5934434902215695	-1.5767745801678397
0.5201302930635903	0.6252739684897095	-1.624756570715505
0.47237512115887687	0.6546942475704599	-1.6720978133323305
0.4208447183628106	0.680941048502405	-1.7178842114668942
0.36629334643944234	0.7033706872413489	-1.7612439284806756
0.3096661025499595	0.7215302836404531	-1.8014272075484175
0.25201604132451927	0.7352033383520492	-1.8378703034306838
0.19440676077599484	0.7444182721533075	-1.8702301516443551
0.13781979026351676	0.7494219841790861	-1.8983857869671932
0.08308512577997246	0.750627438026691	-1.9224133355761241
0.6982460906857778	0.4431184094608229	-1.4619102835813478
0.6715051611690797	0.4777223990854031	-1.5084422565390436
0.6402695723675979	0.5127137221124288	-1.5569232647012128
0.6042297925929973	0.5474570298119044	-1.6067412220088915
0.5632383249575971	0.5811895370983813	-1.6571063096394838
0.5173744449845471	0.6130625325628589	-1.7070839422546495
0.46699417992276704	0.6422103351352032	-1.7556590982910367
0.41274739445164427	0.6678393433564034	-1.8018236544904114
0.35554864962364424	0.6893194961468654	-1.8446744421586678
0.2965014993622881	0.7062564801038692	-1.8834989877414412
0.23679035065216092	0.7185265404852965	-1.9178321600032875
0.17756422250382597	0.7262677556959658	-1.9474735338206428
0.11983794342736308	0.729833644678024	-1.9724666393241754
0.7027139873143541	0.4269008043824943	-1.5334901874876437
0.6748192490211512	0.4619001846844267	-1.5835570173494526
0.6420494114494084	0.4972313966325298	-1.635315768966604
0.6040797322191535	0.5321854356879213	-1.6879856873729868
0.5607887662857659	0.5659203130692188	-1.740599890883808
0.5123335650938176	0.5975171989986706	-1.7920620329204617
0.4591993326672894	0.6260678289091367	-1.8412349899096898
0.4022028339482696	0.6507778414056907	-1.887052292767152
0.3424366114258813	0.6710643653164994	-1.9286277978559876
0.28116256435306036	0.6866211848892839	-1.9653396116729858
0.21967756327410898	0.6974359940505039	-1.9968712616720021
0.15918513754760727	0.7037602677259427	-2.0232015182137872
0.7054968402979376	0.4083782952973391	-1.6084532075463323
0.6762209872436495	0.4435261162697053	-1.6619228549109697
0.6416673042061826	0.47891270763084404	-1.7167020234902597
0.6015164781271327	0.5137564075218141	-1.7718248565443002
0.5557047984295744	0.547145304360822	-1.8261448887153933
0.5045051530999995	0.5781114664319635	-1.8784181460338183
0.4485685141577365	0.6057347468498616	-1.9274207834378148
0.38890217762392276	0.6292568426585086	-1.9720790710614564
0.3267801609363193	0.6481755929962657	-2.0115834479752888
0.26360398395356943	0.6622947197823177	-2.045459139925107
0.20074830020423232	0.6717190865046133	-2.0735795210642474
0.7060923612440773	0.3873122495037137	-1.6860868712295236
0.6751581060124208	0.42230610616492026	-1.7426628452553161
0.6385396509046072	0.4574080288020793	-1.8000252695485073
0.5959561042940993	0.4917729187038798	-1.857018436078608
0.5474430327288167	0.5244396383082475	-1.9123293517955187
0.49343114521002834	0.5544225779118106	-1.9646013563699831
0.4347670147236419	0.5808284391759985	-2.0125773181593516
0.3726568954815291	0.6029715542053573	-2.0552402898115876
0.30853906562416983	0.6204560267622782	-2.0919196323063307
0.24391610217217524	0.6332035053432182	-2.1223359565871704
0.7039431797758394	0.36350454167220403	-1.7654335643523182
0.6710398793346083	0.39800155216979893	-1.8246352550413767
0.6320742387632369	0.4324466075239303	-1.8839557419888746
0.5868478188835072	0.46595058300481496	-1.9420614439261228
0.5355419399024614	0.4975337677822196	-1.9975068218907506
0.4787814008733944	0.5262316071021693	-2.0488773888132865
0.4176224082918543	0.5512163673887812	-2.0949506153617796
0.35345558951877554	0.5719031507540132	-2.134835346503657
0.28784347202231597	0.5880136096523378	-2.168053799266115
0.6984852409663765	0.33684134804222016	-1.8453114844932752
0.6633033477276266	0.3704861639741352	-1.90647244336543
0.6217525118969787	0.40390723816587815	-1.9669533172121456
0.5737663367507259	0.43619958631670447	-2.0252756277521122
0.5197136520178305	0.46640166078819156	-2.0799160320775716
0.46043325655357453	0.49360794457107593	-2.1294735776029525
0.39718115927464187	0.5170862771740062	-2.172833522918491
0.3314931505935338	0.5363672101430512	-2.209290018557495
0.6892200560104905	0.30733975247924583	-1.9243692462840645
0.6514998061563335	0.3398027225398637	-1.9866620689202374
0.6072237409993515	0.3718819528893006	-2.0473784998655042
0.5565028897047697	0.4026893366911222	-2.104949095351078
0.4999191835074548	0.4313166850290176	-2.1578449189967093
0.4385209588310566	0.4569474519478169	-2.2047545138206233
0.37372785739075515	0.47896047316513074	-2.2447367718214846
0.6757972203337497	0.2751865526061919	-2.001177101139797
0.635382663466268	0.3062026355057936	-2.063664802394011
0.5883866493854958	0.3367108400598531	-2.1236363846197714
0.5351276586961997	0.3658701357233914	-2.179501518458125
0.47640178881325296	0.3928529153504565	-2.229803061346115
0.4134363635842608	0.4169473337866063	-2.2733878290202365