# TIME = 0.000000
variables = x, y, z, H, fx, fy, fz
ZONE N=2562 E=5120 F=FEPOINT ET=TRIANGLE
    7.24841E-01    4.47978E-01    1.32214E-16   -8.22290E-01    2.59767E+00    8.59404E-01   -4.07068E-01
   -1.01246E+00    6.25735E-01    1.36987E-16   -1.04119E+00    1.54278E+00   -9.66569E-01    5.70233E-01
    8.14338E-01   -5.03290E-01    1.17198E-16   -1.37401E+00    1.26635E+01   -4.88339E+00   -3.27008E+00
   -8.64926E-01   -5.34552E-01    1.27730E-16   -7.78765E-01    5.62681E+00    5.54396E+00    1.90770E+00
    5.94341E-01    4.65153E-20    9.61668E-01   -1.10208E+00    5.14725E+00    4.27477E-01    4.71830E+00
    3.91586E-01    4.98025E-18   -6.33599E-01   -9.44038E-01    9.98513E+00    4.18001E+00   -1.80934E+01
   -6.38411E-01    4.48533E-17    1.03297E+00   -8.15182E-01    1.34383E+00    2.24357E-01   -2.36303E+00
   -4.38255E-01    4.14524E-17   -7.09114E-01   -7.73862E-01    2.77235E+00    1.14765E+00    8.13536E+00
    7.11979E-17    1.00567E+00    6.21538E-01   -1.04655E+00    7.59279E-02    1.72450E+00    1.15882E+00
   -1.72306E-16   -9.56028E-01    5.90858E-01   -1.24976E+00    5.29180E-02   -1.15294E+01    4.20439E+00
    4.97643E-17    7.87815E-01   -4.86895E-01   -1.07667E+00    1.77934E+00    5.46342E+00   -6.94204E+00
   -1.02351E-16   -7.24512E-01   -4.47774E-01   -9.68714E-01    2.38831E-02   -1.63599E+00   -1.18907E+00
    7.35007E-01    4.36286E-01    4.70608E-02   -7.45154E-01   -2.50563E+00   -6.95182E-01    1.12018E-01
    7.43686E-01    4.22336E-01    9.76215E-02   -6.63230E-01   -8.70743E+00   -2.57295E+00    3.35490E-01
    7.50700E-01    4.06047E-01    1.51614E-01   -5.82211E-01   -1.55403E+01   -4.67498E+00    1.86590E-01
    7.55930E-01    3.87385E-01    2.08934E-01   -5.10314E-01   -2.19338E+01   -6.69451E+00   -4.97183E-01
    7.59282E-01    3.66348E-01    2.69437E-01   -4.57249E-01   -2.64230E+01   -8.17948E+00   -1.72808E+00
    7.60645E-01    3.42937E-01    3.32929E-01   -4.31874E-01   -2.77758E+01   -8.72431E+00   -3.16472E+00
    7.59823E-01    3.17146E-01    3.99119E-01   -4.39452E-01   -2.56406E+01   -8.17174E+00   -4.17553E+00
    7.56478E-01    2.88949E-01    4.67529E-01   -4.79727E-01   -2.07775E+01   -6.69563E+00   -4.32029E+00
    7.50121E-01    2.58328E-01    5.37408E-01   -5.46880E-01   -1.47062E+01   -4.73615E+00   -3.67598E+00
    7.40183E-01    2.25343E-01    6.07688E-01   -6.31823E-01   -8.91260E+00   -2.79282E+00   -2.66603E+00
    7.26149E-01    1.90189E-01    6.77014E-01   -7.24867E-01   -4.28162E+00   -1.23924E+00   -1.60622E+00
    7.07695E-01    1.53246E-01    7.43873E-01   -8.17801E-01   -9.72752E-01   -2.15605E-01   -5.17018E-01
    6.84817E-01    1.15068E-01    8.06805E-01   -9.04857E-01    1.30673E+00    3.34687E-01    6.94773E-01
    6.57847E-01    7.63337E-02    8.64579E-01   -9.82452E-01    2.95454E+00    5.57499E-01    2.04138E+00
    6.27419E-01    3.77551E-02    9.16341E-01   -1.04852E+00    4.21156E+00    5.68136E-01    3.42332E+00
    8.47125E-01   -4.35790E-01    5.42411E-02   -1.31434E+00    1.15297E+01   -2.91291E+00   -1.99982E+00
    8.59022E-01   -4.18145E-01    1.12762E-01   -1.29224E+00    1.16390E+01   -2.54437E+00   -1.17401E+00
    8.66931E-01   -3.96775E-01    1.75090E-01   -1.25624E+00    1.10763E+01   -2.09929E+00   -2.83843E-01
    8.70148E-01   -3.71598E-01    2.40502E-01   -1.20655E+00    9.60503E+00   -1.59270E+00    4.72038E-01
    8.68243E-01   -3.42752E-01    3.08102E-01   -1.14602E+00    7.22918E+00   -1.04453E+00    8.88582E-01
    8.61125E-01   -3.10592E-01    3.76910E-01   -1.08052E+00    4.32846E+00   -5.14134E-01    8.71675E-01
    8.49032E-01   -2.75630E-01    4.45979E-01   -1.01854E+00    1.62780E+00   -1.14036E-01    4.99830E-01
    8.32415E-01   -2.38466E-01    5.14460E-01   -9.69120E-01   -1.42308E-01    5.22171E-02    2.19437E-02
    8.11796E-01   -1.99692E-01    5.81594E-01   -9.38786E-01   -6.31628E-01    7.76097E-03   -2.69516E-01
    7.87657E-01   -1.59864E-01    6.46662E-01   -9.29491E-01   -9.09082E-03   -9.77085E-02   -1.56768E-01
    7.60388E-01   -1.19495E-01    7.08936E-01   -9.38431E-01    1.18773E+00   -1.07783E-01    3.92399E-01
    7.30331E-01   -7.90738E-02    7.67665E-01   -9.60093E-01    2.41423E+00    1.97162E-02    1.21440E+00
    6.97847E-01   -3.90865E-02    8.22155E-01   -9.88621E-01    3.34988E+00    2.20113E-01    2.08582E+00
    6.63370E-01    5.89553E-18    8.71836E-01   -1.01922E+00    3.92564E+00    4.13959E-01    2.83820E+00
    8.60348E-01   -3.74501E-01    5.50877E-02   -1.25004E+00    1.01062E+01   -1.71561E+00   -1.58859E+00
    8.71162E-01   -3.53377E-01    1.14356E-01   -1.22668E+00    1.04848E+01   -1.47098E+00   -9.51274E-01
    8.77678E-01   -3.28659E-01    1.77260E-01   -1.19040E+00    1.01626E+01   -1.16388E+00   -2.58659E-01
    8.79253E-01   -3.00390E-01    2.43020E-01   -1.14137E+00    8.88823E+00   -8.19198E-01    3.66128E-01
    8.75556E-01   -2.68830E-01    3.10697E-01   -1.08265E+00    6.70834E+00   -4.80148E-01    7.77955E-01
    8.66603E-01   -2.34425E-01    3.79307E-01   -1.02041E+00    4.05743E+00   -2.22343E-01    8.71060E-01
    8.52729E-01   -1.97737E-01    4.47921E-01   -9.63280E-01    1.64661E+00   -1.11559E-01    6.28795E-01
    8.34443E-01   -1.59364E-01    5.15714E-01   -9.19837E-01    1.39892E-01   -1.27758E-01    2.14166E-01
    8.12279E-01   -1.19887E-01    5.81941E-01   -8.95410E-01   -2.19295E-01   -1.52772E-01   -7.98182E-02
    7.86703E-01   -7.98351E-02    6.45880E-01   -8.90656E-01    3.23426E-01   -7.52220E-02   -1.67813E-02
    7.58095E-01   -3.97120E-02    7.06798E-01   -9.02161E-01    1.25501E+00    1.13179E-01    4.22290E-01
    7.26806E-01   -3.17459E-18    7.63962E-01   -9.24604E-01    2.11341E+00    3.26094E-01    1.03682E+00
    6.93233E-01    3.88272E-02    8.16719E-01   -9.52751E-01    2.67877E+00    4.78173E-01    1.61111E+00
    8.68678E-01   -3.09379E-01    5.56210E-02   -1.17444E+00    8.85647E+00   -8.47702E-01   -1.27011E+00
    8.77958E-01   -2.84908E-01    1.15248E-01   -1.14962E+00    9.48888E+00   -6.34417E-01   -7.98766E-01
    8.82713E-01   -2.57089E-01    1.78277E-01   -1.11264E+00    9.38691E+00   -3.61041E-01   -2.65387E-01
    8.82386E-01   -2.26096E-01    2.43886E-01   -1.06369E+00    8.32337E+00   -9.07180E-02    2.67828E-01
    8.76768E-01   -1.92288E-01    3.11127E-01   -1.00603E+00    6.32947E+00    8.75423E-02    6.79974E-01
    8.65991E-01   -1.56173E-01    3.79039E-01   -9.46268E-01    3.83243E+00    1.11135E-01    8.10049E-01
    8.50469E-01   -1.18329E-01    4.46734E-01   -8.93172E-01    1.50527E+00    1.13817E-03    5.78234E-01
    8.30742E-01   -7.93289E-02    5.13427E-01   -8.54833E-01   -2.45462E-02   -1.20707E-01    1.42727E-01
    8.07330E-01   -3.97196E-02    5.78395E-01   -8.35604E-01   -5.13029E-01   -1.21360E-01   -1.73905E-01
    7.80667E-01    2.35064E-17    6.40923E-01   -8.35300E-01   -1.96041E-01    1.73244E-02   -1.66452E-01
    7.51113E-01    3.93449E-02    7.00289E-01   -8.50163E-01    4.39663E-01    1.96058E-01    1.12017E-01
    7.19024E-01    7.78494E-02    7.55780E-01   -8.74994E-01    9.93732E-01    3.11720E-01    4.48419E-01
    8.71779E-01   -2.41487E-01    5.58194E-02   -1.08840E+00    7.98398E+00   -1.45857E-01   -1.09766E+00
    8.79148E-01   -2.13972E-01    1.15404E-01   -1.06132E+00    8.96886E+00    1.41197E-01   -7.66354E-01
    8.81869E-01   -1.83460E-01    1.78106E-01   -1.02251E+00    9.12854E+00    4.49754E-01   -3.32077E-01
    8.79510E-01   -1.50239E-01    2.43091E-01   -9.72312E-01    8.20371E+00    6.66873E-01    1.53682E-01
    8.71986E-01   -1.14744E-01    3.09430E-01   -9.14503E-01    6.15671E+00    6.72428E-01    5.30846E-01
    8.59540E-01   -7.75049E-02    3.76216E-01   -8.56387E-01    3.38338E+00    4.36549E-01    5.83544E-01
    8.42638E-01   -3.90806E-02    4.42620E-01   -8.07021E-01    6.65282E-01    7.82649E-02    2.50760E-01
    8.21815E-01    2.39392E-17    5.07909E-01   -7.74186E-01   -1.22318E+00   -2.09188E-01   -2.43495E-01
    7.97546E-01    3.92362E-02    5.71386E-01   -7.61331E-01   -1.98906E+00   -3.17200E-01   -5.81862E-01
    7.70211E-01    7.81615E-02    6.32340E-01   -7.67404E-01   -1.87505E+00   -2.80939E-01   -6.50279E-01
    7.40145E-01    1.16312E-01    6.90063E-01   -7.88042E-01   -1.40961E+00   -2.24793E-01   -5.73727E-01
    8.69714E-01   -1.72081E-01    5.56871E-02   -9.92591E-01    7.41165E+00    4.79543E-01   -1.03783E+00
    8.74933E-01   -1.41964E-01    1.14851E-01   -9.61639E-01    8.72818E+00    8.58354E-01   -7.97186E-01
    8.75509E-01   -1.09283E-01    1.76822E-01   -9.19206E-01    8.93441E+00    1.15623E+00   -3.98392E-01
    8.71153E-01   -7.44056E-02    2.40781E-01   -8.66150E-01    7.62618E+00    1.20163E+00    4.13006E-02
    8.61906E-01   -3.78073E-02    3.05853E-01   -8.07343E-01    4.81176E+00    8.85107E-01    2.76394E-01
    8.48090E-01   -1.58614E-17    3.71204E-01   -7.51318E-01    1.15017E+00    2.64315E-01    9.80791E-02
    8.30184E-01    3.85003E-02    4.36078E-01   -7.07465E-01   -2.26614E+00   -4.38760E-01   -4.34292E-01
    8.08671E-01    7.72213E-02    4.99787E-01   -6.82957E-01   -4.44878E+00   -9.60827E-01   -1.01005E+00
    7.83954E-01    1.15705E-01    5.61648E-01   -6.79838E-01   -5.20192E+00   -1.21630E+00   -1.37429E+00
    7.56346E-01    1.53509E-01    6.20956E-01   -6.95595E-01   -4.93434E+00   -1.26604E+00   -1.52188E+00
    8.62989E-01   -1.02451E-01    5.52564E-02   -8.87556E-01    6.21126E+00    8.30311E-01   -8.82771E-01
    8.66003E-01   -7.02574E-02    1.13678E-01   -8.50691E-01    7.30615E+00    1.14542E+00   -6.73848E-01
    8.64516E-01   -3.59716E-02    1.74602E-01   -8.02871E-01    6.71025E+00    1.19682E+00   -3.01176E-01
    8.58378E-01    2.20142E-17    2.37250E-01   -7.46490E-01    4.11331E+00    8.18534E-01   -1.97796E-02
    8.47736E-01    3.71825E-02    3.00825E-01   -6.88127E-01   -1.13374E-01   -1.94448E-02   -1.20620E-01
    8.32941E-01    7.51061E-02    3.64573E-01   -6.37613E-01   -4.69546E+00   -1.08926E+00   -6.88331E-01
    8.14433E-01    1.13312E-01    4.27805E-01   -6.04056E-01   -8.25234E+00   -2.06190E+00   -1.47934E+00
    7.92606E-01    1.51374E-01    4.89858E-01   -5.92784E-01   -9.93314E+00   -2.66216E+00   -2.13444E+00
    7.67772E-01    1.88861E-01    5.50054E-01   -6.03537E-01   -9.91397E+00   -2.86366E+00   -2.50073E+00
    8.52497E-01   -3.37365E-02    5.45844E-02   -7.75458E-01    2.47602E+00    4.04115E-01   -3.08593E-01
    8.53446E-01    4.85273E-17    1.12030E-01   -7.31525E-01    2.30135E+00    3.60785E-01   -1.41464E-01
    8.50157E-01    3.53709E-02    1.71702E-01   -6.78716E-01   -7.65018E-02   -1.34516E-01    7.08205E-02
    8.42590E-01    7.19654E-02    2.32886E-01   -6.21767E-01   -4.38243E+00   -1.11856E+00   -3.27520E-02
    8.30947E-01    1.09342E-01    2.94867E-01   -5.69136E-01   -9.53338E+00   -2.43376E+00   -6.63644E-01
    8.15557E-01    1.47076E-01    3.56964E-01   -5.30659E-01   -1.38653E+01   -3.70128E+00   -1.68490E+00
    7.96773E-01    1.84760E-01    4.18528E-01   -5.13609E-01   -1.61539E+01   -4.56394E+00   -2.69672E+00
    7.74885E-01    2.21984E-01    4.78906E-01   -5.20026E-01   -1.62077E+01   -4.87612E+00   -3.37356E+00
    8.39362E-01    3.32138E-02    5.37432E-02   -6.63290E-01   -5.26456E+00   -1.20262E+00    8.36345E-01
    8.38549E-01    6.80290E-02    1.10074E-01   -6.14137E-01   -7.44947E+00   -1.83739E+00    8.11825E-01
    8.33825E-01    1.04078E-01    1.68403E-01   -5.60877E-01   -1.15194E+01   -2.93262E+00    6.09331E-01
    8.25222E-01    1.40964E-01    2.28086E-01   -5.10184E-01   -1.65065E+01   -4.33570E+00   -8.10738E-02
    8.12934E-01    1.78287E-01    2.88475E-01   -4.71080E-01   -2.08194E+01   -5.69469E+00   -1.27016E+00
    7.97224E-01    2.15656E-01    3.48940E-01   -4.51381E-01   -2.31009E+01   -6.63240E+00   -2.62665E+00
    7.78339E-01    2.52680E-01    4.08846E-01   -4.54757E-01   -2.29001E+01   -6.94482E+00   -3.71526E+00
    8.24726E-01    9.79072E-02    5.28059E-02   -5.64686E-01   -1.60318E+01   -3.77092E+00    2.28461E+00
    8.22525E-01    1.33458E-01    1.07971E-01   -5.16397E-01   -1.95971E+01   -4.88835E+00    1.82512E+00
    8.16739E-01    1.69911E-01    1.64952E-01   -4.70556E-01   -2.38273E+01   -6.23353E+00    1.02998E+00
    8.07425E-01    2.06887E-01    2.23166E-01   -4.34428E-01   -2.74052E+01   -7.50084E+00   -2.27099E-01
    7.94717E-01    2.44010E-01    2.82011E-01   -4.15026E-01   -2.91098E+01   -8.34729E+00   -1.75752E+00
    7.78799E-01    2.80897E-01    3.40876E-01   -4.16831E-01   -2.83614E+01   -8.55079E+00   -3.18384E+00
    8.09536E-01    1.60174E-01    5.18332E-02   -4.97012E-01   -2.60213E+01   -6.34672E+00    3.44112E+00
    8.06286E-01    1.96236E-01    1.05839E-01   -4.57859E-01   -2.91184E+01   -7.48347E+00    2.41758E+00
    7.99723E-01    2.32918E-01    1.61516E-01   -4.27051E-01   -3.15427E+01   -8.52111E+00    1.11122E+00
    7.89875E-01    2.69854E-01    2.18316E-01   -4.10463E-01   -3.22666E+01   -9.15230E+00   -4.19134E-01
    7.76814E-01    3.06659E-01    2.75658E-01   -4.11797E-01   -3.09251E+01   -9.21605E+00   -1.93352E+00
    7.94394E-01    2.20049E-01    5.08634E-02   -4.73998E-01   -3.08236E+01   -7.76614E+00    3.79228E+00
    7.90321E-01    2.56468E-01    1.03743E-01   -4.50039E-01   -3.19022E+01   -8.45438E+00    2.35849E+00
    7.83119E-01    2.93249E-01    1.58162E-01   -4.37685E-01   -3.15896E+01   -8.81223E+00    8.72437E-01
    7.72762E-01    3.30009E-01    2.13586E-01   -4.39730E-01   -2.96967E+01   -8.72025E+00   -5.36374E-01
    7.79520E-01    2.77624E-01    4.99110E-02   -4.98537E-01   -2.85993E+01   -7.44500E+00    3.27276E+00
    7.74715E-01    3.14254E-01    1.01695E-01   -4.91134E-01   -2.73992E+01   -7.50345E+00    1.78060E+00
    7.66871E-01    3.50980E-01    1.54881E-01   -4.94904E-01   -2.50787E+01   -7.24293E+00    5.05277E-01
    7.64833E-01    3.32924E-01    4.89706E-02   -5.61958E-01   -2.09505E+01   -5.65391E+00    2.21642E+00
    7.59274E-01    3.69590E-01    9.96679E-02   -5.68000E-01   -1.84218E+01   -5.23461E+00    1.01605E+00
    7.50089E-01    3.85871E-01    4.80264E-02   -6.49291E-01   -1.12301E+01   -3.15191E+00    1.06189E+00
    7.39462E-01    3.99887E-01    1.29558E-16   -7.30765E-01   -4.58340E+00   -1.27218E+00    7.03461E-01
    7.53614E-01    3.49321E-01    1.25209E-16   -6.40671E-01   -1.37303E+01   -3.68622E+00    2.15583E+00
    7.67512E-01    2.96468E-01    1.19114E-16   -5.64108E-01   -2.27818E+01   -5.87176E+00    3.68526E+00
    7.81399E-01    2.41466E-01    1.12093E-16   -5.15199E-01   -2.87247E+01   -7.13798E+00    4.82582E+00
    7.95434E-01    1.84351E-01    1.06577E-16   -5.05781E-01   -2.89117E+01   -6.93769E+00    5.07363E+00
    8.09565E-01    1.25084E-01    1.05669E-16   -5.39606E-01   -2.31215E+01   -5.32877E+00    4.25154E+00
    8.23453E-01    6.36146E-02    1.10301E-16   -6.10586E-01   -1.38947E+01   -3.01567E+00    2.68033E+00
    8.36435E-01    6.93889E-18    1.17556E-16   -7.05484E-01   -5.00934E+00   -9.66059E-01    1.01519E+00
    8.47595E-01   -6.54810E-02    1.22516E-16   -8.10114E-01    1.00576E+00    1.88092E-01   -1.89771E-01
    8.55907E-01   -1.32247E-01    1.22854E-16   -9.14529E-01    4.06192E+00    4.43113E-01   -8.14868E-01
    8.60425E-01   -1.99416E-01    1.20413E-16   -1.01369E+00    5.47805E+00    1.62975E-01   -1.08767E+00
    8.60456E-01   -2.65896E-01    1.18389E-16   -1.10546E+00    6.52692E+00   -3.31097E-01   -1.30100E+00
    8.55659E-01   -3.30517E-01    1.18177E-16   -1.18863E+00    7.79682E+00   -9.68372E-01   -1.62663E+00
    8.46077E-01   -3.92180E-01    1.18674E-16   -1.26194E+00    9.33679E+00   -1.87943E+00   -2.09296E+00
    8.32096E-01   -4.49981E-01    1.18470E-16   -1.32408E+00    1.10173E+01   -3.18353E+00   -2.66054E+00
    8.08013E-01   -4.79620E-01   -5.17347E-02   -1.34144E+00    1.09189E+01   -3.92761E+00   -3.42656E+00
    7.97741E-01   -4.53033E-01   -1.04717E-01   -1.29497E+00    8.58151E+00   -2.78999E+00   -3.22363E+00
    7.83407E-01   -4.23738E-01   -1.58220E-01   -1.23746E+00    5.66403E+00   -1.54115E+00   -2.58158E+00
    7.65155E-01   -3.92113E-01   -2.11483E-01   -1.17444E+00    2.05497E+00   -3.20807E-01   -1.20475E+00
    7.43351E-01   -3.58662E-01   -2.63784E-01   -1.11439E+00   -2.11707E+00    6.58244E-01    1.15076E+00
    7.18508E-01   -3.23940E-01   -3.14486E-01   -1.06808E+00   -5.98212E+00    1.18810E+00    4.05200E+00
    6.91143E-01   -2.88479E-01   -3.63043E-01   -1.04593E+00   -7.83275E+00    1.19232E+00    5.95349E+00
    6.61670E-01   -2.52736E-01   -4.08935E-01   -1.05286E+00   -6.14505E+00    7.82513E-01    4.99388E+00
    6.30390E-01   -2.17096E-01   -4.51630E-01   -1.08422E+00   -9.23027E-01    2.06276E-01    5.47840E-01
    5.97541E-01   -1.81916E-01   -4.90578E-01   -1.12603E+00    5.96909E+00   -2.20572E-01   -6.11830E+00
    5.63414E-01   -1.47567E-01   -5.25289E-01   -1.16046E+00    1.20465E+01   -1.40576E-01   -1.28936E+01
    5.28436E-01   -1.14429E-01   -5.55450E-01   -1.17295E+00    1.57873E+01    6.86794E-01   -1.83811E+01
    4.93165E-01   -8.28658E-02   -5.81012E-01   -1.15585E+00    1.70005E+01    2.16069E+00   -2.21265E+01
    4.58224E-01   -5.31705E-02   -6.02220E-01   -1.10855E+00    1.61885E+01    3.72135E+00   -2.38140E+01
    4.24205E-01   -2.55270E-02   -6.19548E-01   -1.03546E+00    1.37790E+01    4.59575E+00   -2.27306E+01
    7.36522E-01    3.78892E-01   -4.71591E-02   -7.49348E-01   -3.97038E+00   -1.08895E+00    9.92245E-01
    7.30888E-01    3.55773E-01   -9.59423E-02   -7.68715E-01   -3.22578E+00   -8.76719E-01    1.11880E+00
    7.22182E-01    3.30527E-01   -1.45855E-01   -7.87799E-01   -2.25938E+00   -5.95935E-01    9.33398E-01
    7.10112E-01    3.03255E-01   -1.96270E-01   -8.05301E-01   -1.05100E+00   -2.39433E-01    4.10621E-01
    6.94537E-01    2.74179E-01   -2.46462E-01   -8.19961E-01    3.20192E-01    1.50164E-01   -3.21587E-01
    6.75507E-01    2.43642E-01   -2.95665E-01   -8.31123E-01    1.76894E+00    5.28453E-01   -1.16084E+00
    6.53281E-01    2.12081E-01   -3.43155E-01   -8.39287E-01    3.27303E+00    9.02486E-01   -2.19996E+00
    6.28318E-01    1.79997E-01   -3.88321E-01   -8.46484E-01    4.95858E+00    1.36513E+00   -3.77487E+00
    6.01204E-01    1.47888E-01   -4.30719E-01   -8.55669E-01    6.94999E+00    2.01362E+00   -6.19111E+00
    5.72565E-01    1.16209E-01   -4.70073E-01   -8.69753E-01    9.19505E+00    2.85878E+00   -9.47225E+00
    5.42999E-01    8.53313E-02   -5.06254E-01   -8.90696E-01    1.13992E+01    3.76809E+00   -1.32474E+01
    5.13016E-01    5.55447E-02   -5.39239E-01   -9.19166E-01    1.31666E+01    4.53935E+00   -1.69386E+01
    4.83023E-01    2.70536E-02   -5.69063E-01   -9.54132E-01    1.41675E+01    4.97739E+00   -1.99377E+01
    4.53339E-01    1.04833E-17   -5.95799E-01   -9.93688E-01    1.43267E+01    4.98989E+00   -2.18811E+01
    7.50490E-01    3.26681E-01   -4.80534E-02   -6.60914E-01   -1.32142E+01   -3.45679E+00    2.94859E+00
    7.44571E-01    3.02027E-01   -9.77385E-02   -6.84004E-01   -1.23146E+01   -3.15121E+00    3.59969E+00
    7.35487E-01    2.75413E-01   -1.48543E-01   -7.09621E-01   -1.08383E+01   -2.71550E+00    3.87395E+00
    7.22962E-01    2.46994E-01   -1.99822E-01   -7.37354E-01   -8.62787E+00   -2.11025E+00    3.58528E+00
    7.06876E-01    2.17039E-01   -2.50841E-01   -7.66869E-01   -5.63667E+00   -1.34001E+00    2.65543E+00
    6.87305E-01    1.85922E-01   -3.00829E-01   -7.98121E-01   -1.94665E+00   -4.38101E-01    9.97486E-01
    6.64513E-01    1.54091E-01   -3.49055E-01   -8.31264E-01    2.20449E+00    5.52916E-01   -1.51694E+00
    6.38942E-01    1.22027E-01   -3.94888E-01   -8.66707E-01    6.50710E+00    1.60954E+00   -4.99235E+00
    6.11145E-01    9.02002E-02   -4.37841E-01   -9.04659E-01    1.05651E+01    2.67769E+00   -9.26720E+00
    5.81712E-01    5.90325E-02   -4.77583E-01   -9.44809E-01    1.39343E+01    3.63964E+00   -1.38384E+01
    5.51221E-01    2.88742E-02   -5.13921E-01   -9.86241E-01    1.62122E+01    4.31824E+00   -1.79930E+01
    5.20191E-01    1.60651E-18   -5.46782E-01   -1.02806E+00    1.72473E+01    4.56905E+00   -2.11577E+01
    4.89067E-01   -2.73927E-02   -5.76184E-01   -1.06913E+00    1.71302E+01    4.34595E+00   -2.30664E+01
    7.64191E-01    2.72164E-01   -4.89305E-02   -5.88077E-01   -2.20242E+01   -5.50266E+00    4.88783E+00
    7.57961E-01    2.45967E-01   -9.94961E-02   -6.16799E-01   -2.06435E+01   -5.02314E+00    5.92346E+00
    7.48459E-01    2.17988E-01   -1.51162E-01   -6.50633E-01   -1.83600E+01   -4.36503E+00    6.47987E+00
    7.35426E-01    1.88439E-01   -2.03267E-01   -6.89985E-01   -1.49236E+01   -3.46404E+00    6.23394E+00
    7.18755E-01    1.57633E-01   -2.55056E-01   -7.34961E-01   -1.02926E+01   -2.32074E+00    4.96571E+00
    6.98529E-01    1.25972E-01   -3.05742E-01   -7.85462E-01   -4.66079E+00   -1.00375E+00    2.52472E+00
    6.75011E-01    9.39152E-02   -3.54570E-01   -8.40608E-01    1.43248E+00    3.44159E-01   -1.08426E+00
    6.48622E-01    6.19379E-02   -4.00871E-01   -8.98662E-01    7.25933E+00    1.56420E+00   -5.60216E+00
    6.19893E-01    3.04967E-02   -4.44109E-01   -9.57236E-01    1.21106E+01    2.50957E+00   -1.04586E+01
    5.89409E-01    3.88679E-17   -4.83901E-01   -1.01385E+00    1.55103E+01    3.06524E+00   -1.49499E+01
    5.57759E-01   -2.92175E-02   -5.20016E-01   -1.06639E+00    1.72878E+01    3.16828E+00   -1.84908E+01
    5.25510E-01   -5.68976E-02   -5.52372E-01   -1.11386E+00    1.76536E+01    2.83223E+00   -2.08496E+01
    7.77832E-01    2.15462E-01   -4.98038E-02   -5.44683E-01   -2.73909E+01   -6.57042E+00    6.18490E+00
    7.71214E-01    1.87701E-01   -1.01235E-01   -5.80004E-01   -2.54116E+01   -5.90226E+00    7.35319E+00
    7.61174E-01    1.58351E-01   -1.53730E-01   -6.21717E-01   -2.25571E+01   -5.07276E+00    8.02613E+00
    7.47463E-01    1.27682E-01   -2.06594E-01   -6.70847E-01   -1.84969E+01   -3.99775E+00    7.82783E+00
    7.29989E-01    9.60577E-02   -2.59042E-01   -7.27790E-01   -1.31692E+01   -2.68733E+00    6.46934E+00
    7.08840E-01    6.39160E-02   -3.10255E-01   -7.92060E-01   -6.85499E+00   -1.26574E+00    3.80806E+00
    6.84287E-01    3.17348E-02   -3.59441E-01   -8.61722E-01   -2.35398E-01    4.93454E-02   -2.68729E-02
    6.56748E-01    6.29661E-17   -4.05893E-01   -9.33407E-01    5.82493E+00    1.04212E+00   -4.57174E+00
    6.26769E-01   -3.08360E-02   -4.49036E-01   -1.00316E+00    1.06113E+01    1.58498E+00   -9.14457E+00
    5.94965E-01   -6.03774E-02   -4.88464E-01   -1.06757E+00    1.37916E+01    1.65251E+00   -1.31386E+01
    5.61979E-01   -8.83148E-02   -5.23951E-01   -1.12438E+00    1.54011E+01    1.31497E+00   -1.62202E+01
    7.91508E-01    1.56607E-01   -5.06793E-02   -5.41001E-01   -2.71406E+01   -6.23910E+00    6.30596E+00
    7.84329E-01    1.27261E-01   -1.02957E-01   -5.81549E-01   -2.51030E+01   -5.51435E+00    7.41975E+00
    7.73512E-01    9.65502E-02   -1.56222E-01   -6.28134E-01   -2.25797E+01   -4.69811E+00    8.19655E+00
    7.58818E-01    6.48106E-02   -2.09733E-01   -6.82158E-01   -1.91550E+01   -3.70076E+00    8.29200E+00
    7.40179E-01    3.24656E-02   -2.62658E-01   -7.44461E-01   -1.45926E+01   -2.52651E+00    7.36082E+00
    7.17707E-01    2.45337E-17   -3.14136E-01   -8.14425E-01   -9.06069E+00   -1.31535E+00    5.20645E+00
    6.91709E-01   -3.20802E-02   -3.63340E-01   -8.89558E-01   -3.14441E+00   -2.88081E-01    1.92350E+00
    6.62644E-01   -6.32769E-02   -4.09537E-01   -9.65738E-01    2.38092E+00    3.62543E-01   -2.05336E+00
    6.31115E-01   -9.31485E-02   -4.52149E-01   -1.03843E+00    6.89713E+00    5.66883E-01   -6.12957E+00
    5.97802E-01   -1.21331E-01   -4.90792E-01   -1.10404E+00    1.01127E+01    3.59868E-01   -9.82407E+00
    8.05076E-01    9.55746E-02   -5.15479E-02   -5.78792E-01   -2.15998E+01   -4.68409E+00    5.19301E+00
    7.97043E-01    6.46619E-02   -1.04626E-01   -6.21055E-01   -2.05180E+01   -4.12963E+00    6.23501E+00
    7.85087E-01    3.26642E-02   -1.58560E-01   -6.67678E-01   -1.94605E+01   -3.55912E+00    7.24936E+00
    7.68986E-01    2.81266E-17   -2.12543E-01   -7.20661E-01   -1.77762E+01   -2.85657E+00    7.91317E+00
    7.48720E-01   -3.28419E-02   -2.65689E-01   -7.81342E-01   -1.49933E+01   -2.00676E+00    7.80074E+00
    7.24466E-01   -6.53252E-02   -3.17095E-01   -8.49297E-01   -1.10630E+01   -1.12218E+00    6.58346E+00
    6.96607E-01   -9.69210E-02   -3.65913E-01   -9.21982E-01   -6.38503E+00   -3.90180E-01    4.20526E+00
    6.65694E-01   -1.27136E-01   -4.11422E-01   -9.95160E-01   -1.62501E+00    2.49813E-02    9.72838E-01
    6.32418E-01   -1.55567E-01   -4.53082E-01   -1.06433E+00    2.61961E+00    7.04124E-02   -2.61600E+00
    8.18077E-01    3.23717E-02   -5.23801E-02   -6.50280E-01   -1.35843E+01   -2.65712E+00    3.37501E+00
    8.08792E-01    3.59197E-17   -1.06168E-01   -6.90355E-01   -1.41876E+01   -2.43653E+00    4.42014E+00
    7.95237E-01   -3.30886E-02   -1.60610E-01   -7.32728E-01   -1.50638E+01   -2.21018E+00    5.73887E+00
    7.77246E-01   -6.63849E-02   -2.14826E-01   -7.80089E-01   -1.53305E+01   -1.82805E+00    6.99927E+00
    7.54879E-01   -9.93342E-02   -2.67874E-01   -8.34121E-01   -1.43716E+01   -1.26051E+00    7.70322E+00
    7.28424E-01   -1.31364E-01   -3.18827E-01   -8.94565E-01   -1.20349E+01   -6.10750E-01    7.41513E+00
    6.98387E-01   -1.61947E-01   -3.66849E-01   -9.59058E-01   -8.61073E+00   -5.78052E-02    5.95246E+00
    6.65445E-01   -1.90633E-01   -4.11268E-01   -1.02363E+00   -4.70282E+00    2.36123E-01    3.51871E+00
    8.29748E-01   -3.28361E-02   -5.31272E-02   -7.42592E-01   -6.29142E+00   -9.87475E-01    1.58732E+00
    8.18742E-01   -6.64232E-02   -1.07474E-01   -7.77977E-01   -8.46404E+00   -1.08395E+00    2.64831E+00
    8.03106E-01   -1.00245E-01   -1.62199E-01   -8.14073E-01   -1.07395E+01   -1.08280E+00    4.12181E+00
    7.82766E-01   -1.33713E-01   -2.16351E-01   -8.53711E-01   -1.22798E+01   -8.53360E-01    5.70432E+00
    7.57910E-01   -1.66221E-01   -2.68950E-01   -8.98546E-01   -1.25258E+01   -3.96542E-01    6.89998E+00
    7.28977E-01   -1.97196E-01   -3.19069E-01   -9.48284E-01   -1.13664E+01    1.49494E-01    7.26312E+00
    6.96627E-01   -2.26154E-01   -3.65924E-01   -1.00085E+00   -9.06227E+00    5.91470E-01    6.57876E+00
    8.39119E-01   -9.96172E-02   -5.37270E-02   -8.43488E-01   -1.33847E+00   -9.34978E-02    2.96618E-01
    8.25924E-01   -1.34012E-01   -1.08417E-01   -8.73842E-01   -4.20750E+00   -3.14411E-01    1.24938E+00
    8.07782E-01   -1.68047E-01   -1.63143E-01   -9.03686E-01   -6.88901E+00   -3.20197E-01    2.59859E+00
    7.84755E-01   -2.01080E-01   -2.16901E-01   -9.35361E-01   -8.78796E+00   -5.48355E-02    4.11701E+00
    7.57195E-01   -2.32489E-01   -2.68696E-01   -9.70091E-01   -9.54782E+00    3.99770E-01    5.39148E+00
    7.25717E-01   -2.61753E-01   -3.17643E-01   -1.00750E+00   -9.15161E+00    8.71685E-01    6.05815E+00
    8.45188E-01   -1.67229E-01   -5.41154E-02   -9.44675E-01    1.54756E+00    1.14102E-01   -4.75268E-01
    8.29410E-01   -2.01867E-01   -1.08874E-01   -9.70987E-01   -1.09607E+00   -2.57325E-02    2.06082E-01
    8.08475E-01   -2.35468E-01   -1.63283E-01   -9.95365E-01   -3.41190E+00    9.06325E-02    1.20013E+00
    7.82613E-01   -2.67374E-01   -2.16309E-01   -1.01940E+00   -5.06388E+00    4.25723E-01    2.35702E+00
    7.52361E-01   -2.97006E-01   -2.66981E-01   -1.04375E+00   -5.89780E+00    8.41781E-01    3.38157E+00
    8.47100E-01   -2.34651E-01   -5.42377E-02   -1.04165E+00    3.44192E+00   -6.50243E-02   -9.72265E-01
    8.28495E-01   -2.68856E-01   -1.08754E-01   -1.06481E+00    1.46769E+00   -7.85899E-02   -6.40847E-01
    8.04675E-01   -3.01322E-01   -1.62516E-01   -1.08420E+00   -1.81059E-01    1.05753E-01   -1.00402E-01
    7.76057E-01   -3.31416E-01   -2.14495E-01   -1.10062E+00   -1.37665E+00    3.89455E-01    5.52259E-01
    8.44311E-01   -3.00700E-01   -5.40591E-02   -1.13182E+00    5.14584E+00   -4.77005E-01   -1.43406E+00
    8.22825E-01   -3.33770E-01   -1.08010E-01   -1.15192E+00    3.87234E+00   -4.84893E-01   -1.44324E+00
    7.96240E-01   -3.64422E-01   -1.60812E-01   -1.16605E+00    2.85014E+00   -4.09877E-01   -1.34892E+00
    8.36665E-01   -3.64192E-01   -5.35693E-02   -1.21307E+00    6.97351E+00   -1.18629E+00   -1.98723E+00
    8.12440E-01   -3.95470E-01   -1.06647E-01   -1.22946E+00    6.25623E+00   -1.36934E+00   -2.29555E+00
    8.24388E-01   -4.24093E-01   -5.27831E-02   -1.28350E+00    8.94207E+00   -2.32390E+00   -2.66221E+00
    7.15306E-01    4.89771E-01    2.94716E-02   -8.67789E-01    5.34724E+00    1.86033E+00   -7.64929E-01
    7.02637E-01    5.34632E-01    6.20358E-02   -9.14994E-01    7.12919E+00    2.71029E+00   -8.33708E-01
    6.85988E-01    5.82270E-01    9.78376E-02   -9.61677E-01    7.98089E+00    3.39902E+00   -6.73910E-01
    6.64433E-01    6.32122E-01    1.36880E-01   -1.00536E+00    8.11757E+00    3.97674E+00   -3.49065E-01
    6.37055E-01    6.83295E-01    1.78965E-01   -1.04385E+00    7.91067E+00    4.55297E+00    8.43000E-02
    6.03091E-01    7.34585E-01    2.23638E-01   -1.07513E+00    7.57633E+00    5.17604E+00    5.95518E-01
    5.62074E-01    7.84551E-01    2.70186E-01   -1.09755E+00    7.14496E+00    5.78570E+00    1.11398E+00
    5.13997E-01    8.31665E-01    3.17668E-01   -1.11029E+00    6.49197E+00    6.20115E+00    1.50864E+00
    4.59355E-01    8.74498E-01    3.65011E-01   -1.11364E+00    5.58162E+00    6.26276E+00    1.66715E+00
    3.99127E-01    9.11887E-01    4.11123E-01   -1.10915E+00    4.50118E+00    5.91444E+00    1.58635E+00
    3.34652E-01    9.43061E-01    4.55019E-01   -1.09932E+00    3.40785E+00    5.23225E+00    1.38317E+00
    2.67460E-01    9.67679E-01    4.95898E-01   -1.08700E+00    2.41577E+00    4.37048E+00    1.20088E+00
    1.99094E-01    9.85787E-01    5.33204E-01   -1.07447E+00    1.57223E+00    3.48611E+00    1.11914E+00
    1.30971E-01    9.97745E-01    5.66613E-01   -1.06324E+00    8.94076E-01    2.70626E+00    1.12907E+00
    6.42934E-02    1.00413E+00    5.96032E-01   -1.05393E+00    3.95225E-01    2.11213E+00    1.16142E+00