# TIME=0.000000
VARIABLES=X,Y,Z
ZONE N=1442 E=2880 F=FEPOINT ET=TRIANGLE
   7.66904449       4.99974966      0.690929472               2           1   1.00000000    
  -7.96535397       4.95473051      0.382012039               2           1   1.00000000    
   8.01346493      -4.46223688      0.143428773               2           1   1.00000000    
  -7.54178715      -4.56576538     -0.757639587               2           1   1.00000000    
   4.59987068      0.176289499       8.09369373               2           1   1.00000000    
   4.96507120      0.548215985      -7.51128626               2           1   1.00000000    
  -4.94705582     -0.122134000       7.35641718               2           1   1.00000000    
  -4.60003424       4.43010144E-02  -8.04772186               2           1   1.00000000    
 -0.442681074       8.05969238       4.71013403               2           1   1.00000000    
 -0.168689996      -8.12109566       3.96099496               2           1   1.00000000    
  -7.59063065E-02   7.84279108      -4.47933054               2           1   1.00000000    
 -0.344632566      -8.19438744      -4.68542480               2           1   1.00000000    
   7.16308498       4.56125450      0.247404248               2           1   1.00000000    
   7.72494602       4.38977051       1.29922473               2           1   1.00000000    
   8.37179661       3.83280420       2.49699402               2           1   1.00000000    
   8.09957695       3.38807034       3.21541691               2           1   1.00000000    
   7.56813145       2.93113303       3.79408145               2           1   1.00000000    
   7.13810015       2.44911146       4.34565115               2           1   1.00000000    
   6.71597576       2.63710332       5.07863474               2           1   1.00000000    
   6.75710392       2.08624959       5.85031557               2           1   1.00000000    
   6.19361401       1.50798416       6.08379698               2           1   1.00000000    
   6.02048302       1.51528788       6.88816977               2           1   1.00000000    
   5.02625513      0.681765318       7.54695845               2           1   1.00000000    
   8.43782043      -3.89594555      0.644265175               2           1   1.00000000    
   7.93808508      -3.75628209       1.33469331               2           1   1.00000000    
   8.39857006      -3.42384982       2.03194308               2           1   1.00000000    
   7.75086164      -2.73161411       3.27975225               2           1   1.00000000    
   7.45531702      -2.01426530       3.49153233               2           1   1.00000000    
   7.72971153      -1.98520052       4.27100849               2           1   1.00000000    
   7.23450613      -1.53550708       4.88542938               2           1   1.00000000    
   6.99861860      -1.32290578       5.84938765               2           1   1.00000000    
   6.54338980     -0.768724561       6.50314856               2           1   1.00000000    
   5.76472521      0.507857144       7.08299923               2           1   1.00000000    
   8.46993256      -3.01401854      0.381893456               2           1   1.00000000    
   8.53854084      -3.20206189       1.19769561               2           1   1.00000000    
   8.51854610      -1.98782051       2.36434317               2           1   1.00000000    
   8.31817436      -2.05581617       3.25972772               2           1   1.00000000    
   7.98154736      -1.35466301       3.65020132               2           1   1.00000000    
   7.77119589      -1.02225125       4.50820065               2           1   1.00000000    
   7.30104208     -0.685124218       5.17425632               2           1   1.00000000    
   6.78592682      0.280113250       5.88080072               2           1   1.00000000    
   6.46408653      0.828549504       6.56083441               2           1   1.00000000    
   8.65026855      -2.23958802      0.807844460               2           1   1.00000000    
   8.70063305      -1.67039394       1.54406238               2           1   1.00000000    
   8.86613941      -1.22466588       2.31093836               2           1   1.00000000    
   8.16332150     -0.593504012       3.24572134               2           1   1.00000000    
   7.58047819     -0.616026223       3.84211278               2           1   1.00000000    
   7.95932245     -0.131621286       4.51297712               2           1   1.00000000    
   7.25952435       1.00035834       5.06592941               2           1   1.00000000    
   6.94458246       1.12889814       5.86293507               2           1   1.00000000    
   8.93171883      -1.41349936      0.745288432               2           1   1.00000000    
   9.07827854     -0.928453207       1.51348245               2           1   1.00000000    
   8.56566811     -0.410552979       2.47622180               2           1   1.00000000    
   7.96430016       6.44692183E-02   2.75473738               2           1   1.00000000    
   7.81828642      0.192120358       3.66283059               2           1   1.00000000    
   7.43184662      0.608016968       4.33425426               2           1   1.00000000    
   7.09197140       1.82924056       5.09561205               2           1   1.00000000    
   9.04511356     -0.547674358      0.773467004               2           1   1.00000000    
   8.70583534     -0.148359865       1.51663911               2           1   1.00000000    
   8.44017410      0.426439196       2.13417840               2           1   1.00000000    
   8.10865784      0.808542252       3.01693177               2           1   1.00000000    
   7.62568665       1.10394287       3.63550949               2           1   1.00000000    
   7.19317198       1.56430161       4.25000286               2           1   1.00000000    
   8.63756371      0.178587243      0.646621764               2           1   1.00000000    
   8.52699566      0.659916937       1.32302213               2           1   1.00000000    
   8.45940208       1.23011649       2.40845990               2           1   1.00000000    
   8.02784157       1.68722951       3.09510899               2           1   1.00000000    
   7.58297205       2.07785773       3.68392444               2           1   1.00000000    
   8.99170780       1.06842995      0.752245784               2           1   1.00000000    
   8.66218185       1.64038205       1.62008846               2           1   1.00000000    
   8.48785496       2.10097313       2.44584560               2           1   1.00000000    
   7.85545921       2.58666015       2.98324609               2           1   1.00000000    
   8.35677242       2.19520497      0.887525260               2           1   1.00000000    
   8.54080391       2.48513031       1.67993331               2           1   1.00000000    
   8.48698425       2.95921254       2.50853086               2           1   1.00000000    
   8.56548977       2.99970341      0.925246596               2           1   1.00000000    
   8.30303383       3.31663799       1.73706400               2           1   1.00000000    
   7.97268438       3.55312943      0.865456462               2           1   1.00000000    
   7.99232960       4.24458408      0.357376307               2           1   1.00000000    
   8.14546776       3.36615229      -3.23592918E-04           2           1   1.00000000    
   8.55832005       2.60105848      0.143102914               2           1   1.00000000    
   8.63867855       1.71729612      0.260604769               2           1   1.00000000    
   9.13845634      0.549464047       2.17986386E-02           2           1   1.00000000    
   9.04601192     -0.313174039      -8.71880129E-02           2           1   1.00000000    
   8.82577896      -1.10802865      -4.38115969E-02           2           1   1.00000000    
   8.73201466      -1.92876434     -0.103742994               2           1   1.00000000    
   8.68971729      -2.71337533     -0.381361991               2           1   1.00000000    
   8.24368191      -3.67513037     -0.228544205               2           1   1.00000000    
   7.41070890      -4.00534534      -9.34702381E-02           2           1   1.00000000    
   7.90454245      -4.34692192     -0.748841405               2           1   1.00000000    
   7.46301270      -4.00530767      -1.52239513               2           1   1.00000000    
   7.59131098      -3.75307250      -2.30615044               2           1   1.00000000    
   7.60805082      -3.31350994      -3.05117822               2           1   1.00000000    
   7.30670834      -2.89761519      -3.67448092               2           1   1.00000000    
   7.20879412      -2.43991971      -4.40620327               2           1   1.00000000    
   6.84016705      -1.92725027      -5.04659367               2           1   1.00000000    
   6.65126228      -2.50646901      -5.65929508               2           1   1.00000000    
   6.24047422      -2.11088085      -6.34851551               2           1   1.00000000    
   5.98262548      -1.27268553      -6.50028658               2           1   1.00000000    
   5.59892797     -0.573531032      -6.80213833               2           1   1.00000000    
   8.16016388       3.93653417     -0.631509781               2           1   1.00000000    
   8.28261280       3.65750742      -1.48929811               2           1   1.00000000    
   7.99404478       3.36197829      -2.29605341               2           1   1.00000000    
   7.76401854       2.88232851      -3.09905005               2           1   1.00000000    
   7.65345573       2.37278986      -3.93112969               2           1   1.00000000    
   7.43168736       1.99356222      -4.65123320               2           1   1.00000000    
   6.75881195       1.52434921      -4.68388319               2           1   1.00000000    
   6.80579424      0.861123323      -5.11894226               2           1   1.00000000    
   6.60634232      0.135592282      -5.62296963               2           1   1.00000000    
   5.37221575      0.218313247      -6.79911137               2           1   1.00000000    
   8.57484436       3.03225136     -0.845518708               2           1   1.00000000    
   8.67321396       2.81611562      -1.73322868               2           1   1.00000000    
   8.22280121       2.55475640      -2.43819332               2           1   1.00000000    
   8.13224411       2.14211583      -3.25289392               2           1   1.00000000    
   8.05261898       1.57574761      -3.96108818               2           1   1.00000000    
   7.53197145       1.11998296      -4.56698990               2           1   1.00000000    
   6.59888220      0.158991411      -4.78513765               2           1   1.00000000    
   6.57188749     -0.687382877      -5.44499779               2           1   1.00000000    
   6.21887207     -0.482071608      -6.18315506               2           1   1.00000000    
   8.64039612       2.08199644     -0.547072232               2           1   1.00000000    
   8.98686409       1.94982195      -1.37343979               2           1   1.00000000    
   8.41301250       1.64112878      -2.66471791               2           1   1.00000000    
   8.27505875      0.891075492      -2.99554658               2           1   1.00000000    
   7.71853495      0.750614882      -3.75504518               2           1   1.00000000    
   7.43751526      0.248854294      -4.49966669               2           1   1.00000000    
   7.16494656     -0.375695229      -5.02459717               2           1   1.00000000    
   6.65686703      -1.32516921      -5.96519947               2           1   1.00000000    
   8.98398495       1.26158822     -0.482674450               2           1   1.00000000    
   8.94017124      0.870878100      -1.36881268               2           1   1.00000000    
   8.81239891      0.542562485      -2.36369133               2           1   1.00000000    
   8.08083820       8.30836371E-02  -3.04110765               2           1   1.00000000    
   7.80196524     -0.170839086      -3.81645346               2           1   1.00000000    
   7.60443163     -0.795323730      -4.43732643               2           1   1.00000000    
   7.22353935      -1.21371055      -5.28836775               2           1   1.00000000    
   9.01253414      0.279222637     -0.774700165               2           1   1.00000000    
   8.61268425       6.37786463E-02  -1.64494669               2           1   1.00000000    
   8.62692642     -0.310791016      -2.46774101               2           1   1.00000000    
   8.05028629     -0.765250325      -3.17172241               2           1   1.00000000    
   7.95456409      -1.25876510      -3.85547018               2           1   1.00000000    
   7.52901316      -1.66927564      -4.56056833               2           1   1.00000000    
   8.82160282     -0.487097979     -0.956481755               2           1   1.00000000    
   8.48089123     -0.793667555      -1.72956038               2           1   1.00000000    
   8.27410030      -1.18425035      -2.48502111               2           1   1.00000000    
   8.22032452      -1.71828032      -3.16517591               2           1   1.00000000    
   7.74814606      -2.10649848      -3.79727411               2           1   1.00000000    
   8.65453625      -1.28274596     -0.933119297               2           1   1.00000000    
   8.25396252      -1.71692288      -1.79589713               2           1   1.00000000    
   8.33507729      -2.18653297      -2.50912929               2           1   1.00000000    
   8.14638424      -2.65409112      -3.25974202               2           1   1.00000000    
   8.59362602      -2.10168648      -1.04356074               2           1   1.00000000    
   8.42119884      -2.61877394      -1.73775589               2           1   1.00000000    
   8.08676910      -3.01946568      -2.41956019               2           1   1.00000000    
   8.17312622      -2.92286921      -1.00485194               2           1   1.00000000    
   8.13347149      -3.48976946      -1.66452181               2           1   1.00000000    
   7.71825933      -3.55751204     -0.868947923               2           1   1.00000000    
   6.88001251       5.20482731      0.644072473               2           1   1.00000000    
   6.72104025       5.87831306       1.07519376               2           1   1.00000000    
   6.02862120       6.23238611       1.28096437               2           1   1.00000000    
   5.13251114       6.82894135       2.04239082               2           1   1.00000000    
   4.81590557       7.20276976       2.76983404               2           1   1.00000000    
   4.00587797       7.52689934       2.78570199               2           1   1.00000000    
   3.49924111       7.13277102       3.28625989               2           1   1.00000000    
   2.95604491       7.62000799       3.66628027               2           1   1.00000000    
   2.18198609       7.33172703       3.60437655               2           1   1.00000000    
   1.58043742       7.60244942       4.10097933               2           1   1.00000000    
  0.919350803       7.47922421       4.58656406               2           1   1.00000000    
   5.21836233       1.31643045       7.03654766               2           1   1.00000000    
   4.70006847       1.88456202       7.48529243               2           1   1.00000000    
   4.05653572       2.57703924       7.43455696               2           1   1.00000000    
   3.80716753       3.33942580       7.09682941               2           1   1.00000000    
   3.26715803       4.15976906       6.81330824               2           1   1.00000000    
   2.86695004       5.06509447       6.83557510               2           1   1.00000000    
   2.57290721       5.83110714       6.41087961               2           1   1.00000000    
   2.18387723       6.52766037       6.03883410               2           1   1.00000000    
   1.56240404       6.52096558       5.40937662               2           1   1.00000000    
   1.07392073       7.18314171       5.36591101               2           1   1.00000000    
   5.42606068       2.15514159       6.95140839               2           1   1.00000000    
   4.73883867       2.63275456       6.96844769               2           1   1.00000000    
   4.39870739       3.17210865       6.47573853               2           1   1.00000000    
   4.13756466       3.99731040       6.64352560               2           1   1.00000000    
   3.72186518       4.84936571       6.51097918               2           1   1.00000000    
   3.35483837       5.53929281       6.13258743               2           1   1.00000000    
   2.99686790       6.26346827       5.70178223               2           1   1.00000000    
   2.41797996       6.97232771       5.27360582               2           1   1.00000000    
   1.74342394       7.08357048       4.80443239               2           1   1.00000000    
   5.93927526       2.26676965       6.25090837               2           1   1.00000000    
   5.44548893       3.01410890       6.39844751               2           1   1.00000000    
   4.91016579       3.79783463       6.21854067               2           1   1.00000000    
   4.45649099       4.56324959       6.08316231               2           1   1.00000000    
   4.22098684       5.41840839       5.76911020               2           1   1.00000000    
   3.70798755       6.00795364       5.20979738               2           1   1.00000000    
   3.13964581       6.71373320       4.90311718               2           1   1.00000000    
   2.50048304       7.30157089       4.41194582               2           1   1.00000000    
   6.07206631       2.86977601       5.65835333               2           1   1.00000000    
   5.60015726       3.55994630       5.75148106               2           1   1.00000000    
   5.20800066       4.39197731       5.59395504               2           1   1.00000000    
   4.86940193       5.01906300       5.09668350               2           1   1.00000000    
   4.60244131       5.87399769       5.01058674               2           1   1.00000000    
   4.01724815       6.61404133       4.62950182               2           1   1.00000000    
   3.44827485       7.01842928       4.12628651               2           1   1.00000000    
   6.24793100       3.33873296       4.93294287               2           1   1.00000000    
   5.60534525       3.80649233       4.95641279               2           1   1.00000000    
   5.65007210       4.65656853       4.81833696               2           1   1.00000000    
   5.38706493       5.49114084       4.48555040               2           1   1.00000000    
   4.78105307       6.09811497       4.15048981               2           1   1.00000000    
   4.20016861       7.27781773       3.70003867               2           1   1.00000000    
   6.99531269       3.28387141       4.49145937               2           1   1.00000000    
   6.34242582       3.82722187       4.13891840               2           1   1.00000000    
   6.02434063       5.38331127       3.38985753               2           1   1.00000000    
   5.52699232       6.08397770       3.66933703               2           1   1.00000000    
   4.89495420       6.77696609       3.54171729               2           1   1.00000000    
   7.34712601       3.77838731       3.82560134               2           1   1.00000000    
   6.56300926       4.67626953       3.49575067               2           1   1.00000000    
   6.14707661       6.05327606       2.88175774               2           1   1.00000000    
   5.41298866       6.49863291       2.86510634               2           1   1.00000000    
   7.56435537       4.05531263       2.99347162               2           1   1.00000000    
   6.68904638       5.32228041       2.81111193               2           1   1.00000000    
   5.85540915       6.30986118       2.11763883               2           1   1.00000000    
   7.34650373       5.02878475       2.30265045               2           1   1.00000000    
   6.56019974       5.75830460       1.97489643               2           1   1.00000000    
   7.17265177       5.17943907       1.47186184               2           1   1.00000000    
   7.71013355       4.60815096     -0.402718663               2           1   1.00000000    
   7.76275778       4.39145851      -1.28678620               2           1   1.00000000    
   7.72548914       4.14457750      -2.12388802               2           1   1.00000000    
   7.55277634       3.66914225      -2.92885208               2           1   1.00000000    
   7.17748356       3.04921746      -3.70247841               2           1   1.00000000    
   7.19193745       2.86118221      -4.52865744               2           1   1.00000000    
   6.62497759       2.37554312      -4.87310791               2           1   1.00000000    
   6.46590614       1.82963705      -5.50944757               2           1   1.00000000    
   6.26703215       1.00524473      -5.80382252               2           1   1.00000000    
   5.59249735       1.00822055      -6.41808939               2           1   1.00000000    
   4.51272058      0.208613023      -6.84065342               2           1   1.00000000    
   4.24686527       1.10302818      -7.51861620               2           1   1.00000000    
   3.92024708      0.760521412      -6.89281225               2           1   1.00000000    
   4.04060078       1.93948221      -7.45856810               2           1   1.00000000    
   3.65949368       2.74223018      -7.61261034               2           1   1.00000000    
   3.36682916       3.58873749      -7.57737350               2           1   1.00000000    
   2.91443324       4.42185640      -7.33416605               2           1   1.00000000    
   2.49567366       5.09675264      -7.00613594               2           1   1.00000000    
   1.66693091       5.72318554      -6.83483887               2           1   1.00000000    
   1.44003367       6.48328209      -6.40033770               2           1   1.00000000    
  0.725781202       6.79277945      -5.64122438               2           1   1.00000000    
  0.251107723       7.33443832      -5.11465454               2           1   1.00000000    
   7.35124111       5.10173798      -1.01176500               2           1   1.00000000    
   6.80624676       5.49817038      -1.54762900               2           1   1.00000000    
   6.07859421       5.65746832      -2.01660204               2           1   1.00000000    
   5.63247490       5.84427166      -2.67227936               2           1   1.00000000    
   5.10780907       6.34056807      -3.08282924               2           1   1.00000000    
   4.45025539       6.66374683      -3.49505401               2           1   1.00000000    
   3.75399685       6.96428442      -3.95950150               2           1   1.00000000    
   2.77948475       7.16281652      -4.42780161               2           1   1.00000000    
   1.80486262       7.44646978      -4.48367357               2           1   1.00000000    
   1.28091156       7.25379992      -5.11949110               2           1   1.00000000    
   7.30521727       4.86055517      -1.88141286               2           1   1.00000000    
   6.64196301       4.99620724      -2.38218236               2           1   1.00000000    
   6.14039373       5.25837803      -2.96593881               2           1   1.00000000    
   5.55334806       5.67067909      -3.49288321               2           1   1.00000000    
   4.90340710       6.22075987      -4.30276918               2           1   1.00000000    
   4.08212376       6.15063429      -4.03592110               2           1   1.00000000    
   2.61971688       6.31830645      -4.49137068               2           1   1.00000000    
   2.20375824       6.95767117      -5.07893658               2           1   1.00000000    
   1.48423517       6.49379396      -5.51005030               2           1   1.00000000    
   7.18869591       4.38940668      -2.71398997               2           1   1.00000000    
   6.54800653       4.56583929      -3.17377353               2           1   1.00000000    
   5.97804546       4.94623613      -3.72353292               2           1   1.00000000    
   5.49967957       5.56106472      -4.35086250               2           1   1.00000000    
   4.25219250       5.93107605      -4.84150267               2           1   1.00000000    
   3.47853446       6.38608551      -4.54091406               2           1   1.00000000    
   2.96049905       6.57984400      -5.20394802               2           1   1.00000000    
   2.22820711       6.48339319      -5.88281488               2           1   1.00000000    
   7.00058413       3.87975478      -3.49253941               2           1   1.00000000    
   6.32508230       4.18359709      -3.92487836               2           1   1.00000000    
   5.92079306       4.76672363      -4.54495335               2           1   1.00000000    
   5.00686884       5.58215284      -5.05061197               2           1   1.00000000    
   4.31048393       5.49822617      -5.60435963               2           1   1.00000000    
   3.55034542       5.37248802      -5.97117138               2           1   1.00000000    
   2.38528085       5.82522392      -6.40550804               2           1   1.00000000    
   6.78376722       3.60884309      -4.28651237               2           1   1.00000000    
   6.09769869       3.98460436      -4.79954672               2           1   1.00000000    
   5.52636814       4.36038399      -5.31897831               2           1   1.00000000    
   4.86772966       4.81164312      -5.58752155               2           1   1.00000000    
   4.26966763       4.88349915      -6.33542156               2           1   1.00000000    
   3.38394952       4.90190840      -6.68977594               2           1   1.00000000    
   6.39391375       3.17536831      -4.90496254               2           1   1.00000000    
   5.91515779       3.62256932      -5.61790276               2           1   1.00000000    
   5.29722738       4.04445457      -6.14404917               2           1   1.00000000    
   4.54172277       3.98475695      -6.68645191               2           1   1.00000000    
   3.78970575       4.27028894      -7.11628103               2           1   1.00000000    
   6.29428291       2.81660938      -5.65193939               2           1   1.00000000    
   5.62627602       3.16214228      -6.36475897               2           1   1.00000000    
   4.79078722       3.14084053      -6.79691792               2           1   1.00000000    
   4.19573307       3.49295402      -7.34039402               2           1   1.00000000    
   5.80584526       2.29651999      -6.12987566               2           1   1.00000000    
   5.30213261       2.46288562      -6.97125721               2           1   1.00000000    
   4.55652761       2.62750411      -7.46933842               2           1   1.00000000    
   5.18193150       1.77212048      -6.47777319               2           1   1.00000000    
   4.85160637       1.70232999      -7.26201820               2           1   1.00000000    
   4.83265495      0.964680970      -6.82126760               2           1   1.00000000    
   7.20867014       5.28611135     -0.189410612               2           1   1.00000000    
   6.78226900       5.91902065     -0.750587642               2           1   1.00000000    
   5.95982361       6.35044479     -0.878586352               2           1   1.00000000    
   6.34174967       6.30471039      -1.58036518               2           1   1.00000000    
   5.35155058       6.48950863      -2.20032001               2           1   1.00000000    
   4.69831705       6.95434093      -2.65568542               2           1   1.00000000    
   3.94767547       7.32168150      -3.21161151               2           1   1.00000000    
   3.11611342       7.49678469      -3.63304162               2           1   1.00000000    
   2.26257634       7.62633085      -3.78989792               2           1   1.00000000    
   1.35834348       7.81151962      -3.84370112               2           1   1.00000000    
  0.739229977       7.49736643      -4.43581295               2           1   1.00000000    
  0.860681117       7.93347120       3.67623758               2           1   1.00000000    
  0.208643928       8.08886909       2.96291900               2           1   1.00000000    
  0.478795350       8.52112865       2.12924719               2           1   1.00000000    
  0.651211202       8.63901424       1.29677117               2           1   1.00000000    
  0.848069668       8.16970348      0.632796109               2           1   1.00000000    
  0.543771565       8.83394432      0.316522747               2           1   1.00000000    
  0.522381425       8.68537426      -1.29912221               2           1   1.00000000    
  0.539870977       8.60559750      -2.16788626               2           1   1.00000000    
  0.715744495       8.34873676      -3.04410815               2           1   1.00000000    