# TIME = 0.000000
VARIABLES = X, Y, Z, U, V, W
ZONE N=1962 E=3920 F=FEPOINT ET=TRIANGLE
0.8513191 0.5261441 1.1007856
-0.8513191 0.5261441 1.1007856
0.8513191 -0.5261441 1.1007856
-0.8513191 -0.5261441 1.1007856
0.5261441 0.0000000 1.9521047
0.5261441 0.0000000 0.2494665
-0.5261441 0.0000000 1.9521047
-0.5261441 0.0000000 0.2494665
0.0000000 0.8513191 1.6269297
0.0000000 -0.8513191 1.6269297
0.0000000 0.8513191 0.5746415
0.0000000 -0.8513191 0.5746415
0.8602326 0.5075247 1.1639542
0.8655850 0.4850029 1.2315775
0.8664267 0.4582423 1.3029997
0.8618468 0.4270725 1.3771927
0.8510949 0.3915619 1.4527636
0.8337141 0.3520702 1.5280317
0.8096526 0.3092598 1.6011784
0.7793163 0.2640526 1.6704471
0.7435400 0.2175344 1.7343461
0.7034796 0.1708290 1.7918034
0.6604563 0.1249752 1.8422372
0.6157948 0.0808338 1.8855368
0.5706934 0.0390404 1.9219779
0.8934833 -0.4460434 1.1663959
0.8984215 -0.4195015 1.2365391
0.8981086 -0.3886350 1.3103938
0.8915667 -0.3534397 1.3867243
0.8780597 -0.3141970 1.4639152
0.8572446 -0.2715052 1.5400902
0.8292780 -0.2262543 1.6133076
0.7948378 -0.1795412 1.6817930
0.7550431 -0.1325399 1.7441478
0.7112944 -0.0863633 1.7994797
0.6650820 -0.0419502 1.8474301
0.6178134 -0.0000000 1.8881092
0.9243482 -0.3775514 1.1686624
0.9282591 -0.3467469 1.2410477
0.9261191 -0.3116991 1.3169312
0.9169346 -0.2726222 1.3948602
0.9000543 -0.2300481 1.4730113
0.8753268 -0.1848214 1.5493566
0.8431833 -0.1380289 1.6219015
0.8046081 -0.0908741 1.6889348
0.7609986 -0.0445284 1.7492223
0.7139577 -0.0000000 1.8020959
0.6650820 0.0419502 1.8474301
0.9514840 -0.3022717 1.1706550
0.9536392 -0.2671706 1.2448826
0.9489364 -0.2281275 1.3222565
0.9364405 -0.1856144 1.4011160
0.9156701 -0.1404236 1.4794693
0.8867412 -0.0936158 1.5552060
0.8504035 -0.0464036 1.6263638
0.8079458 0.0000000 1.6913746
0.7609986 0.0445284 1.7492223
0.7112944 0.0863633 1.7994797
0.9734809 -0.2208998 1.1722703
0.9730979 -0.1817481 1.2478229
0.9651195 -0.1392108 1.3260334
0.9487589 -0.0940280 1.4050667
0.9237890 -0.0472229 1.4828270
0.8906464 -0.0000000 1.5572073
0.8504035 0.0464036 1.6263638
0.8046081 0.0908741 1.6889348
0.7550431 0.1325399 1.7441478
0.9890223 -0.1346559 1.1734115
0.9853608 -0.0920192 1.2496759
0.9735278 -0.0468079 1.3279958
0.9529744 -0.0000000 1.4064187
0.9237890 0.0472229 1.4828270
0.8867412 0.0936158 1.5552060
0.8431833 0.1380289 1.6219015
0.7948378 0.1795412 1.6817930
0.9970774 -0.0452509 1.1740030
0.9895527 -0.0000000 1.2503093
0.9735278 0.0468079 1.3279958
0.9487589 0.0940280 1.4050667
0.9156701 0.1404236 1.4794693
0.8753268 0.1848214 1.5493566
0.8292780 0.2262543 1.6133076
0.9970774 0.0452509 1.1740030
0.9853608 0.0920192 1.2496759
0.9651195 0.1392108 1.3260334
0.9364405 0.1856144 1.4011160
0.9000543 0.2300481 1.4730113
0.8572446 0.2715052 1.5400902
0.9890223 0.1346559 1.1734115
0.9730979 0.1817481 1.2478229
0.9489364 0.2281275 1.3222565
0.9169346 0.2726222 1.3948602
0.8780597 0.3141970 1.4639152
0.9734809 0.2208998 1.1722703
0.9536392 0.2671706 1.2448826
0.9261191 0.3116991 1.3169312
0.8915667 0.3534397 1.3867243
0.9514840 0.3022717 1.1706550
0.9282591 0.3467469 1.2410477
0.8981086 0.3886350 1.3103938
0.9243482 0.3775514 1.1686624
0.8984215 0.4195015 1.2365391
0.8934833 0.4460434 1.1663959
0.8843609 0.4684844 1.1007856
0.9155431 0.4041691 1.1007856
0.9436656 0.3332671 1.1007856
0.9674250 0.2562435 1.1007856
0.9855385 0.1740275 1.1007856
0.9969076 0.0880175 1.1007856
1.0007856 0.0000000 1.1007856
0.9969076 -0.0880175 1.1007856
0.9855385 -0.1740275 1.1007856
0.9674250 -0.2562435 1.1007856
0.9436656 -0.3332671 1.1007856
0.9155431 -0.4041691 1.1007856
0.8843609 -0.4684844 1.1007856
0.8602326 -0.5075247 1.0376170
0.8655850 -0.4850029 0.9699937
0.8664267 -0.4582423 0.8985715
0.8618468 -0.4270725 0.8243785
0.8510949 -0.3915619 0.7488075
0.8337141 -0.3520702 0.6735395
0.8096526 -0.3092598 0.6003928
0.7793163 -0.2640526 0.5311241
0.7435400 -0.2175344 0.4672251
0.7034796 -0.1708290 0.4097678
0.6604563 -0.1249752 0.3593340
0.6157948 -0.0808338 0.3160344
0.5706934 -0.0390404 0.2795933
0.8934833 0.4460434 1.0351753
0.8984215 0.4195015 0.9650321
0.8981086 0.3886350 0.8911774
0.8915667 0.3534397 0.8148469
0.8780597 0.3141970 0.7376560
0.8572446 0.2715052 0.6614810
0.8292780 0.2262543 0.5882636
0.7948378 0.1795412 0.5197782
0.7550431 0.1325399 0.4574234
0.7112944 0.0863633 0.4020915
0.6650820 0.0419502 0.3541411
0.6178134 0.0000000 0.3134620
0.9243482 0.3775514 1.0329088
0.9282591 0.3467469 0.9605235
0.9261191 0.3116991 0.8846400
0.9169346 0.2726222 0.8067110
0.9000543 0.2300481 0.7285599
0.8753268 0.1848214 0.6522146
0.8431833 0.1380289 0.5796697
0.8046081 0.0908741 0.5126364
0.7609986 0.0445284 0.4523489
0.7139577 0.0000000 0.3994753
0.6650820 -0.0419502 0.3541411
0.9514840 0.3022717 1.0309162
0.9536392 0.2671706 0.9566885
0.9489364 0.2281275 0.8793147
0.9364405 0.1856144 0.8004552
0.9156701 0.1404236 0.7221019
0.8867412 0.0936158 0.6463652
0.8504035 0.0464036 0.5752074
0.8079458 0.0000000 0.5101966
0.7609986 -0.0445284 0.4523489
0.7112944 -0.0863633 0.4020915
0.9734809 0.2208998 1.0293009
0.9730979 0.1817481 0.9537483
0.9651195 0.1392108 0.8755378
0.9487589 0.0940280 0.7965045
0.9237890 0.0472229 0.7187442
0.8906464 0.0000000 0.6443639
0.8504035 -0.0464036 0.5752074
0.8046081 -0.0908741 0.5126364
0.7550431 -0.1325399 0.4574234
0.9890223 0.1346559 1.0281597
0.9853608 0.0920192 0.9518953
0.9735278 0.0468079 0.8735754
0.9529744 0.0000000 0.7951525
0.9237890 -0.0472229 0.7187442
0.8867412 -0.0936158 0.6463652
0.8431833 -0.1380289 0.5796697
0.7948378 -0.1795412 0.5197782
0.9970774 0.0452509 1.0275682
0.9895527 0.0000000 0.9512619
0.9735278 -0.0468079 0.8735754
0.9487589 -0.0940280 0.7965045
0.9156701 -0.1404236 0.7221019
0.8753268 -0.1848214 0.6522146
0.8292780 -0.2262543 0.5882636
0.9970774 -0.0452509 1.0275682
0.9853608 -0.0920192 0.9518953
0.9651195 -0.1392108 0.8755378
0.9364405 -0.1856144 0.8004552
0.9000543 -0.2300481 0.7285599
0.8572446 -0.2715052 0.6614810
0.9890223 -0.1346559 1.0281597
0.9730979 -0.1817481 0.9537483
0.9489364 -0.2281275 0.8793147
0.9169346 -0.2726222 0.8067110
0.8780597 -0.3141970 0.7376560
0.9734809 -0.2208998 1.0293009
0.9536392 -0.2671706 0.9566885
0.9261191 -0.3116991 0.8846400
0.8915667 -0.3534397 0.8148469
0.9514840 -0.3022717 1.0309162
0.9282591 -0.3467469 0.9605235
0.8981086 -0.3886350 0.8911774
0.9243482 -0.3775514 1.0329088
0.8984215 -0.4195015 0.9650321
0.8934833 -0.4460434 1.0351753
0.8211923 0.5706934 1.1398260
0.7847512 0.6157948 1.1816194
0.7414516 0.6604563 1.2257608
0.6910178 0.7034796 1.2716146
0.6335605 0.7435400 1.3183200
0.5696615 0.7793163 1.3648382
0.5003928 0.8096526 1.4100454
0.4272461 0.8337141 1.4528557
0.3519781 0.8510949 1.4923475
0.2764071 0.8618468 1.5278581
0.2022141 0.8664267 1.5590279
0.1307919 0.8655850 1.5857885
0.0631686 0.8602326 1.6083103
0.5522031 0.1061597 1.9286586
0.5293284 0.1777037 1.9313304
0.5016861 0.2527899 1.9290247
0.4691044 0.3301187 1.9208676
0.4317082 0.4080149 1.9062194
0.3899734 0.4845554 1.8848127
0.3447226 0.5577729 1.8568462
0.2970524 0.6258927 1.8229975
0.2482045 0.6875421 1.7843440
0.1994144 0.7418758 1.7422106
0.1517771 0.7885946 1.6979908
0.1061597 0.8278730 1.6529886
0.5972052 0.1517771 1.8893802
0.5736957 0.2269488 1.8887826
0.5448530 0.3052025 1.8828076
0.5105335 0.3849487 1.8706829
0.4709576 0.4642449 1.8519496
0.4267558 0.5409817 1.8265887
0.3789384 0.6131352 1.7950786
0.3287854 0.6790233 1.7583564
0.2776824 0.7374936 1.7176871
0.2269488 0.7879970 1.6744813
0.1777037 0.8305448 1.6301140
0.6414250 0.1994144 1.8426614
0.6169015 0.2776824 1.8382792
0.5864749 0.3583474 1.8282511
0.5500730 0.4395412 1.8119782
0.5080575 0.5191073 1.7892454
0.4612496 0.5948441 1.7603166
0.4108622 0.6647890 1.7259412
0.3583474 0.7274655 1.6872605
0.3052025 0.7820220 1.6456386
0.2527899 0.8282392 1.6024717
0.6835584 0.2482045 1.7883277
0.6575708 0.3287854 1.7798089
0.6251556 0.4108622 1.7655746
0.5863653 0.4923372 1.7452634
0.5417477 0.5709330 1.7189415
0.4923372 0.6444778 1.6871509
0.4395412 0.7111926 1.6508586
0.3849487 0.7698973 1.6113191
0.3301187 0.8200820 1.5698900
0.7222119 0.2970524 1.7266783
0.6942930 0.3789384 1.7139208
0.6595310 0.4612496 1.6956297
0.6181559 0.5417477 1.6717186
0.5709330 0.6181559 1.6425333
0.5191073 0.6884598 1.6088431
0.4642449 0.7511640 1.5717432
0.4080149 0.8054338 1.5324938
0.7560606 0.3447226 1.6585584
0.7258031 0.4267558 1.6417673
0.6884598 0.5080575 1.6198929
0.6444778 0.5863653 1.5931228
0.5948441 0.6595310 1.5620352
0.5409817 0.7258031 1.5275414
0.4845554 0.7840271 1.4907590
0.7840271 0.3899734 1.5853410
0.7511640 0.4709576 1.5650305
0.7111926 0.5500730 1.5403268
0.6647890 0.6251556 1.5116478
0.6131352 0.6942930 1.4797240
0.5577729 0.7560606 1.4455082
0.8054338 0.4317082 1.5088005
0.7698973 0.5105335 1.4857343
0.7274655 0.5864749 1.4591330
0.6790233 0.6575708 1.4295710
0.6258927 0.7222119 1.3978380
0.8200820 0.4691044 1.4309043
0.7820220 0.5448530 1.4059880
0.7374936 0.6169015 1.3784680
0.6875421 0.6835584 1.3489901
0.8282392 0.5016861 1.3535755
0.7879970 0.5736957 1.3277344
0.7418758 0.6414250 1.3002000
0.8305448 0.5293284 1.2784893
0.7885946 0.5972052 1.2525627
0.8278730 0.5522031 1.2069453
0.8602326 0.5075247 1.0376170
0.8655850 0.4850029 0.9699937
0.8664267 0.4582423 0.8985715
0.8618468 0.4270725 0.8243785
0.8510949 0.3915619 0.7488075
0.8337141 0.3520702 0.6735395
0.8096526 0.3092598 0.6003928
0.7793163 0.2640526 0.5311241
0.7435400 0.2175344 0.4672251
0.7034796 0.1708290 0.4097678
0.6604563 0.1249752 0.3593340
0.6157948 0.0808338 0.3160344
0.5706934 0.0390404 0.2795933
0.5075247 0.0631686 0.2405530
0.4850029 0.1307919 0.2352006
0.4582423 0.2022141 0.2343589
0.4270725 0.2764071 0.2389388
0.3915619 0.3519781 0.2496907
0.3520702 0.4272461 0.2670715
0.3092598 0.5003928 0.2911330
0.2640526 0.5696615 0.3214693
0.2175344 0.6335605 0.3572456
0.1708290 0.6910178 0.3973060
0.1249752 0.7414516 0.4403293
0.0808338 0.7847512 0.4849908
0.0390404 0.8211923 0.5300922
0.8278730 0.5522031 0.9946259
0.7885946 0.5972052 0.9490085
0.7418758 0.6414250 0.9013712
0.6875421 0.6835584 0.8525810
0.6258927 0.7222119 0.8037332
0.5577729 0.7560606 0.7560630
0.4845554 0.7840271 0.7108122
0.4080149 0.8054338 0.6690774
0.3301187 0.8200820 0.6316812
0.2527899 0.8282392 0.5990995
0.1777037 0.8305448 0.5714572
0.1061597 0.8278730 0.5485825
0.8305448 0.5293284 0.9230819
0.7879970 0.5736957 0.8738368
0.7374936 0.6169015 0.8231032
0.6790233 0.6575708 0.7720002
0.6131352 0.6942930 0.7218472
0.5409817 0.7258031 0.6740298
0.4642449 0.7511640 0.6298280
0.3849487 0.7698973 0.5902521
0.3052025 0.7820220 0.5559326
0.2269488 0.7879970 0.5270899
0.1517771 0.7885946 0.5035804
0.8282392 0.5016861 0.8479957
0.7820220 0.5448530 0.7955831
0.7274655 0.5864749 0.7424382
0.6647890 0.6251556 0.6899234
0.5948441 0.6595310 0.6395360
0.5191073 0.6884598 0.5927281
0.4395412 0.7111926 0.5507126
0.3583474 0.7274655 0.5143106
0.2776824 0.7374936 0.4838841
0.1994144 0.7418758 0.4593606
0.8200820 0.4691044 0.7706669
0.7698973 0.5105335 0.7158369
0.7111926 0.5500730 0.6612444
0.6444778 0.5863653 0.6084484
0.5709330 0.6181559 0.5590379
0.4923372 0.6444778 0.5144203
0.4108622 0.6647890 0.4756300
0.3287854 0.6790233 0.4432148
0.2482045 0.6875421 0.4172272
0.8054338 0.4317082 0.6927707
0.7511640 0.4709576 0.6365407
0.6884598 0.5080575 0.5816783
0.6181559 0.5417477 0.5298526
0.5417477 0.5709330 0.4826297
0.4612496 0.5948441 0.4412546
0.3789384 0.6131352 0.4064926
0.2970524 0.6258927 0.3785737
0.7840271 0.3899734 0.6162302
0.7258031 0.4267558 0.5598039
0.6595310 0.4612496 0.5059415
0.5863653 0.4923372 0.4563078
0.5080575 0.5191073 0.4123258
0.4267558 0.5409817 0.3749825
0.3447226 0.5577729 0.3447250
0.7560606 0.3447226 0.5430127
0.6942930 0.3789384 0.4876504
0.6251556 0.4108622 0.4359966
0.5500730 0.4395412 0.3895930
0.4709576 0.4642449 0.3496216
0.3899734 0.4845554 0.3167584
0.7222119 0.2970524 0.4748929
0.6575708 0.3287854 0.4217623
0.5864749 0.3583474 0.3733201
0.5105335 0.3849487 0.3308883
0.4317082 0.4080149 0.2953518
0.6835584 0.2482045 0.4132435
0.6169015 0.2776824 0.3632920
0.5448530 0.3052025 0.3187635
0.4691044 0.3301187 0.2807036
0.6414250 0.1994144 0.3589098
0.5736957 0.2269488 0.3127886
0.5016861 0.2527899 0.2725464
0.5972052 0.1517771 0.3121910
0.5293284 0.1777037 0.2702408
0.5522031 0.1061597 0.2729126
0.8211923 0.5706934 1.0617452
0.7847512 0.6157948 1.0199518
0.7414516 0.6604563 0.9758104
0.6910178 0.7034796 0.9299566
0.6335605 0.7435400 0.8832512
0.5696615 0.7793163 0.8367330
0.5003928 0.8096526 0.7915258
0.4272461 0.8337141 0.7487154
0.3519781 0.8510949 0.7092237
0.2764071 0.8618468 0.6737131
0.2022141 0.8664267 0.6425433
0.1307919 0.8655850 0.6157827
0.0631686 0.8602326 0.5932609
0.0656103 0.8934833 1.5468290
0.0678768 0.9243482 1.4783370
0.0698694 0.9514840 1.4030573
0.0714847 0.9734809 1.3216854
0.0726259 0.9890223 1.2354415
0.0732174 0.9970774 1.1460365
0.0732174 0.9970774 1.0555347
0.0726259 0.9890223 0.9661297
0.0714847 0.9734809 0.8798858
0.0698694 0.9514840 0.7985139
0.0678768 0.9243482 0.7232342
0.0656103 0.8934833 0.6547422
0.1357535 0.8984215 1.5202871
0.1402621 0.9282591 1.4475325
0.1440971 0.9536392 1.3679562
0.1470373 0.9730979 1.2825337
0.1488903 0.9853608 1.1928048
0.1495237 0.9895527 1.1007856
0.1488903 0.9853608 1.0087664
0.1470373 0.9730979 0.9190375
0.1440971 0.9536392 0.8336150
0.1402621 0.9282591 0.7540387
0.1357535 0.8984215 0.6812841
0.2096082 0.8981086 1.4894206
0.2161456 0.9261191 1.4124847
0.2214709 0.9489364 1.3289131
0.2252478 0.9651195 1.2399964
0.2272102 0.9735278 1.1475935
0.2272102 0.9735278 1.0539777
0.2252478 0.9651195 0.9615748
0.2214709 0.9489364 0.8726581
0.2161456 0.9261191 0.7890865
0.2096082 0.8981086 0.7121505
0.2859387 0.8915667 1.4542253
0.2940746 0.9169346 1.3734077
0.3003304 0.9364405 1.2864000
0.3042811 0.9487589 1.1948136
0.3056331 0.9529744 1.1007856
0.3042811 0.9487589 1.0067576
0.3003304 0.9364405 0.9151712
0.2940746 0.9169346 0.8281634
0.2859387 0.8915667 0.7473459
0.3631296 0.8780597 1.4149826
0.3722257 0.9000543 1.3308337
0.3786837 0.9156701 1.2412092
0.3820414 0.9237890 1.1480085
0.3820414 0.9237890 1.0535627
0.3786837 0.9156701 0.9603620
0.3722257 0.9000543 0.8707375
0.3631296 0.8780597 0.7865886
0.4393046 0.8572446 1.3722907
0.4485710 0.8753268 1.2856070
0.4544204 0.8867412 1.1944014
0.4564217 0.8906464 1.1007856
0.4544204 0.8867412 1.0071698
0.4485710 0.8753268 0.9159642
0.4393046 0.8572446 0.8292804
0.5125220 0.8292780 1.3270399
0.5211159 0.8431833 1.2388145
0.5255782 0.8504035 1.1471892
0.5255782 0.8504035 1.0543820
0.5211159 0.8431833 0.9627567
0.5125220 0.8292780 0.8745313
0.5810074 0.7948378 1.2803268
0.5881492 0.8046081 1.1916596
0.5905890 0.8079458 1.1007856
0.5881492 0.8046081 1.0099115
0.5810074 0.7948378 0.9212444
0.6433622 0.7550431 1.2333255
0.6484367 0.7609986 1.1453140
0.6484367 0.7609986 1.0562572
0.6433622 0.7550431 0.9682457
0.6986941 0.7112944 1.1871489
0.7013103 0.7139577 1.1007856
0.6986941 0.7112944 1.0144223
0.7466445 0.6650820 1.1427357
0.7466445 0.6650820 1.0588354
0.7873236 0.6178134 1.1007856
-0.8843609 0.4684844 1.1007856
-0.9155431 0.4041691 1.1007856
-0.9436656 0.3332671 1.1007856
-0.9674250 0.2562435 1.1007856
-0.9855385 0.1740275 1.1007856
-0.9969076 0.0880175 1.1007856
-1.0007856 0.0000000 1.1007856
-0.9969076 -0.0880175 1.1007856
-0.9855385 -0.1740275 1.1007856
-0.9674250 -0.2562435 1.1007856
-0.9436656 -0.3332671 1.1007856
-0.9155431 -0.4041691 1.1007856
-0.8843609 -0.4684844 1.1007856
-0.8602326 -0.5075247 1.1639542
-0.8655850 -0.4850029 1.2315775
-0.8664267 -0.4582423 1.3029997
-0.8618468 -0.4270725 1.3771927
-0.8510949 -0.3915619 1.4527636
-0.8337141 -0.3520702 1.5280317
-0.8096526 -0.3092598 1.6011784
-0.7793163 -0.2640526 1.6704471
-0.7435400 -0.2175344 1.7343461
-0.7034796 -0.1708290 1.7918034
-0.6604563 -0.1249752 1.8422372
-0.6157948 -0.0808338 1.8855368
-0.5706934 -0.0390404 1.9219779
-0.8934833 0.4460434 1.1663959
-0.8984215 0.4195015 1.2365391
-0.8981086 0.3886350 1.3103938
-0.8915667 0.3534397 1.3867243
-0.8780597 0.3141970 1.4639152
-0.8572446 0.2715052 1.5400902
-0.8292780 0.2262543 1.6133076
-0.7948378 0.1795412 1.6817930
-0.7550431 0.1325399 1.7441478
-0.7112944 0.0863633 1.7994797
-0.6650820 0.0419502 1.8474301
-0.6178134 0.0000000 1.8881092
-0.9243482 0.3775514 1.1686624
-0.9282591 0.3467469 1.2410477
-0.9261191 0.3116991 1.3169312
-0.9169346 0.2726222 1.3948602
-0.9000543 0.2300481 1.4730113
-0.8753268 0.1848214 1.5493566
-0.8431833 0.1380289 1.6219015
-0.8046081 0.0908741 1.6889348
-0.7609986 0.0445284 1.7492223
-0.7139577 0.0000000 1.8020959
-0.6650820 -0.0419502 1.8474301
-0.9514840 0.3022717 1.1706550
-0.9536392 0.2671706 1.2448826
-0.9489364 0.2281275 1.3222565
-0.9364405 0.1856144 1.4011160
-0.9156701 0.1404236 1.4794693
-0.8867412 0.0936158 1.5552060
-0.8504035 0.0464036 1.6263638
-0.8079458 0.0000000 1.6913746
-0.7609986 -0.0445284 1.7492223
-0.7112944 -0.0863633 1.7994797
-0.9734809 0.2208998 1.1722703
-0.9730979 0.1817481 1.2478229
-0.9651195 0.1392108 1.3260334
-0.9487589 0.0940280 1.4050667
-0.9237890 0.0472229 1.4828270
-0.8906464 0.0000000 1.5572073
-0.8504035 -0.0464036 1.6263638
-0.8046081 -0.0908741 1.6889348
-0.7550431 -0.1325399 1.7441478
-0.9890223 0.1346559 1.1734115
-0.9853608 0.0920192 1.2496759
-0.9735278 0.0468079 1.3279958
-0.9529744 0.0000000 1.4064187
-0.9237890 -0.0472229 1.4828270
-0.8867412 -0.0936158 1.5552060
-0.8431833 -0.1380289 1.6219015
-0.7948378 -0.1795412 1.6817930
-0.9970774 0.0452509 1.1740030
-0.9895527 0.0000000 1.2503093
-0.9735278 -0.0468079 1.3279958
-0.9487589 -0.0940280 1.4050667
-0.9156701 -0.1404236 1.4794693
-0.8753268 -0.1848214 1.5493566
-0.8292780 -0.2262543 1.6133076
-0.9970774 -0.0452509 1.1740030
-0.9853608 -0.0920192 1.2496759
-0.9651195 -0.1392108 1.3260334
-0.9364405 -0.1856144 1.4011160
-0.9000543 -0.2300481 1.4730113
-0.8572446 -0.2715052 1.5400902
-0.9890223 -0.1346559 1.1734115
-0.9730979 -0.1817481 1.2478229
-0.9489364 -0.2281275 1.3222565
-0.9169346 -0.2726222 1.3948602
-0.8780597 -0.3141970 1.4639152
-0.9734809 -0.2208998 1.1722703
-0.9536392 -0.2671706 1.2448826
-0.9261191 -0.3116991 1.3169312
-0.8915667 -0.3534397 1.3867243
-0.9514840 -0.3022717 1.1706550
-0.9282591 -0.3467469 1.2410477
-0.8981086 -0.3886350 1.3103938
-0.9243482 -0.3775514 1.1686624
-0.8984215 -0.4195015 1.2365391
-0.8934833 -0.4460434 1.1663959
-0.8602326 0.5075247 1.0376170
-0.8655850 0.4850029 0.9699937
-0.8664267 0.4582423 0.8985715
-0.8618468 0.4270725 0.8243785
-0.8510949 0.3915619 0.7488075
-0.8337141 0.3520702 0.6735395
-0.8096526 0.3092598 0.6003928
-0.7793163 0.2640526 0.5311241
-0.7435400 0.2175344 0.4672251
-0.7034796 0.1708290 0.4097678
-0.6604563 0.1249752 0.3593340
-0.6157948 0.0808338 0.3160344
-0.5706934 0.0390404 0.2795933
-0.8934833 -0.4460434 1.0351753
-0.8984215 -0.4195015 0.9650321
-0.8981086 -0.3886350 0.8911774
-0.8915667 -0.3534397 0.8148469
-0.8780597 -0.3141970 0.7376560
-0.8572446 -0.2715052 0.6614810
-0.8292780 -0.2262543 0.5882636
-0.7948378 -0.1795412 0.5197782
-0.7550431 -0.1325399 0.4574234
-0.7112944 -0.0863633 0.4020915
-0.6650820 -0.0419502 0.3541411
-0.6178134 -0.0000000 0.3134620
-0.9243482 -0.3775514 1.0329088
-0.9282591 -0.3467469 0.9605235
-0.9261191 -0.3116991 0.8846400
-0.9169346 -0.2726222 0.8067110
-0.9000543 -0.2300481 0.7285599
-0.8753268 -0.1848214 0.6522146
-0.8431833 -0.1380289 0.5796697
-0.8046081 -0.0908741 0.5126364
-0.7609986 -0.0445284 0.4523489
-0.7139577 -0.0000000 0.3994753
-0.6650820 0.0419502 0.3541411
-0.9514840 -0.3022717 1.0309162
-0.9536392 -0.2671706 0.9566885
-0.9489364 -0.2281275 0.8793147
-0.9364405 -0.1856144 0.8004552
-0.9156701 -0.1404236 0.7221019
-0.8867412 -0.0936158 0.6463652
-0.8504035 -0.0464036 0.5752074
-0.8079458 0.0000000 0.5101966
-0.7609986 0.0445284 0.4523489
-0.7112944 0.0863633 0.4020915
-0.9734809 -0.2208998 1.0293009
-0.9730979 -0.1817481 0.9537483
-0.9651195 -0.1392108 0.8755378
-0.9487589 -0.0940280 0.7965045
-0.9237890 -0.0472229 0.7187442
-0.8906464 -0.0000000 0.6443639
-0.8504035 0.0464036 0.5752074
-0.8046081 0.0908741 0.5126364
-0.7550431 0.1325399 0.4574234
-0.9890223 -0.1346559 1.0281597
-0.9853608 -0.0920192 0.9518953
-0.9735278 -0.0468079 0.8735754
-0.9529744 -0.0000000 0.7951525
-0.9237890 0.0472229 0.7187442
-0.8867412 0.0936158 0.6463652
-0.8431833 0.1380289 0.5796697
-0.7948378 0.1795412 0.5197782
-0.9970774 -0.0452509 1.0275682
-0.9895527 -0.0000000 0.9512619
-0.9735278 0.0468079 0.8735754
-0.9487589 0.0940280 0.7965045
-0.9156701 0.1404236 0.7221019
-0.8753268 0.1848214 0.6522146
-0.8292780 0.2262543 0.5882636
-0.9970774 0.0452509 1.0275682
-0.9853608 0.0920192 0.9518953
-0.9651195 0.1392108 0.8755378
-0.9364405 0.1856144 0.8004552
-0.9000543 0.2300481 0.7285599
-0.8572446 0.2715052 0.6614810
-0.9890223 0.1346559 1.0281597
-0.9730979 0.1817481 0.9537483
-0.9489364 0.2281275 0.8793147
-0.9169346 0.2726222 0.8067110
-0.8780597 0.3141970 0.7376560
-0.9734809 0.2208998 1.0293009
-0.9536392 0.2671706 0.9566885
-0.9261191 0.3116991 0.8846400
-0.8915667 0.3534397 0.8148469
-0.9514840 0.3022717 1.0309162
-0.9282591 0.3467469 0.9605235
-0.8981086 0.3886350 0.8911774
-0.9243482 0.3775514 1.0329088
-0.8984215 0.4195015 0.9650321
-0.8934833 0.4460434 1.0351753
-0.8602326 0.5075247 1.1639542
-0.8655850 0.4850029 1.2315775
-0.8664267 0.4582423 1.3029997
-0.8618468 0.4270725 1.3771927
-0.8510949 0.3915619 1.4527636
-0.8337141 0.3520702 1.5280317
-0.8096526 0.3092598 1.6011784
-0.7793163 0.2640526 1.6704471
-0.7435400 0.2175344 1.7343461
-0.7034796 0.1708290 1.7918034
-0.6604563 0.1249752 1.8422372
-0.6157948 0.0808338 1.8855368
-0.5706934 0.0390404 1.9219779
-0.5075247 0.0631686 1.9610182
-0.4850029 0.1307919 1.9663706
-0.4582423 0.2022141 1.9672123
-0.4270725 0.2764071 1.9626324
-0.3915619 0.3519781 1.9518805
-0.3520702 0.4272461 1.9344997
-0.3092598 0.5003928 1.9104381
-0.2640526 0.5696615 1.8801019
-0.2175344 0.6335605 1.8443256
-0.1708290 0.6910178 1.8042652
-0.1249752 0.7414516 1.7612419
-0.0808338 0.7847512 1.7165804
-0.0390404 0.8211923 1.6714790
-0.8278730 0.5522031 1.2069453
-0.7885946 0.5972052 1.2525627
-0.7418758 0.6414250 1.3002000
-0.6875421 0.6835584 1.3489901
-0.6258927 0.7222119 1.3978380
-0.5577729 0.7560606 1.4455082
-0.4845554 0.7840271 1.4907590
-0.4080149 0.8054338 1.5324938
-0.3301187 0.8200820 1.5698900
-0.2527899 0.8282392 1.6024717
-0.1777037 0.8305448 1.6301140
-0.1061597 0.8278730 1.6529886
-0.8305448 0.5293284 1.2784893
-0.7879970 0.5736957 1.3277344
-0.7374936 0.6169015 1.3784680
-0.6790233 0.6575708 1.4295710
-0.6131352 0.6942930 1.4797240
-0.5409817 0.7258031 1.5275414
-0.4642449 0.7511640 1.5717432
-0.3849487 0.7698973 1.6113191
-0.3052025 0.7820220 1.6456386
-0.2269488 0.7879970 1.6744813
-0.1517771 0.7885946 1.6979908
-0.8282392 0.5016861 1.3535755
-0.7820220 0.5448530 1.4059880
-0.7274655 0.5864749 1.4591330
-0.6647890 0.6251556 1.5116478
-0.5948441 0.6595310 1.5620352
-0.5191073 0.6884598 1.6088431
-0.4395412 0.7111926 1.6508586
-0.3583474 0.7274655 1.6872605
-0.2776824 0.7374936 1.7176871
-0.1994144 0.7418758 1.7422106
-0.8200820 0.4691044 1.4309043
-0.7698973 0.5105335 1.4857343
-0.7111926 0.5500730 1.5403268
-0.6444778 0.5863653 1.5931228
-0.5709330 0.6181559 1.6425333
-0.4923372 0.6444778 1.6871509
-0.4108622 0.6647890 1.7259412
-0.3287854 0.6790233 1.7583564
-0.2482045 0.6875421 1.7843440
-0.8054338 0.4317082 1.5088005
-0.7511640 0.4709576 1.5650305
-0.6884598 0.5080575 1.6198929
-0.6181559 0.5417477 1.6717186
-0.5417477 0.5709330 1.7189415
-0.4612496 0.5948441 1.7603166
-0.3789384 0.6131352 1.7950786
-0.2970524 0.6258927 1.8229975
-0.7840271 0.3899734 1.5853410
-0.7258031 0.4267558 1.6417673
-0.6595310 0.4612496 1.6956297
-0.5863653 0.4923372 1.7452634
-0.5080575 0.5191073 1.7892454
-0.4267558 0.5409817 1.8265887
-0.3447226 0.5577729 1.8568462
-0.7560606 0.3447226 1.6585584
-0.6942930 0.3789384 1.7139208
-0.6251556 0.4108622 1.7655746
-0.5500730 0.4395412 1.8119782
-0.4709576 0.4642449 1.8519496
-0.3899734 0.4845554 1.8848127
-0.7222119 0.2970524 1.7266783
-0.6575708 0.3287854 1.7798089
-0.5864749 0.3583474 1.8282511
-0.5105335 0.3849487 1.8706829
-0.4317082 0.4080149 1.9062194
-0.6835584 0.2482045 1.7883277
-0.6169015 0.2776824 1.8382792
-0.5448530 0.3052025 1.8828076
-0.4691044 0.3301187 1.9208676
-0.6414250 0.1994144 1.8426614
-0.5736957 0.2269488 1.8887826
-0.5016861 0.2527899 1.9290247
-0.5972052 0.1517771 1.8893802
-0.5293284 0.1777037 1.9313304
-0.5522031 0.1061597 1.9286586
-0.8211923 0.5706934 1.0617452
-0.7847512 0.6157948 1.0199518
-0.7414516 0.6604563 0.9758104
-0.6910178 0.7034796 0.9299566
-0.6335605 0.7435400 0.8832512
-0.5696615 0.7793163 0.8367330
-0.5003928 0.8096526 0.7915258
-0.4272461 0.8337141 0.7487154
-0.3519781 0.8510949 0.7092237
-0.2764071 0.8618468 0.6737131
-0.2022141 0.8664267 0.6425433
-0.1307919 0.8655850 0.6157827
-0.0631686 0.8602326 0.5932609
-0.5522031 0.1061597 0.2729126
-0.5293284 0.1777037 0.2702408
-0.5016861 0.2527899 0.2725464
-0.4691044 0.3301187 0.2807036
-0.4317082 0.4080149 0.2953518
-0.3899734 0.4845554 0.3167584
-0.3447226 0.5577729 0.3447250
-0.2970524 0.6258927 0.3785737
-0.2482045 0.6875421 0.4172272
-0.1994144 0.7418758 0.4593606
-0.1517771 0.7885946 0.5035804
-0.1061597 0.8278730 0.5485825
-0.5972052 0.1517771 0.3121910
-0.5736957 0.2269488 0.3127886
-0.5448530 0.3052025 0.3187635
-0.5105335 0.3849487 0.3308883
-0.4709576 0.4642449 0.3496216
-0.4267558 0.5409817 0.3749825
-0.3789384 0.6131352 0.4064926
-0.3287854 0.6790233 0.4432148
-0.2776824 0.7374936 0.4838841
-0.2269488 0.7879970 0.5270899
-0.1777037 0.8305448 0.5714572
-0.6414250 0.1994144 0.3589098
-0.6169015 0.2776824 0.3632920
-0.5864749 0.3583474 0.3733201
-0.5500730 0.4395412 0.3895930
-0.5080575 0.5191073 0.4123258
-0.4612496 0.5948441 0.4412546
-0.4108622 0.6647890 0.4756300
-0.3583474 0.7274655 0.5143106
-0.3052025 0.7820220 0.5559326
-0.2527899 0.8282392 0.5990995
-0.6835584 0.2482045 0.4132435
-0.6575708 0.3287854 0.4217623
-0.6251556 0.4108622 0.4359966
-0.5863653 0.4923372 0.4563078
-0.5417477 0.5709330 0.4826297
-0.4923372 0.6444778 0.5144203
-0.4395412 0.7111926 0.5507126
-0.3849487 0.7698973 0.5902521
-0.3301187 0.8200820 0.6316812
-0.7222119 0.2970524 0.4748929
-0.6942930 0.3789384 0.4876504
-0.6595310 0.4612496 0.5059415
-0.6181559 0.5417477 0.5298526
-0.5709330 0.6181559 0.5590379
-0.5191073 0.6884598 0.5927281
-0.4642449 0.7511640 0.6298280
-0.4080149 0.8054338 0.6690774
-0.7560606 0.3447226 0.5430127
-0.7258031 0.4267558 0.5598039
-0.6884598 0.5080575 0.5816783
-0.6444778 0.5863653 0.6084484
-0.5948441 0.6595310 0.6395360
-0.5409817 0.7258031 0.6740298
-0.4845554 0.7840271 0.7108122
-0.7840271 0.3899734 0.6162302
-0.7511640 0.4709576 0.6365407
-0.7111926 0.5500730 0.6612444
-0.6647890 0.6251556 0.6899234
-0.6131352 0.6942930 0.7218472
-0.5577729 0.7560606 0.7560630
-0.8054338 0.4317082 0.6927707
-0.7698973 0.5105335 0.7158369
-0.7274655 0.5864749 0.7424382
-0.6790233 0.6575708 0.7720002
-0.6258927 0.7222119 0.8037332
-0.8200820 0.4691044 0.7706669
-0.7820220 0.5448530 0.7955831
-0.7374936 0.6169015 0.8231032
-0.6875421 0.6835584 0.8525810
-0.8282392 0.5016861 0.8479957
-0.7879970 0.5736957 0.8738368
-0.7418758 0.6414250 0.9013712
-0.8305448 0.5293284 0.9230819
-0.7885946 0.5972052 0.9490085
-0.8278730 0.5522031 0.9946259
-0.8211923 0.5706934 1.1398260
-0.7847512 0.6157948 1.1816194
-0.7414516 0.6604563 1.2257608
-0.6910178 0.7034796 1.2716146
-0.6335605 0.7435400 1.3183200
-0.5696615 0.7793163 1.3648382
-0.5003928 0.8096526 1.4100454
-0.4272461 0.8337141 1.4528557
-0.3519781 0.8510949 1.4923475
-0.2764071 0.8618468 1.5278581
-0.2022141 0.8664267 1.5590279
-0.1307919 0.8655850 1.5857885
-0.0631686 0.8602326 1.6083103
0.0000000 0.8843609 1.5692700
0.0000000 0.9155431 1.5049547
0.0000000 0.9436656 1.4340527
0.0000000 0.9674250 1.3570291
0.0000000 0.9855385 1.2748131
0.0000000 0.9969076 1.1888031
0.0000000 1.0007856 1.1007856
0.0000000 0.9969076 1.0127681
0.0000000 0.9855385 0.9267581
0.0000000 0.9674250 0.8445421
0.0000000 0.9436656 0.7675185
0.0000000 0.9155431 0.6966165
0.0000000 0.8843609 0.6323012
-0.7873236 0.6178134 1.1007856
-0.7466445 0.6650820 1.0588354
-0.6986941 0.7112944 1.0144223
-0.6433622 0.7550431 0.9682457
-0.5810074 0.7948378 0.9212444
-0.5125220 0.8292780 0.8745313
-0.4393046 0.8572446 0.8292804
-0.3631296 0.8780597 0.7865886
-0.2859387 0.8915667 0.7473459
-0.2096082 0.8981086 0.7121505
-0.1357535 0.8984215 0.6812841
-0.0656103 0.8934833 0.6547422
-0.7466445 0.6650820 1.1427357
-0.7013103 0.7139577 1.1007856
-0.6484367 0.7609986 1.0562572
-0.5881492 0.8046081 1.0099115
-0.5211159 0.8431833 0.9627567
-0.4485710 0.8753268 0.9159642
-0.3722257 0.9000543 0.8707375
-0.2940746 0.9169346 0.8281634
-0.2161456 0.9261191 0.7890865
-0.1402621 0.9282591 0.7540387
-0.0678768 0.9243482 0.7232342
-0.6986941 0.7112944 1.1871489
-0.6484367 0.7609986 1.1453140
-0.5905890 0.8079458 1.1007856
-0.5255782 0.8504035 1.0543820
-0.4544204 0.8867412 1.0071698
-0.3786837 0.9156701 0.9603620
-0.3003304 0.9364405 0.9151712
-0.2214709 0.9489364 0.8726581
-0.1440971 0.9536392 0.8336150
-0.0698694 0.9514840 0.7985139
-0.6433622 0.7550431 1.2333255
-0.5881492 0.8046081 1.1916596
-0.5255782 0.8504035 1.1471892
-0.4564217 0.8906464 1.1007856
-0.3820414 0.9237890 1.0535627
-0.3042811 0.9487589 1.0067576
-0.2252478 0.9651195 0.9615748
-0.1470373 0.9730979 0.9190375
-0.0714847 0.9734809 0.8798858
-0.5810074 0.7948378 1.2803268
-0.5211159 0.8431833 1.2388145
-0.4544204 0.8867412 1.1944014
-0.3820414 0.9237890 1.1480085
-0.3056331 0.9529744 1.1007856
-0.2272102 0.9735278 1.0539777
-0.1488903 0.9853608 1.0087664
-0.0726259 0.9890223 0.9661297
-0.5125220 0.8292780 1.3270399
-0.4485710 0.8753268 1.2856070
-0.3786837 0.9156701 1.2412092
-0.3042811 0.9487589 1.1948136
-0.2272102 0.9735278 1.1475935
-0.1495237 0.9895527 1.1007856
-0.0732174 0.9970774 1.0555347
-0.4393046 0.8572446 1.3722907
-0.3722257 0.9000543 1.3308337
-0.3003304 0.9364405 1.2864000
-0.2252478 0.9651195 1.2399964
-0.1488903 0.9853608 1.1928048
-0.0732174 0.9970774 1.1460365
-0.3631296 0.8780597 1.4149826
-0.2940746 0.9169346 1.3734077