# TIME = 0.000000
VARIABLES = X, Y, Z, U, V, W
ZONE N=2562 E=5120 F=FEPOINT ET=TRIANGLE
0.8511625 0.5260474 1.1006015
-0.8511625 0.5260474 1.1006015
0.8511625 -0.5260474 1.1006015
-0.8511625 -0.5260474 1.1006015
0.5260474 0.0000000 1.9517640
0.5260474 0.0000000 0.2494390
-0.5260474 0.0000000 1.9517640
-0.5260474 0.0000000 0.2494390
0.0000000 0.8511625 1.6266489
0.0000000 -0.8511625 1.6266489
0.0000000 0.8511625 0.5745542
0.0000000 -0.8511625 0.5745542
0.8591359 0.5099636 1.1556108
0.8644735 0.4909296 1.2140788
0.8665402 0.4687033 1.2756118
0.8647077 0.4431291 1.3396009
0.8584125 0.4141759 1.4052155
0.8472249 0.3819711 1.4714269
0.8309150 0.3468198 1.5370642
0.8095036 0.3092029 1.6009023
0.7832825 0.2697488 1.6617678
0.7527965 0.2291827 1.7186438
0.7187899 0.1882618 1.7707523
0.6821284 0.1477097 1.8175995
0.6437136 0.1081623 1.8589795
0.6044068 0.0701328 1.8949423
0.5649728 0.0339976 1.9257399
0.8883305 -0.4569871 1.1574800
0.8934751 -0.4349138 1.2178857
0.8948731 -0.4095624 1.2813340
0.8918436 -0.3808627 1.3471010
0.8838067 -0.3488959 1.4142268
0.8703628 -0.3139222 1.4815542
0.8513646 -0.2763875 1.5478059
0.8269622 -0.2369036 1.6116923
0.7976073 -0.1962014 1.6720305
0.7640125 -0.1550649 1.7278521
0.7270734 -0.1142588 1.7784752
0.6877720 -0.0744659 1.8235316
0.6470829 -0.0362428 1.8629489
0.6058970 0.0000000 1.8969007
0.9158744 -0.3986710 1.1592436
0.9204368 -0.3733648 1.2214249
0.9207337 -0.3447803 1.2865570
0.9160530 -0.3129611 1.3537924
0.9058290 -0.2781252 1.4220416
0.8897306 -0.2406809 1.4900314
0.8677328 -0.2012152 1.5564038
0.8401476 -0.1604539 1.6198413
0.8076056 -0.1191965 1.6791936
0.7709876 -0.0782403 1.7335786
0.7313239 -0.0383089 1.7824381
0.6896846 0.0000000 1.8255419
0.6470829 0.0362428 1.8629489
0.9408955 -0.3350965 1.1608457
0.9444099 -0.3064714 1.2245718
0.9431182 -0.2746820 1.2910779
0.9363088 -0.2399110 1.3593909
0.9234704 -0.2025299 1.4283018
0.9043842 -0.1630965 1.4964452
0.8791844 -0.1223224 1.5624191
0.8483682 -0.0810120 1.6249219
0.8127479 -0.0399852 1.6828777
0.7733555 0.0000000 1.7355226
0.7313239 0.0383089 1.7824381
0.6877720 0.0744659 1.8235316
0.9624594 -0.2666039 1.1622264
0.9644082 -0.2347208 1.2271970
0.9610210 -0.1999258 1.2946936
0.9516286 -0.1625576 1.3636252
0.9358206 -0.1231431 1.4326843
0.9135317 -0.0823731 1.5004490
0.8850829 -0.0410477 1.5655175
0.8511625 0.0000000 1.6266489
0.8127479 0.0399852 1.6828777
0.7709876 0.0782403 1.7335786
0.7270734 0.1142588 1.7784752
0.9796420 -0.1938311 1.1633266
0.9794965 -0.1589287 1.2291775
0.9735386 -0.1215179 1.2972217
0.9611895 -0.0820954 1.3662678
0.9421845 -0.0413268 1.4349426
0.9166431 0.0000000 1.5018108
0.8850829 0.0410477 1.5655175
0.8483682 0.0810120 1.6249219
0.8076056 0.1191965 1.6791936
0.7640125 0.1550649 1.7278521
0.9916219 -0.1177208 1.1640936
0.9888966 -0.0802270 1.2304115
0.9799836 -0.0407741 1.2985233
0.9644411 0.0000000 1.3671665
0.9421845 0.0413268 1.4349426
0.9135317 0.0823731 1.5004490
0.8791844 0.1223224 1.5624191
0.8401476 0.1604539 1.6198413
0.7976073 0.1962014 1.6720305
0.9977790 -0.0394839 1.1644879
0.9920906 0.0000000 1.2308308
0.9799836 0.0407741 1.2985233
0.9611895 0.0820954 1.3662678
0.9358206 0.1231431 1.4326843
0.9043842 0.1630965 1.4964452
0.8677328 0.2012152 1.5564038
0.8269622 0.2369036 1.6116923
0.9977790 0.0394839 1.1644879
0.9888966 0.0802270 1.2304115
0.9735386 0.1215179 1.2972217
0.9516286 0.1625576 1.3636252
0.9234704 0.2025299 1.4283018
0.8897306 0.2406809 1.4900314
0.8513646 0.2763875 1.5478059
0.9916219 0.1177208 1.1640936
0.9794965 0.1589287 1.2291775
0.9610210 0.1999258 1.2946936
0.9363088 0.2399110 1.3593909
0.9058290 0.2781252 1.4220416
0.8703628 0.3139222 1.4815542
0.9796420 0.1938311 1.1633266
0.9644082 0.2347208 1.2271970
0.9431182 0.2746820 1.2910779
0.9160530 0.3129611 1.3537924
0.8838067 0.3488959 1.4142268
0.9624594 0.2666039 1.1622264
0.9444099 0.3064714 1.2245718
0.9207337 0.3447803 1.2865570
0.8918436 0.3808627 1.3471010
0.9408955 0.3350965 1.1608457
0.9204368 0.3733648 1.2214249
0.8948731 0.4095624 1.2813340
0.9158744 0.3986710 1.1592436
0.8934751 0.4349138 1.2178857
0.8883305 0.4569871 1.1574800
0.8801476 0.4759660 1.1006015
0.9078180 0.4207968 1.1006015
0.9333882 0.3605410 1.1006015
0.9559973 0.2954194 1.1006015
0.9747647 0.2259141 1.1006015
0.9888676 0.1527884 1.1006015
0.9976289 0.0770711 1.1006015
1.0006015 0.0000000 1.1006015
0.9976289 -0.0770711 1.1006015
0.9888676 -0.1527884 1.1006015
0.9747647 -0.2259141 1.1006015
0.9559973 -0.2954194 1.1006015
0.9333882 -0.3605410 1.1006015
0.9078180 -0.4207968 1.1006015
0.8801476 -0.4759660 1.1006015
0.8591359 -0.5099636 1.0455923
0.8644735 -0.4909296 0.9871243
0.8665402 -0.4687033 0.9255912
0.8647077 -0.4431291 0.8616022
0.8584125 -0.4141759 0.7959876
0.8472249 -0.3819711 0.7297762
0.8309150 -0.3468198 0.6641389
0.8095036 -0.3092029 0.6003008
0.7832825 -0.2697488 0.5394353
0.7527965 -0.2291827 0.4825593
0.7187899 -0.1882618 0.4304508
0.6821284 -0.1477097 0.3836036
0.6437136 -0.1081623 0.3422236
0.6044068 -0.0701328 0.3062608
0.5649728 -0.0339976 0.2754632
0.8883305 0.4569871 1.0437230
0.8934751 0.4349138 0.9833173
0.8948731 0.4095624 0.9198690
0.8918436 0.3808627 0.8541020
0.8838067 0.3488959 0.7869763
0.8703628 0.3139222 0.7196489
0.8513646 0.2763875 0.6533972
0.8269622 0.2369036 0.5895108
0.7976073 0.1962014 0.5291726
0.7640125 0.1550649 0.4733510
0.7270734 0.1142588 0.4227279
0.6877720 0.0744659 0.3776715
0.6470829 0.0362428 0.3382541
0.6058970 0.0000000 0.3043024
0.9158744 0.3986710 1.0419594
0.9204368 0.3733648 0.9797781
0.9207337 0.3447803 0.9146461
0.9160530 0.3129611 0.8474107
0.9058290 0.2781252 0.7791615
0.8897306 0.2406809 0.7111717
0.8677328 0.2012152 0.6447993
0.8401476 0.1604539 0.5813618
0.8076056 0.1191965 0.5220095
0.7709876 0.0782403 0.4676244
0.7313239 0.0383089 0.4187649
0.6896846 0.0000000 0.3756611
0.6470829 -0.0362428 0.3382541
0.9408955 0.3350965 1.0403574
0.9444099 0.3064714 0.9766312
0.9431182 0.2746820 0.9101252
0.9363088 0.2399110 0.8418121
0.9234704 0.2025299 0.7729013
0.9043842 0.1630965 0.7047579
0.8791844 0.1223224 0.6387840
0.8483682 0.0810120 0.5762811
0.8127479 0.0399852 0.5183254
0.7733555 0.0000000 0.4656805
0.7313239 -0.0383089 0.4187649
0.6877720 -0.0744659 0.3776715
0.9624594 0.2666039 1.0389767
0.9644082 0.2347208 0.9740061
0.9610210 0.1999258 0.9065095
0.9516286 0.1625576 0.8375779
0.9358206 0.1231431 0.7685187
0.9135317 0.0823731 0.7007541
0.8850829 0.0410477 0.6356856
0.8511625 0.0000000 0.5745542
0.8127479 -0.0399852 0.5183254
0.7709876 -0.0782403 0.4676244
0.7270734 -0.1142588 0.4227279
0.9796420 0.1938311 1.0378765
0.9794965 0.1589287 0.9720255
0.9735386 0.1215179 0.9039814
0.9611895 0.0820954 0.8349353
0.9421845 0.0413268 0.7662605
0.9166431 0.0000000 0.6993923
0.8850829 -0.0410477 0.6356856
0.8483682 -0.0810120 0.5762811
0.8076056 -0.1191965 0.5220095
0.7640125 -0.1550649 0.4733510
0.9916219 0.1177208 1.0371094
0.9888966 0.0802270 0.9707916
0.9799836 0.0407741 0.9026797
0.9644411 0.0000000 0.8340366
0.9421845 -0.0413268 0.7662605
0.9135317 -0.0823731 0.7007541
0.8791844 -0.1223224 0.6387840
0.8401476 -0.1604539 0.5813618
0.7976073 -0.1962014 0.5291726
0.9977790 0.0394839 1.0367152
0.9920906 0.0000000 0.9703723
0.9799836 -0.0407741 0.9026797
0.9611895 -0.0820954 0.8349353
0.9358206 -0.1231431 0.7685187
0.9043842 -0.1630965 0.7047579
0.8677328 -0.2012152 0.6447993
0.8269622 -0.2369036 0.5895108
0.9977790 -0.0394839 1.0367152
0.9888966 -0.0802270 0.9707916
0.9735386 -0.1215179 0.9039814
0.9516286 -0.1625576 0.8375779
0.9234704 -0.2025299 0.7729013
0.8897306 -0.2406809 0.7111717
0.8513646 -0.2763875 0.6533972
0.9916219 -0.1177208 1.0371094
0.9794965 -0.1589287 0.9720255
0.9610210 -0.1999258 0.9065095
0.9363088 -0.2399110 0.8418121
0.9058290 -0.2781252 0.7791615
0.8703628 -0.3139222 0.7196489
0.9796420 -0.1938311 1.0378765
0.9644082 -0.2347208 0.9740061
0.9431182 -0.2746820 0.9101252
0.9160530 -0.3129611 0.8474107
0.8838067 -0.3488959 0.7869763
0.9624594 -0.2666039 1.0389767
0.9444099 -0.3064714 0.9766312
0.9207337 -0.3447803 0.9146461
0.8918436 -0.3808627 0.8541020
0.9408955 -0.3350965 1.0403574
0.9204368 -0.3733648 0.9797781
0.8948731 -0.4095624 0.9198690
0.9158744 -0.3986710 1.0419594
0.8934751 -0.4349138 0.9833173
0.8883305 -0.4569871 1.0437230
0.8251384 0.5649728 1.1345991
0.7943407 0.6044068 1.1707343
0.7583779 0.6437136 1.2087638
0.7169980 0.6821284 1.2483112
0.6701507 0.7187899 1.2888633
0.6180422 0.7527965 1.3297842
0.5611663 0.7832825 1.3703503
0.5003008 0.8095036 1.4098044
0.4364627 0.8309150 1.4474214
0.3708253 0.8472249 1.4825726
0.3046140 0.8584125 1.5147775
0.2389993 0.8647077 1.5437306
0.1750103 0.8665402 1.5693049
0.1134772 0.8644735 1.5915311
0.0550092 0.8591359 1.6105651
0.5490184 0.0920314 1.9320535
0.5297987 0.1535270 1.9354346
0.5070395 0.2179655 1.9352304
0.4805738 0.2845858 1.9308203
0.4503872 0.3523915 1.9216832
0.4166546 0.4201929 1.9074722
0.3797578 0.4866883 1.8880798
0.3402738 0.5505746 1.8636773
0.2989338 0.6106692 1.8347167
0.2565561 0.6660168 1.8018890
0.2139700 0.7159599 1.7660500
0.1719430 0.7601630 1.7281294
0.1311277 0.7985902 1.6890424
0.0920314 0.8314520 1.6496200
0.5884408 0.1311277 1.8991918
0.5688612 0.1954964 1.9002149
0.5453685 0.2625733 1.8973649
0.5177968 0.3314311 1.8900592
0.4861656 0.4009044 1.8778545
0.4507178 0.4696568 1.8605222
0.4119305 0.5362883 1.8381051
0.3704908 0.5994667 1.8109392
0.3272369 0.6580564 1.7796311
0.2830760 0.7112174 1.7449937
0.2388971 0.7584545 1.7079552
0.1954964 0.7996134 1.6694627
0.1535270 0.8348330 1.6304002
0.6275279 0.1719430 1.8607645
0.6073536 0.2388971 1.8590560
0.5828791 0.3081972 1.8532435
0.5539585 0.3787449 1.8428183
0.5206680 0.4492182 1.8274518
0.4833408 0.5181660 1.8070639
0.4425666 0.5841400 1.7818641
0.3991500 0.6458383 1.7523496
0.3540327 0.7022316 1.7192574
0.3081972 0.7526419 1.6834807
0.2625733 0.7967634 1.6459700
0.2179655 0.8346289 1.6076411
0.6654485 0.2139700 1.8165615
0.6443922 0.2830760 1.8118189
0.6186558 0.3540327 1.8028331
0.5881388 0.4255813 1.7892065
0.5530001 0.4962736 1.7707559
0.5136843 0.5645936 1.7475683
0.4709047 0.6291067 1.7200182
0.4255813 0.6886049 1.6887404
0.3787449 0.7422168 1.6545600
0.3314311 0.7894576 1.6183983
0.2845858 0.8302187 1.5811754
0.7012874 0.2565561 1.7666183
0.6790296 0.3272369 1.7586579
0.6517481 0.3991500 1.7464399
0.6194166 0.4709047 1.7297082
0.5823020 0.5409752 1.7084449
0.5409752 0.6078434 1.6829036
0.4962736 0.6701544 1.6536016
0.4492182 0.7268503 1.6212695
0.4009044 0.7772529 1.5867671
0.3523915 0.8210816 1.5509887
0.7341152 0.2989338 1.7112708
0.7103377 0.3704908 1.7000683
0.6812626 0.4425666 1.6847415
0.6469667 0.5136843 1.6651952
0.6078434 0.5823020 1.6415767
0.5645936 0.6469667 1.6142858
0.5181660 0.7064624 1.5839423
0.4696568 0.7599207 1.5513193
0.4201929 0.8068707 1.5172562
0.7630758 0.3402738 1.6511762
0.7375036 0.4119305 1.6368899
0.7064624 0.4833408 1.6187676
0.6701544 0.5530001 1.5968751
0.6291067 0.6194166 1.5715062
0.5841400 0.6812626 1.5431682
0.5362883 0.7375036 1.5125320
0.4866883 0.7874782 1.4803593
0.7874782 0.3797578 1.5872898
0.7599207 0.4507178 1.5702583
0.7268503 0.5206680 1.5498197
0.6886049 0.5881388 1.5261828
0.6458383 0.6517481 1.4997516
0.5994667 0.7103377 1.4710924
0.5505746 0.7630758 1.4408754
0.8068707 0.4166546 1.5207945
0.7772529 0.4861656 1.5015059
0.7422168 0.5539585 1.4793464
0.7022316 0.6186558 1.4546342
0.6580564 0.6790296 1.4278384
0.6106692 0.7341152 1.3995353
0.8210816 0.4503872 1.4529930
0.7894576 0.5177968 1.4320326
0.7526419 0.5828791 1.4087987
0.7112174 0.6443922 1.3836775
0.6660168 0.7012874 1.3571577
0.8302187 0.4805738 1.3851873
0.7967634 0.5453685 1.3631748
0.7584545 0.6073536 1.3394986
0.7159599 0.6654485 1.3145715
0.8346289 0.5070395 1.3185670
0.7996134 0.5688612 1.2960979
0.7601630 0.6275279 1.2725445
0.8348330 0.5297987 1.2541286
0.7985902 0.5884408 1.2317293
0.8314520 0.5490184 1.1926329
0.8591359 0.5099636 1.0455923
0.8644735 0.4909296 0.9871243
0.8665402 0.4687033 0.9255912
0.8647077 0.4431291 0.8616022
0.8584125 0.4141759 0.7959876
0.8472249 0.3819711 0.7297762
0.8309150 0.3468198 0.6641389
0.8095036 0.3092029 0.6003008
0.7832825 0.2697488 0.5394353
0.7527965 0.2291827 0.4825593
0.7187899 0.1882618 0.4304508
0.6821284 0.1477097 0.3836036
0.6437136 0.1081623 0.3422236
0.6044068 0.0701328 0.3062608
0.5649728 0.0339976 0.2754632
0.5099636 0.0550092 0.2414656
0.4909296 0.1134772 0.2361280
0.4687033 0.1750103 0.2340613
0.4431291 0.2389993 0.2358939
0.4141759 0.3046140 0.2421890
0.3819711 0.3708253 0.2533766
0.3468198 0.4364627 0.2696865
0.3092029 0.5003008 0.2910979
0.2697488 0.5611663 0.3173190
0.2291827 0.6180422 0.3478051
0.1882618 0.6701507 0.3818116
0.1477097 0.7169980 0.4184731
0.1081623 0.7583779 0.4568879
0.0701328 0.7943407 0.4961947
0.0339976 0.8251384 0.5356287
0.8314520 0.5490184 1.0085702
0.7985902 0.5884408 0.9694738
0.7601630 0.6275279 0.9286585
0.7159599 0.6654485 0.8866316
0.6660168 0.7012874 0.8440454
0.6106692 0.7341152 0.8016677
0.5505746 0.7630758 0.7603277
0.4866883 0.7874782 0.7208438
0.4201929 0.8068707 0.6839469
0.3523915 0.8210816 0.6502143
0.2845858 0.8302187 0.6200277
0.2179655 0.8346289 0.5935620
0.1535270 0.8348330 0.5708028
0.0920314 0.8314520 0.5515831
0.8348330 0.5297987 0.9470745
0.7996134 0.5688612 0.9051052
0.7584545 0.6073536 0.8617045
0.7112174 0.6443922 0.8175256
0.6580564 0.6790296 0.7733646
0.5994667 0.7103377 0.7301107
0.5362883 0.7375036 0.6886710
0.4696568 0.7599207 0.6498838
0.4009044 0.7772529 0.6144360
0.3314311 0.7894576 0.5828048
0.2625733 0.7967634 0.5552330
0.1954964 0.7996134 0.5317403
0.1311277 0.7985902 0.5121607
0.8346289 0.5070395 0.8826361
0.7967634 0.5453685 0.8380282
0.7526419 0.5828791 0.7924044
0.7022316 0.6186558 0.7465688
0.6458383 0.6517481 0.7014515
0.5841400 0.6812626 0.6580349
0.5181660 0.7064624 0.6172608
0.4492182 0.7268503 0.5799336
0.3787449 0.7422168 0.5466430
0.3081972 0.7526419 0.5177224
0.2388971 0.7584545 0.4932479
0.1719430 0.7601630 0.4730737
0.8302187 0.4805738 0.8160158
0.7894576 0.5177968 0.7691704
0.7422168 0.5539585 0.7218567
0.6886049 0.5881388 0.6750203
0.6291067 0.6194166 0.6296968
0.5645936 0.6469667 0.5869173
0.4962736 0.6701544 0.5476015
0.4255813 0.6886049 0.5124627
0.3540327 0.7022316 0.4819457
0.2830760 0.7112174 0.4562093
0.2139700 0.7159599 0.4351531
0.8210816 0.4503872 0.7482100
0.7772529 0.4861656 0.6996971
0.7268503 0.5206680 0.6513834
0.6701544 0.5530001 0.6043280
0.6078434 0.5823020 0.5596263
0.5409752 0.6078434 0.5182995
0.4709047 0.6291067 0.4811849
0.3991500 0.6458383 0.4488535
0.3272369 0.6580564 0.4215719
0.2565561 0.6660168 0.3993141
0.8068707 0.4166546 0.6804086
0.7599207 0.4507178 0.6309447
0.7064624 0.4833408 0.5824355
0.6469667 0.5136843 0.5360079
0.5823020 0.5409752 0.4927581
0.5136843 0.5645936 0.4536348
0.4425666 0.5841400 0.4193390
0.3704908 0.5994667 0.3902639
0.2989338 0.6106692 0.3664864
0.7874782 0.3797578 0.6139132
0.7375036 0.4119305 0.5643132
0.6812626 0.4425666 0.5164616
0.6194166 0.4709047 0.4714948
0.5530001 0.4962736 0.4304472
0.4833408 0.5181660 0.3941392
0.4119305 0.5362883 0.3630980
0.3402738 0.5505746 0.3375257
0.7630758 0.3402738 0.5500269
0.7103377 0.3704908 0.5011348
0.6517481 0.3991500 0.4547632
0.5881388 0.4255813 0.4119966
0.5206680 0.4492182 0.3737513
0.4507178 0.4696568 0.3406809
0.3797578 0.4866883 0.3131233
0.7341152 0.2989338 0.4899323
0.6790296 0.3272369 0.4425451
0.6186558 0.3540327 0.3983699
0.5539585 0.3787449 0.3583848
0.4861656 0.4009044 0.3233486
0.4166546 0.4201929 0.2937309
0.7012874 0.2565561 0.4345848
0.6443922 0.2830760 0.3893842
0.5828791 0.3081972 0.3479596
0.5177968 0.3314311 0.3111439
0.4503872 0.3523915 0.2795199
0.6654485 0.2139700 0.3846416
0.6073536 0.2388971 0.3421471
0.5453685 0.2625733 0.3038381
0.4805738 0.2845858 0.2703828
0.6275279 0.1719430 0.3404385
0.5688612 0.1954964 0.3009882
0.5070395 0.2179655 0.2659726
0.5884408 0.1311277 0.3020113
0.5297987 0.1535270 0.2657685
0.5490184 0.0920314 0.2691495
0.8251384 0.5649728 1.0666040
0.7943407 0.6044068 1.0304687
0.7583779 0.6437136 0.9924392
0.7169980 0.6821284 0.9528918
0.6701507 0.7187899 0.9123397
0.6180422 0.7527965 0.8714189
0.5611663 0.7832825 0.8308528
0.5003008 0.8095036 0.7913987
0.4364627 0.8309150 0.7537817
0.3708253 0.8472249 0.7186304
0.3046140 0.8584125 0.6864256
0.2389993 0.8647077 0.6574724
0.1750103 0.8665402 0.6318982
0.1134772 0.8644735 0.6096720
0.0550092 0.8591359 0.5906380
0.0568785 0.8883305 1.5575886
0.0586421 0.9158744 1.4992725
0.0602442 0.9408955 1.4356980
0.0616249 0.9624594 1.3672054
0.0627251 0.9796420 1.2944326
0.0634921 0.9916219 1.2183224
0.0638863 0.9977790 1.1400855
0.0638863 0.9977790 1.0611176
0.0634921 0.9916219 0.9828807
0.0627251 0.9796420 0.9067705
0.0616249 0.9624594 0.8339976
0.0602442 0.9408955 0.7655050
0.0586421 0.9158744 0.7019306
0.0568785 0.8883305 0.6436145
0.1172842 0.8934751 1.5355153
0.1208234 0.9204368 1.4739664
0.1239703 0.9444099 1.4070730
0.1265954 0.9644082 1.3353223
0.1285760 0.9794965 1.2595302
0.1298099 0.9888966 1.1808285
0.1302292 0.9920906 1.1006015
0.1298099 0.9888966 1.0203746
0.1285760 0.9794965 0.9416728
0.1265954 0.9644082 0.8658807
0.1239703 0.9444099 0.7941301
0.1208234 0.9204368 0.7272367
0.1172842 0.8934751 0.6656877
0.1807325 0.8948731 1.5101639
0.1859554 0.9207337 1.4453819
0.1904763 0.9431182 1.3752835
0.1940920 0.9610210 1.3005273
0.1966201 0.9735386 1.2221195
0.1979218 0.9799836 1.1413757
0.1979218 0.9799836 1.0598274
0.1966201 0.9735386 0.9790836
0.1940920 0.9610210 0.9006757
0.1904763 0.9431182 0.8259196
0.1859554 0.9207337 0.7558212
0.1807325 0.8948731 0.6910391
0.2464995 0.8918436 1.4814642
0.2531908 0.9160530 1.4135626
0.2587894 0.9363088 1.3405125
0.2630237 0.9516286 1.2631591
0.2656662 0.9611895 1.1826969
0.2665650 0.9644411 1.1006015
0.2656662 0.9611895 1.0185062
0.2630237 0.9516286 0.9380440
0.2587894 0.9363088 0.8606906
0.2531908 0.9160530 0.7876404
0.2464995 0.8918436 0.7197388
0.3136253 0.8838067 1.4494975
0.3214400 0.9058290 1.3787267
0.3277002 0.9234704 1.3031314
0.3320828 0.9358206 1.2237446
0.3343411 0.9421845 1.1419284
0.3343411 0.9421845 1.0592747
0.3320828 0.9358206 0.9774585
0.3277002 0.9234704 0.8980716
0.3214400 0.9058290 0.8224763
0.3136253 0.8838067 0.7517056
0.3809526 0.8703628 1.4145238
0.3894298 0.8897306 1.3412824
0.3958436 0.9043842 1.2636981
0.3998474 0.9135317 1.1829746
0.4012093 0.9166431 1.1006015
0.3998474 0.9135317 1.0182284
0.3958436 0.9043842 0.9375050
0.3894298 0.8897306 0.8599207
0.3809526 0.8703628 0.7866793
0.4472044 0.8513646 1.3769890
0.4558023 0.8677328 1.3018167
0.4618176 0.8791844 1.2229239
0.4649159 0.8850829 1.1416492
0.4649159 0.8850829 1.0595538
0.4618176 0.8791844 0.9782791
0.4558023 0.8677328 0.8993863
0.4472044 0.8513646 0.8242140
0.5110907 0.8269622 1.3375051
0.5192398 0.8401476 1.2610554
0.5243204 0.8483682 1.1816135
0.5260474 0.8511625 1.1006015
0.5243204 0.8483682 1.0195896
0.5192398 0.8401476 0.9401476
0.5110907 0.8269622 0.8636980
0.5714290 0.7976073 1.2968029
0.5785921 0.8076056 1.2197981
0.5822761 0.8127479 1.1405867
0.5822761 0.8127479 1.0606164
0.5785921 0.8076056 0.9814050
0.5714290 0.7976073 0.9044001
0.6272505 0.7640125 1.2556664
0.6329771 0.7709876 1.1788418
0.6349211 0.7733555 1.1006015
0.6329771 0.7709876 1.0223613
0.6272505 0.7640125 0.9455367
0.6778737 0.7270734 1.2148603
0.6818366 0.7313239 1.1389105
0.6818366 0.7313239 1.0622926
0.6778737 0.7270734 0.9863427
0.7229301 0.6877720 1.1750674
0.7249404 0.6896846 1.1006015
0.7229301 0.6877720 1.0261356
0.7623474 0.6470829 1.1368443
0.7623474 0.6470829 1.0643587
0.7962991 0.6058970 1.1006015
-0.8801476 0.4759660 1.1006015
-0.9078180 0.4207968 1.1006015
-0.9333882 0.3605410 1.1006015
-0.9559973 0.2954194 1.1006015
-0.9747647 0.2259141 1.1006015
-0.9888676 0.1527884 1.1006015
-0.9976289 0.0770711 1.1006015
-1.0006015 0.0000000 1.1006015
-0.9976289 -0.0770711 1.1006015
-0.9888676 -0.1527884 1.1006015
-0.9747647 -0.2259141 1.1006015
-0.9559973 -0.2954194 1.1006015
-0.9333882 -0.3605410 1.1006015
-0.9078180 -0.4207968 1.1006015
-0.8801476 -0.4759660 1.1006015
-0.8591359 -0.5099636 1.1556108
-0.8644735 -0.4909296 1.2140788
-0.8665402 -0.4687033 1.2756118
-0.8647077 -0.4431291 1.3396009
-0.8584125 -0.4141759 1.4052155
-0.8472249 -0.3819711 1.4714269
-0.8309150 -0.3468198 1.5370642
-0.8095036 -0.3092029 1.6009023
-0.7832825 -0.2697488 1.6617678
-0.7527965 -0.2291827 1.7186438
-0.7187899 -0.1882618 1.7707523
-0.6821284 -0.1477097 1.8175995
-0.6437136 -0.1081623 1.8589795
-0.6044068 -0.0701328 1.8949423
-0.5649728 -0.0339976 1.9257399
-0.8883305 0.4569871 1.1574800
-0.8934751 0.4349138 1.2178857
-0.8948731 0.4095624 1.2813340
-0.8918436 0.3808627 1.3471010
-0.8838067 0.3488959 1.4142268
-0.8703628 0.3139222 1.4815542
-0.8513646 0.2763875 1.5478059
-0.8269622 0.2369036 1.6116923
-0.7976073 0.1962014 1.6720305
-0.7640125 0.1550649 1.7278521
-0.7270734 0.1142588 1.7784752
-0.6877720 0.0744659 1.8235316
-0.6470829 0.0362428 1.8629489
-0.6058970 0.0000000 1.8969007
-0.9158744 0.3986710 1.1592436
-0.9204368 0.3733648 1.2214249
-0.9207337 0.3447803 1.2865570
-0.9160530 0.3129611 1.3537924
-0.9058290 0.2781252 1.4220416
-0.8897306 0.2406809 1.4900314
-0.8677328 0.2012152 1.5564038
-0.8401476 0.1604539 1.6198413
-0.8076056 0.1191965 1.6791936
-0.7709876 0.0782403 1.7335786
-0.7313239 0.0383089 1.7824381
-0.6896846 0.0000000 1.8255419
-0.6470829 -0.0362428 1.8629489
-0.9408955 0.3350965 1.1608457
-0.9444099 0.3064714 1.2245718
-0.9431182 0.2746820 1.2910779
-0.9363088 0.2399110 1.3593909
-0.9234704 0.2025299 1.4283018
-0.9043842 0.1630965 1.4964452
-0.8791844 0.1223224 1.5624191
-0.8483682 0.0810120 1.6249219
-0.8127479 0.0399852 1.6828777
-0.7733555 0.0000000 1.7355226
-0.7313239 -0.0383089 1.7824381
-0.6877720 -0.0744659 1.8235316
-0.9624594 0.2666039 1.1622264
-0.9644082 0.2347208 1.2271970
-0.9610210 0.1999258 1.2946936
-0.9516286 0.1625576 1.3636252
-0.9358206 0.1231431 1.4326843
-0.9135317 0.0823731 1.5004490
-0.8850829 0.0410477 1.5655175
-0.8511625 0.0000000 1.6266489
-0.8127479 -0.0399852 1.6828777
-0.7709876 -0.0782403 1.7335786
-0.7270734 -0.1142588 1.7784752
-0.9796420 0.1938311 1.1633266
-0.9794965 0.1589287 1.2291775
-0.9735386 0.1215179 1.2972217
-0.9611895 0.0820954 1.3662678
-0.9421845 0.0413268 1.4349426
-0.9166431 0.0000000 1.5018108
-0.8850829 -0.0410477 1.5655175
-0.8483682 -0.0810120 1.6249219
-0.8076056 -0.1191965 1.6791936
-0.7640125 -0.1550649 1.7278521
-0.9916219 0.1177208 1.1640936
-0.9888966 0.0802270 1.2304115
-0.9799836 0.0407741 1.2985233
-0.9644411 0.0000000 1.3671665
-0.9421845 -0.0413268 1.4349426
-0.9135317 -0.0823731 1.5004490
-0.8791844 -0.1223224 1.5624191
-0.8401476 -0.1604539 1.6198413
-0.7976073 -0.1962014 1.6720305
-0.9977790 0.0394839 1.1644879
-0.9920906 0.0000000 1.2308308
-0.9799836 -0.0407741 1.2985233
-0.9611895 -0.0820954 1.3662678
-0.9358206 -0.1231431 1.4326843
-0.9043842 -0.1630965 1.4964452
-0.8677328 -0.2012152 1.5564038
-0.8269622 -0.2369036 1.6116923
-0.9977790 -0.0394839 1.1644879
-0.9888966 -0.0802270 1.2304115
-0.9735386 -0.1215179 1.2972217
-0.9516286 -0.1625576 1.3636252
-0.9234704 -0.2025299 1.4283018
-0.8897306 -0.2406809 1.4900314
-0.8513646 -0.2763875 1.5478059
-0.9916219 -0.1177208 1.1640936
-0.9794965 -0.1589287 1.2291775
-0.9610210 -0.1999258 1.2946936
-0.9363088 -0.2399110 1.3593909
-0.9058290 -0.2781252 1.4220416
-0.8703628 -0.3139222 1.4815542
-0.9796420 -0.1938311 1.1633266
-0.9644082 -0.2347208 1.2271970
-0.9431182 -0.2746820 1.2910779
-0.9160530 -0.3129611 1.3537924
-0.8838067 -0.3488959 1.4142268
-0.9624594 -0.2666039 1.1622264
-0.9444099 -0.3064714 1.2245718
-0.9207337 -0.3447803 1.2865570
-0.8918436 -0.3808627 1.3471010
-0.9408955 -0.3350965 1.1608457
-0.9204368 -0.3733648 1.2214249
-0.8948731 -0.4095624 1.2813340
-0.9158744 -0.3986710 1.1592436
-0.8934751 -0.4349138 1.2178857
-0.8883305 -0.4569871 1.1574800
-0.8591359 0.5099636 1.0455923
-0.8644735 0.4909296 0.9871243
-0.8665402 0.4687033 0.9255912
-0.8647077 0.4431291 0.8616022
-0.8584125 0.4141759 0.7959876
-0.8472249 0.3819711 0.7297762
-0.8309150 0.3468198 0.6641389
-0.8095036 0.3092029 0.6003008
-0.7832825 0.2697488 0.5394353
-0.7527965 0.2291827 0.4825593
-0.7187899 0.1882618 0.4304508
-0.6821284 0.1477097 0.3836036
-0.6437136 0.1081623 0.3422236
-0.6044068 0.0701328 0.3062608
-0.5649728 0.0339976 0.2754632
-0.8883305 -0.4569871 1.0437230
-0.8934751 -0.4349138 0.9833173
-0.8948731 -0.4095624 0.9198690
-0.8918436 -0.3808627 0.8541020
-0.8838067 -0.3488959 0.7869763
-0.8703628 -0.3139222 0.7196489
-0.8513646 -0.2763875 0.6533972
-0.8269622 -0.2369036 0.5895108
-0.7976073 -0.1962014 0.5291726
-0.7640125 -0.1550649 0.4733510
-0.7270734 -0.1142588 0.4227279
-0.6877720 -0.0744659 0.3776715
-0.6470829 -0.0362428 0.3382541
-0.6058970 0.0000000 0.3043024
-0.9158744 -0.3986710 1.0419594
-0.9204368 -0.3733648 0.9797781
-0.9207337 -0.3447803 0.9146461
-0.9160530 -0.3129611 0.8474107
-0.9058290 -0.2781252 0.7791615
-0.8897306 -0.2406809 0.7111717
-0.8677328 -0.2012152 0.6447993
-0.8401476 -0.1604539 0.5813618
-0.8076056 -0.1191965 0.5220095
-0.7709876 -0.0782403 0.4676244
-0.7313239 -0.0383089 0.4187649
-0.6896846 0.0000000 0.3756611
-0.6470829 0.0362428 0.3382541
-0.9408955 -0.3350965 1.0403574
-0.9444099 -0.3064714 0.9766312
-0.9431182 -0.2746820 0.9101252
-0.9363088 -0.2399110 0.8418121
-0.9234704 -0.2025299 0.7729013
-0.9043842 -0.1630965 0.7047579
-0.8791844 -0.1223224 0.6387840
-0.8483682 -0.0810120 0.5762811
-0.8127479 -0.0399852 0.5183254
-0.7733555 0.0000000 0.4656805
-0.7313239 0.0383089 0.4187649
-0.6877720 0.0744659 0.3776715
-0.9624594 -0.2666039 1.0389767
-0.9644082 -0.2347208 0.9740061
-0.9610210 -0.1999258 0.9065095
-0.9516286 -0.1625576 0.8375779
-0.9358206 -0.1231431 0.7685187
-0.9135317 -0.0823731 0.7007541
-0.8850829 -0.0410477 0.6356856
-0.8511625 0.0000000 0.5745542
-0.8127479 0.0399852 0.5183254
-0.7709876 0.0782403 0.4676244
-0.7270734 0.1142588 0.4227279
-0.9796420 -0.1938311 1.0378765
-0.9794965 -0.1589287 0.9720255
-0.9735386 -0.1215179 0.9039814
-0.9611895 -0.0820954 0.8349353
-0.9421845 -0.0413268 0.7662605
-0.9166431 0.0000000 0.6993923
-0.8850829 0.0410477 0.6356856
-0.8483682 0.0810120 0.5762811
-0.8076056 0.1191965 0.5220095
-0.7640125 0.1550649 0.4733510
-0.9916219 -0.1177208 1.0371094
-0.9888966 -0.0802270 0.9707916
-0.9799836 -0.0407741 0.9026797
-0.9644411 0.0000000 0.8340366
-0.9421845 0.0413268 0.7662605
-0.9135317 0.0823731 0.7007541
-0.8791844 0.1223224 0.6387840
-0.8401476 0.1604539 0.5813618
-0.7976073 0.1962014 0.5291726
-0.9977790 -0.0394839 1.0367152
-0.9920906 0.0000000 0.9703723
-0.9799836 0.0407741 0.9026797
-0.9611895 0.0820954 0.8349353
-0.9358206 0.1231431 0.7685187
-0.9043842 0.1630965 0.7047579
-0.8677328 0.2012152 0.6447993
-0.8269622 0.2369036 0.5895108
-0.9977790 0.0394839 1.0367152
-0.9888966 0.0802270 0.9707916
-0.9735386 0.1215179 0.9039814
-0.9516286 0.1625576 0.8375779
-0.9234704 0.2025299 0.7729013
-0.8897306 0.2406809 0.7111717
-0.8513646 0.2763875 0.6533972
-0.9916219 0.1177208 1.0371094
-0.9794965 0.1589287 0.9720255
-0.9610210 0.1999258 0.9065095
-0.9363088 0.2399110 0.8418121
-0.9058290 0.2781252 0.7791615
-0.8703628 0.3139222 0.7196489
-0.9796420 0.1938311 1.0378765
-0.9644082 0.2347208 0.9740061
-0.9431182 0.2746820 0.9101252
-0.9160530 0.3129611 0.8474107
-0.8838067 0.3488959 0.7869763
-0.9624594 0.2666039 1.0389767
-0.9444099 0.3064714 0.9766312
-0.9207337 0.3447803 0.9146461
-0.8918436 0.3808627 0.8541020
-0.9408955 0.3350965 1.0403574
-0.9204368 0.3733648 0.9797781
-0.8948731 0.4095624 0.9198690
-0.9158744 0.3986710 1.0419594
-0.8934751 0.4349138 0.9833173
-0.8883305 0.4569871 1.0437230
-0.8591359 0.5099636 1.1556108
-0.8644735 0.4909296 1.2140788
-0.8665402 0.4687033 1.2756118
-0.8647077 0.4431291 1.3396009
-0.8584125 0.4141759 1.4052155
-0.8472249 0.3819711 1.4714269
-0.8309150 0.3468198 1.5370642
-0.8095036 0.3092029 1.6009023
-0.7832825 0.2697488 1.6617678
-0.7527965 0.2291827 1.7186438
-0.7187899 0.1882618 1.7707523
-0.6821284 0.1477097 1.8175995
-0.6437136 0.1081623 1.8589795
-0.6044068 0.0701328 1.8949423
-0.5649728 0.0339976 1.9257399
-0.5099636 0.0550092 1.9597375
-0.4909296 0.1134772 1.9650751
-0.4687033 0.1750103 1.9671418
-0.4431291 0.2389993 1.9653092
-0.4141759 0.3046140 1.9590141
-0.3819711 0.3708253 1.9478264
-0.3468198 0.4364627 1.9315166
-0.3092029 0.5003008 1.9101052
-0.2697488 0.5611663 1.8838840
-0.2291827 0.6180422 1.8533980
-0.1882618 0.6701507 1.8193914
-0.1477097 0.7169980 1.7827300
-0.1081623 0.7583779 1.7443152
-0.0701328 0.7943407 1.7050084
-0.0339976 0.8251384 1.6655743
-0.8314520 0.5490184 1.1926329
-0.7985902 0.5884408 1.2317293
-0.7601630 0.6275279 1.2725445
-0.7159599 0.6654485 1.3145715
-0.6660168 0.7012874 1.3571577
-0.6106692 0.7341152 1.3995353
-0.5505746 0.7630758 1.4408754
-0.4866883 0.7874782 1.4803593
-0.4201929 0.8068707 1.5172562
-0.3523915 0.8210816 1.5509887
-0.2845858 0.8302187 1.5811754
-0.2179655 0.8346289 1.6076411
-0.1535270 0.8348330 1.6304002
-0.0920314 0.8314520 1.6496200
-0.8348330 0.5297987 1.2541286
-0.7996134 0.5688612 1.2960979
-0.7584545 0.6073536 1.3394986
-0.7112174 0.6443922 1.3836775
-0.6580564 0.6790296 1.4278384
-0.5994667 0.7103377 1.4710924
-0.5362883 0.7375036 1.5125320
-0.4696568 0.7599207 1.5513193
-0.4009044 0.7772529 1.5867671
-0.3314311 0.7894576 1.6183983
-0.2625733 0.7967634 1.6459700
-0.1954964 0.7996134 1.6694627
-0.1311277 0.7985902 1.6890424
-0.8346289 0.5070395 1.3185670
-0.7967634 0.5453685 1.3631748
-0.7526419 0.5828791 1.4087987
-0.7022316 0.6186558 1.4546342
-0.6458383 0.6517481 1.4997516
-0.5841400 0.6812626 1.5431682
-0.5181660 0.7064624 1.5839423
-0.4492182 0.7268503 1.6212695
-0.3787449 0.7422168 1.6545600
-0.3081972 0.7526419 1.6834807
-0.2388971 0.7584545 1.7079552
-0.1719430 0.7601630 1.7281294
-0.8302187 0.4805738 1.3851873
-0.7894576 0.5177968 1.4320326
-0.7422168 0.5539585 1.4793464
-0.6886049 0.5881388 1.5261828
-0.6291067 0.6194166 1.5715062
-0.5645936 0.6469667 1.6142858
-0.4962736 0.6701544 1.6536016
-0.4255813 0.6886049 1.6887404
-0.3540327 0.7022316 1.7192574
-0.2830760 0.7112174 1.7449937
-0.2139700 0.7159599 1.7660500