# TIME = 0.000000
VARIABLES = X, Y, Z, U, V, W
ZONE N=1442 E=2880 F=FEPOINT ET=TRIANGLE
0.8515603 0.5262932 1.1010691
-0.8515603 0.5262932 1.1010691
0.8515603 -0.5262932 1.1010691
-0.8515603 -0.5262932 1.1010691
0.5262932 0.0000000 1.9526294
0.5262932 0.0000000 0.2495089
-0.5262932 0.0000000 1.9526294
-0.5262932 0.0000000 0.2495089
0.0000000 0.8515603 1.6273623
0.0000000 -0.8515603 1.6273623
0.0000000 0.8515603 0.5747759
0.0000000 -0.8515603 0.5747759
0.8616414 0.5041955 1.1752332
0.8666591 0.4767013 1.2553329
0.8651117 0.4433362 1.3401801
0.8556426 0.4039797 1.4278955
0.8373161 0.3590057 1.5159859
0.8098819 0.3093474 1.6016037
0.7739225 0.2564327 1.6819526
0.7308061 0.2019898 1.7547219
0.6824472 0.1477787 1.8184021
0.6309650 0.0953403 1.8723880
0.5783596 0.0458360 1.9168746
0.9002128 -0.4309902 1.1785532
0.9043576 -0.3979497 1.2620432
0.9007098 -0.3590057 1.3500192
0.8878557 -0.3143915 1.4401998
0.8650037 -0.2649121 1.5297059
0.8322588 -0.2119297 1.6154333
0.7907034 -0.1571957 1.6945478
0.7422257 -0.1025731 1.7649359
0.6891545 -0.0497437 1.8254523
0.6338462 -0.0000000 1.8759100
0.9351010 -0.3482060 1.1815561
0.9373401 -0.3093474 1.2679140
0.9304936 -0.2649121 1.3582512
0.9132283 -0.2155840 1.4498913
0.8850646 -0.1626335 1.5396468
0.8466092 -0.1077920 1.6243024
0.7995138 -0.0529824 1.7011607
0.7461529 -0.0000000 1.7684485
0.6891545 0.0497437 1.8254523
0.9641034 -0.2564327 1.1840525
0.9632385 -0.2119297 1.2725238
0.9520733 -0.1626335 1.3642157
0.9295374 -0.1097170 1.4561208
0.8956330 -0.0548585 1.5448837
0.8515603 0.0000000 1.6273623
0.7995138 0.0529824 1.7011607
0.7422257 0.1025731 1.7649359
0.9850080 -0.1571957 1.1858518
0.9798475 -0.1077920 1.2754802
0.9634419 -0.0548585 1.3673579
0.9351711 -0.0000000 1.4582727
0.8956330 0.0548585 1.5448837
0.8466092 0.1077920 1.6243024
0.7907034 0.1571957 1.6945478
0.9959835 -0.0529824 1.1867965
0.9855777 -0.0000000 1.2765002
0.9634419 0.0548585 1.3673579
0.9295374 0.1097170 1.4561208
0.8850646 0.1626335 1.5396468
0.8322588 0.2119297 1.6154333
0.9959835 0.0529824 1.1867965
0.9798475 0.1077920 1.2754802
0.9520733 0.1626335 1.3642157
0.9132283 0.2155840 1.4498913
0.8650037 0.2649121 1.5297059
0.9850080 0.1571957 1.1858518
0.9632385 0.2119297 1.2725238
0.9304936 0.2649121 1.3582512
0.8878557 0.3143915 1.4401998
0.9641034 0.2564327 1.1840525
0.9373401 0.3093474 1.2679140
0.9007098 0.3590057 1.3500192
0.9351010 0.3482060 1.1815561
0.9043576 0.3979497 1.2620432
0.9002128 0.4309902 1.1785532
0.8899696 0.4583596 1.1010691
0.9255826 0.3813610 1.1010691
0.9564440 0.2955575 1.1010691
0.9804792 0.2019898 1.1010691
0.9958003 0.1025731 1.1010691
1.0010691 0.0000000 1.1010691
0.9958003 -0.1025731 1.1010691
0.9804792 -0.2019898 1.1010691
0.9564440 -0.2955575 1.1010691
0.9255826 -0.3813610 1.1010691
0.8899696 -0.4583596 1.1010691
0.8616414 -0.5041955 1.0269050
0.8666591 -0.4767013 0.9468053
0.8651117 -0.4433362 0.8619581
0.8556426 -0.4039797 0.7742427
0.8373161 -0.3590057 0.6861523
0.8098819 -0.3093474 0.6005346
0.7739225 -0.2564327 0.5201856
0.7308061 -0.2019898 0.4474163
0.6824472 -0.1477787 0.3837361
0.6309650 -0.0953403 0.3297503
0.5783596 -0.0458360 0.2852636
0.9002128 0.4309902 1.0235850
0.9043576 0.3979497 0.9400951
0.9007098 0.3590057 0.8521191
0.8878557 0.3143915 0.7619384
0.8650037 0.2649121 0.6724323
0.8322588 0.2119297 0.5867049
0.7907034 0.1571957 0.5075904
0.7422257 0.1025731 0.4372023
0.6891545 0.0497437 0.3766859
0.6338462 0.0000000 0.3262282
0.9351010 0.3482060 1.0205821
0.9373401 0.3093474 0.9342243
0.9304936 0.2649121 0.8438870
0.9132283 0.2155840 0.7522469
0.8850646 0.1626335 0.6624915
0.8466092 0.1077920 0.5778358
0.7995138 0.0529824 0.5009775
0.7461529 0.0000000 0.4336897
0.6891545 -0.0497437 0.3766859
0.9641034 0.2564327 1.0180858
0.9632385 0.2119297 0.9296144
0.9520733 0.1626335 0.8379225
0.9295374 0.1097170 0.7460174
0.8956330 0.0548585 0.6572545
0.8515603 0.0000000 0.5747759
0.7995138 -0.0529824 0.5009775
0.7422257 -0.1025731 0.4372023
0.9850080 0.1571957 1.0162864
0.9798475 0.1077920 0.9266580
0.9634419 0.0548585 0.8347803
0.9351711 0.0000000 0.7438655
0.8956330 -0.0548585 0.6572545
0.8466092 -0.1077920 0.5778358
0.7907034 -0.1571957 0.5075904
0.9959835 0.0529824 1.0153417
0.9855777 0.0000000 0.9256381
0.9634419 -0.0548585 0.8347803
0.9295374 -0.1097170 0.7460174
0.8850646 -0.1626335 0.6624915
0.8322588 -0.2119297 0.5867049
0.9959835 -0.0529824 1.0153417
0.9798475 -0.1077920 0.9266580
0.9520733 -0.1626335 0.8379225
0.9132283 -0.2155840 0.7522469
0.8650037 -0.2649121 0.6724323
0.9850080 -0.1571957 1.0162864
0.9632385 -0.2119297 0.9296144
0.9304936 -0.2649121 0.8438870
0.8878557 -0.3143915 0.7619384
0.9641034 -0.2564327 1.0180858
0.9373401 -0.3093474 0.9342243
0.9007098 -0.3590057 0.8521191
0.9351010 -0.3482060 1.0205821
0.9043576 -0.3979497 0.9400951
0.9002128 -0.4309902 1.0235850
0.8158055 0.5783596 1.1469051
0.7713188 0.6309650 1.1964094
0.7173330 0.6824472 1.2488478
0.6536528 0.7308061 1.3030589
0.5808835 0.7739225 1.3575018
0.5005346 0.8098819 1.4104165
0.4149168 0.8373161 1.4600748
0.3268264 0.8556426 1.5050488
0.2391110 0.8651117 1.5444053
0.1542638 0.8666591 1.5777704
0.0741641 0.8616414 1.6052646
0.5563621 0.1253719 1.9237978
0.5281805 0.2107178 1.9249397
0.4932756 0.3002366 1.9187955
0.4515727 0.3915293 1.9041421
0.4036219 0.4816193 1.8803454
0.3506395 0.5673466 1.8476005
0.2943770 0.6458773 1.8069898
0.2368430 0.7151534 1.7603114
0.1799745 0.7741269 1.7097366
0.1253719 0.8227287 1.6574312
0.6086675 0.1799745 1.8751960
0.5793080 0.2699606 1.8715643
0.5423317 0.3631470 1.8601080
0.4977870 0.4566142 1.8398864
0.4464870 0.5470000 1.8107027
0.3899951 0.6310253 1.7732673
0.3304020 0.7060564 1.7291282
0.2699606 0.7704952 1.6803771
0.2107178 0.8238706 1.6292496
0.6592423 0.2368430 1.8162225
0.6280591 0.3304020 1.8071255
0.5884137 0.4257801 1.7899958
0.5405813 0.5196272 1.7643178
0.4857228 0.6083901 1.7304133
0.4257801 0.6889267 1.6894828
0.3631470 0.7590388 1.6434008
0.3002366 0.8177264 1.5943447
0.7059207 0.2943770 1.7469464
0.6721981 0.3899951 1.7320944
0.6293442 0.4857228 1.7094593
0.5779675 0.5779675 1.6790366
0.5196272 0.6632487 1.6416504
0.4566142 0.7388172 1.5988562
0.3915293 0.8030730 1.5526418
0.7465314 0.3506395 1.6684157
0.7096335 0.4464870 1.6480691
0.6632487 0.5405813 1.6206963
0.6083901 0.6293442 1.5867919
0.5470000 0.7096335 1.5475561
0.4816193 0.7792763 1.5046910
0.7792763 0.4036219 1.5826884
0.7388172 0.4977870 1.5576833
0.6889267 0.5884137 1.5268492
0.6310253 0.6721981 1.4910642
0.5673466 0.7465314 1.4517086
0.8030730 0.4515727 1.4925984
0.7590388 0.5423317 1.4642161
0.7060564 0.6280591 1.4314711
0.6458773 0.7059207 1.3954461
0.8177264 0.4932756 1.4013057
0.7704952 0.5793080 1.3710298
0.7151534 0.6592423 1.3379121
0.8238706 0.5281805 1.3117869
0.7741269 0.6086675 1.2810436
0.8227287 0.5563621 1.2264410
0.8616414 0.5041955 1.0269050
0.8666591 0.4767013 0.9468053
0.8651117 0.4433362 0.8619581
0.8556426 0.4039797 0.7742427
0.8373161 0.3590057 0.6861523
0.8098819 0.3093474 0.6005346
0.7739225 0.2564327 0.5201856
0.7308061 0.2019898 0.4474163
0.6824472 0.1477787 0.3837361
0.6309650 0.0953403 0.3297503
0.5783596 0.0458360 0.2852636
0.5041955 0.0741641 0.2394277
0.4767013 0.1542638 0.2344100
0.4433362 0.2391110 0.2359574
0.4039797 0.3268264 0.2454265
0.3590057 0.4149168 0.2637530
0.3093474 0.5005346 0.2911872
0.2564327 0.5808835 0.3271466
0.2019898 0.6536528 0.3702631
0.1477787 0.7173330 0.4186219
0.0953403 0.7713188 0.4701041
0.0458360 0.8158055 0.5227095
0.8227287 0.5563621 0.9756972
0.7741269 0.6086675 0.9210947
0.7151534 0.6592423 0.8642262
0.6458773 0.7059207 0.8066921
0.5673466 0.7465314 0.7504296
0.4816193 0.7792763 0.6974472
0.3915293 0.8030730 0.6494964
0.3002366 0.8177264 0.6077935
0.2107178 0.8238706 0.5728887
0.1253719 0.8227287 0.5447070
0.8238706 0.5281805 0.8903514
0.7704952 0.5793080 0.8311085
0.7060564 0.6280591 0.7706671
0.6310253 0.6721981 0.7110741
0.5470000 0.7096335 0.6545822
0.4566142 0.7388172 0.6032821
0.3631470 0.7590388 0.5587374
0.2699606 0.7704952 0.5217611
0.1799745 0.7741269 0.4924016
0.8177264 0.4932756 0.8008325
0.7590388 0.5423317 0.7379222
0.6889267 0.5884137 0.6752890
0.6083901 0.6293442 0.6153463
0.5196272 0.6632487 0.5604878
0.4257801 0.6889267 0.5126555
0.3304020 0.7060564 0.4730100
0.2368430 0.7151534 0.4418268
0.8030730 0.4515727 0.7095398
0.7388172 0.4977870 0.6444549
0.6632487 0.5405813 0.5814419
0.5779675 0.5779675 0.5231016
0.4857228 0.6083901 0.4717249
0.3899951 0.6310253 0.4288710
0.2943770 0.6458773 0.3951484
0.7792763 0.4036219 0.6194499
0.7096335 0.4464870 0.5540691
0.6293442 0.4857228 0.4926790
0.5405813 0.5196272 0.4378205
0.4464870 0.5470000 0.3914356
0.3506395 0.5673466 0.3545377
0.7465314 0.3506395 0.5337225
0.6721981 0.3899951 0.4700438
0.5884137 0.4257801 0.4121424
0.4977870 0.4566142 0.3622519
0.4036219 0.4816193 0.3217928
0.7059207 0.2943770 0.4551918
0.6280591 0.3304020 0.3950127
0.5423317 0.3631470 0.3420303
0.4515727 0.3915293 0.2979961
0.6592423 0.2368430 0.3859157
0.5793080 0.2699606 0.3305739
0.4932756 0.3002366 0.2833427
0.6086675 0.1799745 0.3269422
0.5281805 0.2107178 0.2771985
0.5563621 0.1253719 0.2783404
0.8158055 0.5783596 1.0552332
0.7713188 0.6309650 1.0057289
0.7173330 0.6824472 0.9532904
0.6536528 0.7308061 0.8990793
0.5808835 0.7739225 0.8446364
0.5005346 0.8098819 0.7917217
0.4149168 0.8373161 0.7420634
0.3268264 0.8556426 0.6970895
0.2391110 0.8651117 0.6577329
0.1542638 0.8666591 0.6243679
0.0741641 0.8616414 0.5968736
0.0774841 0.9002128 1.5320593
0.0804870 0.9351010 1.4492751
0.0829834 0.9641034 1.3575018
0.0847827 0.9850080 1.2582648
0.0857274 0.9959835 1.1540515
0.0857274 0.9959835 1.0480867
0.0847827 0.9850080 0.9438734
0.0829834 0.9641034 0.8446364
0.0804870 0.9351010 0.7528631
0.0774841 0.9002128 0.6700789
0.1609740 0.9043576 1.4990188
0.1668449 0.9373401 1.4104165
0.1714547 0.9632385 1.3129988
0.1744111 0.9798475 1.2088611
0.1754311 0.9855777 1.1010691
0.1744111 0.9798475 0.9932771
0.1714547 0.9632385 0.8891394
0.1668449 0.9373401 0.7917217
0.1609740 0.9043576 0.7031194
0.2489501 0.9007098 1.4600748
0.2571821 0.9304936 1.3659812
0.2631466 0.9520733 1.2637027
0.2662888 0.9634419 1.1559276
0.2662888 0.9634419 1.0462106
0.2631466 0.9520733 0.9384356
0.2571821 0.9304936 0.8361570
0.2489501 0.9007098 0.7420634
0.3391307 0.8878557 1.4154606
0.3488222 0.9132283 1.3166531
0.3550517 0.9295374 1.2107861
0.3572036 0.9351711 1.1010691
0.3550517 0.9295374 0.9913521
0.3488222 0.9132283 0.8854851
0.3391307 0.8878557 0.7866777
0.4286368 0.8650037 1.3659812
0.4385776 0.8850646 1.2637027
0.4438146 0.8956330 1.1559276
0.4438146 0.8956330 1.0462106
0.4385776 0.8850646 0.9384356
0.4286368 0.8650037 0.8361570
0.5143642 0.8322588 1.3129988
0.5232333 0.8466092 1.2088611
0.5262932 0.8515603 1.1010691
0.5232333 0.8466092 0.9932771
0.5143642 0.8322588 0.8891394
0.5934787 0.7907034 1.2582648
0.6000916 0.7995138 1.1540515
0.6000916 0.7995138 1.0480867
0.5934787 0.7907034 0.9438734
0.6638668 0.7422257 1.2036422
0.6673794 0.7461529 1.1010691
0.6638668 0.7422257 0.9984960
0.7243832 0.6891545 1.1508128
0.7243832 0.6891545 1.0513254
0.7748409 0.6338462 1.1010691
-0.8899696 0.4583596 1.1010691
-0.9255826 0.3813610 1.1010691
-0.9564440 0.2955575 1.1010691
-0.9804792 0.2019898 1.1010691
-0.9958003 0.1025731 1.1010691
-1.0010691 0.0000000 1.1010691
-0.9958003 -0.1025731 1.1010691
-0.9804792 -0.2019898 1.1010691
-0.9564440 -0.2955575 1.1010691
-0.9255826 -0.3813610 1.1010691
-0.8899696 -0.4583596 1.1010691
-0.8616414 -0.5041955 1.1752332
-0.8666591 -0.4767013 1.2553329
-0.8651117 -0.4433362 1.3401801
-0.8556426 -0.4039797 1.4278955
-0.8373161 -0.3590057 1.5159859
-0.8098819 -0.3093474 1.6016037
-0.7739225 -0.2564327 1.6819526
-0.7308061 -0.2019898 1.7547219
-0.6824472 -0.1477787 1.8184021
-0.6309650 -0.0953403 1.8723880
-0.5783596 -0.0458360 1.9168746
-0.9002128 0.4309902 1.1785532
-0.9043576 0.3979497 1.2620432
-0.9007098 0.3590057 1.3500192
-0.8878557 0.3143915 1.4401998
-0.8650037 0.2649121 1.5297059
-0.8322588 0.2119297 1.6154333
-0.7907034 0.1571957 1.6945478
-0.7422257 0.1025731 1.7649359
-0.6891545 0.0497437 1.8254523
-0.6338462 0.0000000 1.8759100
-0.9351010 0.3482060 1.1815561
-0.9373401 0.3093474 1.2679140
-0.9304936 0.2649121 1.3582512
-0.9132283 0.2155840 1.4498913
-0.8850646 0.1626335 1.5396468
-0.8466092 0.1077920 1.6243024
-0.7995138 0.0529824 1.7011607
-0.7461529 0.0000000 1.7684485
-0.6891545 -0.0497437 1.8254523
-0.9641034 0.2564327 1.1840525
-0.9632385 0.2119297 1.2725238
-0.9520733 0.1626335 1.3642157
-0.9295374 0.1097170 1.4561208
-0.8956330 0.0548585 1.5448837
-0.8515603 0.0000000 1.6273623
-0.7995138 -0.0529824 1.7011607
-0.7422257 -0.1025731 1.7649359
-0.9850080 0.1571957 1.1858518
-0.9798475 0.1077920 1.2754802
-0.9634419 0.0548585 1.3673579
-0.9351711 0.0000000 1.4582727
-0.8956330 -0.0548585 1.5448837
-0.8466092 -0.1077920 1.6243024
-0.7907034 -0.1571957 1.6945478
-0.9959835 0.0529824 1.1867965
-0.9855777 0.0000000 1.2765002
-0.9634419 -0.0548585 1.3673579
-0.9295374 -0.1097170 1.4561208
-0.8850646 -0.1626335 1.5396468
-0.8322588 -0.2119297 1.6154333
-0.9959835 -0.0529824 1.1867965
-0.9798475 -0.1077920 1.2754802
-0.9520733 -0.1626335 1.3642157
-0.9132283 -0.2155840 1.4498913
-0.8650037 -0.2649121 1.5297059
-0.9850080 -0.1571957 1.1858518
-0.9632385 -0.2119297 1.2725238
-0.9304936 -0.2649121 1.3582512
-0.8878557 -0.3143915 1.4401998
-0.9641034 -0.2564327 1.1840525
-0.9373401 -0.3093474 1.2679140
-0.9007098 -0.3590057 1.3500192
-0.9351010 -0.3482060 1.1815561
-0.9043576 -0.3979497 1.2620432
-0.9002128 -0.4309902 1.1785532
-0.8616414 0.5041955 1.0269050
-0.8666591 0.4767013 0.9468053
-0.8651117 0.4433362 0.8619581
-0.8556426 0.4039797 0.7742427
-0.8373161 0.3590057 0.6861523
-0.8098819 0.3093474 0.6005346
-0.7739225 0.2564327 0.5201856
-0.7308061 0.2019898 0.4474163
-0.6824472 0.1477787 0.3837361
-0.6309650 0.0953403 0.3297503
-0.5783596 0.0458360 0.2852636
-0.9002128 -0.4309902 1.0235850
-0.9043576 -0.3979497 0.9400951
-0.9007098 -0.3590057 0.8521191
-0.8878557 -0.3143915 0.7619384
-0.8650037 -0.2649121 0.6724323
-0.8322588 -0.2119297 0.5867049
-0.7907034 -0.1571957 0.5075904
-0.7422257 -0.1025731 0.4372023
-0.6891545 -0.0497437 0.3766859
-0.6338462 -0.0000000 0.3262282
-0.9351010 -0.3482060 1.0205821
-0.9373401 -0.3093474 0.9342243
-0.9304936 -0.2649121 0.8438870
-0.9132283 -0.2155840 0.7522469
-0.8850646 -0.1626335 0.6624915
-0.8466092 -0.1077920 0.5778358
-0.7995138 -0.0529824 0.5009775
-0.7461529 -0.0000000 0.4336897
-0.6891545 0.0497437 0.3766859
-0.9641034 -0.2564327 1.0180858
-0.9632385 -0.2119297 0.9296144
-0.9520733 -0.1626335 0.8379225
-0.9295374 -0.1097170 0.7460174
-0.8956330 -0.0548585 0.6572545
-0.8515603 0.0000000 0.5747759
-0.7995138 0.0529824 0.5009775
-0.7422257 0.1025731 0.4372023
-0.9850080 -0.1571957 1.0162864
-0.9798475 -0.1077920 0.9266580
-0.9634419 -0.0548585 0.8347803
-0.9351711 -0.0000000 0.7438655
-0.8956330 0.0548585 0.6572545
-0.8466092 0.1077920 0.5778358
-0.7907034 0.1571957 0.5075904
-0.9959835 -0.0529824 1.0153417
-0.9855777 -0.0000000 0.9256381
-0.9634419 0.0548585 0.8347803
-0.9295374 0.1097170 0.7460174
-0.8850646 0.1626335 0.6624915
-0.8322588 0.2119297 0.5867049
-0.9959835 0.0529824 1.0153417
-0.9798475 0.1077920 0.9266580
-0.9520733 0.1626335 0.8379225
-0.9132283 0.2155840 0.7522469
-0.8650037 0.2649121 0.6724323
-0.9850080 0.1571957 1.0162864
-0.9632385 0.2119297 0.9296144
-0.9304936 0.2649121 0.8438870
-0.8878557 0.3143915 0.7619384
-0.9641034 0.2564327 1.0180858
-0.9373401 0.3093474 0.9342243
-0.9007098 0.3590057 0.8521191
-0.9351010 0.3482060 1.0205821
-0.9043576 0.3979497 0.9400951
-0.9002128 0.4309902 1.0235850
-0.8616414 0.5041955 1.1752332
-0.8666591 0.4767013 1.2553329
-0.8651117 0.4433362 1.3401801
-0.8556426 0.4039797 1.4278955
-0.8373161 0.3590057 1.5159859
-0.8098819 0.3093474 1.6016037
-0.7739225 0.2564327 1.6819526
-0.7308061 0.2019898 1.7547219
-0.6824472 0.1477787 1.8184021
-0.6309650 0.0953403 1.8723880
-0.5783596 0.0458360 1.9168746
-0.5041955 0.0741641 1.9627105
-0.4767013 0.1542638 1.9677282
-0.4433362 0.2391110 1.9661809
-0.4039797 0.3268264 1.9567117
-0.3590057 0.4149168 1.9383853
-0.3093474 0.5005346 1.9109510
-0.2564327 0.5808835 1.8749916
-0.2019898 0.6536528 1.8318752
-0.1477787 0.7173330 1.7835163
-0.0953403 0.7713188 1.7320341
-0.0458360 0.8158055 1.6794288
-0.8227287 0.5563621 1.2264410
-0.7741269 0.6086675 1.2810436
-0.7151534 0.6592423 1.3379121
-0.6458773 0.7059207 1.3954461
-0.5673466 0.7465314 1.4517086
-0.4816193 0.7792763 1.5046910
-0.3915293 0.8030730 1.5526418
-0.3002366 0.8177264 1.5943447
-0.2107178 0.8238706 1.6292496
-0.1253719 0.8227287 1.6574312
-0.8238706 0.5281805 1.3117869
-0.7704952 0.5793080 1.3710298
-0.7060564 0.6280591 1.4314711
-0.6310253 0.6721981 1.4910642
-0.5470000 0.7096335 1.5475561
-0.4566142 0.7388172 1.5988562
-0.3631470 0.7590388 1.6434008
-0.2699606 0.7704952 1.6803771
-0.1799745 0.7741269 1.7097366
-0.8177264 0.4932756 1.4013057
-0.7590388 0.5423317 1.4642161
-0.6889267 0.5884137 1.5268492
-0.6083901 0.6293442 1.5867919
-0.5196272 0.6632487 1.6416504
-0.4257801 0.6889267 1.6894828
-0.3304020 0.7060564 1.7291282
-0.2368430 0.7151534 1.7603114
-0.8030730 0.4515727 1.4925984
-0.7388172 0.4977870 1.5576833
-0.6632487 0.5405813 1.6206963
-0.5779675 0.5779675 1.6790366
-0.4857228 0.6083901 1.7304133
-0.3899951 0.6310253 1.7732673
-0.2943770 0.6458773 1.8069898
-0.7792763 0.4036219 1.5826884
-0.7096335 0.4464870 1.6480691
-0.6293442 0.4857228 1.7094593
-0.5405813 0.5196272 1.7643178
-0.4464870 0.5470000 1.8107027
-0.3506395 0.5673466 1.8476005
-0.7465314 0.3506395 1.6684157
-0.6721981 0.3899951 1.7320944
-0.5884137 0.4257801 1.7899958
-0.4977870 0.4566142 1.8398864
-0.4036219 0.4816193 1.8803454
-0.7059207 0.2943770 1.7469464
-0.6280591 0.3304020 1.8071255
-0.5423317 0.3631470 1.8601080
-0.4515727 0.3915293 1.9041421
-0.6592423 0.2368430 1.8162225
-0.5793080 0.2699606 1.8715643
-0.4932756 0.3002366 1.9187955
-0.6086675 0.1799745 1.8751960
-0.5281805 0.2107178 1.9249397
-0.5563621 0.1253719 1.9237978
-0.8158055 0.5783596 1.0552332
-0.7713188 0.6309650 1.0057289
-0.7173330 0.6824472 0.9532904
-0.6536528 0.7308061 0.8990793
-0.5808835 0.7739225 0.8446364
-0.5005346 0.8098819 0.7917217
-0.4149168 0.8373161 0.7420634
-0.3268264 0.8556426 0.6970895
-0.2391110 0.8651117 0.6577329
-0.1542638 0.8666591 0.6243679
-0.0741641 0.8616414 0.5968736
-0.5563621 0.1253719 0.2783404
-0.5281805 0.2107178 0.2771985
-0.4932756 0.3002366 0.2833427
-0.4515727 0.3915293 0.2979961
-0.4036219 0.4816193 0.3217928
-0.3506395 0.5673466 0.3545377
-0.2943770 0.6458773 0.3951484
-0.2368430 0.7151534 0.4418268
-0.1799745 0.7741269 0.4924016
-0.1253719 0.8227287 0.5447070
-0.6086675 0.1799745 0.3269422
-0.5793080 0.2699606 0.3305739
-0.5423317 0.3631470 0.3420303
-0.4977870 0.4566142 0.3622519
-0.4464870 0.5470000 0.3914356
-0.3899951 0.6310253 0.4288710
-0.3304020 0.7060564 0.4730100
-0.2699606 0.7704952 0.5217611
-0.2107178 0.8238706 0.5728887
-0.6592423 0.2368430 0.3859157
-0.6280591 0.3304020 0.3950127
-0.5884137 0.4257801 0.4121424
-0.5405813 0.5196272 0.4378205
-0.4857228 0.6083901 0.4717249
-0.4257801 0.6889267 0.5126555
-0.3631470 0.7590388 0.5587374
-0.3002366 0.8177264 0.6077935
-0.7059207 0.2943770 0.4551918
-0.6721981 0.3899951 0.4700438
-0.6293442 0.4857228 0.4926790
-0.5779675 0.5779675 0.5231016
-0.5196272 0.6632487 0.5604878
-0.4566142 0.7388172 0.6032821
-0.3915293 0.8030730 0.6494964
-0.7465314 0.3506395 0.5337225
-0.7096335 0.4464870 0.5540691
-0.6632487 0.5405813 0.5814419
-0.6083901 0.6293442 0.6153463
-0.5470000 0.7096335 0.6545822
-0.4816193 0.7792763 0.6974472
-0.7792763 0.4036219 0.6194499
-0.7388172 0.4977870 0.6444549
-0.6889267 0.5884137 0.6752890
-0.6310253 0.6721981 0.7110741
-0.5673466 0.7465314 0.7504296
-0.8030730 0.4515727 0.7095398
-0.7590388 0.5423317 0.7379222
-0.7060564 0.6280591 0.7706671
-0.6458773 0.7059207 0.8066921
-0.8177264 0.4932756 0.8008325
-0.7704952 0.5793080 0.8311085
-0.7151534 0.6592423 0.8642262
-0.8238706 0.5281805 0.8903514
-0.7741269 0.6086675 0.9210947
-0.8227287 0.5563621 0.9756972
-0.8158055 0.5783596 1.1469051
-0.7713188 0.6309650 1.1964094
-0.7173330 0.6824472 1.2488478
-0.6536528 0.7308061 1.3030589
-0.5808835 0.7739225 1.3575018
-0.5005346 0.8098819 1.4104165
-0.4149168 0.8373161 1.4600748
-0.3268264 0.8556426 1.5050488
-0.2391110 0.8651117 1.5444053
-0.1542638 0.8666591 1.5777704
-0.0741641 0.8616414 1.6052646
0.0000000 0.8899696 1.5594287
0.0000000 0.9255826 1.4824301
0.0000000 0.9564440 1.3966266
0.0000000 0.9804792 1.3030589
0.0000000 0.9958003 1.2036422
0.0000000 1.0010691 1.1010691
0.0000000 0.9958003 0.9984960
0.0000000 0.9804792 0.8990793
0.0000000 0.9564440 0.8055117
0.0000000 0.9255826 0.7197081
0.0000000 0.8899696 0.6427096
-0.7748409 0.6338462 1.1010691
-0.7243832 0.6891545 1.0513254
-0.6638668 0.7422257 0.9984960
-0.5934787 0.7907034 0.9438734
-0.5143642 0.8322588 0.8891394
-0.4286368 0.8650037 0.8361570
-0.3391307 0.8878557 0.7866777
-0.2489501 0.9007098 0.7420634
-0.1609740 0.9043576 0.7031194
-0.0774841 0.9002128 0.6700789
-0.7243832 0.6891545 1.1508128
-0.6673794 0.7461529 1.1010691
-0.6000916 0.7995138 1.0480867
-0.5232333 0.8466092 0.9932771
-0.4385776 0.8850646 0.9384356
-0.3488222 0.9132283 0.8854851
-0.2571821 0.9304936 0.8361570
-0.1668449 0.9373401 0.7917217
-0.0804870 0.9351010 0.7528631
-0.6638668 0.7422257 1.2036422
-0.6000916 0.7995138 1.1540515
-0.5262932 0.8515603 1.1010691
-0.4438146 0.8956330 1.0462106
-0.3550517 0.9295374 0.9913521
-0.2631466 0.9520733 0.9384356
-0.1714547 0.9632385 0.8891394
-0.0829834 0.9641034 0.8446364
-0.5934787 0.7907034 1.2582648
-0.5232333 0.8466092 1.2088611
-0.4438146 0.8956330 1.1559276
-0.3572036 0.9351711 1.1010691
-0.2662888 0.9634419 1.0462106
-0.1744111 0.9798475 0.9932771
-0.0847827 0.9850080 0.9438734
-0.5143642 0.8322588 1.3129988
-0.4385776 0.8850646 1.2637027
-0.3550517 0.9295374 1.2107861
-0.2662888 0.9634419 1.1559276
-0.1754311 0.9855777 1.1010691
-0.0857274 0.9959835 1.0480867
-0.4286368 0.8650037 1.3659812
-0.3488222 0.9132283 1.3166531
-0.2631466 0.9520733 1.2637027
-0.1744111 0.9798475 1.2088611
-0.0857274 0.9959835 1.1540515
-0.3391307 0.8878557 1.4154606
-0.2571821 0.9304936 1.3659812
-0.1714547 0.9632385 1.3129988
-0.0847827 0.9850080 1.2582648
-0.2489501 0.9007098 1.4600748
-0.1668449 0.9373401 1.4104165
-0.0829834 0.9641034 1.3575018
-0.1609740 0.9043576 1.4990188
-0.0804870 0.9351010 1.4492751
-0.0774841 0.9002128 1.5320593
0.8616414 -0.5041955 1.1752332
0.8666591 -0.4767013 1.2553329
0.8651117 -0.4433362 1.3401801
0.8556426 -0.4039797 1.4278955
0.8373161 -0.3590057 1.5159859
0.8098819 -0.3093474 1.6016037
0.7739225 -0.2564327 1.6819526
0.7308061 -0.2019898 1.7547219
0.6824472 -0.1477787 1.8184021
0.6309650 -0.0953403 1.8723880
0.5783596 -0.0458360 1.9168746
0.5041955 -0.0741641 1.9627105
0.4767013 -0.1542638 1.9677282
0.4433362 -0.2391110 1.9661809
0.4039797 -0.3268264 1.9567117
0.3590057 -0.4149168 1.9383853
0.3093474 -0.5005346 1.9109510
0.2564327 -0.5808835 1.8749916
0.2019898 -0.6536528 1.8318752
0.1477787 -0.7173330 1.7835163
0.0953403 -0.7713188 1.7320341
0.0458360 -0.8158055 1.6794288
0.8227287 -0.5563621 1.2264410
0.7741269 -0.6086675 1.2810436
0.7151534 -0.6592423 1.3379121
0.6458773 -0.7059207 1.3954461
0.5673466 -0.7465314 1.4517086
0.4816193 -0.7792763 1.5046910
0.3915293 -0.8030730 1.5526418
0.3002366 -0.8177264 1.5943447
0.2107178 -0.8238706 1.6292496
0.1253719 -0.8227287 1.6574312
0.8238706 -0.5281805 1.3117869
0.7704952 -0.5793080 1.3710298
0.7060564 -0.6280591 1.4314711
0.6310253 -0.6721981 1.4910642
0.5470000 -0.7096335 1.5475561
0.4566142 -0.7388172 1.5988562
0.3631470 -0.7590388 1.6434008
0.2699606 -0.7704952 1.6803771
0.1799745 -0.7741269 1.7097366
0.8177264 -0.4932756 1.4013057
0.7590388 -0.5423317 1.4642161
0.6889267 -0.5884137 1.5268492
0.6083901 -0.6293442 1.5867919
0.5196272 -0.6632487 1.6416504
0.4257801 -0.6889267 1.6894828
0.3304020 -0.7060564 1.7291282
0.2368430 -0.7151534 1.7603114
0.8030730 -0.4515727 1.4925984
0.7388172 -0.4977870 1.5576833
0.6632487 -0.5405813 1.6206963
0.5779675 -0.5779675 1.6790366
0.4857228 -0.6083901 1.7304133
0.3899951 -0.6310253 1.7732673
0.2943770 -0.6458773 1.8069898
0.7792763 -0.4036219 1.5826884
0.7096335 -0.4464870 1.6480691
0.6293442 -0.4857228 1.7094593
0.5405813 -0.5196272 1.7643178
0.4464870 -0.5470000 1.8107027
0.3506395 -0.5673466 1.8476005
0.7465314 -0.3506395 1.6684157
0.6721981 -0.3899951 1.7320944
0.5884137 -0.4257801 1.7899958
0.4977870 -0.4566142 1.8398864
0.4036219 -0.4816193 1.8803454
0.7059207 -0.2943770 1.7469464
0.6280591 -0.3304020 1.8071255
0.5423317 -0.3631470 1.8601080
0.4515727 -0.3915293 1.9041421
0.6592423 -0.2368430 1.8162225
0.5793080 -0.2699606 1.8715643
0.4932756 -0.3002366 1.9187955
0.6086675 -0.1799745 1.8751960
0.5281805 -0.2107178 1.9249397
0.5563621 -0.1253719 1.9237978
0.8158055 -0.5783596 1.0552332
0.7713188 -0.6309650 1.0057289
0.7173330 -0.6824472 0.9532904
0.6536528 -0.7308061 0.8990793
0.5808835 -0.7739225 0.8446364
0.5005346 -0.8098819 0.7917217
0.4149168 -0.8373161 0.7420634
0.3268264 -0.8556426 0.6970895
0.2391110 -0.8651117 0.6577329
0.1542638 -0.8666591 0.6243679
0.0741641 -0.8616414 0.5968736
0.5563621 -0.1253719 0.2783404
0.5281805 -0.2107178 0.2771985
0.4932756 -0.3002366 0.2833427
0.4515727 -0.3915293 0.2979961
0.4036219 -0.4816193 0.3217928
0.3506395 -0.5673466 0.3545377
0.2943770 -0.6458773 0.3951484
0.2368430 -0.7151534 0.4418268
0.1799745 -0.7741269 0.4924016
0.1253719 -0.8227287 0.5447070
0.6086675 -0.1799745 0.3269422
0.5793080 -0.2699606 0.3305739
0.5423317 -0.3631470 0.3420303
0.4977870 -0.4566142 0.3622519
0.4464870 -0.5470000 0.3914356
0.3899951 -0.6310253 0.4288710
0.3304020 -0.7060564 0.4730100
0.2699606 -0.7704952 0.5217611
0.2107178 -0.8238706 0.5728887
0.6592423 -0.2368430 0.3859157
0.6280591 -0.3304020 0.3950127
0.5884137 -0.4257801 0.4121424
0.5405813 -0.5196272 0.4378205
0.4857228 -0.6083901 0.4717249
0.4257801 -0.6889267 0.5126555
0.3631470 -0.7590388 0.5587374
0.3002366 -0.8177264 0.6077935
0.7059207 -0.2943770 0.4551918
0.6721981 -0.3899951 0.4700438
0.6293442 -0.4857228 0.4926790
0.5779675 -0.5779675 0.5231016
0.5196272 -0.6632487 0.5604878
0.4566142 -0.7388172 0.6032821
0.3915293 -0.8030730 0.6494964
0.7465314 -0.3506395 0.5337225
0.7096335 -0.4464870 0.5540691
0.6632487 -0.5405813 0.5814419
0.6083901 -0.6293442 0.6153463
0.5470000 -0.7096335 0.6545822
0.4816193 -0.7792763 0.6974472
0.7792763 -0.4036219 0.6194499
0.7388172 -0.4977870 0.6444549
0.6889267 -0.5884137 0.6752890
0.6310253 -0.6721981 0.7110741
0.5673466 -0.7465314 0.7504296
0.8030730 -0.4515727 0.7095398
0.7590388 -0.5423317 0.7379222
0.7060564 -0.6280591 0.7706671
0.6458773 -0.7059207 0.8066921
0.8177264 -0.4932756 0.8008325
0.7704952 -0.5793080 0.8311085
0.7151534 -0.6592423 0.8642262
0.8238706 -0.5281805 0.8903514
0.7741269 -0.6086675 0.9210947
0.8227287 -0.5563621 0.9756972
0.8158055 -0.5783596 1.1469051
0.7713188 -0.6309650 1.1964094
0.7173330 -0.6824472 1.2488478
0.6536528 -0.7308061 1.3030589
0.5808835 -0.7739225 1.3575018
0.5005346 -0.8098819 1.4104165
0.4149168 -0.8373161 1.4600748
0.3268264 -0.8556426 1.5050488
0.2391110 -0.8651117 1.5444053
0.1542638 -0.8666591 1.5777704
0.0741641 -0.8616414 1.6052646
0.0000000 -0.8899696 1.5594287
0.0000000 -0.9255826 1.4824301
0.0000000 -0.9564440 1.3966266
0.0000000 -0.9804792 1.3030589
0.0000000 -0.9958003 1.2036422
0.0000000 -1.0010691 1.1010691
0.0000000 -0.9958003 0.9984960
0.0000000 -0.9804792 0.8990793
0.0000000 -0.9564440 0.8055117
0.0000000 -0.9255826 0.7197081
0.0000000 -0.8899696 0.6427096
0.7748409 -0.6338462 1.1010691
0.7243832 -0.6891545 1.0513254
0.6638668 -0.7422257 0.9984960
0.5934787 -0.7907034 0.9438734
0.5143642 -0.8322588 0.8891394
0.4286368 -0.8650037 0.8361570
0.3391307 -0.8878557 0.7866777
0.2489501 -0.9007098 0.7420634
0.1609740 -0.9043576 0.7031194
0.0774841 -0.9002128 0.6700789
0.7243832 -0.6891545 1.1508128
0.6673794 -0.7461529 1.1010691
0.6000916 -0.7995138 1.0480867
0.5232333 -0.8466092 0.9932771
0.4385776 -0.8850646 0.9384356
0.3488222 -0.9132283 0.8854851
0.2571821 -0.9304936 0.8361570
0.1668449 -0.9373401 0.7917217
0.0804870 -0.9351010 0.7528631
0.6638668 -0.7422257 1.2036422
0.6000916 -0.7995138 1.1540515
0.5262932 -0.8515603 1.1010691
0.4438146 -0.8956330 1.0462106
0.3550517 -0.9295374 0.9913521
0.2631466 -0.9520733 0.9384356
0.1714547 -0.9632385 0.8891394
0.0829834 -0.9641034 0.8446364
0.5934787 -0.7907034 1.2582648
0.5232333 -0.8466092 1.2088611
0.4438146 -0.8956330 1.1559276
0.3572036 -0.9351711 1.1010691
0.2662888 -0.9634419 1.0462106
0.1744111 -0.9798475 0.9932771
0.0847827 -0.9850080 0.9438734
0.5143642 -0.8322588 1.3129988
0.4385776 -0.8850646 1.2637027
0.3550517 -0.9295374 1.2107861
0.2662888 -0.9634419 1.1559276
0.1754311 -0.9855777 1.1010691
0.0857274 -0.9959835 1.0480867
0.4286368 -0.8650037 1.3659812
0.3488222 -0.9132283 1.3166531
0.2631466 -0.9520733 1.2637027
0.1744111 -0.9798475 1.2088611
0.0857274 -0.9959835 1.1540515
0.3391307 -0.8878557 1.4154606
0.2571821 -0.9304936 1.3659812
0.1714547 -0.9632385 1.3129988
0.0847827 -0.9850080 1.2582648
0.2489501 -0.9007098 1.4600748
0.1668449 -0.9373401 1.4104165
0.0829834 -0.9641034 1.3575018
0.1609740 -0.9043576 1.4990188
0.0804870 -0.9351010 1.4492751
0.0774841 -0.9002128 1.5320593
-0.8158055 -0.5783596 1.1469051
-0.7713188 -0.6309650 1.1964094
-0.7173330 -0.6824472 1.2488478
-0.6536528 -0.7308061 1.3030589
-0.5808835 -0.7739225 1.3575018
-0.5005346 -0.8098819 1.4104165
-0.4149168 -0.8373161 1.4600748
-0.3268264 -0.8556426 1.5050488
-0.2391110 -0.8651117 1.5444053
-0.1542638 -0.8666591 1.5777704
-0.0741641 -0.8616414 1.6052646
-0.5563621 -0.1253719 1.9237978
-0.5281805 -0.2107178 1.9249397
-0.4932756 -0.3002366 1.9187955
-0.4515727 -0.3915293 1.9041421
-0.4036219 -0.4816193 1.8803454
-0.3506395 -0.5673466 1.8476005
-0.2943770 -0.6458773 1.8069898
-0.2368430 -0.7151534 1.7603114
-0.1799745 -0.7741269 1.7097366
-0.1253719 -0.8227287 1.6574312
-0.6086675 -0.1799745 1.8751960
-0.5793080 -0.2699606 1.8715643
-0.5423317 -0.3631470 1.8601080