# TIME=0.000000
VARIABLES=X,Y,Z
ZONE N=1442 E=2880 F=FEPOINT ET=TRIANGLE
7.919510790000001	4.894526760000001	-1.2124830028881206e-7
-7.919510790000001	4.894526760000001	-1.2124830028881206e-7
7.919510790000001	-4.894526760000001	-1.2124830028881206e-7
-7.919510790000001	-4.894526760000001	-1.2124830028881206e-7
4.894526760000001	0.	7.919510668751702
4.894526760000001	0.	-7.9195099812483
-4.894526760000001	0.	7.919510668751702
-4.894526760000001	0.	-7.9195099812483
0.	7.919510790000001	4.894526638751701
0.	-7.919510790000001	4.894526638751701
0.	7.919510790000001	-4.8945268812483
0.	-7.919510790000001	-4.8945268812483
8.01326502	4.689018150000001	0.6897260087517019
8.059929630000001	4.43332209	1.4346532187517003
8.045538810000002	4.123026660000001	2.2237321787517015
7.9574761800000005	3.7570112100000004	3.039485398751701
7.787039730000001	3.33875301	3.858726118751701
7.531901670000001	2.87693082	4.654971658751702
7.19747925	2.3848241100000003	5.402216428751702
6.79649673	1.8785051400000001	6.0789709187517005
6.346758960000001	1.3743419100000003	6.6711967787517
5.867974500000001	0.8866647900000001	7.173265648751702
5.37874428	0.42627480000000006	7.586991028751701
8.371979040000001	-4.00820886	0.7206020087517011
8.410525680000001	-3.7009322100000004	1.4970590087517
8.37660114	-3.33875301	2.3152358087516998
8.257058010000002	-2.92384095	3.1539153887517006
8.04453441	-2.46368253	3.9863221187517013
7.74000684	-1.9709462100000001	4.783586938751702
7.35354162	-1.46192001	5.519351788751701
6.90269901	-0.9539298300000001	6.173961118751702
6.40913685	-0.46261641000000003	6.7367636387517
5.894769660000001	0.	7.206020248751702
8.6964393	-3.2383158000000005	0.7485289787517022
8.71726293	-2.87693082	1.5516574487517012
8.65359048	-2.46368253	2.3917934087517008
8.49302319	-2.0049312	3.2440463387517013
8.23110078	-1.51249155	4.078772488751701
7.8734655600000005	-1.0024656	4.8660695687516995
7.435478340000001	-0.49273632	5.580851758751701
6.93922197	0.	6.206628298751703
6.40913685	0.46261641000000003	6.7367636387517
8.966161620000001	-2.3848241100000003	0.7717454987517005
8.958118050000001	-1.9709462100000001	1.594528588751702
8.85428169	-1.51249155	2.4472632587517005
8.644697820000001	-1.0203681	3.3019806887517014
8.329386900000001	-0.51018405	4.127475658751701
7.919510790000001	0.	4.894526638751701
7.435478340000001	0.49273632	5.580851758751701
6.90269901	0.9539298300000001	6.173961118751702
9.1605744	-1.46192001	0.7884789887517005
9.11258175	-1.0024656	1.6220231087517014
8.96000967	-0.51018405	2.4764857187517
8.697091230000002	0.	3.321993358751701
8.329386900000001	0.51018405	4.127475658751701
7.8734655600000005	1.0024656	4.8660695687516995
7.35354162	1.46192001	5.519351788751701
9.262646550000001	-0.49273632	0.7972646987517003
9.165872610000001	0.	1.6315091087517022
8.96000967	0.51018405	2.4764857187517
8.644697820000001	1.0203681	3.3019806887517014
8.23110078	1.51249155	4.078772488751701
7.74000684	1.9709462100000001	4.783586938751702
9.262646550000001	0.49273632	0.7972646987517003
9.11258175	1.0024656	1.6220231087517014
8.85428169	1.51249155	2.4472632587517005
8.49302319	2.0049312	3.2440463387517013
8.04453441	2.46368253	3.9863221187517013
9.1605744	1.46192001	0.7884789887517005
8.958118050000001	1.9709462100000001	1.594528588751702
8.65359048	2.46368253	2.3917934087517008
8.257058010000002	2.92384095	3.1539153887517006
8.966161620000001	2.3848241100000003	0.7717454987517005
8.71726293	2.87693082	1.5516574487517012
8.37660114	3.33875301	2.3152358087516998
8.6964393	3.2383158000000005	0.7485289787517022
8.410525680000001	3.7009322100000004	1.4970590087517
8.371979040000001	4.00820886	0.7206020087517011
8.276717280000002	4.26274428	-1.2124830028881206e-7
8.60791818	3.5466573	-1.2124830028881206e-7
8.8949292	2.74868475	-1.2124830028881206e-7
9.11845656	1.8785051400000001	-1.2124830028881206e-7
9.26094279	0.9539298300000001	-1.2124830028881206e-7
9.309942630000002	0.	-1.2124830028881206e-7
9.26094279	-0.9539298300000001	-1.2124830028881206e-7
9.11845656	-1.8785051400000001	-1.2124830028881206e-7
8.8949292	-2.74868475	-1.2124830028881206e-7
8.60791818	-3.5466573	-1.2124830028881206e-7
8.276717280000002	-4.26274428	-1.2124830028881206e-7
8.01326502	-4.689018150000001	-0.6897262512483007
8.059929630000001	-4.43332209	-1.434653461248299
8.045538810000002	-4.123026660000001	-2.2237324212483003
7.9574761800000005	-3.7570112100000004	-3.0394856412483
7.787039730000001	-3.33875301	-3.8587263612482996
7.531901670000001	-2.87693082	-4.654970971248299
7.19747925	-2.3848241100000003	-5.4022166712483
6.79649673	-1.8785051400000001	-6.0789711612483
6.346758960000001	-1.3743419100000003	-6.6711970212483
5.867974500000001	-0.8866647900000001	-7.1732649612483
5.37874428	-0.42627480000000006	-7.5869912712483
8.371979040000001	4.00820886	-0.7206022512482999
8.410525680000001	3.7009322100000004	-1.4970583212483
8.37660114	3.33875301	-2.3152351212482998
8.257058010000002	2.92384095	-3.1539156312482994
8.04453441	2.46368253	-3.9863223612483
7.74000684	1.9709462100000001	-4.7835871812483
7.35354162	1.46192001	-5.5193520312482995
6.90269901	0.9539298300000001	-6.1739613612483
6.40913685	0.46261641000000003	-6.736763881248299
5.894769660000001	0.	-7.2060204912482995
8.6964393	3.2383158000000005	-0.7485292212482992
8.71726293	2.87693082	-1.5516567612482994
8.65359048	2.46368253	-2.3917936512482987
8.49302319	2.0049312	-3.2440465812482993
8.23110078	1.51249155	-4.078771801248299
7.8734655600000005	1.0024656	-4.866069811248299
7.435478340000001	0.49273632	-5.5808520012483
6.93922197	0.	-6.2066285412483
6.40913685	-0.46261641000000003	-6.736763881248299
8.966161620000001	2.3848241100000003	-0.7717448112483005
8.958118050000001	1.9709462100000001	-1.594528831248299
8.85428169	1.51249155	-2.4472635012482993
8.644697820000001	1.0203681	-3.3019809312482993
8.329386900000001	0.51018405	-4.1274759012482996
7.919510790000001	0.	-4.8945268812483
7.435478340000001	-0.49273632	-5.5808520012483
6.90269901	-0.9539298300000001	-6.1739613612483
9.1605744	1.46192001	-0.7884792312482993
9.11258175	1.0024656	-1.6220233512483002
8.96000967	0.51018405	-2.476485961248299
8.697091230000002	0.	-3.3219936012483
8.329386900000001	-0.51018405	-4.1274759012482996
7.8734655600000005	-1.0024656	-4.866069811248299
7.35354162	-1.46192001	-5.5193520312482995
9.262646550000001	0.49273632	-0.797264941248299
9.165872610000001	0.	-1.6315084212482986
8.96000967	-0.51018405	-2.476485961248299
8.644697820000001	-1.0203681	-3.3019809312482993
8.23110078	-1.51249155	-4.078771801248299
7.74000684	-1.9709462100000001	-4.7835871812483
9.262646550000001	-0.49273632	-0.797264941248299
9.11258175	-1.0024656	-1.6220233512483002
8.85428169	-1.51249155	-2.4472635012482993
8.49302319	-2.0049312	-3.2440465812482993
8.04453441	-2.46368253	-3.9863223612483
9.1605744	-1.46192001	-0.7884792312482993
8.958118050000001	-1.9709462100000001	-1.594528831248299
8.65359048	-2.46368253	-2.3917936512482987
8.257058010000002	-2.92384095	-3.1539156312482994
8.966161620000001	-2.3848241100000003	-0.7717448112483005
8.71726293	-2.87693082	-1.5516567612482994
8.37660114	-3.33875301	-2.3152351212482998
8.6964393	-3.2383158000000005	-0.7485292212482992
8.410525680000001	-3.7009322100000004	-1.4970583212483
8.371979040000001	-4.00820886	-0.7206022512482999
7.58699115	5.37874428	0.42627467875169955
7.17326484	5.867974500000001	0.8866646687517008
6.671196900000001	6.346758960000001	1.3743417887517015
6.078971040000001	6.79649673	1.8785050187516994
5.40221655	7.19747925	2.3848239887517018
4.654971780000001	7.531901670000001	2.8769306987517
3.85872624	7.787039730000001	3.3387528887516993
3.0394855200000004	7.9574761800000005	3.7570110887517014
2.2237323	8.045538810000002	4.1230265387517
1.43465334	8.059929630000001	4.4333219687517005
0.68972613	8.01326502	4.6890180287517005
5.17416753	1.1659586700000002	7.651376788751701
4.912078650000001	1.9596755400000003	7.661996458751702
4.58746308	2.7922003800000006	7.6048553987517025
4.1996261100000005	3.6412224900000005	7.468578778751702
3.75368367	4.47905949	7.2472694687517
3.2609473500000004	5.276323380000001	6.942741898751702
2.7377061	6.006658890000001	6.565062388751702
2.2026399000000003	6.650926620000001	6.1309532687517
1.6737628500000001	7.19938017	5.660607628751702
1.1659586700000002	7.651376910000001	5.174167408751702
5.6606077500000005	1.6737628500000001	7.199380048751703
5.3875644000000005	2.5106335800000004	7.165605238751702
5.04368481	3.3772671	7.059061648751701
4.6294191	4.246512060000001	6.871000768751699
4.1523291	5.0871	6.5995923587517
3.62695443	5.8685352900000005	6.2514431387517035
3.0727386	6.566324520000001	5.840949508751699
2.5106335800000004	7.165605360000001	5.387564278751702
1.9596755400000003	7.66199658	4.912078528751701
6.13095339	2.2026399000000003	6.650926498751701
5.84094963	3.0727386	6.5663243987517
5.4722474100000005	3.9597549300000003	6.407018188751703
5.02740609	4.83253296	6.168212788751699
4.51722204	5.658027930000001	5.852900938751702
3.9597549300000003	6.407018310000001	5.472247288751701
3.3772671	7.059060840000001	5.043684688751702
2.7922003800000006	7.60485552	4.587462958751701
6.56506251	2.7377061	6.006658768751699
6.251442330000001	3.62695443	5.868535168751702
5.852901060000001	4.51722204	5.658028738751701
5.37509775	5.37509775	5.375097628751702
4.83253296	6.16821291	5.027405968751701
4.246512060000001	6.87099996	4.6294199087517
3.6412224900000005	7.468578900000001	4.1996259887517
6.94274202	3.2609473500000004	5.276323258751701
6.59959155	4.1523291	5.087099878751701
6.16821291	5.02740609	4.8325328387517015
5.658027930000001	5.852901060000001	4.5172219187517
5.0871	6.59959155	4.152328978751701
4.47905949	7.247269590000001	3.7536835487517006
7.247269590000001	3.75368367	4.479059368751702
6.87099996	4.6294191	4.246511938751702
6.407018310000001	5.4722474100000005	3.9597548087517005
5.8685352900000005	6.251442330000001	3.626954308751701
5.276323380000001	6.94274202	3.2609472287517
7.468578900000001	4.1996261100000005	3.641222368751702
7.059060840000001	5.04368481	3.3772669787517007
6.566324520000001	5.84094963	3.0727384787517007
6.006658890000001	6.56506251	2.737705978751702
7.60485552	4.58746308	2.7922002587517003
7.165605360000001	5.3875644000000005	2.5106343887517024
6.650926620000001	6.13095339	2.202639778751701
7.66199658	4.912078650000001	1.9596754187517007
7.19938017	5.6606077500000005	1.6737627287517007
7.651376910000001	5.17416753	1.1659585487517
8.01326502	4.689018150000001	-0.6897262512483007
8.059929630000001	4.43332209	-1.434653461248299
8.045538810000002	4.123026660000001	-2.2237324212483003
7.9574761800000005	3.7570112100000004	-3.0394856412483
7.787039730000001	3.33875301	-3.8587263612482996
7.531901670000001	2.87693082	-4.654970971248299
7.19747925	2.3848241100000003	-5.4022166712483
6.79649673	1.8785051400000001	-6.0789711612483
6.346758960000001	1.3743419100000003	-6.6711970212483
5.867974500000001	0.8866647900000001	-7.1732649612483
5.37874428	0.42627480000000006	-7.5869912712483
4.689018150000001	0.68972613	-8.0132651412483
4.43332209	1.43465334	-8.0599297512483
4.123026660000001	2.2237323	-8.0455389312483
3.7570112100000004	3.0394855200000004	-7.9574763012483
3.33875301	3.85872624	-7.7870398512483
2.87693082	4.654971780000001	-7.5319017912483
2.3848241100000003	5.40221655	-7.197479371248299
1.8785051400000001	6.078971040000001	-6.796495921248299
1.3743419100000003	6.671196900000001	-6.346759081248299
0.8866647900000001	7.17326484	-5.867974621248299
0.42627480000000006	7.58699115	-5.3787444012483
7.651376910000001	5.17416753	-1.1659587912482987
7.19938017	5.6606077500000005	-1.673762041248299
6.650926620000001	6.13095339	-2.202639091248299
6.006658890000001	6.56506251	-2.737706221248299
5.276323380000001	6.94274202	-3.260947471248299
4.47905949	7.247269590000001	-3.7536837912482994
3.6412224900000005	7.468578900000001	-4.1996262312483
2.7922003800000006	7.60485552	-4.587463201248299
1.9596755400000003	7.66199658	-4.9120778412482995
1.1659586700000002	7.651376910000001	-5.1741676512482995
7.66199658	4.912078650000001	-1.959674731248299
7.165605360000001	5.3875644000000005	-2.510633701248299
6.566324520000001	5.84094963	-3.0727387212482995
5.8685352900000005	6.251442330000001	-3.6269536212482993
5.0871	6.59959155	-4.1523282912483
4.246512060000001	6.87099996	-4.629419221248299
3.3772671	7.059060840000001	-5.0436849312483
2.5106335800000004	7.165605360000001	-5.3875645212483
1.6737628500000001	7.19938017	-5.6606078712483
7.60485552	4.58746308	-2.7922005012483
7.059060840000001	5.04368481	-3.3772662912483
6.407018310000001	5.4722474100000005	-3.9597550512482993
5.658027930000001	5.852901060000001	-4.5172221612482995
4.83253296	6.16821291	-5.0274062112483
3.9597549300000003	6.407018310000001	-5.472246601248299
3.0727386	6.566324520000001	-5.8409497512483
2.2026399000000003	6.650926620000001	-6.1309535112483
7.468578900000001	4.1996261100000005	-3.641222611248299
6.87099996	4.6294191	-4.246512181248299
6.16821291	5.02740609	-4.8325330812483
5.37509775	5.37509775	-5.3750978712482995
4.51722204	5.658027930000001	-5.8529011812483
3.62695443	5.8685352900000005	-6.2514424512483
2.7377061	6.006658890000001	-6.565062631248299
7.247269590000001	3.75368367	-4.4790586812483
6.59959155	4.1523291	-5.0871001212483
5.852901060000001	4.51722204	-5.6580280512483
5.02740609	4.83253296	-6.1682121012483
4.1523291	5.0871	-6.5995916712483
3.2609473500000004	5.276323380000001	-6.942742141248299
6.94274202	3.2609473500000004	-5.276323501248299
6.251442330000001	3.62695443	-5.8685354112483
5.4722474100000005	3.9597549300000003	-6.4070184312483
4.6294191	4.246512060000001	-6.871000081248299
3.75368367	4.47905949	-7.2472697112483
6.56506251	2.7377061	-6.0066590112483
5.84094963	3.0727386	-6.5663246412483005
5.04368481	3.3772671	-7.059060961248299
4.1996261100000005	3.6412224900000005	-7.4685790212483
6.13095339	2.2026399000000003	-6.6509267412483
5.3875644000000005	2.5106335800000004	-7.1656054812483
4.58746308	2.7922003800000006	-7.6048556412482995
5.6606077500000005	1.6737628500000001	-7.1993802912483
4.912078650000001	1.9596755400000003	-7.6619967012483
5.17416753	1.1659586700000002	-7.6513770312483
7.58699115	5.37874428	-0.42627399124829957
7.17326484	5.867974500000001	-0.886663981248299
6.671196900000001	6.346758960000001	-1.3743420312483003
6.078971040000001	6.79649673	-1.8785052612483
5.40221655	7.19747925	-2.3848242312482997
4.654971780000001	7.531901670000001	-2.8769309412482995
3.85872624	7.787039730000001	-3.338753131248299
3.0394855200000004	7.9574761800000005	-3.7570104012482997
2.2237323	8.045538810000002	-4.1230267812483
1.43465334	8.059929630000001	-4.4333212812483
0.68972613	8.01326502	-4.689018271248299
0.7206021300000001	8.371979040000001	4.008208738751701
0.7485291000000001	8.6964393	3.2383156787517002
0.77174562	8.966161620000001	2.3848239887517018
0.78847911	9.1605744	1.4619198887517015
0.79726482	9.262646550000001	0.49273619875170027
0.79726482	9.262646550000001	-0.4927364412482991
0.78847911	9.1605744	-1.4619201312483003
0.77174562	8.966161620000001	-2.3848242312482997
0.7485291000000001	8.6964393	-3.2383159212483
0.7206021300000001	8.371979040000001	-4.008208981248299
1.4970582000000001	8.410525680000001	3.700932088751701
1.55165757	8.71726293	2.8769306987517
1.59452871	8.958118050000001	1.9709460887517007
1.6220232300000001	9.11258175	1.0024654787517004
1.6315092300000003	9.165872610000001	-1.2124830028881206e-7
1.6220232300000001	9.11258175	-1.0024657212482992
1.59452871	8.958118050000001	-1.9709463312482995
1.55165757	8.71726293	-2.8769309412482995
1.4970582000000001	8.410525680000001	-3.7009323312483
2.31523593	8.37660114	3.3387528887516993
2.3917935300000006	8.65359048	2.4636824087517013
2.4472633800000003	8.85428169	1.512492358751702
2.47648584	8.96000967	0.5101839287517009
2.47648584	8.96000967	-0.5101841712482997
2.4472633800000003	8.85428169	-1.5124916712482985
2.3917935300000006	8.65359048	-2.463682651248299
2.31523593	8.37660114	-3.338753131248299
3.1539155100000005	8.257058010000002	2.923840828751702
3.2440464600000003	8.49302319	2.0049310787516994
3.3019808100000003	8.644697820000001	1.0203679787517004
3.32199348	8.697091230000002	-1.2124830028881206e-7
3.3019808100000003	8.644697820000001	-1.0203682212482992
3.2440464600000003	8.49302319	-2.0049313212483
3.1539155100000005	8.257058010000002	-2.9238401412482995
3.9863222400000002	8.04453441	2.4636824087517013
4.07877168	8.23110078	1.512492358751702
4.12747578	8.329386900000001	0.5101839287517009
4.12747578	8.329386900000001	-0.5101841712482997
4.07877168	8.23110078	-1.5124916712482985
3.9863222400000002	8.04453441	-2.463682651248299
4.783587060000001	7.74000684	1.9709460887517007
4.866069690000001	7.8734655600000005	1.0024654787517004
4.894526760000001	7.919510790000001	-1.2124830028881206e-7
4.866069690000001	7.8734655600000005	-1.0024657212482992
4.783587060000001	7.74000684	-1.9709463312482995
5.519351910000001	7.35354162	1.4619198887517015
5.58085188	7.435478340000001	0.49273619875170027
5.58085188	7.435478340000001	-0.4927364412482991
5.519351910000001	7.35354162	-1.4619201312483003
6.173961240000001	6.90269901	0.9539297087517014
6.20662842	6.93922197	-1.2124830028881206e-7
6.173961240000001	6.90269901	-0.9539299512482984
6.7367637600000005	6.40913685	0.46261628875170047
6.7367637600000005	6.40913685	-0.46261653124829927
7.206020370000001	5.894769660000001	-1.2124830028881206e-7
-8.276717280000002	4.26274428	-1.2124830028881206e-7
-8.60791818	3.5466573	-1.2124830028881206e-7
-8.8949292	2.74868475	-1.2124830028881206e-7
-9.11845656	1.8785051400000001	-1.2124830028881206e-7
-9.26094279	0.9539298300000001	-1.2124830028881206e-7
-9.309942630000002	0.	-1.2124830028881206e-7
-9.26094279	-0.9539298300000001	-1.2124830028881206e-7
-9.11845656	-1.8785051400000001	-1.2124830028881206e-7
-8.8949292	-2.74868475	-1.2124830028881206e-7
-8.60791818	-3.5466573	-1.2124830028881206e-7
-8.276717280000002	-4.26274428	-1.2124830028881206e-7
-8.01326502	-4.689018150000001	0.6897260087517019
-8.059929630000001	-4.43332209	1.4346532187517003
-8.045538810000002	-4.123026660000001	2.2237321787517015
-7.9574761800000005	-3.7570112100000004	3.039485398751701
-7.787039730000001	-3.33875301	3.858726118751701
-7.531901670000001	-2.87693082	4.654971658751702
-7.19747925	-2.3848241100000003	5.402216428751702
-6.79649673	-1.8785051400000001	6.0789709187517005
-6.346758960000001	-1.3743419100000003	6.6711967787517
-5.867974500000001	-0.8866647900000001	7.173265648751702
-5.37874428	-0.42627480000000006	7.586991028751701
-8.371979040000001	4.00820886	0.7206020087517011
-8.410525680000001	3.7009322100000004	1.4970590087517
-8.37660114	3.33875301	2.3152358087516998
-8.257058010000002	2.92384095	3.1539153887517006
-8.04453441	2.46368253	3.9863221187517013
-7.74000684	1.9709462100000001	4.783586938751702
-7.35354162	1.46192001	5.519351788751701
-6.90269901	0.9539298300000001	6.173961118751702
-6.40913685	0.46261641000000003	6.7367636387517
-5.894769660000001	0.	7.206020248751702
-8.6964393	3.2383158000000005	0.7485289787517022
-8.71726293	2.87693082	1.5516574487517012
-8.65359048	2.46368253	2.3917934087517008
-8.49302319	2.0049312	3.2440463387517013
-8.23110078	1.51249155	4.078772488751701
-7.8734655600000005	1.0024656	4.8660695687516995
-7.435478340000001	0.49273632	5.580851758751701
-6.93922197	0.	6.206628298751703
-6.40913685	-0.46261641000000003	6.7367636387517
-8.966161620000001	2.3848241100000003	0.7717454987517005
-8.958118050000001	1.9709462100000001	1.594528588751702
-8.85428169	1.51249155	2.4472632587517005
-8.644697820000001	1.0203681	3.3019806887517014
-8.329386900000001	0.51018405	4.127475658751701
-7.919510790000001	0.	4.894526638751701
-7.435478340000001	-0.49273632	5.580851758751701
-6.90269901	-0.9539298300000001	6.173961118751702
-9.1605744	1.46192001	0.7884789887517005
-9.11258175	1.0024656	1.6220231087517014
-8.96000967	0.51018405	2.4764857187517
-8.697091230000002	0.	3.321993358751701
-8.329386900000001	-0.51018405	4.127475658751701
-7.8734655600000005	-1.0024656	4.8660695687516995
-7.35354162	-1.46192001	5.519351788751701
-9.262646550000001	0.49273632	0.7972646987517003
-9.165872610000001	0.	1.6315091087517022
-8.96000967	-0.51018405	2.4764857187517
-8.644697820000001	-1.0203681	3.3019806887517014
-8.23110078	-1.51249155	4.078772488751701
-7.74000684	-1.9709462100000001	4.783586938751702
-9.262646550000001	-0.49273632	0.7972646987517003
-9.11258175	-1.0024656	1.6220231087517014
-8.85428169	-1.51249155	2.4472632587517005
-8.49302319	-2.0049312	3.2440463387517013
-8.04453441	-2.46368253	3.9863221187517013
-9.1605744	-1.46192001	0.7884789887517005
-8.958118050000001	-1.9709462100000001	1.594528588751702
-8.65359048	-2.46368253	2.3917934087517008
-8.257058010000002	-2.92384095	3.1539153887517006
-8.966161620000001	-2.3848241100000003	0.7717454987517005
-8.71726293	-2.87693082	1.5516574487517012
-8.37660114	-3.33875301	2.3152358087516998
-8.6964393	-3.2383158000000005	0.7485289787517022
-8.410525680000001	-3.7009322100000004	1.4970590087517
-8.371979040000001	-4.00820886	0.7206020087517011
-8.01326502	4.689018150000001	-0.6897262512483007
-8.059929630000001	4.43332209	-1.434653461248299
-8.045538810000002	4.123026660000001	-2.2237324212483003
-7.9574761800000005	3.7570112100000004	-3.0394856412483
-7.787039730000001	3.33875301	-3.8587263612482996
-7.531901670000001	2.87693082	-4.654970971248299
-7.19747925	2.3848241100000003	-5.4022166712483
-6.79649673	1.8785051400000001	-6.0789711612483
-6.346758960000001	1.3743419100000003	-6.6711970212483
-5.867974500000001	0.8866647900000001	-7.1732649612483
-5.37874428	0.42627480000000006	-7.5869912712483
-8.371979040000001	-4.00820886	-0.7206022512482999
-8.410525680000001	-3.7009322100000004	-1.4970583212483
-8.37660114	-3.33875301	-2.3152351212482998
-8.257058010000002	-2.92384095	-3.1539156312482994
-8.04453441	-2.46368253	-3.9863223612483
-7.74000684	-1.9709462100000001	-4.7835871812483
-7.35354162	-1.46192001	-5.5193520312482995
-6.90269901	-0.9539298300000001	-6.1739613612483
-6.40913685	-0.46261641000000003	-6.736763881248299
-5.894769660000001	0.	-7.2060204912482995
-8.6964393	-3.2383158000000005	-0.7485292212482992
-8.71726293	-2.87693082	-1.5516567612482994
-8.65359048	-2.46368253	-2.3917936512482987
-8.49302319	-2.0049312	-3.2440465812482993
-8.23110078	-1.51249155	-4.078771801248299
-7.8734655600000005	-1.0024656	-4.866069811248299
-7.435478340000001	-0.49273632	-5.5808520012483
-6.93922197	0.	-6.2066285412483
-6.40913685	0.46261641000000003	-6.736763881248299
-8.966161620000001	-2.3848241100000003	-0.7717448112483005
-8.958118050000001	-1.9709462100000001	-1.594528831248299
-8.85428169	-1.51249155	-2.4472635012482993
-8.644697820000001	-1.0203681	-3.3019809312482993
-8.329386900000001	-0.51018405	-4.1274759012482996
-7.919510790000001	0.	-4.8945268812483
-7.435478340000001	0.49273632	-5.5808520012483
-6.90269901	0.9539298300000001	-6.1739613612483
-9.1605744	-1.46192001	-0.7884792312482993
-9.11258175	-1.0024656	-1.6220233512483002
-8.96000967	-0.51018405	-2.476485961248299
-8.697091230000002	0.	-3.3219936012483
-8.329386900000001	0.51018405	-4.1274759012482996
-7.8734655600000005	1.0024656	-4.866069811248299
-7.35354162	1.46192001	-5.5193520312482995
-9.262646550000001	-0.49273632	-0.797264941248299
-9.165872610000001	0.	-1.6315084212482986
-8.96000967	0.51018405	-2.476485961248299
-8.644697820000001	1.0203681	-3.3019809312482993
-8.23110078	1.51249155	-4.078771801248299
-7.74000684	1.9709462100000001	-4.7835871812483
-9.262646550000001	0.49273632	-0.797264941248299
-9.11258175	1.0024656	-1.6220233512483002
-8.85428169	1.51249155	-2.4472635012482993
-8.49302319	2.0049312	-3.2440465812482993
-8.04453441	2.46368253	-3.9863223612483
-9.1605744	1.46192001	-0.7884792312482993
-8.958118050000001	1.9709462100000001	-1.594528831248299
-8.65359048	2.46368253	-2.3917936512482987
-8.257058010000002	2.92384095	-3.1539156312482994
-8.966161620000001	2.3848241100000003	-0.7717448112483005
-8.71726293	2.87693082	-1.5516567612482994
-8.37660114	3.33875301	-2.3152351212482998
-8.6964393	3.2383158000000005	-0.7485292212482992
-8.410525680000001	3.7009322100000004	-1.4970583212483
-8.371979040000001	4.00820886	-0.7206022512482999
-8.01326502	4.689018150000001	0.6897260087517019
-8.059929630000001	4.43332209	1.4346532187517003
-8.045538810000002	4.123026660000001	2.2237321787517015
-7.9574761800000005	3.7570112100000004	3.039485398751701
-7.787039730000001	3.33875301	3.858726118751701
-7.531901670000001	2.87693082	4.654971658751702
-7.19747925	2.3848241100000003	5.402216428751702
-6.79649673	1.8785051400000001	6.0789709187517005
-6.346758960000001	1.3743419100000003	6.6711967787517
-5.867974500000001	0.8866647900000001	7.173265648751702
-5.37874428	0.42627480000000006	7.586991028751701
-4.689018150000001	0.68972613	8.0132648987517
-4.43332209	1.43465334	8.0599295087517
-4.123026660000001	2.2237323	8.0455396187517
-3.7570112100000004	3.0394855200000004	7.957476058751702
-3.33875301	3.85872624	7.7870405387517
-2.87693082	4.654971780000001	7.531901548751701
-2.3848241100000003	5.40221655	7.197479128751702
-1.8785051400000001	6.078971040000001	6.796496608751703
-1.3743419100000003	6.671196900000001	6.3467588387517
-0.8866647900000001	7.17326484	5.8679743787517005
-0.42627480000000006	7.58699115	5.378745088751701
-7.651376910000001	5.17416753	1.1659585487517
-7.19938017	5.6606077500000005	1.6737627287517007
-6.650926620000001	6.13095339	2.202639778751701
-6.006658890000001	6.56506251	2.737705978751702
-5.276323380000001	6.94274202	3.2609472287517
-4.47905949	7.247269590000001	3.7536835487517006
-3.6412224900000005	7.468578900000001	4.1996259887517
-2.7922003800000006	7.60485552	4.587462958751701
-1.9596755400000003	7.66199658	4.912078528751701
-1.1659586700000002	7.651376910000001	5.174167408751702
-7.66199658	4.912078650000001	1.9596754187517007
-7.165605360000001	5.3875644000000005	2.5106343887517024
-6.566324520000001	5.84094963	3.0727384787517007
-5.8685352900000005	6.251442330000001	3.626954308751701
-5.0871	6.59959155	4.152328978751701
-4.246512060000001	6.87099996	4.6294199087517
-3.3772671	7.059060840000001	5.043684688751702
-2.5106335800000004	7.165605360000001	5.387564278751702
-1.6737628500000001	7.19938017	5.660607628751702
-7.60485552	4.58746308	2.7922002587517003
-7.059060840000001	5.04368481	3.3772669787517007
-6.407018310000001	5.4722474100000005	3.9597548087517005
-5.658027930000001	5.852901060000001	4.5172219187517
-4.83253296	6.16821291	5.027405968751701
-3.9597549300000003	6.407018310000001	5.472247288751701
-3.0727386	6.566324520000001	5.840949508751699
-2.2026399000000003	6.650926620000001	6.1309532687517
-7.468578900000001	4.1996261100000005	3.641222368751702
-6.87099996	4.6294191	4.246511938751702
-6.16821291	5.02740609	4.8325328387517015
-5.37509775	5.37509775	5.375097628751702
-4.51722204	5.658027930000001	5.852900938751702
-3.62695443	5.8685352900000005	6.2514431387517035
-2.7377061	6.006658890000001	6.565062388751702
-7.247269590000001	3.75368367	4.479059368751702
-6.59959155	4.1523291	5.087099878751701
-5.852901060000001	4.51722204	5.658028738751701
-5.02740609	4.83253296	6.168212788751699
-4.1523291	5.0871	6.5995923587517
-3.2609473500000004	5.276323380000001	6.942741898751702
-6.94274202	3.2609473500000004	5.276323258751701
-6.251442330000001	3.62695443	5.868535168751702
-5.4722474100000005	3.9597549300000003	6.407018188751703
-4.6294191	4.246512060000001	6.871000768751699
-3.75368367	4.47905949	7.2472694687517
-6.56506251	2.7377061	6.006658768751699
-5.84094963	3.0727386	6.5663243987517
-5.04368481	3.3772671	7.059061648751701
-4.1996261100000005	3.6412224900000005	7.468578778751702
-6.13095339	2.2026399000000003	6.650926498751701
-5.3875644000000005	2.5106335800000004	7.165605238751702
-4.58746308	2.7922003800000006	7.6048553987517025
-5.6606077500000005	1.6737628500000001	7.199380048751703
-4.912078650000001	1.9596755400000003	7.661996458751702
-5.17416753	1.1659586700000002	7.651376788751701
-7.58699115	5.37874428	-0.42627399124829957
-7.17326484	5.867974500000001	-0.886663981248299
-6.671196900000001	6.346758960000001	-1.3743420312483003
-6.078971040000001	6.79649673	-1.8785052612483
-5.40221655	7.19747925	-2.3848242312482997
-4.654971780000001	7.531901670000001	-2.8769309412482995
-3.85872624	7.787039730000001	-3.338753131248299
-3.0394855200000004	7.9574761800000005	-3.7570104012482997
-2.2237323	8.045538810000002	-4.1230267812483
-1.43465334	8.059929630000001	-4.4333212812483
-0.68972613	8.01326502	-4.689018271248299
-5.17416753	1.1659586700000002	-7.6513770312483
-4.912078650000001	1.9596755400000003	-7.6619967012483
-4.58746308	2.7922003800000006	-7.6048556412482995
-4.1996261100000005	3.6412224900000005	-7.4685790212483
-3.75368367	4.47905949	-7.2472697112483
-3.2609473500000004	5.276323380000001	-6.942742141248299
-2.7377061	6.006658890000001	-6.565062631248299
-2.2026399000000003	6.650926620000001	-6.1309535112483
-1.6737628500000001	7.19938017	-5.6606078712483
-1.1659586700000002	7.651376910000001	-5.1741676512482995
-5.6606077500000005	1.6737628500000001	-7.1993802912483
-5.3875644000000005	2.5106335800000004	-7.1656054812483
-5.04368481	3.3772671	-7.059060961248299
-4.6294191	4.246512060000001	-6.871000081248299
-4.1523291	5.0871	-6.5995916712483
-3.62695443	5.8685352900000005	-6.2514424512483
-3.0727386	6.566324520000001	-5.8409497512483
-2.5106335800000004	7.165605360000001	-5.3875645212483