# TIME = 0.000000
VARIABLES = X, Y, Z
ZONE N=642 E=1280 F=FEPOINT ET=TRIANGLE
0.8526955 0.5269948 1.1024037
-0.8526955 0.5269948 1.1024037
0.8526955 -0.5269948 1.1024037
-0.8526955 -0.5269948 1.1024037
0.5269948 0.0000000 1.9550993
0.5269948 0.0000000 0.2497082
-0.5269948 0.0000000 1.9550993
-0.5269948 0.0000000 0.2497082
0.0000000 0.8526955 1.6293986
0.0000000 -0.8526955 1.6293986
0.0000000 0.8526955 0.5754089
0.0000000 -0.8526955 0.5754089
0.8660306 0.4918138 1.2160854
0.8662651 0.4439272 1.3418335
0.8487509 0.3826591 1.4738970
0.8109617 0.3097598 1.6036056
0.7541523 0.2295955 1.7215592
0.6833570 0.1479757 1.8206931
0.6054954 0.0702591 1.8981752
0.9220946 -0.3740373 1.2234448
0.9177030 -0.3135248 1.3560506
0.8913331 -0.2411144 1.4925350
0.8416608 -0.1607429 1.6225787
0.7723763 -0.0783812 1.7365209
0.6909268 0.0000000 1.8286498
0.9661452 -0.2351436 1.2292272
0.9533426 -0.1628504 1.3659012
0.9151771 -0.0825215 1.5029713
0.8526955 0.0000000 1.6293986
0.7723763 0.0783812 1.7365209
0.9906777 -0.0803715 1.2324475
0.9661781 0.0000000 1.3694488
0.9151771 0.0825215 1.5029713
0.8416608 0.1607429 1.6225787
0.9906777 0.0803715 1.2324475
0.9533426 0.1628504 1.3659012
0.8913331 0.2411144 1.4925350
0.9661452 0.2351436 1.2292272
0.9177030 0.3135248 1.3560506
0.9220946 0.3740373 1.2234448
0.9094531 0.4215547 1.1024037
0.9577191 0.2959515 1.1024037
0.9906487 0.1530636 1.1024037
1.0024037 0.0000000 1.1024037
0.9906487 -0.1530636 1.1024037
0.9577191 -0.2959515 1.1024037
0.9094531 -0.4215547 1.1024037
0.8660306 -0.4918138 0.9887221
0.8662651 -0.4439272 0.8629740
0.8487509 -0.3826591 0.7309105
0.8109617 -0.3097598 0.6012019
0.7541523 -0.2295955 0.4832483
0.6833570 -0.1479757 0.3841144
0.6054954 -0.0702591 0.3066323
0.9220946 0.3740373 0.9813627
0.9177030 0.3135248 0.8487569
0.8913331 0.2411144 0.7122725
0.8416608 0.1607429 0.5822287
0.7723763 0.0783812 0.4682866
0.6909268 0.0000000 0.3761576
0.9661452 0.2351436 0.9755803
0.9533426 0.1628504 0.8389063
0.9151771 0.0825215 0.7018361
0.8526955 0.0000000 0.5754089
0.7723763 -0.0783812 0.4682866
0.9906777 0.0803715 0.9723600
0.9661781 0.0000000 0.8353587
0.9151771 -0.0825215 0.7018361
0.8416608 -0.1607429 0.5822287
0.9906777 -0.0803715 0.9723600
0.9533426 -0.1628504 0.8389063
0.8913331 -0.2411144 0.7122725
0.9661452 -0.2351436 0.9755803
0.9177030 -0.3135248 0.8487569
0.9220946 -0.3740373 0.9813627
0.7957714 0.6054954 1.1726629
0.7182894 0.6833570 1.2503795
0.6191554 0.7541523 1.3319992
0.5012019 0.8109617 1.4121635
0.3714932 0.8487509 1.4850628
0.2394298 0.8662651 1.5463310
0.1136816 0.8660306 1.5942175
0.5698858 0.1958485 1.9034573
0.5187294 0.3320281 1.8932833
0.4515296 0.4705027 1.8636931
0.3711581 0.6005465 1.8140208
0.2835858 0.7124983 1.7479566
0.1958485 0.8010536 1.6722895
0.6455528 0.2835858 1.8149021
0.5891981 0.4263478 1.7922489
0.5146095 0.5656105 1.7505357
0.4263478 0.6898452 1.6916019
0.3320281 0.7908795 1.6211331
0.7116171 0.3711581 1.7029502
0.6481320 0.5146095 1.6680143
0.5656105 0.6481320 1.6170132
0.4705027 0.7612894 1.5539333
0.7612894 0.4515296 1.5729064
0.6898452 0.5891981 1.5287515
0.6005465 0.7116171 1.4735619
0.7908795 0.5187294 1.4344318
0.7124983 0.6455528 1.3859896
0.8010536 0.5698858 1.2982522
0.8660306 0.4918138 0.9887221
0.8662651 0.4439272 0.8629740
0.8487509 0.3826591 0.7309105
0.8109617 0.3097598 0.6012019
0.7541523 0.2295955 0.4832483
0.6833570 0.1479757 0.3841144
0.6054954 0.0702591 0.3066323
0.4918138 0.1136816 0.2363732
0.4439272 0.2394298 0.2361386
0.3826591 0.3714932 0.2536529
0.3097598 0.5012019 0.2914421
0.2295955 0.6191554 0.3482514
0.1479757 0.7182894 0.4190467
0.0702591 0.7957714 0.4969083
0.8010536 0.5698858 0.9065553
0.7124983 0.6455528 0.8188179
0.6005465 0.7116171 0.7312456
0.4705027 0.7612894 0.6508742
0.3320281 0.7908795 0.5836743
0.1958485 0.8010536 0.5325179
0.7908795 0.5187294 0.7703757
0.6898452 0.5891981 0.6760560
0.5656105 0.6481320 0.5877943
0.4263478 0.6898452 0.5132056
0.2835858 0.7124983 0.4568509
0.7612894 0.4515296 0.6319010
0.6481320 0.5146095 0.5367932
0.5146095 0.5656105 0.4542717
0.3711581 0.6005465 0.3907867
0.7116171 0.3711581 0.5018573
0.5891981 0.4263478 0.4125585
0.4515296 0.4705027 0.3411144
0.6455528 0.2835858 0.3899054
0.5187294 0.3320281 0.3115242
0.5698858 0.1958485 0.3013502
0.7957714 0.6054954 1.0321446
0.7182894 0.6833570 0.9544280
0.6191554 0.7541523 0.8728083
0.5012019 0.8109617 0.7926439
0.3714932 0.8487509 0.7197446
0.2394298 0.8662651 0.6584765
0.1136816 0.8660306 0.6105899
0.1210410 0.9220946 1.4764410
0.1268234 0.9661452 1.3375473
0.1300437 0.9906777 1.1827752
0.1300437 0.9906777 1.0220323
0.1268234 0.9661452 0.8672602
0.1210410 0.9220946 0.7283664
0.2536469 0.9177030 1.4159285
0.2634974 0.9533426 1.2652541
0.2670451 0.9661781 1.1024037
0.2634974 0.9533426 0.9395534
0.2536469 0.9177030 0.7888790
0.3901312 0.8913331 1.3435181
0.4005676 0.9151771 1.1849252
0.4005676 0.9151771 1.0198823
0.3901312 0.8913331 0.8612894
0.5201750 0.8416608 1.2631467
0.5269948 0.8526955 1.1024037
0.5201750 0.8416608 0.9416608
0.6341172 0.7723763 1.1807849
0.6341172 0.7723763 1.0240225
0.7262461 0.6909268 1.1024037
-0.9094531 0.4215547 1.1024037
-0.9577191 0.2959515 1.1024037
-0.9906487 0.1530636 1.1024037
-1.0024037 0.0000000 1.1024037
-0.9906487 -0.1530636 1.1024037
-0.9577191 -0.2959515 1.1024037
-0.9094531 -0.4215547 1.1024037
-0.8660306 -0.4918138 1.2160854
-0.8662651 -0.4439272 1.3418335
-0.8487509 -0.3826591 1.4738970
-0.8109617 -0.3097598 1.6036056
-0.7541523 -0.2295955 1.7215592
-0.6833570 -0.1479757 1.8206931
-0.6054954 -0.0702591 1.8981752
-0.9220946 0.3740373 1.2234448
-0.9177030 0.3135248 1.3560506
-0.8913331 0.2411144 1.4925350
-0.8416608 0.1607429 1.6225787
-0.7723763 0.0783812 1.7365209
-0.6909268 0.0000000 1.8286498
-0.9661452 0.2351436 1.2292272
-0.9533426 0.1628504 1.3659012
-0.9151771 0.0825215 1.5029713
-0.8526955 0.0000000 1.6293986
-0.7723763 -0.0783812 1.7365209
-0.9906777 0.0803715 1.2324475
-0.9661781 0.0000000 1.3694488
-0.9151771 -0.0825215 1.5029713
-0.8416608 -0.1607429 1.6225787
-0.9906777 -0.0803715 1.2324475
-0.9533426 -0.1628504 1.3659012
-0.8913331 -0.2411144 1.4925350
-0.9661452 -0.2351436 1.2292272
-0.9177030 -0.3135248 1.3560506
-0.9220946 -0.3740373 1.2234448
-0.8660306 0.4918138 0.9887221
-0.8662651 0.4439272 0.8629740
-0.8487509 0.3826591 0.7309105
-0.8109617 0.3097598 0.6012019
-0.7541523 0.2295955 0.4832483
-0.6833570 0.1479757 0.3841144
-0.6054954 0.0702591 0.3066323
-0.9220946 -0.3740373 0.9813627
-0.9177030 -0.3135248 0.8487569
-0.8913331 -0.2411144 0.7122725
-0.8416608 -0.1607429 0.5822287
-0.7723763 -0.0783812 0.4682866
-0.6909268 0.0000000 0.3761576
-0.9661452 -0.2351436 0.9755803
-0.9533426 -0.1628504 0.8389063
-0.9151771 -0.0825215 0.7018361
-0.8526955 0.0000000 0.5754089
-0.7723763 0.0783812 0.4682866
-0.9906777 -0.0803715 0.9723600
-0.9661781 0.0000000 0.8353587
-0.9151771 0.0825215 0.7018361
-0.8416608 0.1607429 0.5822287
-0.9906777 0.0803715 0.9723600
-0.9533426 0.1628504 0.8389063
-0.8913331 0.2411144 0.7122725
-0.9661452 0.2351436 0.9755803
-0.9177030 0.3135248 0.8487569
-0.9220946 0.3740373 0.9813627
-0.8660306 0.4918138 1.2160854
-0.8662651 0.4439272 1.3418335
-0.8487509 0.3826591 1.4738970
-0.8109617 0.3097598 1.6036056
-0.7541523 0.2295955 1.7215592
-0.6833570 0.1479757 1.8206931
-0.6054954 0.0702591 1.8981752
-0.4918138 0.1136816 1.9684343
-0.4439272 0.2394298 1.9686688
-0.3826591 0.3714932 1.9511546
-0.3097598 0.5012019 1.9133654
-0.2295955 0.6191554 1.8565561
-0.1479757 0.7182894 1.7857608
-0.0702591 0.7957714 1.7078992
-0.8010536 0.5698858 1.2982522
-0.7124983 0.6455528 1.3859896
-0.6005465 0.7116171 1.4735619
-0.4705027 0.7612894 1.5539333
-0.3320281 0.7908795 1.6211331
-0.1958485 0.8010536 1.6722895
-0.7908795 0.5187294 1.4344318
-0.6898452 0.5891981 1.5287515
-0.5656105 0.6481320 1.6170132
-0.4263478 0.6898452 1.6916019
-0.2835858 0.7124983 1.7479566
-0.7612894 0.4515296 1.5729064
-0.6481320 0.5146095 1.6680143
-0.5146095 0.5656105 1.7505357
-0.3711581 0.6005465 1.8140208
-0.7116171 0.3711581 1.7029502
-0.5891981 0.4263478 1.7922489
-0.4515296 0.4705027 1.8636931
-0.6455528 0.2835858 1.8149021
-0.5187294 0.3320281 1.8932833
-0.5698858 0.1958485 1.9034573
-0.7957714 0.6054954 1.0321446
-0.7182894 0.6833570 0.9544280
-0.6191554 0.7541523 0.8728083
-0.5012019 0.8109617 0.7926439
-0.3714932 0.8487509 0.7197446
-0.2394298 0.8662651 0.6584765
-0.1136816 0.8660306 0.6105899
-0.5698858 0.1958485 0.3013502
-0.5187294 0.3320281 0.3115242
-0.4515296 0.4705027 0.3411144
-0.3711581 0.6005465 0.3907867
-0.2835858 0.7124983 0.4568509
-0.1958485 0.8010536 0.5325179
-0.6455528 0.2835858 0.3899054
-0.5891981 0.4263478 0.4125585
-0.5146095 0.5656105 0.4542717
-0.4263478 0.6898452 0.5132056
-0.3320281 0.7908795 0.5836743
-0.7116171 0.3711581 0.5018573
-0.6481320 0.5146095 0.5367932
-0.5656105 0.6481320 0.5877943
-0.4705027 0.7612894 0.6508742
-0.7612894 0.4515296 0.6319010
-0.6898452 0.5891981 0.6760560
-0.6005465 0.7116171 0.7312456
-0.7908795 0.5187294 0.7703757
-0.7124983 0.6455528 0.8188179
-0.8010536 0.5698858 0.9065553
-0.7957714 0.6054954 1.1726629
-0.7182894 0.6833570 1.2503795
-0.6191554 0.7541523 1.3319992
-0.5012019 0.8109617 1.4121635
-0.3714932 0.8487509 1.4850628
-0.2394298 0.8662651 1.5463310
-0.1136816 0.8660306 1.5942175
0.0000000 0.9094531 1.5239584
0.0000000 0.9577191 1.3983552
0.0000000 0.9906487 1.2554674
0.0000000 1.0024037 1.1024037
0.0000000 0.9906487 0.9493401
0.0000000 0.9577191 0.8064522
0.0000000 0.9094531 0.6808491
-0.7262461 0.6909268 1.1024037
-0.6341172 0.7723763 1.0240225
-0.5201750 0.8416608 0.9416608
-0.3901312 0.8913331 0.8612894
-0.2536469 0.9177030 0.7888790
-0.1210410 0.9220946 0.7283664
-0.6341172 0.7723763 1.1807849
-0.5269948 0.8526955 1.1024037
-0.4005676 0.9151771 1.0198823
-0.2634974 0.9533426 0.9395534
-0.1268234 0.9661452 0.8672602
-0.5201750 0.8416608 1.2631467
-0.4005676 0.9151771 1.1849252
-0.2670451 0.9661781 1.1024037
-0.1300437 0.9906777 1.0220323
-0.3901312 0.8913331 1.3435181
-0.2634974 0.9533426 1.2652541
-0.1300437 0.9906777 1.1827752
-0.2536469 0.9177030 1.4159285
-0.1268234 0.9661452 1.3375473
-0.1210410 0.9220946 1.4764410
0.8660306 -0.4918138 1.2160854
0.8662651 -0.4439272 1.3418335
0.8487509 -0.3826591 1.4738970
0.8109617 -0.3097598 1.6036056
0.7541523 -0.2295955 1.7215592
0.6833570 -0.1479757 1.8206931
0.6054954 -0.0702591 1.8981752
0.4918138 -0.1136816 1.9684343
0.4439272 -0.2394298 1.9686688
0.3826591 -0.3714932 1.9511546
0.3097598 -0.5012019 1.9133654
0.2295955 -0.6191554 1.8565561
0.1479757 -0.7182894 1.7857608
0.0702591 -0.7957714 1.7078992
0.8010536 -0.5698858 1.2982522
0.7124983 -0.6455528 1.3859896
0.6005465 -0.7116171 1.4735619
0.4705027 -0.7612894 1.5539333
0.3320281 -0.7908795 1.6211331
0.1958485 -0.8010536 1.6722895
0.7908795 -0.5187294 1.4344318
0.6898452 -0.5891981 1.5287515
0.5656105 -0.6481320 1.6170132
0.4263478 -0.6898452 1.6916019
0.2835858 -0.7124983 1.7479566
0.7612894 -0.4515296 1.5729064
0.6481320 -0.5146095 1.6680143
0.5146095 -0.5656105 1.7505357
0.3711581 -0.6005465 1.8140208
0.7116171 -0.3711581 1.7029502
0.5891981 -0.4263478 1.7922489
0.4515296 -0.4705027 1.8636931
0.6455528 -0.2835858 1.8149021
0.5187294 -0.3320281 1.8932833
0.5698858 -0.1958485 1.9034573
0.7957714 -0.6054954 1.0321446
0.7182894 -0.6833570 0.9544280
0.6191554 -0.7541523 0.8728083
0.5012019 -0.8109617 0.7926439
0.3714932 -0.8487509 0.7197446
0.2394298 -0.8662651 0.6584765
0.1136816 -0.8660306 0.6105899
0.5698858 -0.1958485 0.3013502
0.5187294 -0.3320281 0.3115242
0.4515296 -0.4705027 0.3411144
0.3711581 -0.6005465 0.3907867
0.2835858 -0.7124983 0.4568509
0.1958485 -0.8010536 0.5325179
0.6455528 -0.2835858 0.3899054
0.5891981 -0.4263478 0.4125585
0.5146095 -0.5656105 0.4542717
0.4263478 -0.6898452 0.5132056
0.3320281 -0.7908795 0.5836743
0.7116171 -0.3711581 0.5018573
0.6481320 -0.5146095 0.5367932
0.5656105 -0.6481320 0.5877943
0.4705027 -0.7612894 0.6508742
0.7612894 -0.4515296 0.6319010
0.6898452 -0.5891981 0.6760560
0.6005465 -0.7116171 0.7312456
0.7908795 -0.5187294 0.7703757
0.7124983 -0.6455528 0.8188179
0.8010536 -0.5698858 0.9065553
0.7957714 -0.6054954 1.1726629
0.7182894 -0.6833570 1.2503795
0.6191554 -0.7541523 1.3319992
0.5012019 -0.8109617 1.4121635
0.3714932 -0.8487509 1.4850628
0.2394298 -0.8662651 1.5463310
0.1136816 -0.8660306 1.5942175
0.0000000 -0.9094531 1.5239584
0.0000000 -0.9577191 1.3983552
0.0000000 -0.9906487 1.2554674
0.0000000 -1.0024037 1.1024037
0.0000000 -0.9906487 0.9493401
0.0000000 -0.9577191 0.8064522
0.0000000 -0.9094531 0.6808491
0.7262461 -0.6909268 1.1024037
0.6341172 -0.7723763 1.0240225
0.5201750 -0.8416608 0.9416608
0.3901312 -0.8913331 0.8612894
0.2536469 -0.9177030 0.7888790
0.1210410 -0.9220946 0.7283664
0.6341172 -0.7723763 1.1807849
0.5269948 -0.8526955 1.1024037
0.4005676 -0.9151771 1.0198823
0.2634974 -0.9533426 0.9395534
0.1268234 -0.9661452 0.8672602
0.5201750 -0.8416608 1.2631467
0.4005676 -0.9151771 1.1849252
0.2670451 -0.9661781 1.1024037
0.1300437 -0.9906777 1.0220323
0.3901312 -0.8913331 1.3435181
0.2634974 -0.9533426 1.2652541
0.1300437 -0.9906777 1.1827752
0.2536469 -0.9177030 1.4159285
0.1268234 -0.9661452 1.3375473
0.1210410 -0.9220946 1.4764410
-0.7957714 -0.6054954 1.1726629
-0.7182894 -0.6833570 1.2503795
-0.6191554 -0.7541523 1.3319992
-0.5012019 -0.8109617 1.4121635
-0.3714932 -0.8487509 1.4850628
-0.2394298 -0.8662651 1.5463310
-0.1136816 -0.8660306 1.5942175
-0.5698858 -0.1958485 1.9034573
-0.5187294 -0.3320281 1.8932833
-0.4515296 -0.4705027 1.8636931
-0.3711581 -0.6005465 1.8140208
-0.2835858 -0.7124983 1.7479566
-0.1958485 -0.8010536 1.6722895
-0.6455528 -0.2835858 1.8149021
-0.5891981 -0.4263478 1.7922489
-0.5146095 -0.5656105 1.7505357
-0.4263478 -0.6898452 1.6916019
-0.3320281 -0.7908795 1.6211331
-0.7116171 -0.3711581 1.7029502
-0.6481320 -0.5146095 1.6680143
-0.5656105 -0.6481320 1.6170132
-0.4705027 -0.7612894 1.5539333
-0.7612894 -0.4515296 1.5729064
-0.6898452 -0.5891981 1.5287515
-0.6005465 -0.7116171 1.4735619
-0.7908795 -0.5187294 1.4344318
-0.7124983 -0.6455528 1.3859896
-0.8010536 -0.5698858 1.2982522
-0.8660306 -0.4918138 0.9887221
-0.8662651 -0.4439272 0.8629740
-0.8487509 -0.3826591 0.7309105
-0.8109617 -0.3097598 0.6012019
-0.7541523 -0.2295955 0.4832483
-0.6833570 -0.1479757 0.3841144
-0.6054954 -0.0702591 0.3066323
-0.4918138 -0.1136816 0.2363732
-0.4439272 -0.2394298 0.2361386
-0.3826591 -0.3714932 0.2536529
-0.3097598 -0.5012019 0.2914421
-0.2295955 -0.6191554 0.3482514
-0.1479757 -0.7182894 0.4190467
-0.0702591 -0.7957714 0.4969083
-0.8010536 -0.5698858 0.9065553
-0.7124983 -0.6455528 0.8188179
-0.6005465 -0.7116171 0.7312456
-0.4705027 -0.7612894 0.6508742
-0.3320281 -0.7908795 0.5836743
-0.1958485 -0.8010536 0.5325179
-0.7908795 -0.5187294 0.7703757
-0.6898452 -0.5891981 0.6760560
-0.5656105 -0.6481320 0.5877943
-0.4263478 -0.6898452 0.5132056
-0.2835858 -0.7124983 0.4568509
-0.7612894 -0.4515296 0.6319010
-0.6481320 -0.5146095 0.5367932
-0.5146095 -0.5656105 0.4542717
-0.3711581 -0.6005465 0.3907867
-0.7116171 -0.3711581 0.5018573
-0.5891981 -0.4263478 0.4125585
-0.4515296 -0.4705027 0.3411144
-0.6455528 -0.2835858 0.3899054
-0.5187294 -0.3320281 0.3115242
-0.5698858 -0.1958485 0.3013502
-0.7957714 -0.6054954 1.0321446
-0.7182894 -0.6833570 0.9544280
-0.6191554 -0.7541523 0.8728083
-0.5012019 -0.8109617 0.7926439
-0.3714932 -0.8487509 0.7197446
-0.2394298 -0.8662651 0.6584765
-0.1136816 -0.8660306 0.6105899
-0.1210410 -0.9220946 1.4764410
-0.1268234 -0.9661452 1.3375473
-0.1300437 -0.9906777 1.1827752
-0.1300437 -0.9906777 1.0220323
-0.1268234 -0.9661452 0.8672602
-0.1210410 -0.9220946 0.7283664
-0.2536469 -0.9177030 1.4159285
-0.2634974 -0.9533426 1.2652541
-0.2670451 -0.9661781 1.1024037
-0.2634974 -0.9533426 0.9395534
-0.2536469 -0.9177030 0.7888790
-0.3901312 -0.8913331 1.3435181
-0.4005676 -0.9151771 1.1849252
-0.4005676 -0.9151771 1.0198823
-0.3901312 -0.8913331 0.8612894
-0.5201750 -0.8416608 1.2631467
-0.5269948 -0.8526955 1.1024037
-0.5201750 -0.8416608 0.9416608
-0.6341172 -0.7723763 1.1807849
-0.6341172 -0.7723763 1.0240225
-0.7262461 -0.6909268 1.1024037
0.4918138 0.1136816 1.9684343
0.4439272 0.2394298 1.9686688
0.3826591 0.3714932 1.9511546
0.3097598 0.5012019 1.9133654
0.2295955 0.6191554 1.8565561
0.1479757 0.7182894 1.7857608
0.0702591 0.7957714 1.7078992
-0.3740373 0.1210410 2.0244983
-0.3135248 0.2536469 2.0201067
-0.2411144 0.3901312 1.9937369
-0.1607429 0.5201750 1.9440646
-0.0783812 0.6341172 1.8747800
0.0000000 0.7262461 1.7933305
-0.2351436 0.1268234 2.0685489
-0.1628504 0.2634974 2.0557463
-0.0825215 0.4005676 2.0175808
0.0000000 0.5269948 1.9550993
0.0783812 0.6341172 1.8747800
-0.0803715 0.1300437 2.0930814
0.0000000 0.2670451 2.0685819
0.0825215 0.4005676 2.0175808
0.1607429 0.5201750 1.9440646
0.0803715 0.1300437 2.0930814
0.1628504 0.2634974 2.0557463
0.2411144 0.3901312 1.9937369
0.2351436 0.1268234 2.0685489
0.3135248 0.2536469 2.0201067
0.3740373 0.1210410 2.0244983
0.4215547 0.0000000 2.0118568
0.2959515 0.0000000 2.0601229
0.1530636 0.0000000 2.0930524
0.0000001 0.0000000 2.1048075
-0.1530636 0.0000000 2.0930524
-0.2959515 0.0000000 2.0601229
-0.4215547 0.0000000 2.0118568
-0.4918138 -0.1136816 1.9684343
-0.4439272 -0.2394298 1.9686688
-0.3826591 -0.3714932 1.9511546
-0.3097598 -0.5012019 1.9133654
-0.2295955 -0.6191554 1.8565561
-0.1479757 -0.7182894 1.7857608
-0.0702591 -0.7957714 1.7078992
0.3740373 -0.1210410 2.0244983
0.3135248 -0.2536469 2.0201067
0.2411144 -0.3901312 1.9937369
0.1607429 -0.5201750 1.9440646
0.0783812 -0.6341172 1.8747800
0.0000000 -0.7262461 1.7933305
0.2351436 -0.1268234 2.0685489
0.1628504 -0.2634974 2.0557463
0.0825215 -0.4005676 2.0175808
0.0000000 -0.5269948 1.9550993
-0.0783812 -0.6341172 1.8747800
0.0803715 -0.1300437 2.0930814
0.0000000 -0.2670451 2.0685819
-0.0825215 -0.4005676 2.0175808
-0.1607429 -0.5201750 1.9440646
-0.0803715 -0.1300437 2.0930814
-0.1628504 -0.2634974 2.0557463
-0.2411144 -0.3901312 1.9937369
-0.2351436 -0.1268234 2.0685489
-0.3135248 -0.2536469 2.0201067
-0.3740373 -0.1210410 2.0244983
0.4215547 0.0000000 0.1929507
0.2959515 0.0000000 0.1446846
0.1530636 0.0000000 0.1117551
0.0000000 0.0000001 0.1000000
-0.1530636 0.0000000 0.1117551
-0.2959515 0.0000000 0.1446846
-0.4215547 0.0000000 0.1929507
-0.4918138 0.1136816 0.2363732
-0.4439272 0.2394298 0.2361386
-0.3826591 0.3714932 0.2536529
-0.3097598 0.5012019 0.2914421
-0.2295955 0.6191554 0.3482514
-0.1479757 0.7182894 0.4190467
-0.0702591 0.7957714 0.4969083
0.3740373 0.1210410 0.1803092
0.3135248 0.2536469 0.1847008
0.2411144 0.3901312 0.2110706
0.1607429 0.5201750 0.2607429
0.0783812 0.6341172 0.3300275
0.0000000 0.7262461 0.4114769
0.2351436 0.1268234 0.1362585
0.1628504 0.2634974 0.1490611
0.0825215 0.4005676 0.1872267
0.0000000 0.5269948 0.2497082
-0.0783812 0.6341172 0.3300275
0.0803715 0.1300437 0.1117260
0.0000000 0.2670451 0.1362256
-0.0825215 0.4005676 0.1872267
-0.1607429 0.5201750 0.2607429
-0.0803715 0.1300437 0.1117260
-0.1628504 0.2634974 0.1490611
-0.2411144 0.3901312 0.2110706
-0.2351436 0.1268234 0.1362585
-0.3135248 0.2536469 0.1847008
-0.3740373 0.1210410 0.1803092
0.4918138 -0.1136816 0.2363732
0.4439272 -0.2394298 0.2361386
0.3826591 -0.3714932 0.2536529
0.3097598 -0.5012019 0.2914421
0.2295955 -0.6191554 0.3482514
0.1479757 -0.7182894 0.4190467
0.0702591 -0.7957714 0.4969083
-0.3740373 -0.1210410 0.1803092
-0.3135248 -0.2536469 0.1847008
-0.2411144 -0.3901312 0.2110706
-0.1607429 -0.5201750 0.2607429
-0.0783812 -0.6341172 0.3300275
0.0000000 -0.7262461 0.4114769
-0.2351436 -0.1268234 0.1362585
-0.1628504 -0.2634974 0.1490611
-0.0825215 -0.4005676 0.1872267
0.0000000 -0.5269948 0.2497082
0.0783812 -0.6341172 0.3300275
-0.0803715 -0.1300437 0.1117260
0.0000000 -0.2670451 0.1362256
0.0825215 -0.4005676 0.1872267
0.1607429 -0.5201750 0.2607429
0.0803715 -0.1300437 0.1117260
0.1628504 -0.2634974 0.1490611
0.2411144 -0.3901312 0.2110706
0.2351436 -0.1268234 0.1362585
0.3135248 -0.2536469 0.1847008
0.3740373 -0.1210410 0.1803092
3 47 328
47 20 328
328 20 329
20 21 329
329 21 330
21 22 330
330 22 331
22 23 331
331 23 332
23 24 332
332 24 333
24 25 333
333 25 334
25 19 334
334 19 5
47 46 20
46 26 20
20 26 21
26 27 21
21 27 22
27 28 22
22 28 23
28 29 23
23 29 24
29 30 24
24 30 25
30 18 25
25 18 19
46 45 26
45 31 26
26 31 27
31 32 27
27 32 28
32 33 28
28 33 29
33 34 29
29 34 30
34 17 30
30 17 18
45 44 31
44 35 31
31 35 32
35 36 32
32 36 33
36 37 33
33 37 34
37 16 34
34 16 17
44 43 35
43 38 35
35 38 36
38 39 36
36 39 37
39 15 37
37 15 16
43 42 38
42 40 38
38 40 39
40 14 39
39 14 15
42 41 40
41 13 40
40 13 14
41 1 13
1 41 104
41 55 104
104 55 105
55 56 105
105 56 106
56 57 106
106 57 107
57 58 107
107 58 108
58 59 108
108 59 109
59 60 109
109 60 110
60 54 110
110 54 6
41 42 55
42 61 55
55 61 56
61 62 56
56 62 57
62 63 57
57 63 58
63 64 58
58 64 59
64 65 59
59 65 60
65 53 60
60 53 54
42 43 61
43 66 61
61 66 62
66 67 62
62 67 63
67 68 63
63 68 64
68 69 64
64 69 65
69 52 65
65 52 53
43 44 66
44 70 66
66 70 67
70 71 67
67 71 68
71 72 68
68 72 69
72 51 69
69 51 52
44 45 70
45 73 70
70 73 71
73 74 71
71 74 72
74 50 72
72 50 51
45 46 73
46 75 73
73 75 74
75 49 74
74 49 50
46 47 75
47 48 75
75 48 49
47 3 48
5 19 517
19 83 517
517 83 518
83 84 518
518 84 519
84 85 519
519 85 520
85 86 520
520 86 521
86 87 521
521 87 522
87 88 522
522 88 523
88 82 523
523 82 9
19 18 83
18 89 83
83 89 84
89 90 84
84 90 85
90 91 85
85 91 86
91 92 86
86 92 87
92 93 87
87 93 88
93 81 88
88 81 82
18 17 89
17 94 89
89 94 90
94 95 90
90 95 91
95 96 91
91 96 92
96 97 92
92 97 93
97 80 93
93 80 81
17 16 94
16 98 94
94 98 95
98 99 95
95 99 96
99 100 96
96 100 97
100 79 97
97 79 80
16 15 98
15 101 98
98 101 99
101 102 99
99 102 100
102 78 100
100 78 79
15 14 101
14 103 101
101 103 102
103 77 102
102 77 78
14 13 103
13 76 103
103 76 77
13 1 76
1 104 139
104 118 139
139 118 140
118 119 140
140 119 141
119 120 141
141 120 142
120 121 142
142 121 143
121 122 143
143 122 144
122 123 144
144 123 145
123 117 145
145 117 11
104 105 118
105 124 118
118 124 119
124 125 119
119 125 120
125 126 120
120 126 121
126 127 121
121 127 122
127 128 122
122 128 123
128 116 123
123 116 117
105 106 124
106 129 124
124 129 125
129 130 125
125 130 126
130 131 126
126 131 127
131 132 127
127 132 128
132 115 128
128 115 116
106 107 129
107 133 129
129 133 130
133 134 130
130 134 131
134 135 131
131 135 132
135 114 132
132 114 115
107 108 133
108 136 133
133 136 134
136 137 134
134 137 135
137 113 135
135 113 114
108 109 136
109 138 136
136 138 137
138 112 137
137 112 113
109 110 138
110 111 138
138 111 112
110 6 111
9 82 300
82 146 300
300 146 301
146 147 301
301 147 302
147 148 302
302 148 303
148 149 303
303 149 304
149 150 304
304 150 305
150 151 305
305 151 306
151 145 306
306 145 11
82 81 146
81 152 146
146 152 147
152 153 147
147 153 148
153 154 148
148 154 149
154 155 149
149 155 150
155 156 150
150 156 151
156 144 151
151 144 145
81 80 152
80 157 152
152 157 153
157 158 153
153 158 154
158 159 154
154 159 155
159 160 155
155 160 156
160 143 156
156 143 144
80 79 157
79 161 157
157 161 158
161 162 158
158 162 159
162 163 159
159 163 160
163 142 160
160 142 143
79 78 161
78 164 161
161 164 162
164 165 162
162 165 163
165 141 163
163 141 142
78 77 164
77 166 164
164 166 165
166 140 165
165 140 141
77 76 166
76 139 166
166 139 140
76 1 139
2 167 230
167 181 230
230 181 231
181 182 231
231 182 232
182 183 232
232 183 233
183 184 233
233 184 234
184 185 234
234 185 235
185 186 235
235 186 236
186 180 236
236 180 7
167 168 181
168 187 181
181 187 182
187 188 182
182 188 183
188 189 183
183 189 184
189 190 184
184 190 185
190 191 185
185 191 186
191 179 186
186 179 180
168 169 187
169 192 187
187 192 188
192 193 188
188 193 189
193 194 189
189 194 190
194 195 190
190 195 191
195 178 191
191 178 179
169 170 192
170 196 192
192 196 193
196 197 193
193 197 194
197 198 194
194 198 195
198 177 195
195 177 178
170 171 196
171 199 196
196 199 197
199 200 197
197 200 198
200 176 198
198 176 177
171 172 199
172 201 199
199 201 200
201 175 200
200 175 176
172 173 201
173 174 201
201 174 175
173 4 174
4 173 454
173 209 454
454 209 455
209 210 455
455 210 456
210 211 456
456 211 457
211 212 457
457 212 458
212 213 458
458 213 459
213 214 459
459 214 460
214 208 460
460 208 8
173 172 209
172 215 209
209 215 210
215 216 210
210 216 211
216 217 211
211 217 212
217 218 212
212 218 213
218 219 213
213 219 214
219 207 214
214 207 208
172 171 215
171 220 215
215 220 216
220 221 216
216 221 217
221 222 217
217 222 218
222 223 218
218 223 219
223 206 219
219 206 207
171 170 220
170 224 220
220 224 221
224 225 221
221 225 222
225 226 222
222 226 223
226 205 223
223 205 206
170 169 224
169 227 224
224 227 225
227 228 225
225 228 226
228 204 226
226 204 205
169 168 227
168 229 227
227 229 228
229 203 228
228 203 204
168 167 229
167 202 229
229 202 203
167 2 202
2 230 293
230 244 293
293 244 294
244 245 294
294 245 295
245 246 295
295 246 296
246 247 296
296 247 297
247 248 297
297 248 298
248 249 298
298 249 299
249 243 299
299 243 9
230 231 244
231 250 244
244 250 245
250 251 245
245 251 246
251 252 246
246 252 247
252 253 247
247 253 248
253 254 248
248 254 249
254 242 249
249 242 243
231 232 250
232 255 250
250 255 251
255 256 251
251 256 252
256 257 252
252 257 253
257 258 253
253 258 254
258 241 254
254 241 242
232 233 255
233 259 255
255 259 256
259 260 256
256 260 257
260 261 257
257 261 258
261 240 258
258 240 241
233 234 259
234 262 259
259 262 260
262 263 260
260 263 261
263 239 261
261 239 240
234 235 262
235 264 262
262 264 263
264 238 263
263 238 239
235 236 264
236 237 264
264 237 238
236 7 237
8 208 587
208 272 587
587 272 588
272 273 588
588 273 589
273 274 589
589 274 590
274 275 590
590 275 591
275 276 591
591 276 592
276 277 592
592 277 593
277 271 593
593 271 11
208 207 272
207 278 272
272 278 273
278 279 273
273 279 274
279 280 274
274 280 275
280 281 275
275 281 276
281 282 276
276 282 277
282 270 277
277 270 271
207 206 278
206 283 278
278 283 279
283 284 279
279 284 280
284 285 280
280 285 281
285 286 281
281 286 282
286 269 282
282 269 270
206 205 283
205 287 283
283 287 284
287 288 284
284 288 285
288 289 285
285 289 286
289 268 286
286 268 269
205 204 287
204 290 287
287 290 288
290 291 288
288 291 289
291 267 289
289 267 268
204 203 290
203 292 290
290 292 291
292 266 291
291 266 267
203 202 292
202 265 292
292 265 266
202 2 265
2 293 265
293 307 265
265 307 266
307 308 266
266 308 267
308 309 267
267 309 268
309 310 268
268 310 269
310 311 269
269 311 270
311 312 270
270 312 271
312 306 271
271 306 11
293 294 307
294 313 307
307 313 308
313 314 308
308 314 309
314 315 309
309 315 310
315 316 310
310 316 311
316 317 311
311 317 312
317 305 312
312 305 306
294 295 313
295 318 313
313 318 314
318 319 314
314 319 315
319 320 315
315 320 316
320 321 316
316 321 317
321 304 317
317 304 305
295 296 318
296 322 318
318 322 319
322 323 319
319 323 320
323 324 320
320 324 321
324 303 321
321 303 304
296 297 322
297 325 322
322 325 323
325 326 323
323 326 324
326 302 324
324 302 303
297 298 325
298 327 325
325 327 326
327 301 326
326 301 302
298 299 327
299 300 327
327 300 301
299 9 300
3 328 391
328 342 391
391 342 392
342 343 392
392 343 393
343 344 393
393 344 394
344 345 394
394 345 395
345 346 395
395 346 396
346 347 396
396 347 397
347 341 397
397 341 10
328 329 342
329 348 342
342 348 343
348 349 343
343 349 344
349 350 344
344 350 345
350 351 345
345 351 346
351 352 346
346 352 347
352 340 347
347 340 341
329 330 348
330 353 348
348 353 349
353 354 349
349 354 350
354 355 350
350 355 351
355 356 351
351 356 352
356 339 352
352 339 340
330 331 353
331 357 353
353 357 354
357 358 354
354 358 355
358 359 355
355 359 356
359 338 356
356 338 339
331 332 357
332 360 357
357 360 358
360 361 358
358 361 359
361 337 359
359 337 338
332 333 360
333 362 360
360 362 361
362 336 361
361 336 337
333 334 362
334 335 362
362 335 336
334 5 335
6 54 615
54 370 615
615 370 616
370 371 616
616 371 617
371 372 617
617 372 618
372 373 618
618 373 619
373 374 619
619 374 620
374 375 620
620 375 621
375 369 621
621 369 12
54 53 370
53 376 370
370 376 371
376 377 371
371 377 372
377 378 372
372 378 373
378 379 373
373 379 374
379 380 374
374 380 375
380 368 375
375 368 369
53 52 376
52 381 376
376 381 377
381 382 377
377 382 378
382 383 378
378 383 379
383 384 379
379 384 380
384 367 380
380 367 368
52 51 381
51 385 381
381 385 382
385 386 382
382 386 383
386 387 383
383 387 384
387 366 384
384 366 367
51 50 385
50 388 385
385 388 386
388 389 386
386 389 387
389 365 387
387 365 366
50 49 388
49 390 388
388 390 389
390 364 389
389 364 365
49 48 390
48 363 390
390 363 364
48 3 363
3 391 363
391 405 363
363 405 364
405 406 364
364 406 365
406 407 365
365 407 366
407 408 366
366 408 367
408 409 367
367 409 368
409 410 368
368 410 369
410 404 369
369 404 12
391 392 405
392 411 405
405 411 406
411 412 406
406 412 407
412 413 407
407 413 408
413 414 408
408 414 409
414 415 409
409 415 410
415 403 410
410 403 404
392 393 411
393 416 411
411 416 412
416 417 412
412 417 413
417 418 413
413 418 414
418 419 414
414 419 415
419 402 415
415 402 403
393 394 416
394 420 416
416 420 417
420 421 417
417 421 418
421 422 418
418 422 419
422 401 419
419 401 402
394 395 420
395 423 420
420 423 421
423 424 421
421 424 422
424 400 422
422 400 401
395 396 423
396 425 423
423 425 424
425 399 424
424 399 400
396 397 425
397 398 425
425 398 399
397 10 398
7 180 552
180 433 552
552 433 553
433 434 553
553 434 554
434 435 554
554 435 555
435 436 555
555 436 556
436 437 556
556 437 557
437 438 557
557 438 558
438 432 558
558 432 10
180 179 433
179 439 433
433 439 434
439 440 434
434 440 435
440 441 435
435 441 436
441 442 436
436 442 437
442 443 437
437 443 438
443 431 438
438 431 432
179 178 439
178 444 439
439 444 440
444 445 440
440 445 441
445 446 441
441 446 442
446 447 442
442 447 443
447 430 443
443 430 431
178 177 444
177 448 444
444 448 445
448 449 445
445 449 446
449 450 446
446 450 447
450 429 447
447 429 430
177 176 448
176 451 448
448 451 449
451 452 449
449 452 450
452 428 450
450 428 429