# TIME = 0.000000
VARIABLES = X, Y, Z, U, V, W
ZONE N=492 E=980 F=FEPOINT ET=TRIANGLE
0.8533204 0.5273810 1.0992512 0.00000 0.00000 0.00000
-0.8533204 0.5273810 1.0992512 0.00000 0.00000 0.00000
0.8533204 -0.5273810 1.0992512 0.00000 0.00000 0.00000
-0.8533204 -0.5273810 1.0992512 0.00000 0.00000 0.00000
0.5273810 0.0000000 1.9525716 0.00000 0.00000 0.00000
0.5273810 0.0000000 0.2459308 0.00000 0.00000 0.00000
-0.5273810 0.0000000 1.9525716 0.00000 0.00000 0.00000
-0.5273810 0.0000000 0.2459308 0.00000 0.00000 0.00000
0.0000000 0.8533204 1.6266322 0.00000 0.00000 0.00000
0.0000000 -0.8533204 1.6266322 0.00000 0.00000 0.00000
0.0000000 0.8533204 0.5718702 0.00000 0.00000 0.00000
0.0000000 -0.8533204 0.5718702 0.00000 0.00000 0.00000
0.8676199 0.4861431 1.2303505 0.00000 0.00000 0.00000
0.8638729 0.4280765 1.3763081 0.00000 0.00000 0.00000
0.8356740 0.3528978 1.5275017 0.00000 0.00000 0.00000
0.7811483 0.2646734 1.6702519 0.00000 0.00000 0.00000
0.7051334 0.1712306 1.7918935 0.00000 0.00000 0.00000
0.6172424 0.0810239 1.8858472 0.00000 0.00000 0.00000
0.9304413 -0.3475620 1.2398430 0.00000 0.00000 0.00000
0.9190902 -0.2732631 1.3940171 0.00000 0.00000 0.00000
0.8773845 -0.1852559 1.5488767 0.00000 0.00000 0.00000
0.8064996 -0.0910877 1.6887831 0.00000 0.00000 0.00000
0.7156362 -0.0000000 1.8022102 0.00000 0.00000 0.00000
0.9753855 -0.1821754 1.2466341 0.00000 0.00000 0.00000
0.9509893 -0.0942491 1.4042476 0.00000 0.00000 0.00000
0.8927402 -0.0000000 1.5567459 0.00000 0.00000 0.00000
0.8064996 0.0910877 1.6887831 0.00000 0.00000 0.00000
0.9918790 -0.0000000 1.2491263 0.00000 0.00000 0.00000
0.9509893 0.0942491 1.4042476 0.00000 0.00000 0.00000
0.8773845 0.1852559 1.5488767 0.00000 0.00000 0.00000
0.9753855 0.1821754 1.2466341 0.00000 0.00000 0.00000
0.9190902 0.2732631 1.3940171 0.00000 0.00000 0.00000
0.9304413 0.3475620 1.2398430 0.00000 0.00000 0.00000
0.9176954 0.4051193 1.0992512 0.00000 0.00000 0.00000
0.9696993 0.2568459 1.0992512 0.00000 0.00000 0.00000
0.9992512 0.0882245 1.0992512 0.00000 0.00000 0.00000
0.9992512 -0.0882245 1.0992512 0.00000 0.00000 0.00000
0.9696993 -0.2568459 1.0992512 0.00000 0.00000 0.00000
0.9176954 -0.4051193 1.0992512 0.00000 0.00000 0.00000
0.8676199 -0.4861431 0.9681518 0.00000 0.00000 0.00000
0.8638729 -0.4280765 0.8221942 0.00000 0.00000 0.00000
0.8356740 -0.3528978 0.6710007 0.00000 0.00000 0.00000
0.7811483 -0.2646734 0.5282505 0.00000 0.00000 0.00000
0.7051334 -0.1712306 0.4066088 0.00000 0.00000 0.00000
0.6172424 -0.0810239 0.3126551 0.00000 0.00000 0.00000
0.9304413 0.3475620 0.9586594 0.00000 0.00000 0.00000
0.9190902 0.2732631 0.8044852 0.00000 0.00000 0.00000
0.8773845 0.1852559 0.6496257 0.00000 0.00000 0.00000
0.8064996 0.0910877 0.5097193 0.00000 0.00000 0.00000
0.7156362 0.0000000 0.3962922 0.00000 0.00000 0.00000
0.9753855 0.1821754 0.9518682 0.00000 0.00000 0.00000
0.9509893 0.0942491 0.7942547 0.00000 0.00000 0.00000
0.8927402 0.0000000 0.6417565 0.00000 0.00000 0.00000
0.8064996 -0.0910877 0.5097193 0.00000 0.00000 0.00000
0.9918790 0.0000000 0.9493760 0.00000 0.00000 0.00000
0.9509893 -0.0942491 0.7942547 0.00000 0.00000 0.00000
0.8773845 -0.1852559 0.6496257 0.00000 0.00000 0.00000
0.9753855 -0.1821754 0.9518682 0.00000 0.00000 0.00000
0.9190902 -0.2732631 0.8044852 0.00000 0.00000 0.00000
0.9304413 -0.3475620 0.9586594 0.00000 0.00000 0.00000
0.7865961 0.6172424 1.1802750 0.00000 0.00000 0.00000
0.6926423 0.7051334 1.2704818 0.00000 0.00000 0.00000
0.5710007 0.7811483 1.3639245 0.00000 0.00000 0.00000
0.4282505 0.8356740 1.4521490 0.00000 0.00000 0.00000
0.2770569 0.8638729 1.5273277 0.00000 0.00000 0.00000
0.1310993 0.8676199 1.5853943 0.00000 0.00000 0.00000
0.5750444 0.2274823 1.8891007 0.00000 0.00000 0.00000
0.5117337 0.3858536 1.8709584 0.00000 0.00000 0.00000
0.4277590 0.5422535 1.8267605 0.00000 0.00000 0.00000
0.3295583 0.6806196 1.7583679 0.00000 0.00000 0.00000
0.2274823 0.7898495 1.6742955 0.00000 0.00000 0.00000
0.6591167 0.3295583 1.7798707 0.00000 0.00000 0.00000
0.5877437 0.4934946 1.7452441 0.00000 0.00000 0.00000
0.4934946 0.6459929 1.6869949 0.00000 0.00000 0.00000
0.3858536 0.7717072 1.6109849 0.00000 0.00000 0.00000
0.7275094 0.4277590 1.6415046 0.00000 0.00000 0.00000
0.6459929 0.5877437 1.5927458 0.00000 0.00000 0.00000
0.5422535 0.7275094 1.5270102 0.00000 0.00000 0.00000
0.7717072 0.5117337 1.4851048 0.00000 0.00000 0.00000
0.6806196 0.6591167 1.4288095 0.00000 0.00000 0.00000
0.7898495 0.5750444 1.3267335 0.00000 0.00000 0.00000
0.8676199 0.4861431 0.9681518 0.00000 0.00000 0.00000
0.8638729 0.4280765 0.8221942 0.00000 0.00000 0.00000
0.8356740 0.3528978 0.6710007 0.00000 0.00000 0.00000
0.7811483 0.2646734 0.5282505 0.00000 0.00000 0.00000
0.7051334 0.1712306 0.4066088 0.00000 0.00000 0.00000
0.6172424 0.0810239 0.3126551 0.00000 0.00000 0.00000
0.4861431 0.1310993 0.2316313 0.00000 0.00000 0.00000
0.4280765 0.2770569 0.2353782 0.00000 0.00000 0.00000
0.3528978 0.4282505 0.2635771 0.00000 0.00000 0.00000
0.2646734 0.5710007 0.3181028 0.00000 0.00000 0.00000
0.1712306 0.6926423 0.3941177 0.00000 0.00000 0.00000
0.0810239 0.7865961 0.4820087 0.00000 0.00000 0.00000
0.7898495 0.5750444 0.8717689 0.00000 0.00000 0.00000
0.6806196 0.6591167 0.7696928 0.00000 0.00000 0.00000
0.5422535 0.7275094 0.6714922 0.00000 0.00000 0.00000
0.3858536 0.7717072 0.5875175 0.00000 0.00000 0.00000
0.2274823 0.7898495 0.5242068 0.00000 0.00000 0.00000
0.7717072 0.5117337 0.7133976 0.00000 0.00000 0.00000
0.6459929 0.5877437 0.6057565 0.00000 0.00000 0.00000
0.4934946 0.6459929 0.5115074 0.00000 0.00000 0.00000
0.3295583 0.6806196 0.4401345 0.00000 0.00000 0.00000
0.7275094 0.4277590 0.5569977 0.00000 0.00000 0.00000
0.5877437 0.4934946 0.4532583 0.00000 0.00000 0.00000
0.4277590 0.5422535 0.3717418 0.00000 0.00000 0.00000
0.6591167 0.3295583 0.4186316 0.00000 0.00000 0.00000
0.5117337 0.3858536 0.3275439 0.00000 0.00000 0.00000
0.5750444 0.2274823 0.3094017 0.00000 0.00000 0.00000
0.7865961 0.6172424 1.0182273 0.00000 0.00000 0.00000
0.6926423 0.7051334 0.9280206 0.00000 0.00000 0.00000
0.5710007 0.7811483 0.8345778 0.00000 0.00000 0.00000
0.4282505 0.8356740 0.7463534 0.00000 0.00000 0.00000
0.2770569 0.8638729 0.6711747 0.00000 0.00000 0.00000
0.1310993 0.8676199 0.6131081 0.00000 0.00000 0.00000
0.1405918 0.9304413 1.4468132 0.00000 0.00000 0.00000
0.1473830 0.9753855 1.2814265 0.00000 0.00000 0.00000
0.1498752 0.9918790 1.0992512 0.00000 0.00000 0.00000
0.1473830 0.9753855 0.9170758 0.00000 0.00000 0.00000
0.1405918 0.9304413 0.7516891 0.00000 0.00000 0.00000
0.2947659 0.9190902 1.3725142 0.00000 0.00000 0.00000
0.3049965 0.9509893 1.1935003 0.00000 0.00000 0.00000
0.3049965 0.9509893 1.0050021 0.00000 0.00000 0.00000
0.2947659 0.9190902 0.8259881 0.00000 0.00000 0.00000
0.4496255 0.8773845 1.2845071 0.00000 0.00000 0.00000
0.4574947 0.8927402 1.0992512 0.00000 0.00000 0.00000
0.4496255 0.8773845 0.9139953 0.00000 0.00000 0.00000
0.5895319 0.8064996 1.1903389 0.00000 0.00000 0.00000
0.5895319 0.8064996 1.0081635 0.00000 0.00000 0.00000
0.7029590 0.7156362 1.0992512 0.00000 0.00000 0.00000
-0.9176954 0.4051193 1.0992512 0.00000 0.00000 0.00000
-0.9696993 0.2568459 1.0992512 0.00000 0.00000 0.00000
-0.9992512 0.0882245 1.0992512 0.00000 0.00000 0.00000
-0.9992512 -0.0882245 1.0992512 0.00000 0.00000 0.00000
-0.9696993 -0.2568459 1.0992512 0.00000 0.00000 0.00000
-0.9176954 -0.4051193 1.0992512 0.00000 0.00000 0.00000
-0.8676199 -0.4861431 1.2303505 0.00000 0.00000 0.00000
-0.8638729 -0.4280765 1.3763081 0.00000 0.00000 0.00000
-0.8356740 -0.3528978 1.5275017 0.00000 0.00000 0.00000
-0.7811483 -0.2646734 1.6702519 0.00000 0.00000 0.00000
-0.7051334 -0.1712306 1.7918935 0.00000 0.00000 0.00000
-0.6172424 -0.0810239 1.8858472 0.00000 0.00000 0.00000
-0.9304413 0.3475620 1.2398430 0.00000 0.00000 0.00000
-0.9190902 0.2732631 1.3940171 0.00000 0.00000 0.00000
-0.8773845 0.1852559 1.5488767 0.00000 0.00000 0.00000
-0.8064996 0.0910877 1.6887831 0.00000 0.00000 0.00000
-0.7156362 0.0000000 1.8022102 0.00000 0.00000 0.00000
-0.9753855 0.1821754 1.2466341 0.00000 0.00000 0.00000
-0.9509893 0.0942491 1.4042476 0.00000 0.00000 0.00000
-0.8927402 0.0000000 1.5567459 0.00000 0.00000 0.00000
-0.8064996 -0.0910877 1.6887831 0.00000 0.00000 0.00000
-0.9918790 0.0000000 1.2491263 0.00000 0.00000 0.00000
-0.9509893 -0.0942491 1.4042476 0.00000 0.00000 0.00000
-0.8773845 -0.1852559 1.5488767 0.00000 0.00000 0.00000
-0.9753855 -0.1821754 1.2466341 0.00000 0.00000 0.00000
-0.9190902 -0.2732631 1.3940171 0.00000 0.00000 0.00000
-0.9304413 -0.3475620 1.2398430 0.00000 0.00000 0.00000
-0.8676199 0.4861431 0.9681518 0.00000 0.00000 0.00000
-0.8638729 0.4280765 0.8221942 0.00000 0.00000 0.00000
-0.8356740 0.3528978 0.6710007 0.00000 0.00000 0.00000
-0.7811483 0.2646734 0.5282505 0.00000 0.00000 0.00000
-0.7051334 0.1712306 0.4066088 0.00000 0.00000 0.00000
-0.6172424 0.0810239 0.3126551 0.00000 0.00000 0.00000
-0.9304413 -0.3475620 0.9586594 0.00000 0.00000 0.00000
-0.9190902 -0.2732631 0.8044852 0.00000 0.00000 0.00000
-0.8773845 -0.1852559 0.6496257 0.00000 0.00000 0.00000
-0.8064996 -0.0910877 0.5097193 0.00000 0.00000 0.00000
-0.7156362 -0.0000000 0.3962922 0.00000 0.00000 0.00000
-0.9753855 -0.1821754 0.9518682 0.00000 0.00000 0.00000
-0.9509893 -0.0942491 0.7942547 0.00000 0.00000 0.00000
-0.8927402 -0.0000000 0.6417565 0.00000 0.00000 0.00000
-0.8064996 0.0910877 0.5097193 0.00000 0.00000 0.00000
-0.9918790 -0.0000000 0.9493760 0.00000 0.00000 0.00000
-0.9509893 0.0942491 0.7942547 0.00000 0.00000 0.00000
-0.8773845 0.1852559 0.6496257 0.00000 0.00000 0.00000
-0.9753855 0.1821754 0.9518682 0.00000 0.00000 0.00000
-0.9190902 0.2732631 0.8044852 0.00000 0.00000 0.00000
-0.9304413 0.3475620 0.9586594 0.00000 0.00000 0.00000
-0.8676199 0.4861431 1.2303505 0.00000 0.00000 0.00000
-0.8638729 0.4280765 1.3763081 0.00000 0.00000 0.00000
-0.8356740 0.3528978 1.5275017 0.00000 0.00000 0.00000
-0.7811483 0.2646734 1.6702519 0.00000 0.00000 0.00000
-0.7051334 0.1712306 1.7918935 0.00000 0.00000 0.00000
-0.6172424 0.0810239 1.8858472 0.00000 0.00000 0.00000
-0.4861431 0.1310993 1.9668711 0.00000 0.00000 0.00000
-0.4280765 0.2770569 1.9631241 0.00000 0.00000 0.00000
-0.3528978 0.4282505 1.9349252 0.00000 0.00000 0.00000
-0.2646734 0.5710007 1.8803995 0.00000 0.00000 0.00000
-0.1712306 0.6926423 1.8043846 0.00000 0.00000 0.00000
-0.0810239 0.7865961 1.7164936 0.00000 0.00000 0.00000
-0.7898495 0.5750444 1.3267335 0.00000 0.00000 0.00000
-0.6806196 0.6591167 1.4288095 0.00000 0.00000 0.00000
-0.5422535 0.7275094 1.5270102 0.00000 0.00000 0.00000
-0.3858536 0.7717072 1.6109849 0.00000 0.00000 0.00000
-0.2274823 0.7898495 1.6742955 0.00000 0.00000 0.00000
-0.7717072 0.5117337 1.4851048 0.00000 0.00000 0.00000
-0.6459929 0.5877437 1.5927458 0.00000 0.00000 0.00000
-0.4934946 0.6459929 1.6869949 0.00000 0.00000 0.00000
-0.3295583 0.6806196 1.7583679 0.00000 0.00000 0.00000
-0.7275094 0.4277590 1.6415046 0.00000 0.00000 0.00000
-0.5877437 0.4934946 1.7452441 0.00000 0.00000 0.00000
-0.4277590 0.5422535 1.8267605 0.00000 0.00000 0.00000
-0.6591167 0.3295583 1.7798707 0.00000 0.00000 0.00000
-0.5117337 0.3858536 1.8709584 0.00000 0.00000 0.00000
-0.5750444 0.2274823 1.8891007 0.00000 0.00000 0.00000
-0.7865961 0.6172424 1.0182273 0.00000 0.00000 0.00000
-0.6926423 0.7051334 0.9280206 0.00000 0.00000 0.00000
-0.5710007 0.7811483 0.8345778 0.00000 0.00000 0.00000
-0.4282505 0.8356740 0.7463534 0.00000 0.00000 0.00000
-0.2770569 0.8638729 0.6711747 0.00000 0.00000 0.00000
-0.1310993 0.8676199 0.6131081 0.00000 0.00000 0.00000
-0.5750444 0.2274823 0.3094017 0.00000 0.00000 0.00000
-0.5117337 0.3858536 0.3275439 0.00000 0.00000 0.00000
-0.4277590 0.5422535 0.3717418 0.00000 0.00000 0.00000
-0.3295583 0.6806196 0.4401345 0.00000 0.00000 0.00000
-0.2274823 0.7898495 0.5242068 0.00000 0.00000 0.00000
-0.6591167 0.3295583 0.4186316 0.00000 0.00000 0.00000
-0.5877437 0.4934946 0.4532583 0.00000 0.00000 0.00000
-0.4934946 0.6459929 0.5115074 0.00000 0.00000 0.00000
-0.3858536 0.7717072 0.5875175 0.00000 0.00000 0.00000
-0.7275094 0.4277590 0.5569977 0.00000 0.00000 0.00000
-0.6459929 0.5877437 0.6057565 0.00000 0.00000 0.00000
-0.5422535 0.7275094 0.6714922 0.00000 0.00000 0.00000
-0.7717072 0.5117337 0.7133976 0.00000 0.00000 0.00000
-0.6806196 0.6591167 0.7696928 0.00000 0.00000 0.00000
-0.7898495 0.5750444 0.8717689 0.00000 0.00000 0.00000
-0.7865961 0.6172424 1.1802750 0.00000 0.00000 0.00000
-0.6926423 0.7051334 1.2704818 0.00000 0.00000 0.00000
-0.5710007 0.7811483 1.3639245 0.00000 0.00000 0.00000
-0.4282505 0.8356740 1.4521490 0.00000 0.00000 0.00000
-0.2770569 0.8638729 1.5273277 0.00000 0.00000 0.00000
-0.1310993 0.8676199 1.5853943 0.00000 0.00000 0.00000
0.0000000 0.9176954 1.5043704 0.00000 0.00000 0.00000
0.0000000 0.9696993 1.3560971 0.00000 0.00000 0.00000
0.0000000 0.9992512 1.1874756 0.00000 0.00000 0.00000
0.0000000 0.9992512 1.0110267 0.00000 0.00000 0.00000
0.0000000 0.9696993 0.8424053 0.00000 0.00000 0.00000
0.0000000 0.9176954 0.6941319 0.00000 0.00000 0.00000
-0.7029590 0.7156362 1.0992512 0.00000 0.00000 0.00000
-0.5895319 0.8064996 1.0081635 0.00000 0.00000 0.00000
-0.4496255 0.8773845 0.9139953 0.00000 0.00000 0.00000
-0.2947659 0.9190902 0.8259881 0.00000 0.00000 0.00000
-0.1405918 0.9304413 0.7516891 0.00000 0.00000 0.00000
-0.5895319 0.8064996 1.1903389 0.00000 0.00000 0.00000
-0.4574947 0.8927402 1.0992512 0.00000 0.00000 0.00000
-0.3049965 0.9509893 1.0050021 0.00000 0.00000 0.00000
-0.1473830 0.9753855 0.9170758 0.00000 0.00000 0.00000
-0.4496255 0.8773845 1.2845071 0.00000 0.00000 0.00000
-0.3049965 0.9509893 1.1935003 0.00000 0.00000 0.00000
-0.1498752 0.9918790 1.0992512 0.00000 0.00000 0.00000
-0.2947659 0.9190902 1.3725142 0.00000 0.00000 0.00000
-0.1473830 0.9753855 1.2814265 0.00000 0.00000 0.00000
-0.1405918 0.9304413 1.4468132 0.00000 0.00000 0.00000
0.8676199 -0.4861431 1.2303505 0.00000 0.00000 0.00000
0.8638729 -0.4280765 1.3763081 0.00000 0.00000 0.00000
0.8356740 -0.3528978 1.5275017 0.00000 0.00000 0.00000
0.7811483 -0.2646734 1.6702519 0.00000 0.00000 0.00000
0.7051334 -0.1712306 1.7918935 0.00000 0.00000 0.00000
0.6172424 -0.0810239 1.8858472 0.00000 0.00000 0.00000
0.4861431 -0.1310993 1.9668711 0.00000 0.00000 0.00000
0.4280765 -0.2770569 1.9631241 0.00000 0.00000 0.00000
0.3528978 -0.4282505 1.9349252 0.00000 0.00000 0.00000
0.2646734 -0.5710007 1.8803995 0.00000 0.00000 0.00000
0.1712306 -0.6926423 1.8043846 0.00000 0.00000 0.00000
0.0810239 -0.7865961 1.7164936 0.00000 0.00000 0.00000
0.7898495 -0.5750444 1.3267335 0.00000 0.00000 0.00000
0.6806196 -0.6591167 1.4288095 0.00000 0.00000 0.00000
0.5422535 -0.7275094 1.5270102 0.00000 0.00000 0.00000
0.3858536 -0.7717072 1.6109849 0.00000 0.00000 0.00000
0.2274823 -0.7898495 1.6742955 0.00000 0.00000 0.00000
0.7717072 -0.5117337 1.4851048 0.00000 0.00000 0.00000
0.6459929 -0.5877437 1.5927458 0.00000 0.00000 0.00000
0.4934946 -0.6459929 1.6869949 0.00000 0.00000 0.00000
0.3295583 -0.6806196 1.7583679 0.00000 0.00000 0.00000
0.7275094 -0.4277590 1.6415046 0.00000 0.00000 0.00000
0.5877437 -0.4934946 1.7452441 0.00000 0.00000 0.00000
0.4277590 -0.5422535 1.8267605 0.00000 0.00000 0.00000
0.6591167 -0.3295583 1.7798707 0.00000 0.00000 0.00000
0.5117337 -0.3858536 1.8709584 0.00000 0.00000 0.00000
0.5750444 -0.2274823 1.8891007 0.00000 0.00000 0.00000
0.7865961 -0.6172424 1.0182273 0.00000 0.00000 0.00000
0.6926423 -0.7051334 0.9280206 0.00000 0.00000 0.00000
0.5710007 -0.7811483 0.8345778 0.00000 0.00000 0.00000
0.4282505 -0.8356740 0.7463534 0.00000 0.00000 0.00000
0.2770569 -0.8638729 0.6711747 0.00000 0.00000 0.00000
0.1310993 -0.8676199 0.6131081 0.00000 0.00000 0.00000
0.5750444 -0.2274823 0.3094017 0.00000 0.00000 0.00000
0.5117337 -0.3858536 0.3275439 0.00000 0.00000 0.00000
0.4277590 -0.5422535 0.3717418 0.00000 0.00000 0.00000
0.3295583 -0.6806196 0.4401345 0.00000 0.00000 0.00000
0.2274823 -0.7898495 0.5242068 0.00000 0.00000 0.00000
0.6591167 -0.3295583 0.4186316 0.00000 0.00000 0.00000
0.5877437 -0.4934946 0.4532583 0.00000 0.00000 0.00000
0.4934946 -0.6459929 0.5115074 0.00000 0.00000 0.00000
0.3858536 -0.7717072 0.5875175 0.00000 0.00000 0.00000
0.7275094 -0.4277590 0.5569977 0.00000 0.00000 0.00000
0.6459929 -0.5877437 0.6057565 0.00000 0.00000 0.00000
0.5422535 -0.7275094 0.6714922 0.00000 0.00000 0.00000
0.7717072 -0.5117337 0.7133976 0.00000 0.00000 0.00000
0.6806196 -0.6591167 0.7696928 0.00000 0.00000 0.00000
0.7898495 -0.5750444 0.8717689 0.00000 0.00000 0.00000
0.7865961 -0.6172424 1.1802750 0.00000 0.00000 0.00000
0.6926423 -0.7051334 1.2704818 0.00000 0.00000 0.00000
0.5710007 -0.7811483 1.3639245 0.00000 0.00000 0.00000
0.4282505 -0.8356740 1.4521490 0.00000 0.00000 0.00000
0.2770569 -0.8638729 1.5273277 0.00000 0.00000 0.00000
0.1310993 -0.8676199 1.5853943 0.00000 0.00000 0.00000
0.0000000 -0.9176954 1.5043704 0.00000 0.00000 0.00000
0.0000000 -0.9696993 1.3560971 0.00000 0.00000 0.00000
0.0000000 -0.9992512 1.1874756 0.00000 0.00000 0.00000
0.0000000 -0.9992512 1.0110267 0.00000 0.00000 0.00000
0.0000000 -0.9696993 0.8424053 0.00000 0.00000 0.00000
0.0000000 -0.9176954 0.6941319 0.00000 0.00000 0.00000
0.7029590 -0.7156362 1.0992512 0.00000 0.00000 0.00000
0.5895319 -0.8064996 1.0081635 0.00000 0.00000 0.00000
0.4496255 -0.8773845 0.9139953 0.00000 0.00000 0.00000
0.2947659 -0.9190902 0.8259881 0.00000 0.00000 0.00000
0.1405918 -0.9304413 0.7516891 0.00000 0.00000 0.00000
0.5895319 -0.8064996 1.1903389 0.00000 0.00000 0.00000
0.4574947 -0.8927402 1.0992512 0.00000 0.00000 0.00000
0.3049965 -0.9509893 1.0050021 0.00000 0.00000 0.00000
0.1473830 -0.9753855 0.9170758 0.00000 0.00000 0.00000
0.4496255 -0.8773845 1.2845071 0.00000 0.00000 0.00000
0.3049965 -0.9509893 1.1935003 0.00000 0.00000 0.00000
0.1498752 -0.9918790 1.0992512 0.00000 0.00000 0.00000
0.2947659 -0.9190902 1.3725142 0.00000 0.00000 0.00000
0.1473830 -0.9753855 1.2814265 0.00000 0.00000 0.00000
0.1405918 -0.9304413 1.4468132 0.00000 0.00000 0.00000
-0.7865961 -0.6172424 1.1802750 0.00000 0.00000 0.00000
-0.6926423 -0.7051334 1.2704818 0.00000 0.00000 0.00000
-0.5710007 -0.7811483 1.3639245 0.00000 0.00000 0.00000
-0.4282505 -0.8356740 1.4521490 0.00000 0.00000 0.00000
-0.2770569 -0.8638729 1.5273277 0.00000 0.00000 0.00000
-0.1310993 -0.8676199 1.5853943 0.00000 0.00000 0.00000
-0.5750444 -0.2274823 1.8891007 0.00000 0.00000 0.00000
-0.5117337 -0.3858536 1.8709584 0.00000 0.00000 0.00000
-0.4277590 -0.5422535 1.8267605 0.00000 0.00000 0.00000
-0.3295583 -0.6806196 1.7583679 0.00000 0.00000 0.00000
-0.2274823 -0.7898495 1.6742955 0.00000 0.00000 0.00000
-0.6591167 -0.3295583 1.7798707 0.00000 0.00000 0.00000
-0.5877437 -0.4934946 1.7452441 0.00000 0.00000 0.00000
-0.4934946 -0.6459929 1.6869949 0.00000 0.00000 0.00000
-0.3858536 -0.7717072 1.6109849 0.00000 0.00000 0.00000
-0.7275094 -0.4277590 1.6415046 0.00000 0.00000 0.00000
-0.6459929 -0.5877437 1.5927458 0.00000 0.00000 0.00000
-0.5422535 -0.7275094 1.5270102 0.00000 0.00000 0.00000
-0.7717072 -0.5117337 1.4851048 0.00000 0.00000 0.00000
-0.6806196 -0.6591167 1.4288095 0.00000 0.00000 0.00000
-0.7898495 -0.5750444 1.3267335 0.00000 0.00000 0.00000
-0.8676199 -0.4861431 0.9681518 0.00000 0.00000 0.00000
-0.8638729 -0.4280765 0.8221942 0.00000 0.00000 0.00000
-0.8356740 -0.3528978 0.6710007 0.00000 0.00000 0.00000
-0.7811483 -0.2646734 0.5282505 0.00000 0.00000 0.00000
-0.7051334 -0.1712306 0.4066088 0.00000 0.00000 0.00000
-0.6172424 -0.0810239 0.3126551 0.00000 0.00000 0.00000
-0.4861431 -0.1310993 0.2316313 0.00000 0.00000 0.00000
-0.4280765 -0.2770569 0.2353782 0.00000 0.00000 0.00000
-0.3528978 -0.4282505 0.2635771 0.00000 0.00000 0.00000
-0.2646734 -0.5710007 0.3181028 0.00000 0.00000 0.00000
-0.1712306 -0.6926423 0.3941177 0.00000 0.00000 0.00000
-0.0810239 -0.7865961 0.4820087 0.00000 0.00000 0.00000
-0.7898495 -0.5750444 0.8717689 0.00000 0.00000 0.00000
-0.6806196 -0.6591167 0.7696928 0.00000 0.00000 0.00000
-0.5422535 -0.7275094 0.6714922 0.00000 0.00000 0.00000
-0.3858536 -0.7717072 0.5875175 0.00000 0.00000 0.00000
-0.2274823 -0.7898495 0.5242068 0.00000 0.00000 0.00000
-0.7717072 -0.5117337 0.7133976 0.00000 0.00000 0.00000
-0.6459929 -0.5877437 0.6057565 0.00000 0.00000 0.00000
-0.4934946 -0.6459929 0.5115074 0.00000 0.00000 0.00000
-0.3295583 -0.6806196 0.4401345 0.00000 0.00000 0.00000
-0.7275094 -0.4277590 0.5569977 0.00000 0.00000 0.00000
-0.5877437 -0.4934946 0.4532583 0.00000 0.00000 0.00000
-0.4277590 -0.5422535 0.3717418 0.00000 0.00000 0.00000
-0.6591167 -0.3295583 0.4186316 0.00000 0.00000 0.00000
-0.5117337 -0.3858536 0.3275439 0.00000 0.00000 0.00000
-0.5750444 -0.2274823 0.3094017 0.00000 0.00000 0.00000
-0.7865961 -0.6172424 1.0182273 0.00000 0.00000 0.00000
-0.6926423 -0.7051334 0.9280206 0.00000 0.00000 0.00000
-0.5710007 -0.7811483 0.8345778 0.00000 0.00000 0.00000
-0.4282505 -0.8356740 0.7463534 0.00000 0.00000 0.00000
-0.2770569 -0.8638729 0.6711747 0.00000 0.00000 0.00000
-0.1310993 -0.8676199 0.6131081 0.00000 0.00000 0.00000
-0.1405918 -0.9304413 1.4468132 0.00000 0.00000 0.00000
-0.1473830 -0.9753855 1.2814265 0.00000 0.00000 0.00000
-0.1498752 -0.9918790 1.0992512 0.00000 0.00000 0.00000
-0.1473830 -0.9753855 0.9170758 0.00000 0.00000 0.00000
-0.1405918 -0.9304413 0.7516891 0.00000 0.00000 0.00000
-0.2947659 -0.9190902 1.3725142 0.00000 0.00000 0.00000
-0.3049965 -0.9509893 1.1935003 0.00000 0.00000 0.00000
-0.3049965 -0.9509893 1.0050021 0.00000 0.00000 0.00000
-0.2947659 -0.9190902 0.8259881 0.00000 0.00000 0.00000
-0.4496255 -0.8773845 1.2845071 0.00000 0.00000 0.00000
-0.4574947 -0.8927402 1.0992512 0.00000 0.00000 0.00000
-0.4496255 -0.8773845 0.9139953 0.00000 0.00000 0.00000
-0.5895319 -0.8064996 1.1903389 0.00000 0.00000 0.00000
-0.5895319 -0.8064996 1.0081635 0.00000 0.00000 0.00000
-0.7029590 -0.7156362 1.0992512 0.00000 0.00000 0.00000
0.4861431 0.1310993 1.9668711 0.00000 0.00000 0.00000
0.4280765 0.2770569 1.9631241 0.00000 0.00000 0.00000
0.3528978 0.4282505 1.9349252 0.00000 0.00000 0.00000
0.2646734 0.5710007 1.8803995 0.00000 0.00000 0.00000
0.1712306 0.6926423 1.8043846 0.00000 0.00000 0.00000
0.0810239 0.7865961 1.7164936 0.00000 0.00000 0.00000
-0.3475620 0.1405918 2.0296925 0.00000 0.00000 0.00000
-0.2732631 0.2947659 2.0183414 0.00000 0.00000 0.00000
-0.1852559 0.4496255 1.9766357 0.00000 0.00000 0.00000
-0.0910877 0.5895319 1.9057508 0.00000 0.00000 0.00000
-0.0000000 0.7029590 1.8148873 0.00000 0.00000 0.00000
-0.1821754 0.1473830 2.0746367 0.00000 0.00000 0.00000
-0.0942491 0.3049965 2.0502405 0.00000 0.00000 0.00000
-0.0000000 0.4574947 1.9919914 0.00000 0.00000 0.00000
0.0910877 0.5895319 1.9057508 0.00000 0.00000 0.00000
-0.0000000 0.1498752 2.0911302 0.00000 0.00000 0.00000
0.0942491 0.3049965 2.0502405 0.00000 0.00000 0.00000
0.1852559 0.4496255 1.9766357 0.00000 0.00000 0.00000
0.1821754 0.1473830 2.0746367 0.00000 0.00000 0.00000
0.2732631 0.2947659 2.0183414 0.00000 0.00000 0.00000
0.3475620 0.1405918 2.0296925 0.00000 0.00000 0.00000
0.4051193 0.0000000 2.0169466 0.00000 0.00000 0.00000
0.2568459 0.0000000 2.0689504 0.00000 0.00000 0.00000
0.0882245 0.0000000 2.0985024 0.00000 0.00000 0.00000
-0.0882245 0.0000000 2.0985024 0.00000 0.00000 0.00000
-0.2568459 0.0000000 2.0689504 0.00000 0.00000 0.00000
-0.4051193 0.0000000 2.0169466 0.00000 0.00000 0.00000
-0.4861431 -0.1310993 1.9668711 0.00000 0.00000 0.00000
-0.4280765 -0.2770569 1.9631241 0.00000 0.00000 0.00000
-0.3528978 -0.4282505 1.9349252 0.00000 0.00000 0.00000
-0.2646734 -0.5710007 1.8803995 0.00000 0.00000 0.00000
-0.1712306 -0.6926423 1.8043846 0.00000 0.00000 0.00000
-0.0810239 -0.7865961 1.7164936 0.00000 0.00000 0.00000
0.3475620 -0.1405918 2.0296925 0.00000 0.00000 0.00000
0.2732631 -0.2947659 2.0183414 0.00000 0.00000 0.00000
0.1852559 -0.4496255 1.9766357 0.00000 0.00000 0.00000
0.0910877 -0.5895319 1.9057508 0.00000 0.00000 0.00000
0.0000000 -0.7029590 1.8148873 0.00000 0.00000 0.00000
0.1821754 -0.1473830 2.0746367 0.00000 0.00000 0.00000
0.0942491 -0.3049965 2.0502405 0.00000 0.00000 0.00000
0.0000000 -0.4574947 1.9919914 0.00000 0.00000 0.00000
-0.0910877 -0.5895319 1.9057508 0.00000 0.00000 0.00000
0.0000000 -0.1498752 2.0911302 0.00000 0.00000 0.00000
-0.0942491 -0.3049965 2.0502405 0.00000 0.00000 0.00000
-0.1852559 -0.4496255 1.9766357 0.00000 0.00000 0.00000
-0.1821754 -0.1473830 2.0746367 0.00000 0.00000 0.00000
-0.2732631 -0.2947659 2.0183414 0.00000 0.00000 0.00000
-0.3475620 -0.1405918 2.0296925 0.00000 0.00000 0.00000
0.4051193 0.0000000 0.1815558 0.00000 0.00000 0.00000
0.2568459 0.0000000 0.1295519 0.00000 0.00000 0.00000
0.0882245 0.0000000 0.1000000 0.00000 0.00000 0.00000
-0.0882245 0.0000000 0.1000000 0.00000 0.00000 0.00000
-0.2568459 0.0000000 0.1295519 0.00000 0.00000 0.00000
-0.4051193 0.0000000 0.1815558 0.00000 0.00000 0.00000
-0.4861431 0.1310993 0.2316313 0.00000 0.00000 0.00000
-0.4280765 0.2770569 0.2353782 0.00000 0.00000 0.00000
-0.3528978 0.4282505 0.2635771 0.00000 0.00000 0.00000
-0.2646734 0.5710007 0.3181028 0.00000 0.00000 0.00000
-0.1712306 0.6926423 0.3941177 0.00000 0.00000 0.00000
-0.0810239 0.7865961 0.4820087 0.00000 0.00000 0.00000
0.3475620 0.1405918 0.1688099 0.00000 0.00000 0.00000
0.2732631 0.2947659 0.1801610 0.00000 0.00000 0.00000
0.1852559 0.4496255 0.2218666 0.00000 0.00000 0.00000
0.0910877 0.5895319 0.2927515 0.00000 0.00000 0.00000
0.0000000 0.7029590 0.3836150 0.00000 0.00000 0.00000
0.1821754 0.1473830 0.1238657 0.00000 0.00000 0.00000
0.0942491 0.3049965 0.1482618 0.00000 0.00000 0.00000
0.0000000 0.4574947 0.2065110 0.00000 0.00000 0.00000
-0.0910877 0.5895319 0.2927515 0.00000 0.00000 0.00000
0.0000000 0.1498752 0.1073722 0.00000 0.00000 0.00000
-0.0942491 0.3049965 0.1482618 0.00000 0.00000 0.00000
-0.1852559 0.4496255 0.2218666 0.00000 0.00000 0.00000
-0.1821754 0.1473830 0.1238657 0.00000 0.00000 0.00000
-0.2732631 0.2947659 0.1801610 0.00000 0.00000 0.00000
-0.3475620 0.1405918 0.1688099 0.00000 0.00000 0.00000
0.4861431 -0.1310993 0.2316313 0.00000 0.00000 0.00000
0.4280765 -0.2770569 0.2353782 0.00000 0.00000 0.00000
0.3528978 -0.4282505 0.2635771 0.00000 0.00000 0.00000
0.2646734 -0.5710007 0.3181028 0.00000 0.00000 0.00000
0.1712306 -0.6926423 0.3941177 0.00000 0.00000 0.00000
0.0810239 -0.7865961 0.4820087 0.00000 0.00000 0.00000
-0.3475620 -0.1405918 0.1688099 0.00000 0.00000 0.00000
-0.2732631 -0.2947659 0.1801610 0.00000 0.00000 0.00000
-0.1852559 -0.4496255 0.2218666 0.00000 0.00000 0.00000
-0.0910877 -0.5895319 0.2927515 0.00000 0.00000 0.00000
-0.0000000 -0.7029590 0.3836150 0.00000 0.00000 0.00000
-0.1821754 -0.1473830 0.1238657 0.00000 0.00000 0.00000
-0.0942491 -0.3049965 0.1482618 0.00000 0.00000 0.00000
-0.0000000 -0.4574947 0.2065110 0.00000 0.00000 0.00000
0.0910877 -0.5895319 0.2927515 0.00000 0.00000 0.00000
-0.0000000 -0.1498752 0.1073722 0.00000 0.00000 0.00000
0.0942491 -0.3049965 0.1482618 0.00000 0.00000 0.00000
0.1852559 -0.4496255 0.2218666 0.00000 0.00000 0.00000
0.1821754 -0.1473830 0.1238657 0.00000 0.00000 0.00000
0.2732631 -0.2947659 0.1801610 0.00000 0.00000 0.00000
0.3475620 -0.1405918 0.1688099 0.00000 0.00000 0.00000
3 39 253
39 19 253
253 19 254
19 20 254
254 20 255
20 21 255
255 21 256
21 22 256
256 22 257
22 23 257
257 23 258
23 18 258
258 18 5
39 38 19
38 24 19
19 24 20
24 25 20
20 25 21
25 26 21
21 26 22
26 27 22
22 27 23
27 17 23
23 17 18
38 37 24
37 28 24
24 28 25
28 29 25
25 29 26
29 30 26
26 30 27
30 16 27
27 16 17
37 36 28
36 31 28
28 31 29
31 32 29
29 32 30
32 15 30
30 15 16
36 35 31
35 33 31
31 33 32
33 14 32
32 14 15
35 34 33
34 13 33
33 13 14
34 1 13
1 34 82
34 46 82
82 46 83
46 47 83
83 47 84
47 48 84
84 48 85
48 49 85
85 49 86
49 50 86
86 50 87
50 45 87
87 45 6
34 35 46
35 51 46
46 51 47
51 52 47
47 52 48
52 53 48
48 53 49
53 54 49
49 54 50
54 44 50
50 44 45
35 36 51
36 55 51
51 55 52
55 56 52
52 56 53
56 57 53
53 57 54
57 43 54
54 43 44
36 37 55
37 58 55
55 58 56
58 59 56
56 59 57
59 42 57
57 42 43
37 38 58
38 60 58
58 60 59
60 41 59
59 41 42
38 39 60
39 40 60
60 40 41
39 3 40
5 18 397
18 67 397
397 67 398
67 68 398
398 68 399
68 69 399
399 69 400
69 70 400
400 70 401
70 71 401
401 71 402
71 66 402
402 66 9
18 17 67
17 72 67
67 72 68
72 73 68
68 73 69
73 74 69
69 74 70
74 75 70
70 75 71
75 65 71
71 65 66
17 16 72
16 76 72
72 76 73
76 77 73
73 77 74
77 78 74
74 78 75
78 64 75
75 64 65
16 15 76
15 79 76
76 79 77
79 80 77
77 80 78
80 63 78
78 63 64
15 14 79
14 81 79
79 81 80
81 62 80
80 62 63
14 13 81
13 61 81
81 61 62
13 1 61
1 82 109
82 94 109
109 94 110
94 95 110
110 95 111
95 96 111
111 96 112
96 97 112
112 97 113
97 98 113
113 98 114
98 93 114
114 93 11
82 83 94
83 99 94
94 99 95
99 100 95
95 100 96
100 101 96
96 101 97
101 102 97
97 102 98
102 92 98
98 92 93
83 84 99
84 103 99
99 103 100
103 104 100
100 104 101
104 105 101
101 105 102
105 91 102
102 91 92
84 85 103
85 106 103
103 106 104
106 107 104
104 107 105
107 90 105
105 90 91
85 86 106
86 108 106
106 108 107
108 89 107
107 89 90
86 87 108
87 88 108
108 88 89
87 6 88
9 66 232
66 115 232
232 115 233
115 116 233
233 116 234
116 117 234
234 117 235
117 118 235
235 118 236
118 119 236
236 119 237
119 114 237
237 114 11
66 65 115
65 120 115
115 120 116
120 121 116
116 121 117
121 122 117
117 122 118
122 123 118
118 123 119
123 113 119
119 113 114
65 64 120
64 124 120
120 124 121
124 125 121
121 125 122
125 126 122
122 126 123
126 112 123
123 112 113
64 63 124
63 127 124
124 127 125
127 128 125
125 128 126
128 111 126
126 111 112
63 62 127
62 129 127
127 129 128
129 110 128
128 110 111
62 61 129
61 109 129
129 109 110
61 1 109
2 130 178
130 142 178
178 142 179
142 143 179
179 143 180
143 144 180
180 144 181
144 145 181
181 145 182
145 146 182
182 146 183
146 141 183
183 141 7
130 131 142
131 147 142
142 147 143
147 148 143
143 148 144
148 149 144
144 149 145
149 150 145
145 150 146
150 140 146
146 140 141
131 132 147
132 151 147
147 151 148
151 152 148
148 152 149
152 153 149
149 153 150
153 139 150
150 139 140
132 133 151
133 154 151
151 154 152
154 155 152