# TIME = 0.000000
VARIABLES = X, Y, Z, U, V, W
ZONE N=1002 E=2000 F=FEPOINT ET=TRIANGLE
0.8519601 0.5265403 1.1015391
-0.8519601 0.5265403 1.1015391
0.8519601 -0.5265403 1.1015391
-0.8519601 -0.5265403 1.1015391
0.5265403 0.0000000 1.9534992
0.5265403 0.0000000 0.2495791
-0.5265403 0.0000000 1.9534992
-0.5265403 0.0000000 0.2495791
0.0000000 0.8519601 1.6280794
0.0000000 -0.8519601 1.6280794
0.0000000 0.8519601 0.5749988
0.0000000 -0.8519601 0.5749988
0.8635034 0.4993817 1.1913187
0.8673170 0.4642940 1.2893500
0.8608576 0.4206270 1.3932201
0.8421088 0.3685861 1.4991290
0.8102622 0.3094926 1.6023087
0.7661759 0.2457240 1.6979239
0.7123080 0.1802687 1.7821280
0.6521049 0.1160735 1.8527826
0.5891613 0.0554869 1.9095557
0.9093131 -0.4090134 1.1960816
0.9112110 -0.3658436 1.2988549
0.9006403 -0.3143324 1.4066995
0.8756984 -0.2555253 1.5149878
0.8362175 -0.1916440 1.6183500
0.7840794 -0.1257330 1.7118598
0.7227912 -0.0609739 1.7921444
0.6565289 0.0000000 1.8578792
0.9488950 -0.3048697 1.2001970
0.9469859 -0.2534713 1.3066017
0.9304457 -0.1948409 1.4167983
0.8978899 -0.1310004 1.5254652
0.8501669 -0.0649470 1.6269711
0.7903320 0.0000000 1.7167268
0.7227912 0.0609739 1.7921444
0.9783475 -0.1885995 1.2032592
0.9705852 -0.1298939 1.3117119
0.9465027 -0.0660678 1.4222389
0.9056706 0.0000000 1.5291388
0.8501669 0.0649470 1.6269711
0.7840794 0.1257330 1.7118598
0.9941409 -0.0638813 1.2049013
0.9788525 0.0000000 1.3135022
0.9465027 0.0660678 1.4222389
0.8978899 0.1310004 1.5254652
0.8362175 0.1916440 1.6183500
0.9941409 0.0638813 1.2049013
0.9705852 0.1298939 1.3117119
0.9304457 0.1948409 1.4167983
0.8756984 0.2555253 1.5149878
0.9783475 0.1885995 1.2032592
0.9469859 0.2534713 1.3066017
0.9006403 0.3143324 1.4066995
0.9488950 0.3048697 1.2001970
0.9112110 0.3658436 1.2988549
0.9093131 0.4090134 1.1960816
0.8977962 0.4438948 1.1015391
0.9390544 0.3482205 1.1015391
0.9722698 0.2403583 1.1015391
0.9939746 0.1228620 1.1015391
1.0015391 0.0000000 1.1015391
0.9939746 -0.1228620 1.1015391
0.9722698 -0.2403583 1.1015391
0.9390544 -0.3482205 1.1015391
0.8977962 -0.4438948 1.1015391
0.8635034 -0.4993817 1.0117595
0.8673170 -0.4642940 0.9137283
0.8608576 -0.4206270 0.8098582
0.8421088 -0.3685861 0.7039493
0.8102622 -0.3094926 0.6007696
0.7661759 -0.2457240 0.5051544
0.7123080 -0.1802687 0.4209503
0.6521049 -0.1160735 0.3502956
0.5891613 -0.0554869 0.2935226
0.9093131 0.4090134 1.0069966
0.9112110 0.3658436 0.9042233
0.9006403 0.3143324 0.7963788
0.8756984 0.2555253 0.6880904
0.8362175 0.1916440 0.5847283
0.7840794 0.1257330 0.4912184
0.7227912 0.0609739 0.4109338
0.6565289 0.0000000 0.3451990
0.9488950 0.3048697 1.0028812
0.9469859 0.2534713 0.8964766
0.9304457 0.1948409 0.7862799
0.8978899 0.1310004 0.6776130
0.8501669 0.0649470 0.5761071
0.7903320 -0.0000000 0.4863514
0.7227912 -0.0609739 0.4109338
0.9783475 0.1885995 0.9998190
0.9705852 0.1298939 0.8913663
0.9465027 0.0660678 0.7808394
0.9056706 -0.0000000 0.6739395
0.8501669 -0.0649470 0.5761071
0.7840794 -0.1257330 0.4912184
0.9941409 0.0638813 0.9981770
0.9788525 -0.0000000 0.8895761
0.9465027 -0.0660678 0.7808394
0.8978899 -0.1310004 0.6776130
0.8362175 -0.1916440 0.5847283
0.9941409 -0.0638813 0.9981770
0.9705852 -0.1298939 0.8913663
0.9304457 -0.1948409 0.7862799
0.8756984 -0.2555253 0.6880904
0.9783475 -0.1885995 0.9998190
0.9469859 -0.2534713 0.8964766
0.9006403 -0.3143324 0.7963788
0.9488950 -0.3048697 1.0028812
0.9112110 -0.3658436 0.9042233
0.9093131 -0.4090134 1.0069966
0.8080166 0.5891613 1.1570260
0.7512435 0.6521049 1.2176126
0.6805888 0.7123080 1.2818079
0.5963848 0.7661759 1.3472632
0.5007696 0.8102622 1.4110317
0.3975898 0.8421088 1.4701252
0.2916809 0.8608576 1.5221662
0.1878109 0.8673170 1.5658331
0.0897796 0.8635034 1.6009208
0.5619864 0.1529730 1.9163097
0.5254754 0.2582897 1.9140923
0.4789190 0.3680268 1.9004593
0.4227688 0.4773300 1.8738753
0.3588875 0.5806922 1.8343945
0.2903196 0.6731872 1.7838984
0.2206058 0.7515792 1.7256725
0.1529730 0.8147706 1.6635255
0.6241333 0.2206058 1.8531183
0.5852695 0.3317982 1.8434625
0.5349077 0.4451532 1.8218121
0.4739638 0.5549265 1.7874659
0.4050137 0.6553260 1.7415332
0.3317982 0.7419233 1.6868086
0.2582897 0.8125531 1.6270146
0.6823593 0.2903196 1.7747263
0.6399941 0.4050137 1.7568651
0.5849708 0.5189031 1.7273421
0.5189031 0.6258030 1.6865100
0.4451532 0.7202729 1.6364468
0.3680268 0.7989202 1.5804582
0.7328554 0.3588875 1.6822313
0.6859268 0.4739638 1.6564656
0.6258030 0.5849708 1.6204422
0.5549265 0.6859268 1.5755029
0.4773300 0.7723362 1.5243080
0.7723362 0.4227688 1.5788691
0.7202729 0.5349077 1.5466923
0.6553260 0.6399941 1.5065528
0.5806922 0.7328554 1.4604266
0.7989202 0.4789190 1.4695660
0.7419233 0.5852695 1.4333373
0.6731872 0.6823593 1.3918587
0.8125531 0.5254754 1.3598289
0.7515792 0.6241333 1.3221449
0.8147706 0.5619864 1.2545121
0.8635034 0.4993817 1.0117595
0.8673170 0.4642940 0.9137283
0.8608576 0.4206270 0.8098582
0.8421088 0.3685861 0.7039493
0.8102622 0.3094926 0.6007696
0.7661759 0.2457240 0.5051544
0.7123080 0.1802687 0.4209503
0.6521049 0.1160735 0.3502956
0.5891613 0.0554869 0.2935226
0.4993817 0.0897796 0.2380357
0.4642940 0.1878109 0.2342221
0.4206270 0.2916809 0.2406816
0.3685861 0.3975898 0.2594303
0.3094926 0.5007696 0.2912770
0.2457240 0.5963848 0.3353632
0.1802687 0.6805888 0.3892312
0.1160735 0.7512435 0.4494342
0.0554869 0.8080166 0.5123778
0.8147706 0.5619864 0.9485661
0.7515792 0.6241333 0.8809334
0.6731872 0.6823593 0.8112195
0.5806922 0.7328554 0.7426516
0.4773300 0.7723362 0.6787703
0.3680268 0.7989202 0.6226201
0.2582897 0.8125531 0.5760637
0.1529730 0.8147706 0.5395527
0.8125531 0.5254754 0.8432494
0.7419233 0.5852695 0.7697409
0.6553260 0.6399941 0.6965254
0.5549265 0.6859268 0.6275754
0.4451532 0.7202729 0.5666315
0.3317982 0.7419233 0.5162697
0.2206058 0.7515792 0.4774058
0.7989202 0.4789190 0.7335123
0.7202729 0.5349077 0.6563860
0.6258030 0.5849708 0.5826361
0.5189031 0.6258030 0.5165683
0.4050137 0.6553260 0.4615451
0.2903196 0.6731872 0.4191798
0.7723362 0.4227688 0.6242091
0.6859268 0.4739638 0.5466127
0.5849708 0.5189031 0.4757362
0.4739638 0.5549265 0.4156123
0.3588875 0.5806922 0.3686838
0.7328554 0.3588875 0.5208469
0.6399941 0.4050137 0.4462132
0.5349077 0.4451532 0.3812662
0.4227688 0.4773300 0.3292029
0.6823593 0.2903196 0.4283519
0.5852695 0.3317982 0.3596158
0.4789190 0.3680268 0.3026190
0.6241333 0.2206058 0.3499599
0.5254754 0.2582897 0.2889860
0.5619864 0.1529730 0.2867685
0.8080166 0.5891613 1.0460523
0.7512435 0.6521049 0.9854656
0.6805888 0.7123080 0.9212704
0.5963848 0.7661759 0.8558151
0.5007696 0.8102622 0.7920465
0.3975898 0.8421088 0.7329531
0.2916809 0.8608576 0.6809121
0.1878109 0.8673170 0.6372451
0.0897796 0.8635034 0.6021574
0.0945425 0.9093131 1.5105525
0.0986579 0.9488950 1.4064088
0.1017201 0.9783475 1.2901386
0.1033622 0.9941409 1.1654205
0.1033622 0.9941409 1.0376578
0.1017201 0.9783475 0.9129397
0.0986579 0.9488950 0.7966695
0.0945425 0.9093131 0.6925257
0.1973158 0.9112110 1.4673827
0.2050626 0.9469859 1.3550104
0.2101728 0.9705852 1.2314331
0.2119630 0.9788525 1.1015391
0.2101728 0.9705852 0.9716452
0.2050626 0.9469859 0.8480679
0.1973158 0.9112110 0.7356955
0.3051603 0.9006403 1.4158716
0.3152592 0.9304457 1.2963800
0.3206997 0.9465027 1.1676069
0.3206997 0.9465027 1.0354713
0.3152592 0.9304457 0.9066982
0.3051603 0.9006403 0.7872067
0.4134487 0.8756984 1.3570645
0.4239261 0.8978899 1.2325395
0.4275996 0.9056706 1.1015391
0.4239261 0.8978899 0.9705388
0.4134487 0.8756984 0.8460138
0.5168108 0.8362175 1.2931831
0.5254320 0.8501669 1.1664861
0.5254320 0.8501669 1.0365922
0.5168108 0.8362175 0.9098951
0.6103207 0.7840794 1.2272721
0.6151877 0.7903320 1.1015391
0.6103207 0.7840794 0.9758061
0.6906053 0.7227912 1.1625131
0.6906053 0.7227912 1.0405652
0.7563401 0.6565289 1.1015391
-0.8977962 0.4438948 1.1015391
-0.9390544 0.3482205 1.1015391
-0.9722698 0.2403583 1.1015391
-0.9939746 0.1228620 1.1015391
-1.0015391 0.0000000 1.1015391
-0.9939746 -0.1228620 1.1015391
-0.9722698 -0.2403583 1.1015391
-0.9390544 -0.3482205 1.1015391
-0.8977962 -0.4438948 1.1015391
-0.8635034 -0.4993817 1.1913187
-0.8673170 -0.4642940 1.2893500
-0.8608576 -0.4206270 1.3932201
-0.8421088 -0.3685861 1.4991290
-0.8102622 -0.3094926 1.6023087
-0.7661759 -0.2457240 1.6979239
-0.7123080 -0.1802687 1.7821280
-0.6521049 -0.1160735 1.8527826
-0.5891613 -0.0554869 1.9095557
-0.9093131 0.4090134 1.1960816
-0.9112110 0.3658436 1.2988549
-0.9006403 0.3143324 1.4066995
-0.8756984 0.2555253 1.5149878
-0.8362175 0.1916440 1.6183500
-0.7840794 0.1257330 1.7118598
-0.7227912 0.0609739 1.7921444
-0.6565289 0.0000000 1.8578792
-0.9488950 0.3048697 1.2001970
-0.9469859 0.2534713 1.3066017
-0.9304457 0.1948409 1.4167983
-0.8978899 0.1310004 1.5254652
-0.8501669 0.0649470 1.6269711
-0.7903320 -0.0000000 1.7167268
-0.7227912 -0.0609739 1.7921444
-0.9783475 0.1885995 1.2032592
-0.9705852 0.1298939 1.3117119
-0.9465027 0.0660678 1.4222389
-0.9056706 -0.0000000 1.5291388
-0.8501669 -0.0649470 1.6269711
-0.7840794 -0.1257330 1.7118598
-0.9941409 0.0638813 1.2049013
-0.9788525 -0.0000000 1.3135022
-0.9465027 -0.0660678 1.4222389
-0.8978899 -0.1310004 1.5254652
-0.8362175 -0.1916440 1.6183500
-0.9941409 -0.0638813 1.2049013
-0.9705852 -0.1298939 1.3117119
-0.9304457 -0.1948409 1.4167983
-0.8756984 -0.2555253 1.5149878
-0.9783475 -0.1885995 1.2032592
-0.9469859 -0.2534713 1.3066017
-0.9006403 -0.3143324 1.4066995
-0.9488950 -0.3048697 1.2001970
-0.9112110 -0.3658436 1.2988549
-0.9093131 -0.4090134 1.1960816
-0.8635034 0.4993817 1.0117595
-0.8673170 0.4642940 0.9137283
-0.8608576 0.4206270 0.8098582
-0.8421088 0.3685861 0.7039493
-0.8102622 0.3094926 0.6007696
-0.7661759 0.2457240 0.5051544
-0.7123080 0.1802687 0.4209503
-0.6521049 0.1160735 0.3502956
-0.5891613 0.0554869 0.2935226
-0.9093131 -0.4090134 1.0069966
-0.9112110 -0.3658436 0.9042233
-0.9006403 -0.3143324 0.7963788
-0.8756984 -0.2555253 0.6880904
-0.8362175 -0.1916440 0.5847283
-0.7840794 -0.1257330 0.4912184
-0.7227912 -0.0609739 0.4109338
-0.6565289 0.0000000 0.3451990
-0.9488950 -0.3048697 1.0028812
-0.9469859 -0.2534713 0.8964766
-0.9304457 -0.1948409 0.7862799
-0.8978899 -0.1310004 0.6776130
-0.8501669 -0.0649470 0.5761071
-0.7903320 0.0000000 0.4863514
-0.7227912 0.0609739 0.4109338
-0.9783475 -0.1885995 0.9998190
-0.9705852 -0.1298939 0.8913663
-0.9465027 -0.0660678 0.7808394
-0.9056706 0.0000000 0.6739395
-0.8501669 0.0649470 0.5761071
-0.7840794 0.1257330 0.4912184
-0.9941409 -0.0638813 0.9981770
-0.9788525 0.0000000 0.8895761
-0.9465027 0.0660678 0.7808394
-0.8978899 0.1310004 0.6776130
-0.8362175 0.1916440 0.5847283
-0.9941409 0.0638813 0.9981770
-0.9705852 0.1298939 0.8913663
-0.9304457 0.1948409 0.7862799
-0.8756984 0.2555253 0.6880904
-0.9783475 0.1885995 0.9998190
-0.9469859 0.2534713 0.8964766
-0.9006403 0.3143324 0.7963788
-0.9488950 0.3048697 1.0028812
-0.9112110 0.3658436 0.9042233
-0.9093131 0.4090134 1.0069966
-0.8635034 0.4993817 1.1913187
-0.8673170 0.4642940 1.2893500
-0.8608576 0.4206270 1.3932201
-0.8421088 0.3685861 1.4991290
-0.8102622 0.3094926 1.6023087
-0.7661759 0.2457240 1.6979239
-0.7123080 0.1802687 1.7821280
-0.6521049 0.1160735 1.8527826
-0.5891613 0.0554869 1.9095557
-0.4993817 0.0897796 1.9650425
-0.4642940 0.1878109 1.9688561
-0.4206270 0.2916809 1.9623967
-0.3685861 0.3975898 1.9436479
-0.3094926 0.5007696 1.9118013
-0.2457240 0.5963848 1.8677150
-0.1802687 0.6805888 1.8138471
-0.1160735 0.7512435 1.7536440
-0.0554869 0.8080166 1.6907004
-0.8147706 0.5619864 1.2545121
-0.7515792 0.6241333 1.3221449
-0.6731872 0.6823593 1.3918587
-0.5806922 0.7328554 1.4604266
-0.4773300 0.7723362 1.5243080
-0.3680268 0.7989202 1.5804582
-0.2582897 0.8125531 1.6270146
-0.1529730 0.8147706 1.6635255
-0.8125531 0.5254754 1.3598289
-0.7419233 0.5852695 1.4333373
-0.6553260 0.6399941 1.5065528
-0.5549265 0.6859268 1.5755029
-0.4451532 0.7202729 1.6364468
-0.3317982 0.7419233 1.6868086
-0.2206058 0.7515792 1.7256725
-0.7989202 0.4789190 1.4695660
-0.7202729 0.5349077 1.5466923
-0.6258030 0.5849708 1.6204422
-0.5189031 0.6258030 1.6865100
-0.4050137 0.6553260 1.7415332
-0.2903196 0.6731872 1.7838984
-0.7723362 0.4227688 1.5788691
-0.6859268 0.4739638 1.6564656
-0.5849708 0.5189031 1.7273421
-0.4739638 0.5549265 1.7874659
-0.3588875 0.5806922 1.8343945
-0.7328554 0.3588875 1.6822313
-0.6399941 0.4050137 1.7568651
-0.5349077 0.4451532 1.8218121
-0.4227688 0.4773300 1.8738753
-0.6823593 0.2903196 1.7747263
-0.5852695 0.3317982 1.8434625
-0.4789190 0.3680268 1.9004593
-0.6241333 0.2206058 1.8531183
-0.5254754 0.2582897 1.9140923
-0.5619864 0.1529730 1.9163097
-0.8080166 0.5891613 1.0460523
-0.7512435 0.6521049 0.9854656
-0.6805888 0.7123080 0.9212704
-0.5963848 0.7661759 0.8558151
-0.5007696 0.8102622 0.7920465
-0.3975898 0.8421088 0.7329531
-0.2916809 0.8608576 0.6809121
-0.1878109 0.8673170 0.6372451
-0.0897796 0.8635034 0.6021574
-0.5619864 0.1529730 0.2867685
-0.5254754 0.2582897 0.2889860
-0.4789190 0.3680268 0.3026190
-0.4227688 0.4773300 0.3292029
-0.3588875 0.5806922 0.3686838
-0.2903196 0.6731872 0.4191798
-0.2206058 0.7515792 0.4774058
-0.1529730 0.8147706 0.5395527
-0.6241333 0.2206058 0.3499599
-0.5852695 0.3317982 0.3596158
-0.5349077 0.4451532 0.3812662
-0.4739638 0.5549265 0.4156123
-0.4050137 0.6553260 0.4615451
-0.3317982 0.7419233 0.5162697
-0.2582897 0.8125531 0.5760637
-0.6823593 0.2903196 0.4283519
-0.6399941 0.4050137 0.4462132
-0.5849708 0.5189031 0.4757362
-0.5189031 0.6258030 0.5165683
-0.4451532 0.7202729 0.5666315
-0.3680268 0.7989202 0.6226201
-0.7328554 0.3588875 0.5208469
-0.6859268 0.4739638 0.5466127
-0.6258030 0.5849708 0.5826361
-0.5549265 0.6859268 0.6275754
-0.4773300 0.7723362 0.6787703
-0.7723362 0.4227688 0.6242091
-0.7202729 0.5349077 0.6563860
-0.6553260 0.6399941 0.6965254
-0.5806922 0.7328554 0.7426516
-0.7989202 0.4789190 0.7335123
-0.7419233 0.5852695 0.7697409
-0.6731872 0.6823593 0.8112195
-0.8125531 0.5254754 0.8432494
-0.7515792 0.6241333 0.8809334
-0.8147706 0.5619864 0.9485661
-0.8080166 0.5891613 1.1570260
-0.7512435 0.6521049 1.2176126
-0.6805888 0.7123080 1.2818079
-0.5963848 0.7661759 1.3472632
-0.5007696 0.8102622 1.4110317
-0.3975898 0.8421088 1.4701252
-0.2916809 0.8608576 1.5221662
-0.1878109 0.8673170 1.5658331
-0.0897796 0.8635034 1.6009208
0.0000000 0.8977962 1.5454340
0.0000000 0.9390544 1.4497596
0.0000000 0.9722698 1.3418974
0.0000000 0.9939746 1.2244011
0.0000000 1.0015391 1.1015391
0.0000000 0.9939746 0.9786771
0.0000000 0.9722698 0.8611808
0.0000000 0.9390544 0.7533186
0.0000000 0.8977962 0.6576443
-0.7563401 0.6565289 1.1015391
-0.6906053 0.7227912 1.0405652
-0.6103207 0.7840794 0.9758061
-0.5168108 0.8362175 0.9098951
-0.4134487 0.8756984 0.8460138
-0.3051603 0.9006403 0.7872067
-0.1973158 0.9112110 0.7356955
-0.0945425 0.9093131 0.6925257
-0.6906053 0.7227912 1.1625131
-0.6151877 0.7903320 1.1015391
-0.5254320 0.8501669 1.0365922
-0.4239261 0.8978899 0.9705388
-0.3152592 0.9304457 0.9066982
-0.2050626 0.9469859 0.8480679
-0.0986579 0.9488950 0.7966695
-0.6103207 0.7840794 1.2272721
-0.5254320 0.8501669 1.1664861
-0.4275996 0.9056706 1.1015391
-0.3206997 0.9465027 1.0354713
-0.2101728 0.9705852 0.9716452
-0.1017201 0.9783475 0.9129397
-0.5168108 0.8362175 1.2931831
-0.4239261 0.8978899 1.2325395
-0.3206997 0.9465027 1.1676069
-0.2119630 0.9788525 1.1015391
-0.1033622 0.9941409 1.0376578
-0.4134487 0.8756984 1.3570645
-0.3152592 0.9304457 1.2963800
-0.2101728 0.9705852 1.2314331
-0.1033622 0.9941409 1.1654205
-0.3051603 0.9006403 1.4158716
-0.2050626 0.9469859 1.3550104
-0.1017201 0.9783475 1.2901386
-0.1973158 0.9112110 1.4673827
-0.0986579 0.9488950 1.4064088
-0.0945425 0.9093131 1.5105525
0.8635034 -0.4993817 1.1913187
0.8673170 -0.4642940 1.2893500
0.8608576 -0.4206270 1.3932201
0.8421088 -0.3685861 1.4991290
0.8102622 -0.3094926 1.6023087
0.7661759 -0.2457240 1.6979239
0.7123080 -0.1802687 1.7821280
0.6521049 -0.1160735 1.8527826
0.5891613 -0.0554869 1.9095557
0.4993817 -0.0897796 1.9650425
0.4642940 -0.1878109 1.9688561
0.4206270 -0.2916809 1.9623967
0.3685861 -0.3975898 1.9436479
0.3094926 -0.5007696 1.9118013
0.2457240 -0.5963848 1.8677150
0.1802687 -0.6805888 1.8138471
0.1160735 -0.7512435 1.7536440
0.0554869 -0.8080166 1.6907004
0.8147706 -0.5619864 1.2545121
0.7515792 -0.6241333 1.3221449
0.6731872 -0.6823593 1.3918587
0.5806922 -0.7328554 1.4604266
0.4773300 -0.7723362 1.5243080
0.3680268 -0.7989202 1.5804582
0.2582897 -0.8125531 1.6270146
0.1529730 -0.8147706 1.6635255
0.8125531 -0.5254754 1.3598289
0.7419233 -0.5852695 1.4333373
0.6553260 -0.6399941 1.5065528
0.5549265 -0.6859268 1.5755029
0.4451532 -0.7202729 1.6364468
0.3317982 -0.7419233 1.6868086
0.2206058 -0.7515792 1.7256725
0.7989202 -0.4789190 1.4695660
0.7202729 -0.5349077 1.5466923
0.6258030 -0.5849708 1.6204422
0.5189031 -0.6258030 1.6865100
0.4050137 -0.6553260 1.7415332
0.2903196 -0.6731872 1.7838984
0.7723362 -0.4227688 1.5788691
0.6859268 -0.4739638 1.6564656
0.5849708 -0.5189031 1.7273421
0.4739638 -0.5549265 1.7874659
0.3588875 -0.5806922 1.8343945
0.7328554 -0.3588875 1.6822313
0.6399941 -0.4050137 1.7568651
0.5349077 -0.4451532 1.8218121
0.4227688 -0.4773300 1.8738753
0.6823593 -0.2903196 1.7747263
0.5852695 -0.3317982 1.8434625
0.4789190 -0.3680268 1.9004593
0.6241333 -0.2206058 1.8531183
0.5254754 -0.2582897 1.9140923
0.5619864 -0.1529730 1.9163097
0.8080166 -0.5891613 1.0460523
0.7512435 -0.6521049 0.9854656
0.6805888 -0.7123080 0.9212704
0.5963848 -0.7661759 0.8558151
0.5007696 -0.8102622 0.7920465
0.3975898 -0.8421088 0.7329531
0.2916809 -0.8608576 0.6809121
0.1878109 -0.8673170 0.6372451
0.0897796 -0.8635034 0.6021574
0.5619864 -0.1529730 0.2867685
0.5254754 -0.2582897 0.2889860
0.4789190 -0.3680268 0.3026190
0.4227688 -0.4773300 0.3292029
0.3588875 -0.5806922 0.3686838
0.2903196 -0.6731872 0.4191798
0.2206058 -0.7515792 0.4774058
0.1529730 -0.8147706 0.5395527
0.6241333 -0.2206058 0.3499599
0.5852695 -0.3317982 0.3596158
0.5349077 -0.4451532 0.3812662
0.4739638 -0.5549265 0.4156123
0.4050137 -0.6553260 0.4615451
0.3317982 -0.7419233 0.5162697
0.2582897 -0.8125531 0.5760637
0.6823593 -0.2903196 0.4283519
0.6399941 -0.4050137 0.4462132
0.5849708 -0.5189031 0.4757362
0.5189031 -0.6258030 0.5165683
0.4451532 -0.7202729 0.5666315
0.3680268 -0.7989202 0.6226201
0.7328554 -0.3588875 0.5208469
0.6859268 -0.4739638 0.5466127
0.6258030 -0.5849708 0.5826361
0.5549265 -0.6859268 0.6275754
0.4773300 -0.7723362 0.6787703
0.7723362 -0.4227688 0.6242091
0.7202729 -0.5349077 0.6563860
0.6553260 -0.6399941 0.6965254
0.5806922 -0.7328554 0.7426516
0.7989202 -0.4789190 0.7335123
0.7419233 -0.5852695 0.7697409
0.6731872 -0.6823593 0.8112195
0.8125531 -0.5254754 0.8432494
0.7515792 -0.6241333 0.8809334
0.8147706 -0.5619864 0.9485661
0.8080166 -0.5891613 1.1570260
0.7512435 -0.6521049 1.2176126
0.6805888 -0.7123080 1.2818079
0.5963848 -0.7661759 1.3472632
0.5007696 -0.8102622 1.4110317
0.3975898 -0.8421088 1.4701252
0.2916809 -0.8608576 1.5221662
0.1878109 -0.8673170 1.5658331
0.0897796 -0.8635034 1.6009208
0.0000000 -0.8977962 1.5454340
0.0000000 -0.9390544 1.4497596
0.0000000 -0.9722698 1.3418974
0.0000000 -0.9939746 1.2244011
0.0000000 -1.0015391 1.1015391
0.0000000 -0.9939746 0.9786771
0.0000000 -0.9722698 0.8611808
0.0000000 -0.9390544 0.7533186
0.0000000 -0.8977962 0.6576443
0.7563401 -0.6565289 1.1015391
0.6906053 -0.7227912 1.0405652
0.6103207 -0.7840794 0.9758061
0.5168108 -0.8362175 0.9098951
0.4134487 -0.8756984 0.8460138
0.3051603 -0.9006403 0.7872067
0.1973158 -0.9112110 0.7356955
0.0945425 -0.9093131 0.6925257
0.6906053 -0.7227912 1.1625131
0.6151877 -0.7903320 1.1015391
0.5254320 -0.8501669 1.0365922
0.4239261 -0.8978899 0.9705388
0.3152592 -0.9304457 0.9066982
0.2050626 -0.9469859 0.8480679
0.0986579 -0.9488950 0.7966695
0.6103207 -0.7840794 1.2272721
0.5254320 -0.8501669 1.1664861
0.4275996 -0.9056706 1.1015391
0.3206997 -0.9465027 1.0354713
0.2101728 -0.9705852 0.9716452
0.1017201 -0.9783475 0.9129397
0.5168108 -0.8362175 1.2931831
0.4239261 -0.8978899 1.2325395
0.3206997 -0.9465027 1.1676069
0.2119630 -0.9788525 1.1015391
0.1033622 -0.9941409 1.0376578
0.4134487 -0.8756984 1.3570645
0.3152592 -0.9304457 1.2963800
0.2101728 -0.9705852 1.2314331
0.1033622 -0.9941409 1.1654205
0.3051603 -0.9006403 1.4158716
0.2050626 -0.9469859 1.3550104
0.1017201 -0.9783475 1.2901386
0.1973158 -0.9112110 1.4673827
0.0986579 -0.9488950 1.4064088
0.0945425 -0.9093131 1.5105525
-0.8080166 -0.5891613 1.1570260
-0.7512435 -0.6521049 1.2176126
-0.6805888 -0.7123080 1.2818079
-0.5963848 -0.7661759 1.3472632
-0.5007696 -0.8102622 1.4110317
-0.3975898 -0.8421088 1.4701252
-0.2916809 -0.8608576 1.5221662
-0.1878109 -0.8673170 1.5658331
-0.0897796 -0.8635034 1.6009208
-0.5619864 -0.1529730 1.9163097
-0.5254754 -0.2582897 1.9140923
-0.4789190 -0.3680268 1.9004593
-0.4227688 -0.4773300 1.8738753
-0.3588875 -0.5806922 1.8343945
-0.2903196 -0.6731872 1.7838984
-0.2206058 -0.7515792 1.7256725
-0.1529730 -0.8147706 1.6635255
-0.6241333 -0.2206058 1.8531183
-0.5852695 -0.3317982 1.8434625
-0.5349077 -0.4451532 1.8218121
-0.4739638 -0.5549265 1.7874659
-0.4050137 -0.6553260 1.7415332
-0.3317982 -0.7419233 1.6868086
-0.2582897 -0.8125531 1.6270146
-0.6823593 -0.2903196 1.7747263
-0.6399941 -0.4050137 1.7568651
-0.5849708 -0.5189031 1.7273421
-0.5189031 -0.6258030 1.6865100
-0.4451532 -0.7202729 1.6364468
-0.3680268 -0.7989202 1.5804582
-0.7328554 -0.3588875 1.6822313
-0.6859268 -0.4739638 1.6564656
-0.6258030 -0.5849708 1.6204422
-0.5549265 -0.6859268 1.5755029
-0.4773300 -0.7723362 1.5243080
-0.7723362 -0.4227688 1.5788691
-0.7202729 -0.5349077 1.5466923
-0.6553260 -0.6399941 1.5065528
-0.5806922 -0.7328554 1.4604266
-0.7989202 -0.4789190 1.4695660
-0.7419233 -0.5852695 1.4333373
-0.6731872 -0.6823593 1.3918587
-0.8125531 -0.5254754 1.3598289
-0.7515792 -0.6241333 1.3221449
-0.8147706 -0.5619864 1.2545121
-0.8635034 -0.4993817 1.0117595
-0.8673170 -0.4642940 0.9137283
-0.8608576 -0.4206270 0.8098582
-0.8421088 -0.3685861 0.7039493
-0.8102622 -0.3094926 0.6007696
-0.7661759 -0.2457240 0.5051544
-0.7123080 -0.1802687 0.4209503
-0.6521049 -0.1160735 0.3502956
-0.5891613 -0.0554869 0.2935226
-0.4993817 -0.0897796 0.2380357
-0.4642940 -0.1878109 0.2342221
-0.4206270 -0.2916809 0.2406816
-0.3685861 -0.3975898 0.2594303
-0.3094926 -0.5007696 0.2912770
-0.2457240 -0.5963848 0.3353632
-0.1802687 -0.6805888 0.3892312
-0.1160735 -0.7512435 0.4494342
-0.0554869 -0.8080166 0.5123778
-0.8147706 -0.5619864 0.9485661
-0.7515792 -0.6241333 0.8809334
-0.6731872 -0.6823593 0.8112195
-0.5806922 -0.7328554 0.7426516
-0.4773300 -0.7723362 0.6787703
-0.3680268 -0.7989202 0.6226201
-0.2582897 -0.8125531 0.5760637
-0.1529730 -0.8147706 0.5395527
-0.8125531 -0.5254754 0.8432494
-0.7419233 -0.5852695 0.7697409
-0.6553260 -0.6399941 0.6965254
-0.5549265 -0.6859268 0.6275754
-0.4451532 -0.7202729 0.5666315
-0.3317982 -0.7419233 0.5162697
-0.2206058 -0.7515792 0.4774058
-0.7989202 -0.4789190 0.7335123
-0.7202729 -0.5349077 0.6563860
-0.6258030 -0.5849708 0.5826361
-0.5189031 -0.6258030 0.5165683
-0.4050137 -0.6553260 0.4615451
-0.2903196 -0.6731872 0.4191798
-0.7723362 -0.4227688 0.6242091
-0.6859268 -0.4739638 0.5466127
-0.5849708 -0.5189031 0.4757362
-0.4739638 -0.5549265 0.4156123
-0.3588875 -0.5806922 0.3686838
-0.7328554 -0.3588875 0.5208469
-0.6399941 -0.4050137 0.4462132
-0.5349077 -0.4451532 0.3812662
-0.4227688 -0.4773300 0.3292029
-0.6823593 -0.2903196 0.4283519
-0.5852695 -0.3317982 0.3596158
-0.4789190 -0.3680268 0.3026190
-0.6241333 -0.2206058 0.3499599
-0.5254754 -0.2582897 0.2889860
-0.5619864 -0.1529730 0.2867685
-0.8080166 -0.5891613 1.0460523
-0.7512435 -0.6521049 0.9854656
-0.6805888 -0.7123080 0.9212704
-0.5963848 -0.7661759 0.8558151
-0.5007696 -0.8102622 0.7920465
-0.3975898 -0.8421088 0.7329531
-0.2916809 -0.8608576 0.6809121
-0.1878109 -0.8673170 0.6372451
-0.0897796 -0.8635034 0.6021574
-0.0945425 -0.9093131 1.5105525
-0.0986579 -0.9488950 1.4064088
-0.1017201 -0.9783475 1.2901386
-0.1033622 -0.9941409 1.1654205
-0.1033622 -0.9941409 1.0376578
-0.1017201 -0.9783475 0.9129397
-0.0986579 -0.9488950 0.7966695
-0.0945425 -0.9093131 0.6925257
-0.1973158 -0.9112110 1.4673827
-0.2050626 -0.9469859 1.3550104
-0.2101728 -0.9705852 1.2314331
-0.2119630 -0.9788525 1.1015391
-0.2101728 -0.9705852 0.9716452
-0.2050626 -0.9469859 0.8480679
-0.1973158 -0.9112110 0.7356955
-0.3051603 -0.9006403 1.4158716
-0.3152592 -0.9304457 1.2963800
-0.3206997 -0.9465027 1.1676069
-0.3206997 -0.9465027 1.0354713
-0.3152592 -0.9304457 0.9066982
-0.3051603 -0.9006403 0.7872067
-0.4134487 -0.8756984 1.3570645
-0.4239261 -0.8978899 1.2325395
-0.4275996 -0.9056706 1.1015391
-0.4239261 -0.8978899 0.9705388
-0.4134487 -0.8756984 0.8460138
-0.5168108 -0.8362175 1.2931831
-0.5254320 -0.8501669 1.1664861
-0.5254320 -0.8501669 1.0365922
-0.5168108 -0.8362175 0.9098951
-0.6103207 -0.7840794 1.2272721
-0.6151877 -0.7903320 1.1015391
-0.6103207 -0.7840794 0.9758061
-0.6906053 -0.7227912 1.1625131
-0.6906053 -0.7227912 1.0405652
-0.7563401 -0.6565289 1.1015391
0.4993817 0.0897796 1.9650425
0.4642940 0.1878109 1.9688561
0.4206270 0.2916809 1.9623967
0.3685861 0.3975898 1.9436479
0.3094926 0.5007696 1.9118013
0.2457240 0.5963848 1.8677150
0.1802687 0.6805888 1.8138471
0.1160735 0.7512435 1.7536440
0.0554869 0.8080166 1.6907004
-0.4090134 0.0945425 2.0108522
-0.3658436 0.1973158 2.0127502
-0.3143324 0.3051603 2.0021794
-0.2555253 0.4134487 1.9772375
-0.1916440 0.5168108 1.9377566
-0.1257330 0.6103207 1.8856185
-0.0609739 0.6906053 1.8243303
0.0000000 0.7563401 1.7580681
-0.3048697 0.0986579 2.0504341
-0.2534713 0.2050626 2.0485250
-0.1948409 0.3152592 2.0319849
-0.1310004 0.4239261 1.9994290
-0.0649470 0.5254320 1.9517060
0.0000000 0.6151877 1.8918712
0.0609739 0.6906053 1.8243303
-0.1885995 0.1017201 2.0798866
-0.1298939 0.2101728 2.0721243
-0.0660678 0.3206997 2.0480418
0.0000000 0.4275996 2.0072097
0.0649470 0.5254320 1.9517060
0.1257330 0.6103207 1.8856185
-0.0638813 0.1033622 2.0956800
0.0000000 0.2119630 2.0803917
0.0660678 0.3206997 2.0480418
0.1310004 0.4239261 1.9994290
0.1916440 0.5168108 1.9377566
0.0638813 0.1033622 2.0956800
0.1298939 0.2101728 2.0721243
0.1948409 0.3152592 2.0319849
0.2555253 0.4134487 1.9772375
0.1885995 0.1017201 2.0798866
0.2534713 0.2050626 2.0485250
0.3143324 0.3051603 2.0021794
0.3048697 0.0986579 2.0504341
0.3658436 0.1973158 2.0127502
0.4090134 0.0945425 2.0108522
0.4438948 0.0000000 1.9993353
0.3482205 0.0000000 2.0405935
0.2403583 0.0000000 2.0738089
0.1228620 0.0000000 2.0955137
0.0000001 0.0000000 2.1030782
-0.1228620 0.0000000 2.0955137
-0.2403583 0.0000000 2.0738089
-0.3482205 0.0000000 2.0405935
-0.4438948 0.0000000 1.9993353
-0.4993817 -0.0897796 1.9650425
-0.4642940 -0.1878109 1.9688561
-0.4206270 -0.2916809 1.9623967
-0.3685861 -0.3975898 1.9436479
-0.3094926 -0.5007696 1.9118013
-0.2457240 -0.5963848 1.8677150
-0.1802687 -0.6805888 1.8138471
-0.1160735 -0.7512435 1.7536440
-0.0554869 -0.8080166 1.6907004
0.4090134 -0.0945425 2.0108522
0.3658436 -0.1973158 2.0127502
0.3143324 -0.3051603 2.0021794
0.2555253 -0.4134487 1.9772375
0.1916440 -0.5168108 1.9377566
0.1257330 -0.6103207 1.8856185
0.0609739 -0.6906053 1.8243303
0.0000000 -0.7563401 1.7580681
0.3048697 -0.0986579 2.0504341
0.2534713 -0.2050626 2.0485250
0.1948409 -0.3152592 2.0319849
0.1310004 -0.4239261 1.9994290
0.0649470 -0.5254320 1.9517060
-0.0000000 -0.6151877 1.8918712
-0.0609739 -0.6906053 1.8243303
0.1885995 -0.1017201 2.0798866
0.1298939 -0.2101728 2.0721243
0.0660678 -0.3206997 2.0480418
-0.0000000 -0.4275996 2.0072097
-0.0649470 -0.5254320 1.9517060
-0.1257330 -0.6103207 1.8856185
0.0638813 -0.1033622 2.0956800
-0.0000000 -0.2119630 2.0803917
-0.0660678 -0.3206997 2.0480418
-0.1310004 -0.4239261 1.9994290
-0.1916440 -0.5168108 1.9377566
-0.0638813 -0.1033622 2.0956800
-0.1298939 -0.2101728 2.0721243
-0.1948409 -0.3152592 2.0319849
-0.2555253 -0.4134487 1.9772375
-0.1885995 -0.1017201 2.0798866
-0.2534713 -0.2050626 2.0485250
-0.3143324 -0.3051603 2.0021794
-0.3048697 -0.0986579 2.0504341
-0.3658436 -0.1973158 2.0127502
-0.4090134 -0.0945425 2.0108522
0.4438948 0.0000000 0.2037429
0.3482205 0.0000000 0.1624848
0.2403583 0.0000000 0.1292694
0.1228620 0.0000000 0.1075645
0.0000000 0.0000001 0.1000000
-0.1228620 0.0000000 0.1075645
-0.2403583 0.0000000 0.1292694
-0.3482205 0.0000000 0.1624848
-0.4438948 0.0000000 0.2037429
-0.4993817 0.0897796 0.2380357
-0.4642940 0.1878109 0.2342221
-0.4206270 0.2916809 0.2406816
-0.3685861 0.3975898 0.2594303
-0.3094926 0.5007696 0.2912770
-0.2457240 0.5963848 0.3353632
-0.1802687 0.6805888 0.3892312
-0.1160735 0.7512435 0.4494342
-0.0554869 0.8080166 0.5123778
0.4090134 0.0945425 0.1922260
0.3658436 0.1973158 0.1903281
0.3143324 0.3051603 0.2008989
0.2555253 0.4134487 0.2258408
0.1916440 0.5168108 0.2653216
0.1257330 0.6103207 0.3174597
0.0609739 0.6906053 0.3787479
0.0000000 0.7563401 0.4450102
0.3048697 0.0986579 0.1526441
0.2534713 0.2050626 0.1545532
0.1948409 0.3152592 0.1710934
0.1310004 0.4239261 0.2036493
0.0649470 0.5254320 0.2513723
-0.0000000 0.6151877 0.3112071
-0.0609739 0.6906053 0.3787479
0.1885995 0.1017201 0.1231916
0.1298939 0.2101728 0.1309540
0.0660678 0.3206997 0.1550364
-0.0000000 0.4275996 0.1958686
-0.0649470 0.5254320 0.2513723
-0.1257330 0.6103207 0.3174597
0.0638813 0.1033622 0.1073983
-0.0000000 0.2119630 0.1226866
-0.0660678 0.3206997 0.1550364
-0.1310004 0.4239261 0.2036493
-0.1916440 0.5168108 0.2653216
-0.0638813 0.1033622 0.1073983
-0.1298939 0.2101728 0.1309540
-0.1948409 0.3152592 0.1710934
-0.2555253 0.4134487 0.2258408
-0.1885995 0.1017201 0.1231916
-0.2534713 0.2050626 0.1545532
-0.3143324 0.3051603 0.2008989
-0.3048697 0.0986579 0.1526441
-0.3658436 0.1973158 0.1903281
-0.4090134 0.0945425 0.1922260
0.4993817 -0.0897796 0.2380357
0.4642940 -0.1878109 0.2342221
0.4206270 -0.2916809 0.2406816
0.3685861 -0.3975898 0.2594303
0.3094926 -0.5007696 0.2912770
0.2457240 -0.5963848 0.3353632
0.1802687 -0.6805888 0.3892312
0.1160735 -0.7512435 0.4494342
0.0554869 -0.8080166 0.5123778