# TIME=0.000000
VARIABLES=X,Y,Z
ZONE N=1442 E=2880 F=FEPOINT ET=TRIANGLE
   4.7748308       5.9564409      0.72363502               3           1
  -6.3567781       4.8997130      8.51540938E-02           3           1
   1.1246659      -5.3400431      -5.0787864               3           1
  -4.1622334       2.1969976       4.4691916               3           1
 -0.92719662       5.2585835     -0.83079082               3           1
  0.60285366      -6.3582492      -6.7725639               3           1
  0.15488642      -4.3442540       1.4234914               3           1
   2.5087605      -5.5771675       2.9333131               3           1
   5.9559412      0.97448534       7.2798967               3           1
   7.3645349      -6.4418736     -1.34418430E-02           3           1
  0.90911239      -2.1615448      -3.1590247               3           1
   1.8550928      -6.1711502      -5.8900218               3           1
   7.9375410      -4.9392490     -0.99484974               3           1
   1.9790676       3.0539799       7.2746129               3           1
   6.4758606     -0.47833776       4.9396281               3           1
   4.3191714       2.2055058      -1.5989962               3           1
  -7.1551967       2.3290188       5.5025496               3           1
   4.1057220       3.8644140      -7.7655296               3           1
  -4.3042259      -3.4778659       4.5549669               3           1
   8.2296066       1.5592300       3.4970725               3           1
   6.0314980      -1.7348826       5.3803134               3           1
   3.6912401       4.1473660      -1.0957307               3           1
  0.21858950       6.0948887       4.1361051               3           1
  0.80522496      -4.5595198      -5.9086313               3           1
   2.9174497      -1.8808357       6.5958004               3           1
   2.0332520       5.7617722       5.8191977               3           1
   7.6091795      0.46762297      -6.1212573               3           1
   4.7877002       7.1674981       5.5497136               3           1
  -4.6579075       4.1592188       6.9828634               3           1
  0.64165831       1.2265980       9.7744741               3           1
   8.5084066      6.00335561E-02  -2.7537284               3           1
  0.94122726       9.3998327      9.53006819E-02           3           1
  0.98031461       2.2612886      0.34894419               3           1
   6.1659589      -4.8172498       4.3464918               3           1
   2.8429084     -4.90480550E-02  -3.2121260               3           1
  0.73198289      -6.4086246       5.8764358               3           1
   5.2318778      -7.1911683       3.0895309               3           1
   7.3184171      -4.0077744       5.3156142               3           1
   2.4603398       2.8597116     -0.74591851               3           1
   1.9191184      -5.8586812      -6.3013449               3           1
   6.0698433      -6.6837044       3.0302367               3           1
   2.9967153      -4.2544861      -1.5524194               3           1
   7.7148805       1.0621982      -1.7180755               3           1
   4.9973965      0.30432829       3.7462425               3           1
 -0.26942480       3.0009751     -0.42485896               3           1
   3.8106372      -5.6298299      -3.3435435               3           1
   3.8263981       8.3478746      0.95260656               3           1
   3.9139321       5.7990527       5.6716838               3           1
  -2.1782048     -0.63386446      -5.8133245               3           1
   4.4715638       4.1421256       4.6317339               3           1
   7.1167154      -4.4306235     -0.45239973               3           1
   7.3426094      -1.5099323      0.39611107               3           1
   5.5351720       7.8720345       1.7396744               3           1
   4.3604422       1.2998892       7.6411591               3           1
  -6.7980199      -1.1054727      -3.5995600               3           1
  7.01809227E-02  -1.8473459      -2.9309845               3           1
   4.6927719      -4.4206691      0.49567637               3           1
   3.5217533       4.7731824       3.8716259               3           1
   6.2201681      -5.5967321     -0.56048524               3           1
  -6.3955011      -7.2354255     -0.14511366               3           1
   4.9141068       2.4034808       6.2077379               3           1
   1.3859848      -5.0209723       7.3905945               3           1
  -1.9043835       8.9119549       2.2621450               3           1
  -2.6167538      -7.2036672       5.6911678               3           1
  -7.9444556     -0.26454198     -0.38806486               3           1
   5.6933532      -4.9179678      -1.6519265               3           1
   8.1027956       3.0737290      -1.8032680               3           1
   2.3652773      -6.5452390       2.2532146               3           1
  0.92595565      -5.8412662      -7.7236738               3           1
   1.2024078       1.3784037      -5.9192114               3           1
   9.0006714     -0.43727368       2.7744122               3           1
  -1.3925785       8.6839457      0.96059382               3           1
   1.8735148       8.4458971     -0.95911759               3           1
  0.52228695       5.2848392      -3.9713781               3           1
   5.9697051       2.8698542      0.20332551               3           1
   8.0234118       1.3377371      0.54004741               3           1
  -3.3301117     -0.93554574      -5.0495000               3           1
   4.8148766       3.3744736      -2.3367238               3           1
   3.4482527      -4.1200538      -6.1449075               3           1
   9.5491676      1.01244822E-02  -1.7492877               3           1
   2.1776056       1.4350221       8.8193684               3           1
   2.0060184       6.5527582       1.1490916               3           1
  -1.7967128       3.3907111      -1.9275103               3           1
  -5.1338201      -2.3448694       7.0774698               3           1
   6.2647071      -5.0195174      -1.7468749               3           1
   4.1202841      -1.7770033       1.9484047               3           1
   4.5558887      -4.6431375      -1.2324659               3           1
   7.8891401      -5.9224992     -0.33397126               3           1
  -1.2893519       2.4022076       7.4076824               3           1
   2.5647142      -7.8702049      -4.2952285               3           1
   4.3146033      -4.4509225      -4.7887440               3           1
  0.97457266       4.0657520      -6.8042312               3           1
   1.9192095       6.5140014      -1.2038646               3           1
   4.9644718       6.4842510     -0.66281056               3           1
   3.4803622     -0.73938167      -6.4723883               3           1
   3.4204583      -3.1289580       1.2048438               3           1
  -2.4249282       7.3894186      -2.2367804               3           1
  -5.1006265       5.8643765      -3.0212779               3           1
   4.8554592      -1.3079712       6.6907411               3           1
   5.2999730      -3.6751213      -1.4509702               3           1
   1.6963729       6.6000419       1.2460525               3           1
   8.5241709       3.8969710     -0.36872894               3           1
   8.0277491       3.3696880      -3.0817075               3           1
   7.9280448     -0.66965437      -2.4611373               3           1
   8.9171476     -0.77066475      0.95419580               3           1
  -1.0401369      -1.9671342       6.5881591               3           1
   2.6873593       6.5010448       3.8225999               3           1
 -9.92969647E-02   9.3818541      0.47774234               3           1
  -2.3942769      -3.8144588     -0.67033130               3           1
   4.1284385      -5.2604494      -5.6486421               3           1
   5.9692764       6.2833195       2.0303805               3           1
   7.2607498      0.52100736      -4.8977365               3           1
  -2.3516114      -7.4192390      -1.5743477               3           1
   6.8561854     -0.78960425       4.2397485               3           1
   3.7182195      -2.4391441      -7.4636931               3           1
   6.9770718       4.1191864      -2.4132688               3           1
   6.5718789      0.29651904     -0.25682148               3           1
  -2.7216382      -4.1114750       1.1898938               3           1
  -3.5123522      -4.7178750      -2.1801240               3           1
   4.2757998      -3.3447852      -4.3576045               3           1
  -4.5850773      0.84718537      0.36487547               3           1
   4.7216544       2.0037274       3.8448615               3           1
   4.4487152      -6.7111545       4.5426979               3           1
   6.4109497      -4.5874376      -5.7538195               3           1
   2.7173712       8.9340267       1.8635535               3           1
 -5.99117205E-02 -0.31162786      -5.2449265               3           1
 -0.13997974       8.6277485      -4.2314029               3           1
   9.6626253      -2.7661812     -0.52487087               3           1
   7.2235289       2.7195520       6.1839614               3           1
   3.8437071      -5.2346792       2.2341695               3           1
  -4.3772368      -2.0730464       7.1960378               3           1
   8.0887423       2.7807553      -1.3439300               3           1
   3.2170250      0.89851111      -5.5504670               3           1
   1.5346432       4.5309000     -3.83298025E-02           3           1
   3.7963824     -0.13559729       8.3580580               3           1
   1.6970096      -2.9725866      -4.6441970               3           1
   6.7662983      -2.6800425     -1.12244450E-02           3           1
   3.9005072      -4.2688913       1.9603260               3           1
   6.0451679      -1.3688884       7.2442727               3           1
   8.3020935       3.1140921      0.60949284               3           1
   5.8795123      -4.3390665       1.0122374               3           1
   2.7193120      -3.3696110      -5.3123126               3           1
   3.5044422      -3.8464327      -6.9853363               3           1
   4.5548029       1.8607208       6.2033968               3           1
   7.0049915       2.4474761       2.0672021               3           1
   9.5204992     -0.47362256      0.29568064               3           1
  -3.3661034      -5.6276016      -6.2210388               3           1
   7.0623584      5.61114997E-02  -5.7337427               3           1
   1.3379935     -0.40197748      -5.5264330               3           1
   8.1994066     -0.86038655      -3.9079528               3           1
   5.1184888       2.1411526      -5.7968869               3           1
  -1.1196833      -1.7224187      -3.7405467               3           1
   1.9210305     -0.32814282      -2.1847191               3           1
  -2.5713844       1.6477305      -5.8497534               3           1
   8.0112667     -0.55850208       1.5890962               3           1
  -1.5783135       4.2628989       3.4056013               3           1
   3.6211126      -8.6135645      0.74086618               3           1
  -1.1837975       3.8377166      -4.8330340               3           1
  -5.5908623       3.5640824      -1.4738132               3           1
   5.0127349       5.8093104       3.8084786               3           1
  0.65705502      0.92679870       8.9829006               3           1
  -2.1454203       6.3613515     -0.57171935               3           1
  -6.3933439       4.4894934      -5.0138955               3           1
   2.2426898      0.76881111      0.72864312               3           1
   6.0773320      0.60735124       2.0632648               3           1
  -7.5574875      -5.0305743       3.0538769               3           1
   8.9026985       2.3851228       1.0252242               3           1
   1.6225172       8.1652918       3.3606172               3           1
   3.3624907       8.8562212       1.5020943               3           1
  -1.1312492       1.3549075       3.4214082               3           1
   6.0174980       3.8521786       4.7564206               3           1
  -2.9597549       1.8432332       8.6344318               3           1
  -3.3853605       2.9568157      -5.5930934               3           1
  -4.4099426      -2.1566401       7.4288902               3           1
   9.2628298      -2.0759380       2.2217748               3           1
 -0.91907066       9.1450405      -2.7285128               3           1
   6.6432104       1.6772710       4.8426557               3           1
 -0.95107210      -6.2006698      -1.1504526               3           1
  -6.8479691       6.0248399       2.5729842               3           1
  -3.7801268       1.0967518       4.8079467               3           1
  -1.3188456      -3.5946729      -4.8574939               3           1
  -4.2289948       1.6039840      -2.5043440               3           1
   6.8197856      -3.0257192       3.5507195               3           1
  -6.0208592       4.0810709      -1.7407368               3           1
   2.3087168       5.3020029       5.2209902               3           1
  0.81339461      -7.3887939       2.4310739               3           1
   4.9825745      -4.2983088       6.9883318               3           1
  -3.3949878       4.1762466       2.4900637               3           1
   5.9901237       1.8754385       2.9733875               3           1
  -2.3506925       2.3442800      0.35918745               3           1
  -4.3624206      0.39113292      -2.5305643               3           1
  0.68830484      -7.3134484       2.6127157               3           1
  -2.7629447      -2.0345480      -3.5647063               3           1
  -5.4760900      -5.2470589      -2.1615322               3           1
  0.72859955       5.6227975       7.0327902               3           1
  -5.1281633       2.2534318       6.4020581               3           1
   6.1657667      -2.5169821       5.9817686               3           1
   9.5020647       2.0894558      -2.0024593               3           1
  -4.7097292       4.2743063       2.0940626               3           1
  -8.2396011     -0.28561696       2.9065387               3           1
   2.7467215     -0.93902206       2.0713632               3           1
  -7.4606895      -2.4164636       4.6334505               3           1
  -4.3421836      -5.8278022      -5.5256338               3           1
   9.3601103      -2.3641794      0.96482778               3           1
   3.7014544       3.6933806      -1.0246694               3           1
   3.5520201      -2.0662222       5.8393931               3           1
   3.3288276      -7.7295246      -4.6405401               3           1
  -1.4440258      0.43141997      0.44860610               3           1
   4.0688086      -8.2868099      -2.8723288               3           1
  -3.9169807       6.2710719       5.5560927               3           1
   5.7888994      0.97174245     -0.95317286               3           1
  0.82913005      0.28223017       7.4908891               3           1
  -8.8148699       2.9555860      -1.6363056               3           1
   3.9111218      -3.3048432       6.8342781               3           1
   1.5703452      -1.9822385       1.1857781               3           1
   4.5505223      -1.4554166      -8.0869970               3           1
   7.6842995       3.9831984      -1.6527280               3           1
  -2.1964908       7.8124571       2.8520756               3           1
   4.6102386       6.6418824      -5.2044773               3           1
 -0.94857621       2.5024090      -8.7739172               3           1
   5.2792487      -1.1108018      -1.5665082               3           1
   2.8569348       3.9660158      -5.5599437               3           1
   3.7149467     -0.21227793       3.6712523               3           1
   4.8339114     -0.38287246       2.1916046               3           1
   6.2087879       2.2982123      -4.6640987               3           1
   9.4207373       2.3226695       2.0421109               3           1
 -0.62722754      -2.6593854     -0.71020269               3           1
   2.9575706       7.4945526       2.9081233               3           1
  -5.9205413       2.7270069      3.86924739E-03           3           1
   6.6005812      -2.8094478      -1.3033943               3           1
  0.80560255      -7.7601962      -3.2293196               3           1
  -1.0576520      -2.1891236      -1.0727084               3           1
  -1.3081216      -2.5429788       3.2512679               3           1
   7.0764670       4.8101816       1.9620539               3           1
 -0.98689318      -4.2714243      -7.9503627               3           1
  -3.3780062      -1.4196882      -6.0490575               3           1
  -1.6571170      -3.1720552       2.0346186               3           1
   5.8053975     -0.76208967       3.5295837               3           1
  -1.7367425       8.4246054      -2.8564427               3           1
  -5.5030098       4.6885147       2.9398129               3           1
  -2.6605024       6.6809158      0.50449914               3           1
   2.0507104     -0.10444346      0.23640478               3           1
   8.8571634      0.23343147       4.6924829               3           1
   4.1265507      0.97261965      -6.8596854               3           1
   7.5429721       4.1348715      -1.2682179               3           1
  0.91528749       1.5009609     -0.14550985               3           1
   7.1363840       4.1479230      -3.4926839               3           1
  -1.9974159      -2.5523267      -3.1718864               3           1
  -5.6436834     -8.43178108E-03   6.1633539               3           1
  -4.5933952      -2.0775032     -0.97252518               3           1
   6.5173149      0.40708932      -6.4916511               3           1
  -5.5681372      -2.6166975      -7.4803948               3           1
   3.9247062       7.7347412     -0.34049717               3           1
   7.6683297     -0.93972659      -5.7998166               3           1
 -0.80260032     -0.92566240       2.6315706               3           1
   3.0673695       7.9005651      -2.2872424               3           1
   8.3843765      -4.3737555       2.1478283               3           1
 -0.86103779       1.9256165      -1.8756334               3           1
   4.5009155      -1.6774800      -7.9431114               3           1
   5.4116535       5.5818315       6.2316580               3           1
  -4.4003959       6.0137777       1.8011227               3           1
  -2.6275663      0.89019847      -2.7984076               3           1
   7.8873906       3.7476306       4.3134422               3           1
   5.7083721      0.92660975      -7.8283443               3           1
 -0.63054067       8.3083467      -5.0981674               3           1
 -0.85580701      -7.1744347       5.3112493               3           1
   5.0105863       1.0031528       4.8095441               3           1
   9.2176380      0.51046199       3.0010779               3           1
  -8.2734070       2.9654465       1.5959291               3           1
   4.5535617       4.7361069       2.3427987               3           1
   5.2487020       1.8145336       1.3503057               3           1
   5.3174291      0.54919827      -6.0098543               3           1
   1.7485443       5.6274858      -3.7831578               3           1
   1.4387466       7.2186232      -2.5526924               3           1
  -2.9181554      -1.7222712       1.4886059               3           1
  -1.6288842       3.4471769      -6.1545806               3           1
   5.9173007       6.7626019     -0.13172822               3           1
   2.0780683      -6.4452753     -0.38359290               3           1
   6.3362074       4.3007722      -5.3987699               3           1
   1.0870745       2.5630515      -7.8213000               3           1
   8.2636395       2.0539141     -0.78661591               3           1
  -1.0555234       7.9190416      0.86996901               3           1
  -2.9759710       3.5094340      -6.6790085               3           1
 -0.54021889       1.1624616      -6.9878030               3           1
   2.3330064      0.34934407       5.8514571               3           1
   1.8067150      -7.6217995       1.8620830               3           1
   5.2312107       7.8783340      0.92100334               3           1
 -0.20877481      0.63803440      -6.1761851               3           1
  -2.1861048      -2.4910898       8.9408503               3           1
  0.13817520       1.8300400      -3.1579711               3           1
  -1.5991656       5.3696332       5.8563409               3           1
  -2.5015321      -7.9228973     -0.24598092               3           1
  -1.6444309     -0.11213939      -2.6242521               3           1
   3.9433510       7.0400147      -3.1221383               3           1
   7.8345909      -4.2340541      -3.5982981               3           1
   5.3812542      -1.2269063      -5.7823062               3           1
  -3.5804813      -5.2942390      -5.4029183               3           1
  -4.9376330       6.7131295      -4.8730750               3           1
 -0.25782323       8.1049185      -3.6294677               3           1
  -6.5479245      -2.3096054      -1.5900351               3           1
  -1.2273283      -1.9035515       3.9056833               3           1
   5.9095840      0.65261078      -2.0336576               3           1
  -3.5437865       3.0624056      -7.7045393               3           1
  -7.3827052       3.8372815      -2.8299286               3           1
   8.7262049       1.2334489       3.3010886               3           1
  -2.2877543       7.8862119      5.85945956E-02           3           1
   2.9516323       2.0696478      -4.5846968               3           1
  -7.0430546       4.7357869      -3.4670069               3           1
   1.6506554      0.15915871      -3.7916718               3           1
  -7.3611774       5.8476973      -1.1796160               3           1
   3.0537717     -0.21494211      -2.2748766               3           1
   1.5108247       7.2743640      4.09749858E-02           3           1
  -6.8286819       4.3998294       4.2967143               3           1
  -2.6496251       7.4950881       5.5036130               3           1
  -2.5782380      3.52190100E-02  -3.4705155               3           1
  -1.2945836      -5.4571533       5.1396518               3           1
 -0.73754472       4.7957435       1.7714739               3           1
  -2.9335234       3.7890625       5.8648505               3           1
   5.6210709      -8.0651646      -1.7547579               3           1
   6.1478138       5.7619858       3.8740664               3           1
   1.6611747       6.3098888      -5.6071177               3           1
  0.98773015       6.4212813      -1.7333877               3           1
   4.7954359       8.5334806       1.3704194               3           1
  0.21718958       2.5226705       8.2169724               3           1
   2.9744422       2.3482912     -0.85579336               3           1
  7.12879226E-02   6.5329604       2.1852694               3           1
   7.6352577      0.14188947       3.0276828               3           1
  -1.4324845      -1.5691435      -6.3519735               3           1
  -2.4614451       4.2190676      -4.1415896               3           1
  -5.0570002      -3.9554303       5.8110776               3           1
   3.9988997      -1.6818930      -3.4768589               3           1
 -0.90028793     -0.10859105       8.5685625               3           1
  -6.9773293      -2.5020485      -3.4627554               3           1
   2.7490981     -0.95843029      -3.1384265               3           1
  0.81943101      0.88162088       3.5474632               3           1
   5.6156645       3.2225480      -6.0184236               3           1
  -5.1976357      -4.8882494       3.8125467               3           1
   2.3636217      -2.9246542      -4.3415661               3           1
  -1.6054019       8.5529556      -1.2214539               3           1
  -1.2018137       4.5699725       6.2690816               3           1
   1.9938571       8.5580502     -0.94112593               3           1
   4.8113723       7.8996930      -3.2590199               3           1
   2.2109075      0.56734550      -2.6459577               3           1
   2.2414887       8.2708788      -4.2745786               3           1
  -2.2130046       3.9995205       1.2604733               3           1
   3.0279219      -7.3446751     -0.94006956               3           1
  -3.4923027       4.7306957       1.4944897               3           1
  -6.1932459       3.6727388      -1.7383554               3           1
   2.3992033       2.8245900      -5.4225144               3           1
   3.1797712      -1.0147634      -2.1326516               3           1
   3.6266623       5.1319637      -7.1463771               3           1
  -5.0512085      -5.2346644     -0.88923496               3           1
  -9.2154989     -0.34365857       2.0324550               3           1
 -0.59292185       6.9563637       6.4846745               3           1
   6.0665016       1.8081896       4.4566627               3           1
   3.5692270       7.2247062      -4.0554819               3           1
   6.2307787     -0.23277961      -6.9612145               3           1
 -2.02665031E-02  -4.9077954       1.4087214               3           1
   3.4810088      -2.9729571      -4.1203761               3           1
   5.0205984      6.89112395E-02  -5.1182680               3           1
  0.29191718       5.0300732      -5.9433522               3           1
  -1.6797625      -5.0446672       6.2364221               3           1
   1.6971644       3.5670350      -3.6637449               3           1
 -0.75924277       3.2324498       3.0259225               3           1
  -6.6485853       3.7919610       2.7245655               3           1
  0.47107756       7.9232354      0.89761418               3           1
  -8.1822090       1.1320268      -4.3718534               3           1
  0.35341528      -8.5105772     -0.27150950               3           1
  -8.7348595      -2.2446761      -2.1342123               3           1
   1.3728766      -3.1767306       8.6464520               3           1
  -3.8936450      -5.5149045      -6.6983032               3           1
   4.9737873       2.7620680      -8.1530476               3           1
  -3.0269244      -3.7871714     -0.15757638               3           1
   2.9857593      -2.5720110       6.5871167               3           1
  -5.3827920      -2.6123834      0.34833327               3           1
  -4.5751462      -1.3268149      -5.5973845               3           1
  -1.3380370      -1.8601534      0.13660406               3           1
 -0.96856338      -3.8064165       3.2095757               3           1
   5.8139043      0.57280111      -2.2266390               3           1
  -9.0334377     -0.95432198       3.0273306               3           1
  -5.3246398     -0.15175384       5.2290025               3           1
  -6.8027110     -0.15267946      -2.5357807               3           1
   4.3818946      0.14917427       4.3584332               3           1
  -2.2886138      -3.6011143       3.9347608               3           1
  -3.2079828      -8.2791386      9.44061801E-02           3           1
   2.1085451     -0.57880861       9.6980247               3           1
   4.7300062       6.1725483       1.7147431               3           1
  0.42554030      -3.5349667     -0.77663916               3           1
  3.48268300E-02  -2.4564707      -8.3563871               3           1
   1.1249679       9.6437378     -0.26162073               3           1
  -3.2952855       2.9904747       5.6456761               3           1
  -2.9488609       2.6590340      -3.7356229               3           1
   1.5395657      -4.9478078       7.8074665               3           1
   5.4326391       4.0082088       3.2336683               3           1
  -7.8031392      -4.2843008       3.5581639               3           1
   1.5991848       2.2114701       3.6441677               3           1
  0.35109904       1.2431036      -5.9785271               3           1
  -4.9383006      -2.9490814      -4.4470687               3           1
 -0.28703061      -9.6417694      0.76977354               3           1
   3.4922411      -1.0435156       1.2904758               3           1
   2.1757200       1.5028938       8.9375601               3           1
  -6.3164482       2.3998351      -3.7689826               3           1
  -2.3286204      -4.1941919       4.7897677               3           1
 -0.40056318       3.5487618      -2.6107163               3           1