# TIME = 0.000000
VARIABLES = X, Y, Z
ZONE N=2562 E=5120 F=FEPOINT ET=TRIANGLE
0.5440009274688842	0.33621109188033443	1.1039897570833674
-0.5440009274688842	0.33621109188033443	1.1039897570833674
0.5440009274688842	-0.33621109188033443	1.1039897570833674
-0.5440009274688842	-0.33621109188033443	1.1039897570833674
0.44798565967356435	0.	0.47954050692103567
0.6404489037953764	0.	-0.10461841316500911
-0.44798565967356435	5.486242041831461e-17	0.47954050692103567
-0.6404489037953764	7.84323700050439e-17	-0.10461841316500911
8.966458272500168e-18	0.1464333761986389	0.9985157410200739
8.966458272500168e-18	-0.1464333761986389	0.9985157410200739
5.478047033611892e-17	0.8946329729397768	0.4444155855805788
5.478047033611892e-17	-0.8946329729397768	0.4444155855805788
0.4994058998946026	0.2964360243489897	1.1473422641468796
0.4459285654246188	0.25324030436153555	1.1853358131329879
0.3832814018598118	0.2073132416480158	1.2147147649533738
0.31202713128982323	0.15990178168188074	1.2310978074836738
0.23450427830228004	0.11314609295612225	1.2283044684498807
0.15777283558887817	0.07113183708363971	1.1968299060393912
0.10498978496137532	0.043822215536302986	1.1248454199709228
0.1168556472367091	0.044634891070240386	1.0320815578317408
0.1725483275112985	0.05942262758095547	0.9562977744955107
0.23703505789036	0.07216337291946628	0.8893292058306776
0.2982167748893026	0.07810742308824165	0.8220835961046793
0.3510220449917093	0.07601114534904556	0.7523411299409601
0.3928617195120543	0.06601200776926054	0.6810567406164579
0.4227161044699639	0.049050182776850096	0.6103649862943723
0.44075340607922925	0.02652261843139918	0.5425542750084502
0.5145750697045153	-0.2647147304258542	1.1486921886579085
0.4569493125468579	-0.22242764451649705	1.1874889101816368
0.38947561686558096	-0.1782538422318738	1.216816584136982
0.31303207462035937	-0.1336806600692224	1.2318962552819324
0.23068983227385217	-0.09106825808407505	1.2259717513664035
0.1515451009591985	-0.054659242665625996	1.1886341854781477
0.10480953862575193	-0.03402542971239938	1.1093730119327507
0.12814141916916014	-0.03670925165658485	1.0176538834987412
0.18827658398064148	-0.046313680133343096	0.9443249450228067
0.25341103128600784	-0.051432609054513745	0.8780442412133167
0.3131467242635658	-0.04921066970444237	0.8112829027803751
0.3630589829985745	-0.03930883188334731	0.7427255333963794
0.4011047738851737	-0.022465684225260123	0.673674662658055
0.4267945614724478	0.	0.6062603291442683
0.5287744339047477	-0.23017024205419398	1.1499580552179052
0.46695024551397213	-0.18941309715808308	1.1894531534177957
0.39474581452189816	-0.14781752894958056	1.2186333034695804
0.3134344181889041	-0.10708199230203866	1.2323860404598246
0.22690305272522757	-0.06966817900488333	1.2235030536089766
0.14636377357240138	-0.039592843890950566	1.180965321202983
0.10620036084725375	-0.02462639057547708	1.0966436387473986
0.13774378202451115	-0.026306719231933423	1.0071121866510766
0.19982190663163818	-0.029492207451035576	0.9359878989926079
0.26393263708733194	-0.02678404776614304	0.8709164876729529
0.32098032005193133	-0.01681389461336821	0.8056414518461728
0.3671951746894829	0.	0.7394232395073328
0.4011047738851737	0.022465684225260123	0.673674662658055
0.5415786137067942	-0.1928812476284548	1.1511014110759241
0.47564366815711323	-0.15435160186402738	1.1911690365135224
0.39901024018048814	-0.11621123502150296	1.2201258987143748
0.313412798599892	-0.0803059609446143	1.232629341870244
0.22356300768284998	-0.04903047633113833	1.221211918948097
0.14255080369921197	-0.025707588827324192	1.17465794422224
0.10805543226603259	-0.015033933504528231	1.0876598507986468
0.1441731317292678	-0.013767316770774108	1.0006797499035704
0.20593968330929513	-0.01013172648623125	0.9316973172567903
0.2675636305088924	0.	0.8684759891085804
0.32098032005193133	0.01681389461336821	0.8056414518461728
0.3630589829985745	0.03930883188334731	0.7427255333963794
0.5525412239894736	-0.15305543821003484	1.1520817081258288
0.48275161889070856	-0.11749365692589736	1.1925781817052563
0.40222117320664375	-0.08367599649776312	1.2212653563840972
0.3131794963922584	-0.053497454051648075	1.2327098292835035
0.22106997535158404	-0.029090235972276782	1.2194353323922924
0.14025151379849352	-0.012646470802572793	1.1704968378786713
0.10930364752907668	-0.0050692012383012726	1.0830303091157598
0.1464333761986389	0.	0.9985157410200739
0.20593968330929513	0.01013172648623125	0.9316973172567903
0.26393263708733194	0.02678404776614304	0.8709164876729529
0.3131467242635658	0.04921066970444237	0.8112829027803751
0.561228330887288	-0.1110441413567885	1.1528594883507028
0.4880275570397199	-0.07918515809346796	1.1936277512906879
0.40436031761368996	-0.050472592088026715	1.222033015976428
0.31293927165061525	-0.02672820987106696	1.2327139106102543
0.21973743133526313	-0.009638287275269495	1.218462769176965
0.13948780083420165	0.	1.1690422069554387
0.10930364752907668	0.0050692012383012726	1.0830303091157598
0.1441731317292678	0.013767316770774108	1.0006797499035704
0.19982190663163818	0.029492207451035576	0.9359878989926079
0.25341103128600784	0.051432609054513745	0.8780442412133167
0.5672598544400974	-0.06734248595414423	1.1533999457603115
0.4912763963938021	-0.03985617045653263	1.1942757989689867
0.40542771324840493	-0.01686859874263385	1.2224188349028238
0.3128410566659897	0.	1.232707109537738
0.21973743133526313	0.009638287275269495	1.218462769176965
0.14025151379849352	0.012646470802572793	1.1704968378786713
0.10805543226603259	0.015033933504528231	1.0876598507986468
0.13774378202451115	0.026306719231933423	1.0071121866510766
0.18827658398064148	0.046313680133343096	0.9443249450228067
0.5703515887132696	-0.022569832692004813	1.1536772178504844
0.49237365887499973	0.	1.1944949614474178
0.40542771324840493	0.01686859874263385	1.2224188349028238
0.31293927165061525	0.02672820987106696	1.2327139106102543
0.22106997535158404	0.029090235972276782	1.2194353323922924
0.14255080369921197	0.025707588827324192	1.17465794422224
0.10620036084725375	0.02462639057547708	1.0966436387473986
0.12814141916916014	0.03670925165658485	1.0176538834987412
0.5703515887132696	0.022569832692004813	1.1536772178504844
0.4912763963938021	0.03985617045653263	1.1942757989689867
0.40436031761368996	0.050472592088026715	1.222033015976428
0.3131794963922584	0.053497454051648075	1.2327098292835035
0.22356300768284998	0.04903047633113833	1.221211918948097
0.14636377357240138	0.039592843890950566	1.180965321202983
0.10480953862575193	0.03402542971239938	1.1093730119327507
0.5672598544400974	0.06734248595414423	1.1533999457603115
0.4880275570397199	0.07918515809346796	1.1936277512906879
0.40222117320664375	0.08367599649776312	1.2212653563840972
0.313412798599892	0.0803059609446143	1.232629341870244
0.22690305272522757	0.06966817900488333	1.2235030536089766
0.1515451009591985	0.054659242665625996	1.1886341854781477
0.561228330887288	0.1110441413567885	1.1528594883507028
0.48275161889070856	0.11749365692589736	1.1925781817052563
0.39901024018048814	0.11621123502150296	1.2201258987143748
0.3134344181889041	0.10708199230203866	1.2323860404598246
0.23068983227385217	0.09106825808407505	1.2259717513664035
0.5525412239894736	0.15305543821003484	1.1520817081258288
0.47564366815711323	0.15435160186402738	1.1911690365135224
0.39474581452189816	0.14781752894958056	1.2186333034695804
0.31303207462035937	0.1336806600692224	1.2318962552819324
0.5415786137067942	0.1928812476284548	1.1511014110759241
0.46695024551397213	0.18941309715808308	1.1894531534177957
0.38947561686558096	0.1782538422318738	1.216816584136982
0.5287744339047477	0.23017024205419398	1.1499580552179052
0.4569493125468579	0.22242764451649705	1.1874889101816368
0.5145750697045153	0.2647147304258542	1.1486921886579085
0.5625260977532873	0.3042027230924008	1.1039897570833674
0.5802109868340786	0.268942592661329	1.1039897570833674
0.5965536285959289	0.23043149871361646	1.1039897570833674
0.6110036804747263	0.18881051304604665	1.1039897570833674
0.6229984506381278	0.14438780382312474	1.1039897570833674
0.6320119872316489	0.09765119244471561	1.1039897570833674
0.6376115862395758	0.049258222495588255	1.1039897570833674
0.6395114599367027	0.	1.1039897570833674
0.6376115862395758	-0.049258222495588255	1.1039897570833674
0.6320119872316489	-0.09765119244471561	1.1039897570833674
0.6229984506381278	-0.14438780382312474	1.1039897570833674
0.6110036804747263	-0.18881051304604665	1.1039897570833674
0.5965536285959289	-0.23043149871361646	1.1039897570833674
0.5802109868340786	-0.268942592661329	1.1039897570833674
0.5625260977532873	-0.3042027230924008	1.1039897570833674
0.5958731327972089	-0.3536967876031519	1.0542170605035932
0.6466151857660776	-0.36720909837266974	0.9951005975310677
0.694707720280969	-0.3757607564324969	0.9267418377211085
0.738465602782123	-0.3784349300252556	0.8497015268559157
0.7761566734306733	-0.374488242842637	0.7650704193104344
0.8061637520683237	-0.36345869338550474	0.6744800507255376
0.8271679245154966	-0.3452557892767366	0.5800318616998065
0.8383172581675563	-0.32020873946138984	0.48413949844723453
0.83933990457919	-0.28905399016619293	0.3893068609819194
0.8305718970505889	-0.25286077965316783	0.2978837216846506
0.8128926394604168	-0.2129087115881415	0.21185146701321808
0.7875867541897411	-0.17054590189374963	0.13268059343295308
0.7561687070892613	-0.12705797507898048	0.061278936514242245
0.7202102845908975	-0.08357014488777507	-0.001975859273947421
0.6811999920322109	-0.04099164570243788	-0.05714642357145975
0.6177148026176539	0.31777327951175155	1.0524221499848858
0.6713691176419866	0.32680003522909984	0.9910467399369317
0.7217358753701273	0.33032155875809677	0.9200896078096157
0.7669077850315568	0.32750873545332204	0.8403046755137932
0.8049792849485596	0.3177776001284944	0.7530354417058902
0.8342470594700433	0.3008959852746083	0.6601975863542572
0.8534213132696441	0.2770551925947048	0.5641650579785282
0.8618004163354605	0.24688386133171436	0.4675629854927842
0.8593626564092122	0.2113924437441914	0.3730063278998194
0.8467501903159699	0.17185744158155378	0.2828367095753692
0.825151398531857	0.12967165160294922	0.1989190496487448
0.796115685589041	0.08619640088794683	0.12253099531831323
0.7613494910055874	0.042642816449974655	0.054353898146439414
0.7225353894803057	0.	-0.005455095829641476
0.6384145024171853	0.27789547135847636	1.0507227528942806
0.6945486352195095	0.28173581529878544	0.9872565691531467
0.7466209655111286	0.2795815994084029	0.9139758908533482
0.7925180806751916	0.27075652860478233	0.8318591799450393
0.8302033940052317	0.25490515869814706	0.7425214223734888
0.8579546477268674	0.2320851916007895	0.6481589670295681
0.8745935267277748	0.20280610736304377	0.5513850535739608
0.8796490340089498	0.1679980019439068	0.45497555600533984
0.8734097182386914	0.1289086919160023	0.36157727422308644
0.8568505728965793	0.08695372776241829	0.2734450745251013
0.8314592069003315	0.04355428232445857	0.19226462088029803
0.7990110312431169	0.	0.11908482547008288
0.7613494910055874	-0.042642816449974655	0.054353898146439414
0.6572962032574496	0.23409364501675267	1.0491740587012301
0.715293067384951	0.23212046778815038	0.9838692536840778
0.7683256673839662	0.22377389278285859	0.9086518924963229
0.8141148519132676	0.20860116687717117	0.8247483461473077
0.8505611042903899	0.18653987761364335	0.7340479774045976
0.8760112898838194	0.15797973398975387	0.6390008178272693
0.8894888010351465	0.12375606859691965	0.5424021371159383
0.8908254901991959	0.08506631273074268	0.4470981757013665
0.8806569678836911	0.04332615930748386	0.35568268190724167
0.8602861914983523	0.	0.27025116834837704
0.8314592069003315	-0.04355428232445857	0.19226462088029803
0.796115685589041	-0.08619640088794683	0.12253099531831323
0.6736284562431135	0.18659693446330664	1.0478354837242496
0.732694137870269	0.17832547897894255	0.981031245562483
0.785793822540699	0.1634724512851512	0.9043726857964496
0.8305501147624691	0.1418749219343676	0.8193437711536257
0.8648922249839028	0.11380975130320409	0.7280892132378999
0.8873348276429448	0.08001092955057287	0.6332623179847328
0.8971873464541759	0.041609070789919315	0.5377618659134128
0.8946329729397768	0.	0.4444155855805788
0.8806569678836911	-0.04332615930748386	0.35568268190724167
0.8568505728965793	-0.08695372776241829	0.2734450745251013
0.825151398531857	-0.12967165160294922	0.1989190496487448
0.6866816749020036	0.13586622908786858	1.046766328017555
0.7458805220411412	0.12102322134210784	0.9788826073782743
0.7980647892392609	0.0996151125926569	0.9013695338877032
0.8408511180644098	0.07181727315783719	0.8159591673779149
0.8723021390577658	0.038261567708248734	0.7250103349740386
0.8911953874694568	0.	0.6313067463781432
0.8971873464541759	-0.041609070789919315	0.5377618659134128
0.8908254901991959	-0.08506631273074268	0.4470981757013665
0.8734097182386914	-0.1289086919160023	0.36157727422308644
0.8467501903159699	-0.17185744158155378	0.2828367095753692
0.695803119104628	0.08260255226663721	1.0460195523685374
0.7541207241329873	0.061180151023895894	0.9775408141214924
0.8044011889341499	0.033468656534374586	0.8998196771783524
0.84436205109417	0.	0.8148061093616029
0.8723021390577658	-0.038261567708248734	0.7250103349740386
0.8873348276429448	-0.08001092955057287	0.6332623179847328
0.8894888010351465	-0.12375606859691965	0.5424021371159383
0.8796490340089498	-0.1679980019439068	0.45497555600533984
0.8593626564092122	-0.2113924437441914	0.3730063278998194
0.7004976594290101	0.027719945534160465	1.0456353752456793
0.7569250231576578	0.	0.977084291048671
0.8044011889341499	-0.033468656534374586	0.8998196771783524
0.8408511180644098	-0.07181727315783719	0.8159591673779149
0.8648922249839028	-0.11380975130320409	0.7280892132378999
0.8760112898838194	-0.15797973398975387	0.6390008178272693
0.8745935267277748	-0.20280610736304377	0.5513850535739608
0.8618004163354605	-0.24688386133171436	0.4675629854927842
0.7004976594290101	-0.027719945534160465	1.0456353752456793
0.7541207241329873	-0.061180151023895894	0.9775408141214924
0.7980647892392609	-0.0996151125926569	0.9013695338877032
0.8305501147624691	-0.1418749219343676	0.8193437711536257
0.8505611042903899	-0.18653987761364335	0.7340479774045976
0.8579546477268674	-0.2320851916007895	0.6481589670295681
0.8534213132696441	-0.2770551925947048	0.5641650579785282
0.695803119104628	-0.08260255226663721	1.0460195523685374
0.7458805220411412	-0.12102322134210784	0.9788826073782743
0.785793822540699	-0.1634724512851512	0.9043726857964496
0.8141148519132676	-0.20860116687717117	0.8247483461473077
0.8302033940052317	-0.25490515869814706	0.7425214223734888
0.8342470594700433	-0.3008959852746083	0.6601975863542572
0.6866816749020036	-0.13586622908786858	1.046766328017555
0.732694137870269	-0.17832547897894255	0.981031245562483
0.7683256673839662	-0.22377389278285859	0.9086518924963229
0.7925180806751916	-0.27075652860478233	0.8318591799450393
0.8049792849485596	-0.3177776001284944	0.7530354417058902
0.6736284562431135	-0.18659693446330664	1.0478354837242496
0.715293067384951	-0.23212046778815038	0.9838692536840778
0.7466209655111286	-0.2795815994084029	0.9139758908533482
0.7669077850315568	-0.32750873545332204	0.8403046755137932
0.6572962032574496	-0.23409364501675267	1.0491740587012301
0.6945486352195095	-0.28173581529878544	0.9872565691531467
0.7217358753701273	-0.33032155875809677	0.9200896078096157
0.6384145024171853	-0.27789547135847636	1.0507227528942806
0.6713691176419866	-0.32680003522909984	0.9910467399369317
0.6177148026176539	-0.31777327951175155	1.0524221499848858
0.49821563173888106	0.3411285676042765	1.1315950363430523
0.44861310206803134	0.34134573421582476	1.1580180209040984
0.3958455740154067	0.3359949960218037	1.1822608098626337
0.34095374799183814	0.32437222222610906	1.2031539375437057
0.28538262285445265	0.30609554976707437	1.2194040924991416
0.2309339820624076	0.2812854744023033	1.229668956125097
0.17964121952610485	0.25074532011893125	1.2326491754909816
0.13357359325562188	0.2161265874557099	1.2271836132219704
0.09459880693240862	0.18009229119061562	1.2123585323446957
0.06412854711520263	0.14651454988864793	1.1877524667032364
0.04277075135953572	0.1205294162494746	1.1542004745008017
0.029645410827129397	0.10725811754211065	1.1153152132594824
0.021791175912006272	0.107896106303601	1.0773836204459295
0.015496411595770367	0.11805223577631627	1.0450705430014535
0.008458963089753989	0.1321124260520525	1.0191353182676612
0.4376763736792221	0.07336724855965111	0.5277636600430864
0.4272345930018648	0.12380559891860302	0.5197138682642157
0.40859862399343727	0.17564786052771342	0.5202026066178
0.381503853142875	0.22591863986290472	0.5306771894595929
0.3464644734571256	0.2710803848294683	0.551894153750827
0.30488278661579277	0.30747190182988776	0.5836254072083317
0.25898005616097114	0.33190250013795	0.6245340497993995
0.2115236937836407	0.34225254220410284	0.6723090826471745
0.16540454176442004	0.3378924002426121	0.7240639232133664
0.12318291077485526	0.3197814748858228	0.7769092998550877
0.08674020743695468	0.2902393337502515	0.8285394173497278
0.05711888128051667	0.25252356973439677	0.8777011226186053
0.034555681103750485	0.21045002912260571	0.9245032969667288
0.0186379725787638	0.16838361229491575	0.9706048831640591
0.4179606255317835	0.09313802767677573	0.601423519168294
0.40555234340177565	0.1393732304938549	0.5992514251716818
0.3848074106850811	0.18526950435904715	0.6052833846444126
0.355709496190009	0.22768234489417566	0.6204811359697298
0.31910392198029713	0.26314113211456724	0.6450398726877256
0.27674658028476645	0.28837537214524583	0.6781996343914886
0.23114437744794905	0.3009246104285042	0.7182695593867013
0.18519520718817248	0.2996521363254095	0.7629125155375795
0.14172049268921294	0.28499254584458467	0.809644492815235
0.10303433230653168	0.25886973792828594	0.8564234810974802
0.07067670223227962	0.2243855737605543	0.9021932688035217
0.04536441973605298	0.18554816305657	0.947315403974434
0.027127838169321992	0.1475129099273066	0.9938518965335236
0.38567633652282857	0.1056755346347863	0.6777495166598322
0.37078256290633355	0.1458440009393056	0.680915416961704
0.3477499279814623	0.1838727003663167	0.6915484328111431
0.3169020429476574	0.2166679138708156	0.7100977490842033
0.2794596160026732	0.24111016170268204	0.7362650794715514
0.23750246169624176	0.25461475746987383	0.7689569394482232
0.1937158629844564	0.25568396757401113	0.8064628502049596
0.15097089123281568	0.2442760459558726	0.8468626828918698
0.11186761412995651	0.2218918581776824	0.8885834834705968
0.07839605903440944	0.19144936691238626	0.9309945740420144
0.05182768625526714	0.15726809814585074	0.974950572257103
0.03286649293376127	0.1258516822348626	1.0230057861134791
0.3409024224860102	0.10961463034229037	0.7540041272325031
0.3233559440373028	0.142047509597887	0.7615296072658606
0.2983046899263887	0.17070819476242236	0.7754685052544593
0.26647021895935585	0.1928196918754677	0.795844161669398
0.22943674187543298	0.2059012247245378	0.8220786193537534
0.18951984984018277	0.20830244236144305	0.8530979172612421
0.1494451828650131	0.19965178904161485	0.8876576819246736
0.11193873476134168	0.18112064899576227	0.924856307724367
0.07939300689457379	0.15558446732792572	0.9647616568462923
0.053791941056195544	0.12813057279647444	1.0089580617204899
0.03691726735175962	0.10769829593862486	1.059899215031576
0.2850932379081341	0.10429733837237495	0.8277638982834418
0.2652528684265662	0.12783025420396607	0.8385127389303525
0.23903799682254848	0.14639400779491377	0.8545581484985417
0.20757840135594008	0.15780921082353713	0.8757437123465072
0.1727724147832581	0.160510511112543	0.901608706559723
0.13709885706720754	0.15404520468931931	0.9316671363967528
0.10333882932984718	0.13954595039157058	0.965892211596192
0.07439395157541272	0.1203719395624981	1.0052936571392335
0.053387315931914245	0.10350459144697974	1.0518339846598892
0.04321813498400176	0.10069940796438089	1.1046853973679176
0.22147585806182885	0.09018560010565527	0.8982268975810053
0.2004240812133996	0.10453517839193584	0.9115539367394444
0.1746970001171071	0.11348789346725871	0.9295246624704551
0.1458784056570148	0.11582581714799184	0.9522919186730924
0.11630519943536974	0.11141808933290165	0.9802190509758582
0.08905437189784171	0.10204723026849646	1.0142673072716784
0.06806224073822657	0.09279538592131732	1.0558921335641342
0.05758339741919582	0.09317189844834245	1.1041965533121865
0.05816502345044101	0.11169073343926979	1.1511635396660806
0.15622945108914693	0.0696664590778769	0.9687597394877667
0.1364878356068978	0.07623488531509164	0.9858921024490477
0.11495698876576715	0.0786501913132771	1.0084848314253492
0.09437889347697123	0.07787986996825572	1.0376110962028744
0.07879707861577977	0.07758337103406943	1.0741125658214485
0.07254876997496158	0.08461116112566212	1.1161290280869447
0.07630656903508733	0.10493678375423338	1.1568974274267954
0.08542033379179108	0.1382130014174551	1.1896551160987494
0.10514361354098303	0.050705032040726884	1.0510868705159895
0.09485366445848699	0.05625881090838485	1.075965712222417
0.08924723876445112	0.06393088275950252	1.1064111903321359
0.09096278051585828	0.07769148981841441	1.1397280764291515
0.09960638196164381	0.10051783889462057	1.1712340474794087
0.11188001862734766	0.13257215973415584	1.1970831981582963
0.12407198614169036	0.17195913157392165	1.215717591137576
0.10953837668628388	0.056563794574363564	1.1467220113897125
0.11851076197646504	0.07412755321047411	1.169369625665327
0.13115285090712858	0.09788681226191133	1.1905090998749397
0.14562076549953148	0.12828977103383704	1.2082385426633346
0.1597173974500067	0.16480781966943728	1.2213913562041947
0.1715099632521128	0.20618048359867738	1.2295048390698542
0.1720072103639604	0.09435097054377435	1.209215616800763
0.18718116866103718	0.12277012743046027	1.219708716811322
0.2019672867733989	0.15641237930537838	1.2274410334331491
0.21495832011530036	0.19476107419110195	1.2318157537783485
0.22491219574601995	0.236822988523739	1.2325507764989794
0.24923828315309401	0.14427209220938816	1.2316591970553536
0.26269163248612165	0.17980713166732742	1.2327055732506542
0.27378762485577807	0.21924307864427772	1.2310851347616691
0.28157945346136587	0.2617138542768746	1.2266359007036582
0.3239679347648329	0.19681146873681638	1.227525964520218
0.33325287338847764	0.2370828571147225	1.2216947437798436
0.33910233189274935	0.2799349274007812	1.2135409538041948
0.3911452001695326	0.2482271526892901	1.2058232678733947
0.39549463709688265	0.2914200307604567	1.1949628191747357
0.4492635296823297	0.29665446020280806	1.172448201810854
0.5958731327972089	0.3536967876031519	1.0542170605035932
0.6466151857660776	0.36720909837266974	0.9951005975310677
0.694707720280969	0.3757607564324969	0.9267418377211085
0.738465602782123	0.3784349300252556	0.8497015268559157
0.7761566734306733	0.374488242842637	0.7650704193104344
0.8061637520683237	0.36345869338550474	0.6744800507255376
0.8271679245154966	0.3452557892767366	0.5800318616998065
0.8383172581675563	0.32020873946138984	0.48413949844723453
0.83933990457919	0.28905399016619293	0.3893068609819194
0.8305718970505889	0.25286077965316783	0.2978837216846506
0.8128926394604168	0.2129087115881415	0.21185146701321808
0.7875867541897411	0.17054590189374963	0.13268059343295308
0.7561687070892613	0.12705797507898048	0.061278936514242245
0.7202102845908975	0.08357014488777507	-0.001975859273947421
0.6811999920322109	0.04099164570243788	-0.05714642357145975
0.6226941388333672	0.06716931644123712	-0.11934705747663499
0.6006290852988294	0.13883397301420064	-0.12926136567415156
0.5738712954512959	0.21427924142697508	-0.1331125595081208
0.5421941041795718	0.29242947791748436	-0.1296972445092342
0.5055974425891182	0.37185181314712334	-0.1180068334935107
0.4643633856805636	0.4508134039565054	-0.09737873980895975
0.4190768083109212	0.5273960577301731	-0.06761077830952897
0.370606665339447	0.5996541790347295	-0.02901386261057317
0.3200441723036942	0.6657972306391226	0.017600571025604552
0.2686088349557122	0.7243635549082251	0.07099323782157363
0.2175341638045035	0.7743507825140451	0.12961753919480656
0.16795661711286133	0.8152786076790312	0.1917741602310168
0.12082654172183316	0.8471729888812107	0.25576727592756215
0.07685588462571367	0.870487948473591	0.32004061843428483
0.03650482177155212	0.8859899001360012	0.3832709542342044
0.605650038185864	0.3999184738562683	1.0174812329883562
0.6099273559252197	0.4494246752120437	0.9761050738053472
0.6074515235197802	0.5014618955489392	0.9302877189066938
0.5970820844597754	0.5549575855863309	0.880515859030923
0.5779439767103602	0.6085504581459042	0.8275897146919661
0.549580870541138	0.6606779426463323	0.7726069623188897
0.5120749823209686	0.7097167700699578	0.7168939493219271
0.4660946898553841	0.7541570393142307	0.6618884091924127
0.41285021272304023	0.7927709871703885	0.6089948103682152
0.3539610005444231	0.8247385781570091	0.559442187107409
0.2912646869888169	0.8497029359432636	0.5141752596203889
0.2266149992989402	0.8677493804678964	0.47379891414544373
0.16170918833253503	0.8793252445707614	0.4385792029805539
0.09797265668593003	0.8851279166331255	0.4084877557070893
0.6539618533753854	0.4150149068949955	0.9512795089848034
0.6547457064134115	0.46579938285824235	0.9027056329528598
0.6476634065013595	0.5186345410658967	0.8498291838162163
0.631615735159807	0.5722698195154469	0.7934419138808426
0.6058816230542043	0.6251919381831819	0.7346766165146659
0.5702745143343747	0.6757464374266272	0.6749499285057932
0.5252384438533757	0.7223078392727615	0.615844707592493
0.4718477923475356	0.7634658002485941	0.5589512271429199
0.41170062678103103	0.7981840710587711	0.5056973202763605
0.3467280813085287	0.82589448884681	0.4572087478764077
0.27896686678301846	0.8465087244795446	0.41422648926320427
0.21034735494177864	0.8603563219885504	0.37709288632411525
0.14253708469615625	0.8680753111273996	0.34579426514504435
0.6987472294238456	0.42449098735192603	0.8756540284854083
0.6951120309882516	0.4757901852319225	0.8199196246003309
0.682511730807591	0.5285672022678659	0.7602963760282312
0.659971244400441	0.5814250429367609	0.6979195841101764
0.6270151312244399	0.6327526881678888	0.6342630615454217
0.5838097926658142	0.6808774904251953	0.5710291864841498
0.5312153205935831	0.724253714646102	0.5099837561598177
0.47072230468952214	0.7616446715210347	0.4527634755569649
0.4042790000426393	0.7922553299565158	0.4007025000796547
0.33405302297562917	0.8157838614793425	0.3547168169270144
0.26218506167453975	0.8323895093738357	0.31526483125594396
0.19058900690120537	0.842597321513763	0.28238253630425125
0.7382446486319105	0.4273344314247583	0.7914714552615197
0.729252354135729	0.4783088228727511	0.7289766776359681
0.710295067502209	0.5301335002804066	0.6633205141425131
0.6806168670082184	0.581316205304338	0.5959904406070118
0.6400779120640575	0.6302188230165368	0.5287673781240267
0.5892597528976414	0.6752315962756265	0.46356324769122337
0.5294563058033326	0.7149634252997719	0.4022146386461362
0.4625391722921192	0.7484039841090234	0.34627940704297155
0.39072764640911567	0.7750168283949692	0.29688315489064565
0.31632180118089614	0.7947461777020796	0.2546468959200034
0.24146155744269115	0.8079487429102836	0.21970280765756495
0.7707200696536145	0.4227624320836034	0.700193914811291
0.7555158904798903	0.4725692708315275	0.6317446102831318
0.729543996489513	0.5225975879272552	0.5611780552879378
0.6923618286095539	0.5713252952711586	0.4902997935596654
0.6442346290139683	0.6171640803274195	0.42111905634601166
0.5861842193058326	0.6586405603975986	0.3556412022838537
0.5199075990300265	0.6945722859226148	0.29564213979064213
0.4475773767418448	0.7241954456054428	0.24247909627297903
0.3715732071492848	0.7472144096008506	0.19697923909251494
0.294211837405757	0.7637706781132964	0.1594245824270538
0.7946547032497628	0.41034646260007784	0.6038496638079345
0.7725786541092247	0.45822537971010757	0.5306443380229718
0.7392247227162718	0.5057558178007222	0.4566373914678176
0.6945383550954909	0.5514556603305528	0.3838727715998766
0.6392219370197003	0.5938554482444157	0.31447035104715526
0.5747132919330187	0.6316709435353854	0.2503930572799436
0.503034431693659	0.6639509916237103	0.19322937905661544
0.4265450294614764	0.6901643474350078	0.14404243578911707
0.3476612608658379	0.7102108361246954	0.10331604636142307
0.8089387267683319	0.3901070419629939	0.5049032100169861
0.7796305246275271	0.4354603717528695	0.4284540802103352
0.7388985253244883	0.48000845503315853	0.35269634868214783
0.687113789135049	0.5223707481176699	0.27979538640308427
0.6253989544104008	0.5612458126887961	0.2118454495143073
0.555534988076156	0.5955618533164787	0.15063704585323487
0.479755756215092	0.6245893395021883	0.09747488132929973
0.4004796132492467	0.6479896567789194	0.05308167198609337
0.813026446524915	0.36254799124743525	0.4060375143638337
0.776496861557654	0.4049974307093436	0.3280311915779896
0.7287912852445974	0.44633354743248355	0.2522581511909802
0.6706966048032252	0.48532069806947425	0.18087113778096786
0.603690480649185	0.5208477399693502	0.11580806336541491
0.5297883987324705	0.5520499168788456	0.0585892237495822
0.4513080588330795	0.5783853601684322	0.010186568493847917
0.8070108918799083	0.3286171333205608	0.3098830015535122
0.7636592025476664	0.368021467839061	0.23200999057345506
0.7097513942561313	0.4061631725383689	0.15782281447740093
0.6464342605283648	0.4419711573346911	0.08933416623295429
0.5754394556984442	0.47452187016751374	0.02822653436366402
0.4988935216469539	0.5031302082157412	-0.02430202206547218
0.7915978769639614	0.2895949137003657	0.2187548500174482
0.742168883899011	0.3260284636881024	0.1425437827427703