# TIME = 0.000000
VARIABLES = X, Y, Z
ZONE N=2562 E=5120 F=FEPOINT ET=TRIANGLE
1.1631745 0.6228562 0.3849682
-1.1631745 0.6228562 0.3849682
1.1631745 -0.6228562 0.3849682
-1.1631745 -0.6228562 0.3849682
0.7188814 0.0000000 0.7250139
0.7188814 0.0000000 0.1425598
-0.7188814 0.0000000 0.7250139
-0.7188814 0.0000000 0.1425598
0.0000000 1.0078025 0.7176899
0.0000000 -1.0078025 0.7176899
0.0000000 1.0078025 0.2351515
0.0000000 -1.0078025 0.2351515
1.1740707 0.6038125 0.4203913
1.1813649 0.5812757 0.4581906
1.1841892 0.5549591 0.4982522
1.1816849 0.5246785 0.5402136
1.1730821 0.4903970 0.5833154
1.1577935 0.4522655 0.6262783
1.1355048 0.4106453 0.6672827
1.1062446 0.3661057 0.7041268
1.0704116 0.3193908 0.7345735
1.0287502 0.2713593 0.7568044
0.9822778 0.2229077 0.7698230
0.9321773 0.1748928 0.7736564
0.8796807 0.1280675 0.7692939
0.8259652 0.0830394 0.7584101
0.7720757 0.0402542 0.7429956
1.2139672 -0.5410867 0.4215967
1.2209977 -0.5149513 0.4606601
1.2229081 -0.4849345 0.5019937
1.2187681 -0.4509531 0.5451442
1.2077851 -0.4131035 0.5892126
1.1894130 -0.3716936 0.6327416
1.1634506 -0.3272513 0.6737413
1.1301029 -0.2805011 0.7099193
1.0899874 -0.2323085 0.7390959
1.0440777 -0.1836016 0.7596789
0.9935978 -0.1352859 0.7710193
0.9398897 -0.0881699 0.7735136
0.8842851 -0.0429126 0.7684375
0.8280015 0.0000000 0.7576060
1.2516079 -0.4720387 0.4227341
1.2578427 -0.4420754 0.4629569
1.2582485 -0.4082305 0.5054108
1.2518520 -0.3705555 0.5495438
1.2378801 -0.3293088 0.5943177
1.2158805 -0.2849735 0.6381200
1.1858189 -0.2382450 0.6788447
1.1481218 -0.1899824 0.7141920
1.1036509 -0.1411323 0.7421294
1.0536097 -0.0926389 0.7613503
0.9994065 -0.0453589 0.7715515
0.9425034 0.0000000 0.7734304
0.8842851 0.0429126 0.7684375
1.2858011 -0.3967646 0.4237674
1.2906037 -0.3628716 0.4650000
1.2888386 -0.3252319 0.5083703
1.2795330 -0.2840619 0.5532250
1.2619884 -0.2398016 0.5984001
1.2359057 -0.1931113 0.6421681
1.2014684 -0.1448335 0.6823775
1.1593559 -0.0959206 0.7168089
1.1106781 -0.0473437 0.7436484
1.0568456 0.0000000 0.7618968
0.9994065 0.0453589 0.7715515
0.9398897 0.0881699 0.7735136
1.3152697 -0.3156672 0.4246581
1.3179328 -0.2779166 0.4667049
1.3133040 -0.2367183 0.5107384
1.3004686 -0.1924732 0.5560090
1.2788658 -0.1458052 0.6012538
1.2484064 -0.0975323 0.6446851
1.2095291 -0.0486017 0.6841844
1.1631745 0.0000000 0.7176899
1.1106781 0.0473437 0.7436484
1.0536097 0.0926389 0.7613503
0.9935978 0.1352859 0.7710193
1.3387509 -0.2295019 0.4253679
1.3385520 -0.1881765 0.4679916
1.3304101 -0.1438810 0.5123946
1.3135342 -0.0972035 0.5577464
1.2875625 -0.0489322 0.6027228
1.2526584 0.0000000 0.6455394
1.2095291 0.0486017 0.6841844
1.1593559 0.0959206 0.7168089
1.1036509 0.1411323 0.7421294
1.0440777 0.1836016 0.7596789
1.3551223 -0.1393851 0.4258628
1.3513979 -0.0949912 0.4687934
1.3392177 -0.0482778 0.5132476
1.3179777 0.0000000 0.5583372
1.2875625 0.0489322 0.6027228
1.2484064 0.0975323 0.6446851
1.2014684 0.1448335 0.6823775
1.1481218 0.1899824 0.7141920
1.0899874 0.2323085 0.7390959
1.3635364 -0.0467502 0.4261171
1.3557628 0.0000000 0.4690659
1.3392177 0.0482778 0.5132476
1.3135342 0.0972035 0.5577464
1.2788658 0.1458052 0.6012538
1.2359057 0.1931113 0.6421681
1.1858189 0.2382450 0.6788447
1.1301029 0.2805011 0.7099193
1.3635364 0.0467502 0.4261171
1.3513979 0.0949912 0.4687934
1.3304101 0.1438810 0.5123946
1.3004686 0.1924732 0.5560090
1.2619884 0.2398016 0.5984001
1.2158805 0.2849735 0.6381200
1.1634506 0.3272513 0.6737413
1.3551223 0.1393851 0.4258628
1.3385520 0.1881765 0.4679916
1.3133040 0.2367183 0.5107384
1.2795330 0.2840619 0.5532250
1.2378801 0.3293088 0.5943177
1.1894130 0.3716936 0.6327416
1.3387509 0.2295019 0.4253679
1.3179328 0.2779166 0.4667049
1.2888386 0.3252319 0.5083703
1.2518520 0.3705555 0.5495438
1.2077851 0.4131035 0.5892126
1.3152697 0.3156672 0.4246581
1.2906037 0.3628716 0.4650000
1.2582485 0.4082305 0.5054108
1.2187681 0.4509531 0.5451442
1.2858011 0.3967646 0.4237674
1.2578427 0.4420754 0.4629569
1.2229081 0.4849345 0.5019937
1.2516079 0.4720387 0.4227341
1.2209977 0.5149513 0.4606601
1.2139672 0.5410867 0.4215967
1.2027847 0.5635583 0.3849682
1.2405982 0.4982363 0.3849682
1.2755418 0.4268916 0.3849682
1.3064387 0.3497856 0.3849682
1.3320857 0.2674893 0.3849682
1.3513583 0.1809062 0.3849682
1.3633313 0.0912545 0.3849682
1.3673936 0.0000000 0.3849682
1.3633313 -0.0912545 0.3849682
1.3513583 -0.1809062 0.3849682
1.3320857 -0.2674893 0.3849682
1.3064387 -0.3497856 0.3849682
1.2755418 -0.4268916 0.3849682
1.2405982 -0.4982363 0.3849682
1.2027847 -0.5635583 0.3849682
1.1740707 -0.6038125 0.3693017
1.1813649 -0.5812757 0.3526502
1.1841892 -0.5549591 0.3351258
1.1816849 -0.5246785 0.3169019
1.1730821 -0.4903970 0.2982151
1.1577935 -0.4522655 0.2793583
1.1355048 -0.4106453 0.2606650
1.1062446 -0.3661057 0.2424841
1.0704116 -0.3193908 0.2251498
1.0287502 -0.2713593 0.2089517
0.9822778 -0.2229077 0.1941114
0.9321773 -0.1748928 0.1807694
0.8796807 -0.1280675 0.1689845
0.8259652 -0.0830394 0.1587424
0.7720757 -0.0402542 0.1499714
1.2139672 0.5410867 0.3687694
1.2209977 0.5149513 0.3515660
1.2229081 0.4849345 0.3334961
1.2187681 0.4509531 0.3147659
1.2077851 0.4131035 0.2956487
1.1894130 0.3716936 0.2764741
1.1634506 0.3272513 0.2576058
1.1301029 0.2805011 0.2394112
1.0899874 0.2323085 0.2222270
1.0440777 0.1836016 0.2063292
0.9935978 0.1352859 0.1919119
0.9398897 0.0881699 0.1790800
0.8842851 0.0429126 0.1678540
0.8280015 0.0000000 0.1581847
1.2516079 0.4720387 0.3682671
1.2578427 0.4420754 0.3505581
1.2582485 0.4082305 0.3320087
1.2518520 0.3705555 0.3128602
1.2378801 0.3293088 0.2934231
1.2158805 0.2849735 0.2740598
1.1858189 0.2382450 0.2551571
1.1481218 0.1899824 0.2370903
1.1036509 0.1411323 0.2201870
1.0536097 0.0926389 0.2046983
0.9994065 0.0453589 0.1907833
0.9425034 0.0000000 0.1785074
0.8842851 -0.0429126 0.1678540
1.2858011 0.3967646 0.3678108
1.2906037 0.3628716 0.3496618
1.2888386 0.3252319 0.3307211
1.2795330 0.2840619 0.3112658
1.2619884 0.2398016 0.2916402
1.2359057 0.1931113 0.2722332
1.2014684 0.1448335 0.2534440
1.1593559 0.0959206 0.2356434
1.1106781 0.0473437 0.2191378
1.0568456 0.0000000 0.2041447
0.9994065 -0.0453589 0.1907833
0.9398897 -0.0881699 0.1790800
1.3152697 0.3156672 0.3674176
1.3179328 0.2779166 0.3489142
1.3133040 0.2367183 0.3296914
1.3004686 0.1924732 0.3100599
1.2788658 0.1458052 0.2903920
1.2484064 0.0975323 0.2710929
1.2095291 0.0486017 0.2525616
1.1631745 0.0000000 0.2351515
1.1106781 -0.0473437 0.2191378
1.0536097 -0.0926389 0.2046983
0.9935978 -0.1352859 0.1919119
1.3387509 0.2295019 0.3671043
1.3385520 0.1881765 0.3483501
1.3304101 0.1438810 0.3289714
1.3135342 0.0972035 0.3093073
1.2875625 0.0489322 0.2897489
1.2526584 0.0000000 0.2707050
1.2095291 -0.0486017 0.2525616
1.1593559 -0.0959206 0.2356434
1.1036509 -0.1411323 0.2201870
1.0440777 -0.1836016 0.2063292
1.3551223 0.1393851 0.3668858
1.3513979 0.0949912 0.3479987
1.3392177 0.0482778 0.3286007
1.3179777 0.0000000 0.3090513
1.2875625 -0.0489322 0.2897489
1.2484064 -0.0975323 0.2710929
1.2014684 -0.1448335 0.2534440
1.1481218 -0.1899824 0.2370903
1.0899874 -0.2323085 0.2222270
1.3635364 0.0467502 0.3667736
1.3557628 0.0000000 0.3478793
1.3392177 -0.0482778 0.3286007
1.3135342 -0.0972035 0.3093073
1.2788658 -0.1458052 0.2903920
1.2359057 -0.1931113 0.2722332
1.1858189 -0.2382450 0.2551571
1.1301029 -0.2805011 0.2394112
1.3635364 -0.0467502 0.3667736
1.3513979 -0.0949912 0.3479987
1.3304101 -0.1438810 0.3289714
1.3004686 -0.1924732 0.3100599
1.2619884 -0.2398016 0.2916402
1.2158805 -0.2849735 0.2740598
1.1634506 -0.3272513 0.2576058
1.3551223 -0.1393851 0.3668858
1.3385520 -0.1881765 0.3483501
1.3133040 -0.2367183 0.3296914
1.2795330 -0.2840619 0.3112658
1.2378801 -0.3293088 0.2934231
1.1894130 -0.3716936 0.2764741
1.3387509 -0.2295019 0.3671043
1.3179328 -0.2779166 0.3489142
1.2888386 -0.3252319 0.3307211
1.2518520 -0.3705555 0.3128602
1.2077851 -0.4131035 0.2956487
1.3152697 -0.3156672 0.3674176
1.2906037 -0.3628716 0.3496618
1.2582485 -0.4082305 0.3320087
1.2187681 -0.4509531 0.3147659
1.2858011 -0.3967646 0.3678108
1.2578427 -0.4420754 0.3505581
1.2229081 -0.4849345 0.3334961
1.2516079 -0.4720387 0.3682671
1.2209977 -0.5149513 0.3515660
1.2139672 -0.5410867 0.3687694
1.1276106 0.6689451 0.4068519
1.0855235 0.7156362 0.4301485
1.0363777 0.7621767 0.4547449
0.9798290 0.8076610 0.4804389
0.9158089 0.8510693 0.5069204
0.8445989 0.8913341 0.5337623
0.7668739 0.9274305 0.5604301
0.6836968 0.9584771 0.5863198
0.5964574 0.9838289 0.6108200
0.5067594 1.0031403 0.6333893
0.4162768 1.0163868 0.6536243
0.3266097 1.0238404 0.6713014
0.2391641 1.0260102 0.6863810
0.1550748 1.0235632 0.6989794
0.0751740 1.0172433 0.7093213
0.7502730 0.1089680 0.7390704
0.7240079 0.1817807 0.7368557
0.6929058 0.2580778 0.7369916
0.6567385 0.3369583 0.7398586
0.6154863 0.4172423 0.7453754
0.5693884 0.4975213 0.7528623
0.5189662 0.5762539 0.7610487
0.4650086 0.6518973 0.7682715
0.4085144 0.7230511 0.7728208
0.3506023 0.7885843 0.7733192
0.2924053 0.8477185 0.7689943
0.2349724 0.9000563 0.7597619
0.1791954 0.9455553 0.7461258
0.1257674 0.9844647 0.7289682
0.8041465 0.1552593 0.7566359
0.7773895 0.2314737 0.7561925
0.7452851 0.3108948 0.7574120
0.7076063 0.3924246 0.7603160
0.6643800 0.4746831 0.7644760
0.6159381 0.5560881 0.7689708
0.5629325 0.6349819 0.7724983
0.5063022 0.7097870 0.7736379
0.4471926 0.7791590 0.7711804
0.3868436 0.8421032 0.7644035
0.3264699 0.8980333 0.7531923
0.2671598 0.9467667 0.7379834
0.2098057 0.9884679 0.7195883
0.8575617 0.2035858 0.7689189
0.8299922 0.2828615 0.7692782
0.7965460 0.3649149 0.7703889
0.7570239 0.4484455 0.7719601
0.7115300 0.5318881 0.7733347
0.6605197 0.6135245 0.7735421
0.6047990 0.6916396 0.7714779
0.5454671 0.7646924 0.7661657
0.4838110 0.8314638 0.7570029
0.4211735 0.8911511 0.7438944
0.3588252 0.9433923 0.7272335
0.2978654 0.9882262 0.7077620
0.9093829 0.2533470 0.7736659
0.8806080 0.3351706 0.7736510
0.8454375 0.4191856 0.7733679
0.8037338 0.5039013 0.7723286
0.7557142 0.5876031 0.7698236
0.7019863 0.6684962 0.7650390
0.6435250 0.7448816 0.7572477
0.5815872 0.8153294 0.7460064
0.5175820 0.8788074 0.7312795
0.4529243 0.9347421 0.7134421
0.3889068 0.9830044 0.6931743
0.9583594 0.3037703 0.7690984
0.9279425 0.3874585 0.7675432
0.8906604 0.4726059 0.7647629
0.8464772 0.5575656 0.7602306
0.7957574 0.6405312 0.7533640
0.7392813 0.7197052 0.7436590
0.6781933 0.7934833 0.7308344
0.6138888 0.8606130 0.7149314
0.5478645 0.9202913 0.6963235
0.4815682 0.9721858 0.6756376
1.0032209 0.3539468 0.7543435
0.9707272 0.4386725 0.7503466
0.9309941 0.5240125 0.7444061
0.8841263 0.6082179 0.7361062
0.8306615 0.6894635 0.7251158
0.7715576 0.7660285 0.7112890
0.7081110 0.8364731 0.6947368
0.6418196 0.8997694 0.6758341
0.5742237 0.9553596 0.6551590
1.0427977 0.4028947 0.7297009
1.0078514 0.4877384 0.7228218
0.9654314 0.5722903 0.7136343
0.9158139 0.6547691 0.7019275
0.8597193 0.7334083 0.6876515
0.7982691 0.8066358 0.6709636
0.7328764 0.8732268 0.6522310
0.6650944 0.9323984 0.6319810
1.0761453 0.4496449 0.6966162
1.0384859 0.5336637 0.6869319
0.9932929 0.6164868 0.6749421
0.9410279 0.6963744 0.6606547
0.8825843 0.7716897 0.6442473
0.8192142 0.8410616 0.6260641
0.7523996 0.9035052 0.6065770
1.1026465 0.4933319 0.6573433
1.0621718 0.5756350 0.6453483
1.0142923 0.6559038 0.6313359
0.9596497 0.7325075 0.6154827
0.8992812 0.8039919 0.5980982
0.8345232 0.8692149 0.5795934
1.1220668 0.5332723 0.6144230
1.0788503 0.6130873 0.6008297
1.0285390 0.6901468 0.5856615
0.9719294 0.7629801 0.5691872
0.9101596 0.8303458 0.5517566
1.1345533 0.5690142 0.5701787
1.0888342 0.6457330 0.5557129
1.0364823 0.7191253 0.5401464
0.9784105 0.7879114 0.5237724
1.1405801 0.6003503 0.5263951
1.0927289 0.6735491 0.5116583
1.0388171 0.7430122 0.4962478
1.1408591 0.6272979 0.4842294
1.0913307 0.6967320 0.4696499
1.1362386 0.6500547 0.4442999
1.1740707 0.6038125 0.3693017
1.1813649 0.5812757 0.3526502
1.1841892 0.5549591 0.3351258
1.1816849 0.5246785 0.3169019
1.1730821 0.4903970 0.2982151
1.1577935 0.4522655 0.2793583
1.1355048 0.4106453 0.2606650
1.1062446 0.3661057 0.2424841
1.0704116 0.3193908 0.2251498
1.0287502 0.2713593 0.2089517
0.9822778 0.2229077 0.1941114
0.9321773 0.1748928 0.1807694
0.8796807 0.1280675 0.1689845
0.8259652 0.0830394 0.1587424
0.7720757 0.0402542 0.1499714
0.6969017 0.0651326 0.1402890
0.6708904 0.1343605 0.1387688
0.6405167 0.2072176 0.1381802
0.6055676 0.2829825 0.1387021
0.5660010 0.3606723 0.1404950
0.5219909 0.4390686 0.1436812
0.4739541 0.5167852 0.1483262
0.4225479 0.5923715 0.1544241
0.3686310 0.6644381 0.1618918
0.3131945 0.7317810 0.1705741
0.2572732 0.7934790 0.1802591
0.2018559 0.8489476 0.1907001
0.1478115 0.8979427 0.2016406
0.0958415 0.9405238 0.2128350
0.0464601 0.9769891 0.2240657
1.1362386 0.6500547 0.3587579
1.0913307 0.6967320 0.3476234
1.0388171 0.7430122 0.3359994
0.9784105 0.7879114 0.3240302
0.9101596 0.8303458 0.3119018
0.8345232 0.8692149 0.2998328
0.7523996 0.9035052 0.2880593
0.6650944 0.9323984 0.2768144
0.5742237 0.9553596 0.2663063
0.4815682 0.9721858 0.2566993
0.3889068 0.9830044 0.2481023
0.2978654 0.9882262 0.2405649
0.2098057 0.9884679 0.2340832
0.1257674 0.9844647 0.2286095
1.1408591 0.6272979 0.3412442
1.0927289 0.6735491 0.3292914
1.0364823 0.7191253 0.3169310
0.9719294 0.7629801 0.3043490
0.8992812 0.8039919 0.2917721
0.8192142 0.8410616 0.2794536
0.7328764 0.8732268 0.2676517
0.6418196 0.8997694 0.2566052
0.5478645 0.9202913 0.2465098
0.4529243 0.9347421 0.2375013
0.3588252 0.9433923 0.2296489
0.2671598 0.9467667 0.2229583
0.1791954 0.9455553 0.2173821
1.1405801 0.6003503 0.3228923
1.0888342 0.6457330 0.3101881
1.0285390 0.6901468 0.2971946
0.9596497 0.7325075 0.2841408
0.8825843 0.7716897 0.2712915
0.7982691 0.8066358 0.2589266
0.7081110 0.8364731 0.2473143
0.6138888 0.8606130 0.2366836
0.5175820 0.8788074 0.2272025
0.4211735 0.8911511 0.2189660
0.3264699 0.8980333 0.2119958
0.2349724 0.9000563 0.2062502
1.1345533 0.5690142 0.3039190
1.0788503 0.6130873 0.2905776
1.0142923 0.6559038 0.2771028
0.9410279 0.6963744 0.2637640
0.8597193 0.7334083 0.2508560
0.7715576 0.7660285 0.2386725
0.6781933 0.7934833 0.2274755
0.5815872 0.8153294 0.2174681
0.4838110 0.8314638 0.2087769
0.3868436 0.8421032 0.2014473
0.2924053 0.8477185 0.1954505
1.1220668 0.5332723 0.2846082
1.0621718 0.5756350 0.2707919
0.9932929 0.6164868 0.2570323
0.9158139 0.6547691 0.2436310
0.8306615 0.6894635 0.2309001
0.7392813 0.7197052 0.2191304
0.6435250 0.7448816 0.2085603
0.5454671 0.7646924 0.1993524
0.4471926 0.7791590 0.1915827
0.3506023 0.7885843 0.1852437
1.1026465 0.4933319 0.2652986
1.0384859 0.5336637 0.2512114
0.9654314 0.5722903 0.2373961
0.8841263 0.6082179 0.2241737
0.7957574 0.6405312 0.2118563
0.7019863 0.6684962 0.2007141
0.6047990 0.6916396 0.1909467
0.5063022 0.7097870 0.1826662
0.4085144 0.7230511 0.1758945
1.0761453 0.4496449 0.2463609
1.0078514 0.4877384 0.2322349
0.9309941 0.5240125 0.2186070
0.8464772 0.5575656 0.2058006
0.7557142 0.5876031 0.1941103
0.6605197 0.6135245 0.1837699
0.5629325 0.6349819 0.1749295
0.4650086 0.6518973 0.1676466
1.0427977 0.4028947 0.2281663
0.9707272 0.4386725 0.2142419
0.8906604 0.4726059 0.2010355
0.8037338 0.5039013 0.1888557
0.7115300 0.5318881 0.1779635
0.6159381 0.5560881 0.1685452
0.5189662 0.5762539 0.1606969
1.0032209 0.3539468 0.2110515
0.9279425 0.3874585 0.1975558
0.8454375 0.4191856 0.1849748
0.7570239 0.4484455 0.1735872
0.6643800 0.4746831 0.1636090
0.5693884 0.4975213 0.1551739
0.9583594 0.3037703 0.1952887
0.8806080 0.3351706 0.1824157
0.7965460 0.3649149 0.1706181
0.7076063 0.3924246 0.1601331
0.6154863 0.4172423 0.1511267
0.9093829 0.2533470 0.1810650
0.8299922 0.2828615 0.1689627
0.7452851 0.3108948 0.1580525
0.6567385 0.3369583 0.1485245
0.8575617 0.2035858 0.1684761
0.7773895 0.2314737 0.1572408
0.6929058 0.2580778 0.1472685
0.8041465 0.1552593 0.1575322
0.7240079 0.1817807 0.1472103
0.7502730 0.1089680 0.1481733
1.1276106 0.6689451 0.3752858
1.0855235 0.7156362 0.3649946
1.0363777 0.7621767 0.3541639
0.9798290 0.8076610 0.3429009
0.9158089 0.8510693 0.3313518
0.8445989 0.8913341 0.3196977
0.7668739 0.9274305 0.3081446
0.6836968 0.9584771 0.2969082
0.5964574 0.9838289 0.2861950
0.5067594 1.0031403 0.2761840
0.4162768 1.0163868 0.2670122
0.3266097 1.0238404 0.2587664
0.2391641 1.0260102 0.2514829
0.1550748 1.0235632 0.2451530
0.0751740 1.0172433 0.2397322
0.0777286 1.0518106 0.6795430
0.0801386 1.0844234 0.6439463
0.0823280 1.1140492 0.6032140
0.0842148 1.1395815 0.5583628
0.0857183 1.1599262 0.5105674
0.0867665 1.1741107 0.4609434
0.0873053 1.1814010 0.4103857
0.0873053 1.1814010 0.3737233
0.0867665 1.1741107 0.3514417
0.0857183 1.1599262 0.3297657
0.0842148 1.1395815 0.3090402
0.0823280 1.1140492 0.2895337
0.0801386 1.0844234 0.2714279
0.0777286 1.0518106 0.2548197
0.1602773 1.0579020 0.6663443
0.1651138 1.0898254 0.6279026
0.1694143 1.1182103 0.5845318
0.1730017 1.1418889 0.5374015
0.1757083 1.1597538 0.4877516
0.1773946 1.1708839 0.4366679
0.1779675 1.1746657 0.3849682
0.1773946 1.1708839 0.3621198
0.1757083 1.1597538 0.3397058
0.1730017 1.1418889 0.3181204
0.1694143 1.1182103 0.2976861
0.1651138 1.0898254 0.2786351
0.1602773 1.0579020 0.2611061
0.2469839 1.0595572 0.6507583
0.2541214 1.0901769 0.6094992
0.2602995 1.1166809 0.5636725
0.2652407 1.1378784 0.5145609
0.2686955 1.1526995 0.4634077
0.2704743 1.1603306 0.4112169
0.2704743 1.1603306 0.3733558
0.2686955 1.1526995 0.3503603
0.2652407 1.1378784 0.3280299
0.2602995 1.1166809 0.3067396
0.2541214 1.0901769 0.2867758
0.2469839 1.0595572 0.2683261
0.3368592 1.0559702 0.6326843
0.3460034 1.0846349 0.5887783
0.3536542 1.1086184 0.5408128
0.3594407 1.1267575 0.4901193
0.3630519 1.1380778 0.4378753
0.3642801 1.1419278 0.3849682
0.3630519 1.1380778 0.3615877
0.3594407 1.1267575 0.3386723
0.3536542 1.1086184 0.3166423
0.3460034 1.0846349 0.2958379
0.3368592 1.0559702 0.2764997
0.4285914 1.0464542 0.6121636
0.4392708 1.0725293 0.5659350
0.4478258 1.0934173 0.5162680
0.4538149 1.1080403 0.4644628
0.4569010 1.1155753 0.4115729
0.4569010 1.1155753 0.3731984
0.4538149 1.1080403 0.3498974
0.4478258 1.0934173 0.3272883
0.4392708 1.0725293 0.3057590
0.4285914 1.0464542 0.2856037
0.5205990 1.0305362 0.5894068
0.5321837 1.0534683 0.5413189
0.5409486 1.0708186 0.4904710
0.5464201 1.0816495 0.4380548
0.5482812 1.0853335 0.3849682
0.5464201 1.0816495 0.3615086
0.5409486 1.0708186 0.3385188
0.5321837 1.0534683 0.3164230
0.5205990 1.0305362 0.2955641
0.6111368 1.0080418 0.5647933
0.6228864 1.0274222 0.5154061
0.6311067 1.0409813 0.4639300
0.6353409 1.0479653 0.4113931
0.6353409 1.0479653 0.3732779
0.6311067 1.0409813 0.3501311
0.6228864 1.0274222 0.3276627
0.6111368 1.0080418 0.3062539
0.6984420 0.9791486 0.5388361
0.7095783 0.9947605 0.4887466
0.7165213 1.0044940 0.4371751
0.7188814 1.0078025 0.3849682
0.7165213 1.0044940 0.3618962
0.7095783 0.9947605 0.3392714
0.6984420 0.9791486 0.3174988
0.7808986 0.9443915 0.5121202
0.7906875 0.9562298 0.4619010
0.7957220 0.9623184 0.4107086
0.7957220 0.9623184 0.3735805
0.7906875 0.9562298 0.3510214
0.7808986 0.9443915 0.3290906
0.8571827 0.9046142 0.4852319
0.8650085 0.9128730 0.4353843
0.8676651 0.9156766 0.3849682
0.8650085 0.9128730 0.3626856
0.8571827 0.9046142 0.3408062
0.9263629 0.8608771 0.4586975
0.9317785 0.8659100 0.4096288
0.9317785 0.8659100 0.3740579
0.9263629 0.8608771 0.3524276
0.9879357 0.8143432 0.4329463
0.9906829 0.8166077 0.3849682
0.9879357 0.8143432 0.3637605
1.0418023 0.7661660 0.4082980
1.0418023 0.7661660 0.3746463
1.0881997 0.7174006 0.3849682
-1.2027847 0.5635583 0.3849682
-1.2405982 0.4982363 0.3849682
-1.2755418 0.4268916 0.3849682
-1.3064387 0.3497856 0.3849682
-1.3320857 0.2674893 0.3849682
-1.3513583 0.1809062 0.3849682
-1.3633313 0.0912545 0.3849682
-1.3673936 0.0000000 0.3849682
-1.3633313 -0.0912545 0.3849682
-1.3513583 -0.1809062 0.3849682
-1.3320857 -0.2674893 0.3849682
-1.3064387 -0.3497856 0.3849682
-1.2755418 -0.4268916 0.3849682
-1.2405982 -0.4982363 0.3849682
-1.2027847 -0.5635583 0.3849682
-1.1740707 -0.6038125 0.4203913
-1.1813649 -0.5812757 0.4581906
-1.1841892 -0.5549591 0.4982522
-1.1816849 -0.5246785 0.5402136
-1.1730821 -0.4903970 0.5833154
-1.1577935 -0.4522655 0.6262783
-1.1355048 -0.4106453 0.6672827
-1.1062446 -0.3661057 0.7041268
-1.0704116 -0.3193908 0.7345735
-1.0287502 -0.2713593 0.7568044
-0.9822778 -0.2229077 0.7698230
-0.9321773 -0.1748928 0.7736564
-0.8796807 -0.1280675 0.7692939
-0.8259652 -0.0830394 0.7584101
-0.7720757 -0.0402542 0.7429956
-1.2139672 0.5410867 0.4215967
-1.2209977 0.5149513 0.4606601
-1.2229081 0.4849345 0.5019937
-1.2187681 0.4509531 0.5451442
-1.2077851 0.4131035 0.5892126
-1.1894130 0.3716936 0.6327416
-1.1634506 0.3272513 0.6737413
-1.1301029 0.2805011 0.7099193
-1.0899874 0.2323085 0.7390959
-1.0440777 0.1836016 0.7596789
-0.9935978 0.1352859 0.7710193
-0.9398897 0.0881699 0.7735136
-0.8842851 0.0429126 0.7684375
-0.8280015 0.0000000 0.7576060
-1.2516079 0.4720387 0.4227341
-1.2578427 0.4420754 0.4629569
-1.2582485 0.4082305 0.5054108
-1.2518520 0.3705555 0.5495438
-1.2378801 0.3293088 0.5943177
-1.2158805 0.2849735 0.6381200
-1.1858189 0.2382450 0.6788447
-1.1481218 0.1899824 0.7141920
-1.1036509 0.1411323 0.7421294
-1.0536097 0.0926389 0.7613503
-0.9994065 0.0453589 0.7715515
-0.9425034 0.0000000 0.7734304
-0.8842851 -0.0429126 0.7684375
-1.2858011 0.3967646 0.4237674
-1.2906037 0.3628716 0.4650000
-1.2888386 0.3252319 0.5083703
-1.2795330 0.2840619 0.5532250
-1.2619884 0.2398016 0.5984001
-1.2359057 0.1931113 0.6421681
-1.2014684 0.1448335 0.6823775
-1.1593559 0.0959206 0.7168089
-1.1106781 0.0473437 0.7436484
-1.0568456 0.0000000 0.7618968
-0.9994065 -0.0453589 0.7715515
-0.9398897 -0.0881699 0.7735136
-1.3152697 0.3156672 0.4246581
-1.3179328 0.2779166 0.4667049
-1.3133040 0.2367183 0.5107384
-1.3004686 0.1924732 0.5560090
-1.2788658 0.1458052 0.6012538
-1.2484064 0.0975323 0.6446851
-1.2095291 0.0486017 0.6841844
-1.1631745 0.0000000 0.7176899
-1.1106781 -0.0473437 0.7436484
-1.0536097 -0.0926389 0.7613503
-0.9935978 -0.1352859 0.7710193
-1.3387509 0.2295019 0.4253679
-1.3385520 0.1881765 0.4679916
-1.3304101 0.1438810 0.5123946
-1.3135342 0.0972035 0.5577464
-1.2875625 0.0489322 0.6027228
-1.2526584 0.0000000 0.6455394
-1.2095291 -0.0486017 0.6841844
-1.1593559 -0.0959206 0.7168089
-1.1036509 -0.1411323 0.7421294
-1.0440777 -0.1836016 0.7596789
-1.3551223 0.1393851 0.4258628
-1.3513979 0.0949912 0.4687934
-1.3392177 0.0482778 0.5132476
-1.3179777 0.0000000 0.5583372
-1.2875625 -0.0489322 0.6027228
-1.2484064 -0.0975323 0.6446851
-1.2014684 -0.1448335 0.6823775
-1.1481218 -0.1899824 0.7141920
-1.0899874 -0.2323085 0.7390959
-1.3635364 0.0467502 0.4261171
-1.3557628 0.0000000 0.4690659
-1.3392177 -0.0482778 0.5132476
-1.3135342 -0.0972035 0.5577464
-1.2788658 -0.1458052 0.6012538
-1.2359057 -0.1931113 0.6421681
-1.1858189 -0.2382450 0.6788447
-1.1301029 -0.2805011 0.7099193
-1.3635364 -0.0467502 0.4261171
-1.3513979 -0.0949912 0.4687934
-1.3304101 -0.1438810 0.5123946
-1.3004686 -0.1924732 0.5560090
-1.2619884 -0.2398016 0.5984001
-1.2158805 -0.2849735 0.6381200
-1.1634506 -0.3272513 0.6737413
-1.3551223 -0.1393851 0.4258628
-1.3385520 -0.1881765 0.4679916
-1.3133040 -0.2367183 0.5107384
-1.2795330 -0.2840619 0.5532250
-1.2378801 -0.3293088 0.5943177
-1.1894130 -0.3716936 0.6327416
-1.3387509 -0.2295019 0.4253679
-1.3179328 -0.2779166 0.4667049
-1.2888386 -0.3252319 0.5083703
-1.2518520 -0.3705555 0.5495438
-1.2077851 -0.4131035 0.5892126
-1.3152697 -0.3156672 0.4246581
-1.2906037 -0.3628716 0.4650000
-1.2582485 -0.4082305 0.5054108
-1.2187681 -0.4509531 0.5451442
-1.2858011 -0.3967646 0.4237674
-1.2578427 -0.4420754 0.4629569
-1.2229081 -0.4849345 0.5019937
-1.2516079 -0.4720387 0.4227341
-1.2209977 -0.5149513 0.4606601
-1.2139672 -0.5410867 0.4215967
-1.1740707 0.6038125 0.3693017
-1.1813649 0.5812757 0.3526502
-1.1841892 0.5549591 0.3351258
-1.1816849 0.5246785 0.3169019
-1.1730821 0.4903970 0.2982151
-1.1577935 0.4522655 0.2793583
-1.1355048 0.4106453 0.2606650
-1.1062446 0.3661057 0.2424841
-1.0704116 0.3193908 0.2251498
-1.0287502 0.2713593 0.2089517
-0.9822778 0.2229077 0.1941114
-0.9321773 0.1748928 0.1807694
-0.8796807 0.1280675 0.1689845
-0.8259652 0.0830394 0.1587424
-0.7720757 0.0402542 0.1499714
-1.2139672 -0.5410867 0.3687694
-1.2209977 -0.5149513 0.3515660
-1.2229081 -0.4849345 0.3334961
-1.2187681 -0.4509531 0.3147659
-1.2077851 -0.4131035 0.2956487
-1.1894130 -0.3716936 0.2764741
-1.1634506 -0.3272513 0.2576058
-1.1301029 -0.2805011 0.2394112
-1.0899874 -0.2323085 0.2222270
-1.0440777 -0.1836016 0.2063292
-0.9935978 -0.1352859 0.1919119
-0.9398897 -0.0881699 0.1790800
-0.8842851 -0.0429126 0.1678540
-0.8280015 0.0000000 0.1581847
-1.2516079 -0.4720387 0.3682671
-1.2578427 -0.4420754 0.3505581
-1.2582485 -0.4082305 0.3320087
-1.2518520 -0.3705555 0.3128602
-1.2378801 -0.3293088 0.2934231
-1.2158805 -0.2849735 0.2740598
-1.1858189 -0.2382450 0.2551571
-1.1481218 -0.1899824 0.2370903
-1.1036509 -0.1411323 0.2201870
-1.0536097 -0.0926389 0.2046983
-0.9994065 -0.0453589 0.1907833
-0.9425034 0.0000000 0.1785074
-0.8842851 0.0429126 0.1678540
-1.2858011 -0.3967646 0.3678108
-1.2906037 -0.3628716 0.3496618
-1.2888386 -0.3252319 0.3307211
-1.2795330 -0.2840619 0.3112658
-1.2619884 -0.2398016 0.2916402
-1.2359057 -0.1931113 0.2722332
-1.2014684 -0.1448335 0.2534440
-1.1593559 -0.0959206 0.2356434
-1.1106781 -0.0473437 0.2191378
-1.0568456 0.0000000 0.2041447
-0.9994065 0.0453589 0.1907833
-0.9398897 0.0881699 0.1790800
-1.3152697 -0.3156672 0.3674176
-1.3179328 -0.2779166 0.3489142
-1.3133040 -0.2367183 0.3296914
-1.3004686 -0.1924732 0.3100599
-1.2788658 -0.1458052 0.2903920
-1.2484064 -0.0975323 0.2710929
-1.2095291 -0.0486017 0.2525616
-1.1631745 0.0000000 0.2351515
-1.1106781 0.0473437 0.2191378
-1.0536097 0.0926389 0.2046983
-0.9935978 0.1352859 0.1919119
-1.3387509 -0.2295019 0.3671043
-1.3385520 -0.1881765 0.3483501
-1.3304101 -0.1438810 0.3289714
-1.3135342 -0.0972035 0.3093073
-1.2875625 -0.0489322 0.2897489
-1.2526584 0.0000000 0.2707050
-1.2095291 0.0486017 0.2525616
-1.1593559 0.0959206 0.2356434
-1.1036509 0.1411323 0.2201870
-1.0440777 0.1836016 0.2063292
-1.3551223 -0.1393851 0.3668858
-1.3513979 -0.0949912 0.3479987
-1.3392177 -0.0482778 0.3286007
-1.3179777 0.0000000 0.3090513
-1.2875625 0.0489322 0.2897489
-1.2484064 0.0975323 0.2710929
-1.2014684 0.1448335 0.2534440
-1.1481218 0.1899824 0.2370903
-1.0899874 0.2323085 0.2222270
-1.3635364 -0.0467502 0.3667736
-1.3557628 0.0000000 0.3478793
-1.3392177 0.0482778 0.3286007
-1.3135342 0.0972035 0.3093073
-1.2788658 0.1458052 0.2903920
-1.2359057 0.1931113 0.2722332
-1.1858189 0.2382450 0.2551571
-1.1301029 0.2805011 0.2394112
-1.3635364 0.0467502 0.3667736
-1.3513979 0.0949912 0.3479987
-1.3304101 0.1438810 0.3289714
-1.3004686 0.1924732 0.3100599
-1.2619884 0.2398016 0.2916402
-1.2158805 0.2849735 0.2740598
-1.1634506 0.3272513 0.2576058
-1.3551223 0.1393851 0.3668858
-1.3385520 0.1881765 0.3483501
-1.3133040 0.2367183 0.3296914
-1.2795330 0.2840619 0.3112658
-1.2378801 0.3293088 0.2934231
-1.1894130 0.3716936 0.2764741
-1.3387509 0.2295019 0.3671043
-1.3179328 0.2779166 0.3489142
-1.2888386 0.3252319 0.3307211
-1.2518520 0.3705555 0.3128602
-1.2077851 0.4131035 0.2956487
-1.3152697 0.3156672 0.3674176
-1.2906037 0.3628716 0.3496618
-1.2582485 0.4082305 0.3320087
-1.2187681 0.4509531 0.3147659
-1.2858011 0.3967646 0.3678108
-1.2578427 0.4420754 0.3505581
-1.2229081 0.4849345 0.3334961
-1.2516079 0.4720387 0.3682671
-1.2209977 0.5149513 0.3515660
-1.2139672 0.5410867 0.3687694
-1.1740707 0.6038125 0.4203913
-1.1813649 0.5812757 0.4581906
-1.1841892 0.5549591 0.4982522
-1.1816849 0.5246785 0.5402136
-1.1730821 0.4903970 0.5833154
-1.1577935 0.4522655 0.6262783
-1.1355048 0.4106453 0.6672827
-1.1062446 0.3661057 0.7041268
-1.0704116 0.3193908 0.7345735
-1.0287502 0.2713593 0.7568044
-0.9822778 0.2229077 0.7698230
-0.9321773 0.1748928 0.7736564
-0.8796807 0.1280675 0.7692939
-0.8259652 0.0830394 0.7584101
-0.7720757 0.0402542 0.7429956
-0.6969017 0.0651326 0.7185177
-0.6708904 0.1343605 0.7138974
-0.6405167 0.2072176 0.7120488
-0.6055676 0.2829825 0.7136897
-0.5660010 0.3606723 0.7191270
-0.5219909 0.4390686 0.7280464
-0.4739541 0.5167852 0.7394149
-0.4225479 0.5923715 0.7515729
-0.3686310 0.6644381 0.7625270
-0.3131945 0.7317810 0.7703616
-0.2572732 0.7934790 0.7736293
-0.2018559 0.8489476 0.7715885
-0.1478115 0.8979427 0.7642327
-0.0958415 0.9405238 0.7521465
-0.0464601 0.9769891 0.7362744
-1.1362386 0.6500547 0.4442999
-1.0913307 0.6967320 0.4696499
-1.0388171 0.7430122 0.4962478
-0.9784105 0.7879114 0.5237724
-0.9101596 0.8303458 0.5517566
-0.8345232 0.8692149 0.5795934
-0.7523996 0.9035052 0.6065770
-0.6650944 0.9323984 0.6319810
-0.5742237 0.9553596 0.6551590
-0.4815682 0.9721858 0.6756376
-0.3889068 0.9830044 0.6931743
-0.2978654 0.9882262 0.7077620
-0.2098057 0.9884679 0.7195883
-0.1257674 0.9844647 0.7289682
-1.1408591 0.6272979 0.4842294
-1.0927289 0.6735491 0.5116583
-1.0364823 0.7191253 0.5401464
-0.9719294 0.7629801 0.5691872
-0.8992812 0.8039919 0.5980982
-0.8192142 0.8410616 0.6260641
-0.7328764 0.8732268 0.6522310
-0.6418196 0.8997694 0.6758341
-0.5478645 0.9202913 0.6963235
-0.4529243 0.9347421 0.7134421
-0.3588252 0.9433923 0.7272335
-0.2671598 0.9467667 0.7379834
-0.1791954 0.9455553 0.7461258
-1.1405801 0.6003503 0.5263951
-1.0888342 0.6457330 0.5557129
-1.0285390 0.6901468 0.5856615
-0.9596497 0.7325075 0.6154827
-0.8825843 0.7716897 0.6442473
-0.7982691 0.8066358 0.6709636
-0.7081110 0.8364731 0.6947368
-0.6138888 0.8606130 0.7149314
-0.5175820 0.8788074 0.7312795
-0.4211735 0.8911511 0.7438944
-0.3264699 0.8980333 0.7531923
-0.2349724 0.9000563 0.7597619
-1.1345533 0.5690142 0.5701787
-1.0788503 0.6130873 0.6008297
-1.0142923 0.6559038 0.6313359
-0.9410279 0.6963744 0.6606547
-0.8597193 0.7334083 0.6876515
-0.7715576 0.7660285 0.7112890
-0.6781933 0.7934833 0.7308344
-0.5815872 0.8153294 0.7460064
-0.4838110 0.8314638 0.7570029
-0.3868436 0.8421032 0.7644035
-0.2924053 0.8477185 0.7689943