# TIME = 0.000000
VARIABLES = X, Y, Z
ZONE N=1002 E=2000 F=FEPOINT ET=TRIANGLE
0.5440009337781396	0.33621106771528597	1.1039897631872746
-0.5440009337781396	0.336211067715286	1.1039897631872746
0.5440009337781396	-0.33621106771528597	1.1039897631872746
-0.5440009337781396	-0.336211067715286	1.1039897631872746
0.4480590574676288	0.	0.4775222692238358
0.6390633647212733	0.	-0.10608735130933623
-0.4480590574676288	5.487140905567117e-17	0.4775222692238358
-0.6390633647212733	7.82626904058245e-17	-0.10608735130933623
8.994725493274803e-18	0.14689501494695908	0.9979001046955683
8.994725493274803e-18	-0.14689501494695908	0.9979001046955683
5.477609188207996e-17	0.8945614673588695	0.4436492889755633
5.477609188207996e-17	-0.8945614673588695	0.4436492889755633
0.46833202381303735	0.2708460003935075	1.1710222704419837
0.3694757296587165	0.19778854147464436	1.2192549263993318
0.24994874491764907	0.12212843416666816	1.2307470897137687
0.13106788307453873	0.05736764638690422	1.1728643423033587
0.11716407815086506	0.044752692614211075	1.0314430274894744
0.21183490322033596	0.06793860229604433	0.9151873529357732
0.3102474827636201	0.07851647095929036	0.8074250532604691
0.3860579605745141	0.0687176230185448	0.6940753114388838
0.4317141766690028	0.04065861309867992	0.5811227872739295
0.48829175125106916	-0.21963597507960025	1.1740223301822255
0.3773050791785767	-0.15148483552654166	1.222240006550041
0.24512229250148204	-0.08555011195423172	1.228178178522639
0.12334247729699592	-0.035990842867884745	1.1550796800098848
0.1346165524657665	-0.03085136890910482	1.0102242215194346
0.2357142272236923	-0.03779854046862666	0.8986448675062547
0.3299409766163285	-0.027833471290334404	0.7929085414801413
0.3966109958152387	0.	0.6848078744468737
0.5051199236604853	-0.16228956796104424	1.1765653190863978
0.38283399345327124	-0.10246977278626024	1.2244199961845847
0.24056314973917148	-0.050375363766004766	1.2254905963188258
0.11943340617410181	-0.017425102991101473	1.1419050983575676
0.14543556415816672	-0.011110293267569526	0.9992855971192408
0.24442877309841185	0.	0.892787560239362
0.3299409766163285	0.027833471290334404	0.7929085414801413
0.5173885899352885	-0.09973882425978542	1.178427569692585
0.38605881127539793	-0.051666442704798525	1.225729958270296
0.2377855696923854	-0.01659791299203117	1.22375526976349
0.11837971704511983	0.	1.1370403545633456
0.14543556415816672	0.011110293267569526	0.9992855971192408
0.2357142272236923	0.03779854046862666	0.8986448675062547
0.5238779993648388	-0.03366324395347287	1.1794155852762507
0.38710858289134414	0.	1.2261643237459627
0.2377855696923854	0.01659791299203117	1.22375526976349
0.11943340617410181	0.017425102991101473	1.1419050983575676
0.1346165524657665	0.03085136890910482	1.0102242215194346
0.5238779993648388	0.03366324395347287	1.1794155852762507
0.38605881127539793	0.051666442704798525	1.225729958270296
0.24056314973917148	0.050375363766004766	1.2254905963188258
0.12334247729699592	0.035990842867884745	1.1550796800098848
0.5173885899352885	0.09973882425978542	1.178427569692585
0.38283399345327124	0.10246977278626024	1.2244199961845847
0.24512229250148204	0.08555011195423172	1.228178178522639
0.5051199236604853	0.16228956796104424	1.1765653190863978
0.3773050791785767	0.15148483552654166	1.222240006550041
0.48829175125106916	0.21963597507960025	1.1740223301822255
0.5732686224228097	0.2834395606671632	1.1039897631872746
0.5996131447120938	0.22234876814188578	1.1039897631872746
0.6208221314430195	0.15347566294460727	1.1039897631872746
0.6346812998770199	0.07845091199059859	1.1039897631872746
0.6395114525993576	0.	1.1039897631872746
0.6346812998770199	-0.07845091199059859	1.1039897631872746
0.6208221314430195	-0.15347566294460727	1.1039897631872746
0.5996131447120938	-0.22234876814188578	1.1039897631872746
0.5732686224228097	-0.2834395606671632	1.1039897631872746
0.6266088878859799	-0.3623807522559958	1.0197853421895822
0.7039646588321101	-0.37684787373912393	0.9117944824793074
0.7692936836960764	-0.3758875966153165	0.7821740897677709
0.8157733345550697	-0.35705922069410556	0.6365000922485776
0.8382861616653016	-0.3201968001442181	0.48342145471545594
0.8350151754875575	-0.26780177891461293	0.33300632865697194
0.8079766966083719	-0.204480237099521	0.1943611937950655
0.7621644768060365	-0.1356639068323907	0.07369125922064047
0.7038652706761949	-0.06628965936405354	-0.026351748631488422
0.6638424919491053	0.29859954145230744	1.0149012176999757
0.7467667958925807	0.2998206265835322	0.9005415140249373
0.8138609998419866	0.2840455633028316	0.7643434212375035
0.8575684755977684	0.2502350603788502	0.6136457900148894
0.873203214488901	0.20012037159890933	0.45873349248181783
0.8605032371811105	0.1379881342635613	0.3104491076434608
0.8235108719828906	0.06947050483901517	0.17749684604909077
0.7689043675584346	0.	0.0648287267283628
0.6963209097685545	0.223720376716988	1.0106494975872893
0.7821083774143218	0.20933999879417298	0.8912749541668427
0.8476897205076304	0.17751130244833757	0.750842951952236
0.8854884278840522	0.12919104920122387	0.5984075973634587
0.8921218276413191	0.06815207265752261	0.4453717090658467
0.8694492417895744	0.	0.3025344765611943
0.8235108719828906	-0.06947050483901517	0.17749684604909077
0.7206711120592498	0.1389263133997056	1.0074670197555662
0.805643807334297	0.1078197113921585	0.8851158297541436
0.8660674431454332	0.060453256625938666	0.7435204717896415
0.8953345870508435	0.	0.5930390698435467
0.8921218276413191	-0.06815207265752261	0.4453717090658467
0.8605032371811105	-0.1379881342635613	0.3104491076434608
0.7337925201460856	0.04715188774268129	1.0057539410606748
0.8139301580308209	0.	0.8829496002778406
0.8660674431454332	-0.060453256625938666	0.7435204717896415
0.8854884278840522	-0.12919104920122387	0.5984075973634587
0.873203214488901	-0.20012037159890933	0.45873349248181783
0.7337925201460856	-0.04715188774268129	1.0057539410606748
0.805643807334297	-0.1078197113921585	0.8851158297541436
0.8476897205076304	-0.17751130244833757	0.750842951952236
0.8575684755977684	-0.2502350603788502	0.6136457900148894
0.7206711120592498	-0.1389263133997056	1.0074670197555662
0.7821083774143218	-0.20933999879417298	0.8912749541668427
0.8138609998419866	-0.2840455633028316	0.7643434212375035
0.6963209097685545	-0.223720376716988	1.0106494975872893
0.7467667958925807	-0.2998206265835322	0.9005415140249373
0.6638424919491053	-0.29859954145230744	1.0149012176999757
0.46883182781260957	0.3418464040905264	1.147687995393262
0.3848971983496337	0.3341038545292812	1.186808675014232
0.296317334428315	0.31012736009167974	1.2166505743503664
0.20972760599133114	0.2694371775995189	1.2318257848139795
0.13336470542859027	0.21578861740593175	1.2271082208433737
0.07505313238633986	0.15896510234946118	1.1985048036249952
0.03946145245117519	0.11646525792272579	1.1461686632323176
0.02314055686461577	0.10686386337612967	1.0839592207580129
0.01286988535712318	0.12378301711620542	1.0333365171301223
0.4217162429461574	0.1147913878915976	0.566173766384304
0.391263538733467	0.19231983464954888	0.5711192966967694
0.33969824546964994	0.2610421767476541	0.6007239339086973
0.27172788720293917	0.3067962262082229	0.6546474971243337
0.19714185940800552	0.31898224388346036	0.7262012898848541
0.12751462496789562	0.2956783260282383	0.8048921829513319
0.07179649016272274	0.24460258360980103	0.8818876716389547
0.03384091704945354	0.18024477711055864	0.955338354037486
0.369993018233787	0.13077752105500404	0.6934698518068622
0.33371956229451	0.18919070628848128	0.7106102783778261
0.27863255134007575	0.23187957820236837	0.747056190543082
0.211698032099996	0.24786038091967874	0.7997457109734887
0.1437837599982511	0.23264703466725667	0.8620547976887504
0.08557671110411093	0.19135533557900142	0.9282070972598914
0.04419852088717109	0.13904404690657668	0.9992311332154076
0.2868319145653538	0.12203677256812896	0.8178669816255133
0.2461511267453168	0.1557742151096232	0.8421444900204466
0.19216923964914254	0.17046528506821698	0.8798321800265217
0.13358019732321594	0.1610992268603917	0.9285554842573757
0.08146968226246257	0.13182069522416662	0.987574841330642
0.047351883530190916	0.10279244951812436	1.0623099139365726
0.18355146405487	0.08988720838516323	0.9335426095514063
0.14455797357858194	0.09988711109932472	0.9636211361504983
0.10222835409481165	0.09555819016132115	1.007542110091138
0.0700880720165128	0.08663361176021722	1.069585294027629
0.06386296104144629	0.10333244642385493	1.1434122561789188
0.09874415431669727	0.05405152267559764	1.0646342350870843
0.08887153579980385	0.06600007970609575	1.1123732749163333
0.09720737919084443	0.09493313123331473	1.1648728362977911
0.11667848264236373	0.1472526341291695	1.2052080721786569
0.15136383988081872	0.09073624478625252	1.1989154824699637
0.17536255118562782	0.1383355296310775	1.2195551161755218
0.19669391918464588	0.1993738517444948	1.2309449607735743
0.2722537729468416	0.17606561373127586	1.2326139141566188
0.2888908259986657	0.239903372219818	1.2280780504259627
0.38192353968502774	0.26343100149029175	1.2055737051283204
0.6266088878859799	0.3623807522559958	1.0197853421895822
0.7039646588321101	0.37684787373912393	0.9117944824793074
0.7692936836960764	0.3758875966153165	0.7821740897677709
0.8157733345550697	0.35705922069410556	0.6365000922485776
0.8382861616653016	0.3201968001442181	0.48342145471545594
0.8350151754875575	0.26780177891461293	0.33300632865697194
0.8079766966083719	0.204480237099521	0.1943611937950655
0.7621644768060365	0.1356639068323907	0.07369125922064047
0.7038652706761949	0.06628965936405354	-0.026351748631488422
0.608521536059759	0.10940092538198884	-0.12745604544573033
0.5665027563422723	0.22915521742930742	-0.1345619218413795
0.5120900107375463	0.35510529569651306	-0.12253987934296097
0.4458114576383309	0.4808919497510417	-0.0880040052519815
0.37005521579859213	0.5987619813636084	-0.030372554656635527
0.28890817452408346	0.7011950150653194	0.047661845359849006
0.20732578206407512	0.7827404603464183	0.14068499665693848
0.1299664003012228	0.8411602428176256	0.24188764969741877
0.060250729145871526	0.8773888847992581	0.34463654381812314
0.6372444453742668	0.4395380881144716	0.9519029904208176
0.6301988629027685	0.5233355259961325	0.8724292141307992
0.6008988069828489	0.6090859857460926	0.7839626585743329
0.5471361213333654	0.6905063664609444	0.6911746402210104
0.4703755884441892	0.7610837252042593	0.6000961331509198
0.3758289041835814	0.8158571693586658	0.5166787272093052
0.27104270698000843	0.8526727615890122	0.4453042807408462
0.16376869356833773	0.8722710329266646	0.38800735017928845
0.7054871886967852	0.45623622957726545	0.825384665922227
0.6848181149365948	0.540221820395563	0.7284768417194538
0.6380880561705334	0.6231594522872739	0.6258333667651732
0.5649835670350798	0.6983580171229123	0.524160245278415
0.4696033391448557	0.759834050245059	0.4306113046568425
0.35956701712442246	0.8040162602332022	0.3508852003981045
0.24375156474650345	0.8304342226311606	0.2879379968767875
0.7578301857229025	0.4542872676347734	0.6784074618003011
0.7202231752453464	0.5348707721159373	0.5672035450189072
0.6542621326388581	0.6115730399813664	0.4554968082401544
0.5622447056571122	0.6780734659984453	0.3513641085784437
0.450920480973609	0.7296047395792075	0.2619019644451709
0.3295715678342499	0.7642038668761899	0.19138602560687637
0.7879489247903148	0.43131504310543983	0.5190802683539835
0.7315640466364915	0.505498364384084	0.3991747590498305
0.6468680931550856	0.5738095966999766	0.285206668445905
0.5388970352225759	0.630951658368088	0.18538366836148246
0.4163261864121357	0.6736299511832347	0.10548538411449869
0.7923168659207164	0.38800644604395507	0.3582183118843335
0.7176669076340393	0.4541681394069421	0.23654524370323562
0.6172708135732256	0.5136962469015212	0.1270807139675074
0.4982690204547354	0.5625740393653903	0.03686674582489229
0.7714414952670781	0.3282209040447459	0.2067722735191162
0.6814715510159203	0.3863366089951561	0.0898414811974907
0.5702211105387098	0.43818819174851625	-0.010117378102541768
0.7295704986115149	0.2578735720439722	0.07310818743615274
0.6288335798357938	0.3090938922844213	-0.03448012572991248
0.6730746414438108	0.18321127900174108	-0.03846125460950077
0.5602620747788785	0.4085123156101264	1.0537590954394236
0.5631420984174232	0.4888264880485275	0.9923385578131497
0.5481146362713614	0.5736598079974001	0.9206305930688471
0.5119654723532984	0.6577223405915333	0.8412797176127752
0.45411561569819275	0.7347744707944973	0.7585666013996291
0.37729483623472543	0.7991233723496458	0.6776233556760813
0.2870216002409504	0.8471062929783335	0.603217576362641
0.19007882922918642	0.8777903728195234	0.538693978030465
0.09280918845401107	0.8926420899767794	0.4855465587452214
0.01367724056583882	0.13154818222882453	1.1603226200276753
0.02688987829353486	0.2586277537160609	1.2282456065893155
0.04323237185913902	0.41581047332296156	1.2195153263851635
0.05902904327311109	0.5677432001802365	1.1536737093103973
0.07249744148711858	0.6972826790422556	1.0456402569163161
0.08262867929248835	0.7947255440577398	0.9108658051356562
0.08913077104175256	0.8572627532885234	0.7647302536536533
0.09230727677185252	0.8878146441438628	0.6200632543915139
0.03791801212546244	0.17510665515308332	1.2004901834997124
0.0700174755526029	0.3233430284308775	1.2324018760634563
0.10429209478351407	0.4816244712630559	1.1943197505984162
0.13534445998408742	0.6250254196089597	1.1039897631872746
0.1601382830553736	0.7395240844055769	0.9774493876046867
0.1772760377875141	0.8186666324948726	0.8315040111095675
0.1868690109477051	0.862967376837888	0.6814655061046192
0.07927897856087941	0.23398142889086157	1.225765729292305
0.13152193147576402	0.388169530333514	1.2214952380604247
0.18238055891925187	0.5382720702407299	1.1552042110974785
0.2256017718115837	0.6658337570769411	1.0435041877717315
0.25772107511156667	0.7606295585884071	0.9034840216820793
0.2778120617912967	0.8199255888637281	0.752086914328526
0.140045462695818	0.29662105022941787	1.2325062052929934
0.20980918346908045	0.44438298742194515	1.1948966320309222
0.27303460221234743	0.5782966401428299	1.1039897631872746
0.3234195697472899	0.6850136501112744	0.9762440057465355
0.3580849729556693	0.7584361442697073	0.8288990223920109
0.21768145506165182	0.3522160182179181	1.2204991727353585
0.2994560192514353	0.48453005445677655	1.1544211242514362
0.3690656226293513	0.5971607673064552	1.0446003305942027
0.42111961542583093	0.6813858998541629	0.9072719736109793
0.3058325308858387	0.3929032512209562	1.1921174621687538
0.39281499659140806	0.5046496571470475	1.1039897631872746
0.4627728065131849	0.5945245253309842	0.981964833853985
0.3965891997039725	0.41507237717560796	1.1516201583839425
0.4824743297115018	0.5049602135132354	1.0484669713778934
0.48294486170363954	0.4192125458043842	1.1039897631872746
-0.5732686224228097	0.28343956066716325	1.1039897631872746
-0.5996131447120938	0.22234876814188573	1.1039897631872746
-0.6208221314430195	0.15347566294460738	1.1039897631872746
-0.6346812998770199	0.07845091199059859	1.1039897631872746
-0.6395114525993576	7.831756534438777e-17	1.1039897631872746
-0.6346812998770199	-0.07845091199059859	1.1039897631872746
-0.6208221314430195	-0.15347566294460738	1.1039897631872746
-0.5996131447120938	-0.22234876814188573	1.1039897631872746
-0.5732686224228097	-0.28343956066716325	1.1039897631872746
-0.46833202381303735	-0.2708460003935076	1.1710222704419837
-0.3694757296587165	-0.19778854147464436	1.2192549263993318
-0.24994874491764904	-0.12212843416666823	1.2307470897137687
-0.13106788307453873	-0.05736764638690423	1.1728643423033587
-0.11716407815086503	-0.04475269261421109	1.0314430274894744
-0.21183490322033596	-0.06793860229604436	0.9151873529357732
-0.3102474827636201	-0.07851647095929039	0.8074250532604691
-0.3860579605745141	-0.06871762301854474	0.6940753114388838
-0.4317141766690028	-0.04065861309867992	0.5811227872739295
-0.48829175125106916	0.21963597507960028	1.1740223301822255
-0.37730507917857675	0.15148483552654157	1.222240006550041
-0.24512229250148204	0.0855501119542317	1.228178178522639
-0.12334247729699592	0.035990842867884745	1.1550796800098848
-0.1346165524657665	0.030851368909104823	1.0102242215194346
-0.2357142272236923	0.03779854046862669	0.8986448675062547
-0.3299409766163285	0.027833471290334446	0.7929085414801413
-0.3966109958152387	4.8570838653177643e-17	0.6848078744468737
-0.5051199236604853	0.16228956796104427	1.1765653190863978
-0.38283399345327124	0.10246977278626025	1.2244199961845847
-0.24056314973917148	0.050375363766004766	1.2254905963188258
-0.11943340617410181	0.01742510299110147	1.1419050983575676
-0.14543556415816672	0.011110293267569557	0.9992855971192408
-0.24442877309841185	2.9933891459448477e-17	0.892787560239362
-0.3299409766163285	-0.027833471290334446	0.7929085414801413
-0.5173885899352885	0.09973882425978546	1.178427569692585
-0.38605881127539793	0.05166644270479857	1.225729958270296
-0.2377855696923854	0.016597912992031127	1.22375526976349
-0.11837971704511983	1.449733415632754e-17	1.1370403545633456
-0.14543556415816672	-0.011110293267569557	0.9992855971192408
-0.2357142272236923	-0.03779854046862669	0.8986448675062547
-0.5238779993648388	0.033663243953472914	1.1794155852762507
-0.38710858289134414	4.740712869603525e-17	1.2261643237459627
-0.2377855696923854	-0.016597912992031127	1.22375526976349
-0.11943340617410181	-0.01742510299110147	1.1419050983575676
-0.1346165524657665	-0.030851368909104823	1.0102242215194346
-0.5238779993648388	-0.033663243953472914	1.1794155852762507
-0.38605881127539793	-0.05166644270479857	1.225729958270296
-0.24056314973917148	-0.050375363766004766	1.2254905963188258
-0.12334247729699592	-0.035990842867884745	1.1550796800098848
-0.5173885899352885	-0.09973882425978546	1.178427569692585
-0.38283399345327124	-0.10246977278626025	1.2244199961845847
-0.24512229250148204	-0.0855501119542317	1.228178178522639
-0.5051199236604853	-0.16228956796104427	1.1765653190863978
-0.37730507917857675	-0.15148483552654157	1.222240006550041
-0.48829175125106916	-0.21963597507960028	1.1740223301822255
-0.6266088878859799	0.362380752255996	1.0197853421895822
-0.7039646588321101	0.37684787373912393	0.9117944824793074
-0.7692936836960763	0.37588759661531673	0.7821740897677709
-0.8157733345550697	0.3570592206941056	0.6365000922485776
-0.8382861616653013	0.3201968001442182	0.48342145471545594
-0.8350151754875575	0.26780177891461304	0.33300632865697194
-0.8079766966083719	0.2044802370995211	0.1943611937950655
-0.7621644768060365	0.13566390683239063	0.07369125922064047
-0.7038652706761949	0.06628965936405354	-0.026351748631488422
-0.6638424919491053	-0.29859954145230744	1.0149012176999757
-0.7467667958925809	-0.29982062658353203	0.9005415140249373
-0.8138609998419866	-0.28404556330283154	0.7643434212375035
-0.8575684755977684	-0.2502350603788502	0.6136457900148894
-0.873203214488901	-0.20012037159890936	0.45873349248181783
-0.8605032371811105	-0.1379881342635614	0.3104491076434608
-0.8235108719828906	-0.06947050483901526	0.17749684604909077
-0.7689043675584346	9.416362725808571e-17	0.0648287267283628
-0.6963209097685545	-0.22372037671698805	1.0106494975872893
-0.7821083774143218	-0.209339998794173	0.8912749541668427
-0.8476897205076304	-0.17751130244833757	0.750842951952236
-0.8854884278840522	-0.12919104920122382	0.5984075973634587
-0.8921218276413191	-0.0681520726575228	0.4453717090658467
-0.8694492417895744	1.0647682309786956e-16	0.3025344765611943
-0.8235108719828906	0.06947050483901526	0.17749684604909077
-0.7206711120592498	-0.13892631339970565	1.0074670197555662
-0.805643807334297	-0.10781971139215858	0.8851158297541436
-0.8660674431454332	-0.06045325662593851	0.7435204717896415
-0.8953345870508435	1.0964686361977328e-16	0.5930390698435467
-0.8921218276413191	0.0681520726575228	0.4453717090658467
-0.8605032371811105	0.1379881342635614	0.3104491076434608
-0.7337925201460856	-0.047151887742681343	1.0057539410606748
-0.8139301580308209	9.967769627619442e-17	0.8829496002778406
-0.8660674431454332	0.06045325662593851	0.7435204717896415
-0.8854884278840522	0.12919104920122382	0.5984075973634587
-0.873203214488901	0.20012037159890936	0.45873349248181783
-0.7337925201460856	0.047151887742681343	1.0057539410606748
-0.805643807334297	0.10781971139215858	0.8851158297541436
-0.8476897205076304	0.17751130244833757	0.750842951952236
-0.8575684755977684	0.2502350603788502	0.6136457900148894
-0.7206711120592498	0.13892631339970565	1.0074670197555662
-0.7821083774143218	0.209339998794173	0.8912749541668427
-0.8138609998419866	0.28404556330283154	0.7643434212375035
-0.6963209097685545	0.22372037671698805	1.0106494975872893
-0.7467667958925809	0.29982062658353203	0.9005415140249373
-0.6638424919491053	0.29859954145230744	1.0149012176999757
-0.46833202381303735	0.2708460003935076	1.1710222704419837
-0.3694757296587165	0.19778854147464436	1.2192549263993318
-0.24994874491764904	0.12212843416666823	1.2307470897137687
-0.13106788307453873	0.05736764638690423	1.1728643423033587
-0.11716407815086503	0.04475269261421109	1.0314430274894744
-0.21183490322033596	0.06793860229604436	0.9151873529357732
-0.3102474827636201	0.07851647095929039	0.8074250532604691
-0.3860579605745141	0.06871762301854474	0.6940753114388838
-0.4317141766690028	0.04065861309867992	0.5811227872739295
-0.4411077552395597	0.07930302176132116	0.44771567026748715
-0.4151316698816631	0.16792431635769156	0.43761931145654165
-0.36840370014879004	0.2554670119196562	0.4546471199825635
-0.30362616000915654	0.3275182222900118	0.5020819440686609
-0.22859281346049923	0.3698709815985546	0.5761902601434065
-0.15424839507840565	0.3743687968987806	0.6664588189423274
-0.0907199134470802	0.34250514387163267	0.75980953863255
-0.04391200242536785	0.2842044600536885	0.8463942035251757
-0.014667736410107138	0.213595902885023	0.9236609147515565
-0.38192353968502774	0.2634310014902917	1.2055737051283204
-0.2888908259986657	0.23990337221981797	1.2280780504259627
-0.19669391918464588	0.1993738517444948	1.2309449607735743
-0.11667848264236372	0.1472526341291695	1.2052080721786569
-0.06386296104144627	0.10333244642385495	1.1434122561789188
-0.04735188353019093	0.10279244951812433	1.0623099139365726
-0.04419852088717107	0.13904404690657668	0.9992311332154076
-0.033840917049453516	0.18024477711055864	0.955338354037486
-0.2722537729468416	0.17606561373127583	1.2326139141566188
-0.17536255118562782	0.1383355296310775	1.2195551161755218
-0.09720737919084445	0.09493313123331472	1.1648728362977911
-0.0700880720165128	0.08663361176021722	1.069585294027629
-0.08146968226246255	0.13182069522416662	0.987574841330642
-0.08557671110411093	0.19135533557900142	0.9282070972598914
-0.07179649016272278	0.24460258360980103	0.8818876716389547
-0.15136383988081872	0.09073624478625252	1.1989154824699637
-0.08887153579980385	0.06600007970609574	1.1123732749163333
-0.10222835409481165	0.09555819016132115	1.007542110091138
-0.13358019732321594	0.1610992268603917	0.9285554842573757
-0.1437837599982511	0.23264703466725667	0.8620547976887504
-0.1275146249678956	0.2956783260282383	0.8048921829513319
-0.09874415431669727	0.05405152267559763	1.0646342350870843
-0.14455797357858194	0.09988711109932472	0.9636211361504983
-0.1921692396491425	0.170465285068217	0.8798321800265217
-0.21169803209999596	0.2478603809196788	0.7997457109734887
-0.19714185940800555	0.31898224388346036	0.7262012898848541
-0.18355146405486997	0.08988720838516327	0.9335426095514063
-0.24615112674531675	0.15577421510962325	0.8421444900204466
-0.27863255134007575	0.23187957820236837	0.747056190543082
-0.2717278872029392	0.3067962262082229	0.6546474971243337
-0.2868319145653538	0.12203677256812892	0.8178669816255133
-0.33371956229451005	0.18919070628848123	0.7106102783778261
-0.33969824546964994	0.26104217674765406	0.6007239339086973
-0.369993018233787	0.13077752105500404	0.6934698518068622
-0.391263538733467	0.19231983464954885	0.5711192966967694
-0.4217162429461574	0.1147913878915976	0.566173766384304
-0.5602620747788785	0.4085123156101264	1.0537590954394236
-0.5631420984174232	0.4888264880485276	0.9923385578131497
-0.5481146362713614	0.5736598079974001	0.9206305930688471
-0.5119654723532984	0.6577223405915332	0.8412797176127752
-0.4541156156981929	0.7347744707944973	0.7585666013996291
-0.3772948362347253	0.7991233723496458	0.6776233556760813
-0.2870216002409505	0.8471062929783335	0.603217576362641
-0.1900788292291863	0.8777903728195234	0.538693978030465
-0.09280918845401094	0.8926420899767794	0.4855465587452214
-0.6730746414438108	0.18321127900174108	-0.03846125460950077
-0.6288335798357938	0.3090938922844213	-0.03448012572991248
-0.5702211105387099	0.43818819174851614	-0.010117378102541768
-0.4982690204547355	0.5625740393653903	0.03686674582489229
-0.4163261864121358	0.6736299511832347	0.10548538411449869
-0.3295715678342498	0.7642038668761899	0.19138602560687637
-0.24375156474650359	0.8304342226311606	0.2879379968767875
-0.16376869356833762	0.8722710329266646	0.38800735017928845
-0.7295704986115149	0.2578735720439722	0.07310818743615274
-0.6814715510159204	0.38633660899515604	0.0898414811974907
-0.6172708135732256	0.5136962469015212	0.1270807139675074
-0.5388970352225758	0.6309516583680881	0.18538366836148246
-0.450920480973609	0.7296047395792075	0.2619019644451709
-0.3595670171244225	0.8040162602332022	0.3508852003981045
-0.2710427069800083	0.8526727615890122	0.4453042807408462
-0.7714414952670781	0.32822090404474574	0.2067722735191162
-0.7176669076340392	0.4541681394069423	0.23654524370323562
-0.6468680931550855	0.5738095966999766	0.285206668445905
-0.5622447056571122	0.6780734659984453	0.3513641085784437
-0.46960333914485564	0.759834050245059	0.4306113046568425
-0.37582890418358156	0.8158571693586656	0.5166787272093052
-0.7923168659207164	0.38800644604395523	0.3582183118843335
-0.7315640466364915	0.505498364384084	0.3991747590498305
-0.6542621326388581	0.6115730399813664	0.4554968082401544
-0.5649835670350798	0.6983580171229123	0.524160245278415
-0.47037558844418914	0.7610837252042594	0.6000961331509198
-0.7879489247903149	0.4313150431054397	0.5190802683539835
-0.7202231752453465	0.534870772115937	0.5672035450189072
-0.6380880561705335	0.6231594522872738	0.6258333667651732
-0.5471361213333653	0.6905063664609444	0.6911746402210104
-0.7578301857229025	0.4542872676347734	0.6784074618003011
-0.6848181149365948	0.540221820395563	0.7284768417194538
-0.6008988069828489	0.6090859857460926	0.7839626585743329
-0.7054871886967853	0.45623622957726534	0.825384665922227
-0.6301988629027686	0.5233355259961324	0.8724292141307992
-0.6372444453742668	0.43953808811447154	0.9519029904208176
-0.46883182781260957	0.3418464040905264	1.147687995393262
-0.3848971983496337	0.33410385452928126	1.186808675014232
-0.2963173344283149	0.3101273600916798	1.2166505743503664
-0.20972760599133117	0.26943717759951885	1.2318257848139795
-0.13336470542859033	0.21578861740593175	1.2271082208433737
-0.07505313238633984	0.1589651023494612	1.1985048036249952
-0.039461452451175195	0.11646525792272579	1.1461686632323176
-0.02314055686461576	0.10686386337612967	1.0839592207580129
-0.012869885357123164	0.12378301711620542	1.0333365171301223
6.799854902867837e-18	0.11105005798573368	1.1142044818618275
1.2344246381703236e-17	0.2015968422944114	1.2115934454812638
2.1355530063615322e-17	0.3487622729832613	1.231261639596935
3.070290842730704e-17	0.5014165463655904	1.1905680358120803
3.9158782672193885e-17	0.6395114525993576	1.1039897631872746
4.599379532840157e-17	0.751135680270005	0.9850640799040811
5.085604817094272e-17	0.830542295237299	0.8480043687199049
5.374701850590901e-17	0.877755423740621	0.7059606104456572
5.492602712546105e-17	0.8970100957060059	0.5690654826264308
-0.48294486170363954	0.4192125458043842	1.1039897631872746
-0.4824743297115018	0.5049602135132354	1.0484669713778934
-0.4627728065131848	0.5945245253309843	0.981964833853985
-0.4211196154258309	0.6813858998541629	0.9072719736109793
-0.3580849729556694	0.7584361442697073	0.8288990223920109
-0.2778120617912966	0.8199255888637281	0.752086914328526
-0.18686901094770522	0.862967376837888	0.6814655061046192
-0.09230727677185241	0.887814644143863	0.6200632543915139
-0.3965891997039725	0.41507237717560796	1.1516201583839425
-0.39281499659140806	0.5046496571470475	1.1039897631872746
-0.3690656226293513	0.5971607673064551	1.0446003305942027
-0.32341956974728986	0.6850136501112744	0.9762440057465355
-0.2577210751115668	0.7606295585884069	0.9034840216820793
-0.177276037787514	0.8186666324948726	0.8315040111095675
-0.08913077104175265	0.8572627532885234	0.7647302536536533
-0.30583253088583867	0.39290325122095626	1.1921174621687538
-0.2994560192514353	0.48453005445677644	1.1544211242514362
-0.2730346022123474	0.5782966401428299	1.1039897631872746
-0.22560177181158364	0.6658337570769411	1.0435041877717315
-0.16013828305537364	0.7395240844055767	0.9774493876046867
-0.08262867929248827	0.7947255440577398	0.9108658051356562
-0.2176814550616518	0.35221601821791815	1.2204991727353585
-0.2098091834690804	0.44438298742194515	1.1948966320309222
-0.1823805589192518	0.5382720702407299	1.1552042110974785
-0.13534445998408748	0.6250254196089597	1.1039897631872746
-0.07249744148711865	0.6972826790422556	1.0456402569163161
-0.14004546269581802	0.29662105022941787	1.2325062052929934
-0.13152193147576408	0.38816953033351387	1.2214952380604247
-0.10429209478351412	0.4816244712630558	1.1943197505984162
-0.05902904327311115	0.5677432001802365	1.1536737093103973
-0.07927897856087937	0.23398142889086157	1.225765729292305
-0.07001747555260286	0.3233430284308775	1.2324018760634563
-0.043232371859138974	0.41581047332296156	1.2195153263851635