# TIME = 0.000000
VARIABLES = X, Y, Z
ZONE N=2562 E=5120 F=FEPOINT ET=TRIANGLE
0.39423142499398545	0.24364844094562563	1.0331011943588462
-0.39423142499398545	0.24364844094562563	1.0331011943588462
0.39423142499398545	-0.24364844094562563	1.0331011943588462
-0.39423142499398545	-0.24364844094562563	1.0331011943588462
0.4254666331176018	0.	0.40303932075256776
0.571537710589893	0.	-0.009302795047883816
-0.4254666331176018	5.210463503914724e-17	0.40303932075256776
-0.571537710589893	6.999318278659188e-17	-0.009302795047883816
1.148646152949561e-17	0.18758815255946337	0.8647588383141039
1.148646152949561e-17	-0.18758815255946337	0.8647588383141039
4.639335451464657e-17	0.75766097697634	0.4867889927792293
4.639335451464657e-17	-0.75766097697634	0.4867889927792293
0.349945669942513	0.20771981900453204	1.063641941301934
0.29824887670563455	0.1693738463255918	1.0880506277010156
0.23926761678553027	0.12941756374431726	1.1030401297010202
0.17426717276743428	0.08930515528886543	1.1036592723872627
0.10807602255965293	0.052145657142765915	1.0810063830436365
0.06389944523205424	0.028809046316600837	1.019191682354965
0.09009914040461646	0.03760693434984445	0.9430713336933851
0.14967698718355046	0.05717152894739027	0.8866262280749713
0.21289785106298714	0.07331829811954117	0.8335355934728603
0.27219205466059815	0.082866631294996	0.776637152790238
0.3238195337855171	0.08481316766641024	0.7149707475867254
0.365519578122955	0.0791504755243562	0.6499889846481466
0.396210868640617	0.06657476063449182	0.5840470776505609
0.4158411593248426	0.04825244331913095	0.5196013951482248
0.4251643104357737	0.025584534619137875	0.45875400793402876
0.3601099820356898	-0.18525269184334203	1.0645571288038378
0.3045332613806457	-0.14823660775040054	1.0893190357752471
0.2412139426536439	-0.11039795616461012	1.1037839843531083
0.17185433536587316	-0.07339056553654917	1.1024713612756165
0.10282257459997432	-0.04059074762091663	1.0752651411005139
0.06496903837211081	-0.02343301374743664	1.0064911866591297
0.10188487014467915	-0.03307596363192986	0.9328045901533248
0.16500082689117632	-0.04726853282229403	0.8775165006919953
0.22925067851268793	-0.05639279389135391	0.8239324970435956
0.28790292447049237	-0.05843312536473482	0.7664737944957185
0.33752495408250444	-0.05304168220639354	0.7049186719014279
0.37622779544772394	-0.040734635014264414	0.6410486531463205
0.4033662576046545	-0.022592348833687263	0.577269785281621
0.41931197445222446	0.	0.5158911763987151
0.369592817451482	-0.1608800705928671	1.0654128588954457
0.3101480136223599	-0.1258080414391403	1.0904605477697469
0.2426456496905285	-0.0908617115828337	1.1043557956543004
0.1693022939406493	-0.057840574883973886	1.1011476357192402
0.09821701111075067	-0.03015649295681607	1.0696371534766322
0.06758095928726027	-0.018281315832141952	0.995817279066538
0.11217053357537561	-0.026010790818874106	0.9249222499355423
0.17711373240635186	-0.03382571003970677	0.870591828219602
0.2410536249864233	-0.03557769833529412	0.81707361457763
0.29792286230382303	-0.030233396910027875	0.7600021888423051
0.34468533784498745	-0.01805563326861031	0.6996626553443526
0.3798981908013696	0.	0.6379809386886497
0.4033662576046545	0.022592348833687263	0.577269785281621
0.37811704668878254	-0.1346650068320527	1.0661836698261864
0.3149555529951687	-0.10220654110487783	1.091444651454208
0.24361867211323934	-0.07095363454274214	1.1047660655078098
0.1668846540575933	-0.04276096116966033	1.0998391576275346
0.09457832412354789	-0.020742341635324475	1.0646678743934694
0.07061565433656429	-0.012734815654125159	0.9878675942816394
0.11978928252181048	-0.016666483768758768	0.919547964664719
0.18490030238038263	-0.017656417692741847	0.8662435092571524
0.247249602698719	-0.012164073033998388	0.8134928575540624
0.3013681981397766	0.	0.7577782483762344
0.34468533784498745	0.01805563326861031	0.6996626553443526
0.37622779544772394	0.040734635014264414	0.6410486531463205
0.3853946158763667	-0.10675536820736675	1.066842930914349
0.31883231501481996	-0.07759844435803277	1.0922431278330387
0.2442187726921866	-0.05080600060300822	1.1050363563289978
0.16488944188690988	-0.02816648421293301	1.098722565060983
0.0921018244590901	-0.012119528229607443	1.0609359726862055
0.07296067781332695	-0.00657886005442938	0.9829993412023043
0.12384452015445023	-0.005743566743797476	0.9168170516598969
0.18758815255946337	0.	0.8647588383141039
0.247249602698719	0.012164073033998388	0.8134928575540624
0.29792286230382303	0.030233396910027875	0.7600021888423051
0.33752495408250444	0.05304168220639354	0.7049186719014279
0.39114777907335835	-0.07739215374631347	1.0673649130793155
0.3216767560994122	-0.05219382475291812	1.092831855295378
0.244544185903441	-0.030524209238540465	1.105194245763235
0.1635731804530647	-0.01397082019577464	1.0979684066298983
0.09085990863032362	-0.003985365150863401	1.0589300293308845
0.07383493283191414	0.	0.9813632354170129
0.12384452015445023	0.005743566743797476	0.9168170516598969
0.18490030238038263	0.017656417692741847	0.8662435092571524
0.2410536249864233	0.03557769833529412	0.81707361457763
0.28790292447049237	0.05843312536473482	0.7664737944957185
0.39513498286782783	-0.04690861132775203	1.067727050765899
0.3234135735535147	-0.026237829885832172	1.0931926958571134
0.24468157554304168	-0.010180446927223618	1.1052654248027596
0.16311332785220867	0.	1.0977016808715085
0.09085990863032362	0.003985365150863401	1.0589300293308845
0.07296067781332695	0.00657886005442938	0.9829993412023043
0.11978928252181048	0.016666483768758768	0.919547964664719
0.17711373240635186	0.03382571003970677	0.870591828219602
0.22925067851268793	0.05639279389135391	0.8239324970435956
0.39717643775036293	-0.01571698216788643	1.0679126549334375
0.32399756683149583	0.	1.0933142558945836
0.24468157554304168	0.010180446927223618	1.1052654248027596
0.1635731804530647	0.01397082019577464	1.0979684066298983
0.0921018244590901	0.012119528229607443	1.0609359726862055
0.07061565433656429	0.012734815654125159	0.9878675942816394
0.11217053357537561	0.026010790818874106	0.9249222499355423
0.16500082689117632	0.04726853282229403	0.8775165006919953
0.39717643775036293	0.01571698216788643	1.0679126549334375
0.3234135735535147	0.026237829885832172	1.0931926958571134
0.244544185903441	0.030524209238540465	1.105194245763235
0.16488944188690988	0.02816648421293301	1.098722565060983
0.09457832412354789	0.020742341635324475	1.0646678743934694
0.06758095928726027	0.018281315832141952	0.995817279066538
0.10188487014467915	0.03307596363192986	0.9328045901533248
0.39513498286782783	0.04690861132775203	1.067727050765899
0.3216767560994122	0.05219382475291812	1.092831855295378
0.2442187726921866	0.05080600060300822	1.1050363563289978
0.1668846540575933	0.04276096116966033	1.0998391576275346
0.09821701111075067	0.03015649295681607	1.0696371534766322
0.06496903837211081	0.02343301374743664	1.0064911866591297
0.39114777907335835	0.07739215374631347	1.0673649130793155
0.31883231501481996	0.07759844435803277	1.0922431278330387
0.24361867211323934	0.07095363454274214	1.1047660655078098
0.1693022939406493	0.057840574883973886	1.1011476357192402
0.10282257459997432	0.04059074762091663	1.0752651411005139
0.3853946158763667	0.10675536820736675	1.066842930914349
0.3149555529951687	0.10220654110487783	1.091444651454208
0.2426456496905285	0.0908617115828337	1.1043557956543004
0.17185433536587316	0.07339056553654917	1.1024713612756165
0.37811704668878254	0.1346650068320527	1.0661836698261864
0.3101480136223599	0.1258080414391403	1.0904605477697469
0.2412139426536439	0.11039795616461012	1.1037839843531083
0.369592817451482	0.1608800705928671	1.0654128588954457
0.3045332613806457	0.14823660775040054	1.0893190357752471
0.3601099820356898	0.18525269184334203	1.0645571288038378
0.4076564099723322	0.22045233189170893	1.0331011943588462
0.4204724525030312	0.1948997073217622	1.0331011943588462
0.4323157833221849	0.1669911456291861	1.0331011943588462
0.44278757529121826	0.1368288799769482	1.0331011943588462
0.4514800518941438	0.10463623640825195	1.0331011943588462
0.45801206166852515	0.0707667336689313	1.0331011943588462
0.46207002882413484	0.03569688628557951	1.0331011943588462
0.46344684617334747	0.	1.0331011943588462
0.46207002882413484	-0.03569688628557951	1.0331011943588462
0.45801206166852515	-0.0707667336689313	1.0331011943588462
0.4514800518941438	-0.10463623640825195	1.0331011943588462
0.44278757529121826	-0.1368288799769482	1.0331011943588462
0.4323157833221849	-0.1669911456291861	1.0331011943588462
0.4204724525030312	-0.1948997073217622	1.0331011943588462
0.4076564099723322	-0.22045233189170893	1.0331011943588462
0.44369985910975884	-0.26337018098196735	0.9961482392990187
0.4931425519474078	-0.2800528596544835	0.9505967077740592
0.5412296105850939	-0.29274591592974963	0.8963500976451617
0.5864229496195806	-0.3005189775507609	0.8336968130634717
0.627067528203654	-0.30255414250668966	0.7634006911528818
0.6615305796110784	-0.29825086960697356	0.6867432662461463
0.6883735841133779	-0.287323719956295	0.605492762691104
0.7065261793705516	-0.26986902045561595	0.5217876156102312
0.7154221503559088	-0.24637888188734713	0.4379470435623761
0.7150631930862626	-0.2176951052005834	0.3562428167859544
0.705995311000883	-0.1849107062308277	0.27868101837978937
0.689206621585338	-0.14924243487352792	0.20683848896058382
0.6659761680248437	-0.1119030483102323	0.1417802346289618
0.6377117105817102	-0.07399736047953955	0.08405942907605474
0.6058070063454505	-0.03645482451355196	0.0337803795595049
0.46034745118586123	0.2368182187933638	0.9947884192991507
0.5127488855531865	0.24958901066375716	0.9474218752554684
0.5633116544793775	0.25781451376350967	0.8909980199896845
0.6102760320038089	0.2606189889059663	0.8259619769225378
0.6517960574342142	0.25730623231863015	0.7532955604795867
0.6861170654284564	0.24746850237262552	0.6745389206619578
0.7117798877434163	0.23107263764981947	0.5917227207673452
0.7278092150805942	0.20849879615509279	0.507204860228149
0.7338387143025478	0.18051512708115872	0.42343906712700946
0.7301398929354538	0.14819007474883836	0.3427211625414155
0.7175499604404121	0.11276220175290272	0.26697290142690394
0.6973224582727235	0.07549993958098149	0.19760280678853723
0.6709429709636804	0.03757919102489414	0.13546235108379107
0.6399523774474863	0.	0.08088531159152502
0.4761460854441836	0.2072616463896339	0.9934994517100477
0.5311456862075431	0.2154532531747341	0.9444483031181703
0.5836917316045672	0.21857070109429272	0.886068893090073
0.6318099564774413	0.21585207293697212	0.8189944486756329
0.6734951764270131	0.20678956032849277	0.7444469181431067
0.7069279282684812	0.19123097487126273	0.664228390232066
0.730704263039081	0.16944018300133556	0.5806077772581734
0.7440237151128392	0.14209587313270192	0.49611032696361035
0.7467856298137845	0.11021993077326205	0.4132508920402201
0.7395684328269405	0.07505186342155137	0.33427171936311967
0.723502927256887	0.0378992144110036	0.2609439425401211
0.7000797309395834	0.	0.19446585492042334
0.6709429709636804	-0.03757919102489414	0.13546235108379107
0.4905751236707318	0.1747165407094937	0.9923235276334368
0.547639982881022	0.17771519787067339	0.9417865736512403
0.6015046364604113	0.17518747549588023	0.8817685846279689
0.6500094125532911	0.1665523256590909	0.8131166661997247
0.6910466269526552	0.15155613461141643	0.7373019325830925
0.7228116948989671	0.1303517438684681	0.6563706711798916
0.7440436023682994	0.10352003418888699	0.5727827004027021
0.7541935380832248	0.07201911493994965	0.48915811026063577
0.7534738333842675	0.03706906154126834	0.40799122807826727
0.7427782768687646	0.	0.3313965389006695
0.723502927256887	-0.0378992144110036	0.2609439425401211
0.6973224582727235	-0.07549993958098149	0.19760280678853723
0.503069600144338	0.13935166238692362	0.9913061877115573
0.5614974861291938	0.13665908185168194	0.9395534694310473
0.6158655021782744	0.12812144918310137	0.8783069469999785
0.6638835057308823	0.11340486127802218	0.808642443596439
0.7034226497824027	0.09256223436887302	0.7322701663222079
0.7327871449618495	0.06607537403535853	0.6514408590855488
0.7509461584056373	0.0348268084564588	0.568736528503494
0.75766097697634	0.	0.4867889927792293
0.7534738333842675	-0.03706906154126834	0.40799122807826727
0.7395684328269405	-0.07505186342155137	0.33427171936311967
0.7175499604404121	-0.11276220175290272	0.26697290142690394
0.5130645861376252	0.10151450540309688	0.9904929779045364
0.5720115194686122	0.09281201839329822	0.9378609943629336
0.6259667439462482	0.0781336910464421	0.8758748206605852
0.6725898128238282	0.05744603922504075	0.805837505592374
0.7098282108264321	0.031135014960638595	0.7296679559965158
0.7361906359737747	0.	0.6497597975012477
0.7509461584056373	-0.0348268084564588	0.568736528503494
0.7541935380832248	-0.07201911493994965	0.48915811026063577
0.7467856298137845	-0.11021993077326205	0.4132508920402201
0.7301398929354538	-0.14819007474883836	0.3427211625414155
0.5200536998805495	0.061738387981243856	0.9899246422827226
0.578587358081194	0.04693951620096576	0.9368032868167145
0.6311869411584728	0.02626174505113116	0.8746187795210583
0.6755590548443512	0.	0.8048814089391572
0.7098282108264321	-0.031135014960638595	0.7296679559965158
0.7327871449618495	-0.06607537403535853	0.6514408590855488
0.7440436023682994	-0.10352003418888699	0.5727827004027021
0.7440237151128392	-0.14209587313270192	0.49611032696361035
0.7338387143025478	-0.18051512708115872	0.42343906712700946
0.5236522865925964	0.020721857764688795	0.9896321577056477
0.58082622507519	0.	0.9364432830847482
0.6311869411584728	-0.02626174505113116	0.8746187795210583
0.6725898128238282	-0.05744603922504075	0.805837505592374
0.7034226497824027	-0.09256223436887302	0.7322701663222079
0.7228116948989671	-0.1303517438684681	0.6563706711798916
0.730704263039081	-0.16944018300133556	0.5806077772581734
0.7278092150805942	-0.20849879615509279	0.507204860228149
0.5236522865925964	-0.020721857764688795	0.9896321577056477
0.578587358081194	-0.04693951620096576	0.9368032868167145
0.6259667439462482	-0.0781336910464421	0.8758748206605852
0.6638835057308823	-0.11340486127802218	0.808642443596439
0.6910466269526552	-0.15155613461141643	0.7373019325830925
0.7069279282684812	-0.19123097487126273	0.664228390232066
0.7117798877434163	-0.23107263764981947	0.5917227207673452
0.5200536998805495	-0.061738387981243856	0.9899246422827226
0.5720115194686122	-0.09281201839329822	0.9378609943629336
0.6158655021782744	-0.12812144918310137	0.8783069469999785
0.6500094125532911	-0.1665523256590909	0.8131166661997247
0.6734951764270131	-0.20678956032849277	0.7444469181431067
0.6861170654284564	-0.24746850237262552	0.6745389206619578
0.5130645861376252	-0.10151450540309688	0.9904929779045364
0.5614974861291938	-0.13665908185168194	0.9395534694310473
0.6015046364604113	-0.17518747549588023	0.8817685846279689
0.6318099564774413	-0.21585207293697212	0.8189944486756329
0.6517960574342142	-0.25730623231863015	0.7532955604795867
0.503069600144338	-0.13935166238692362	0.9913061877115573
0.547639982881022	-0.17771519787067339	0.9417865736512403
0.5836917316045672	-0.21857070109429272	0.886068893090073
0.6102760320038089	-0.2606189889059663	0.8259619769225378
0.4905751236707318	-0.1747165407094937	0.9923235276334368
0.5311456862075431	-0.2154532531747341	0.9444483031181703
0.5633116544793775	-0.25781451376350967	0.8909980199896845
0.4761460854441836	-0.2072616463896339	0.9934994517100477
0.5127488855531865	-0.24958901066375716	0.9474218752554684
0.46034745118586123	-0.2368182187933638	0.9947884192991507
0.35395661875789647	0.2423543274415314	1.0527846265285892
0.3109848768022445	0.2366256371308166	1.0708015194417364
0.2660385484871825	0.22581437537335775	1.0862104371650587
0.22018063684435402	0.20947264221325618	1.0978967764704497
0.1748237928221819	0.18751241558096834	1.1045750319086474
0.13170113981307052	0.16041648466284364	1.104768040755135
0.09282336277150713	0.12956393790944506	1.09671410252839
0.060527536631612526	0.09793559954815624	1.078179541444831
0.03780934507394105	0.07197946574154843	1.046822544483177
0.027704281210159935	0.06329599646477635	1.0052051486075144
0.02703711587858944	0.07619150214412225	0.966359441477389
0.02755702837547516	0.09970227789534056	0.9366390338430892
0.025285746836452027	0.12519900897723454	0.9135083870003471
0.019576134192060758	0.14913171316775914	0.8945264631074161
0.010890787024525157	0.17009275015858683	0.8784705607394203
0.42057181167797075	0.07050002810335682	0.44560666178891
0.4097002560867469	0.11872443480180299	0.4384694984697071
0.39187731995239333	0.16845972746124	0.4389024624752624
0.3668691392412506	0.21725226694897368	0.4481930383634884
0.3350485275468275	0.2621483319131136	0.4670788353774575
0.2974899230501157	0.30001625684009003	0.49549438211513575
0.2559351621441534	0.3280002385050745	0.5324358835866436
0.21260516150204145	0.34400239381322295	0.576017259218875
0.16988833897826638	0.34705200968638117	0.6237329248969753
0.1299867766594621	0.337444235522171	0.6728728729092588
0.09462227086919422	0.31661331770473056	0.7209696785028419
0.06487282702303077	0.28680389901483705	0.7661631210749408
0.041158904663871246	0.2506647939931979	0.8074167698333697
0.023344075258635723	0.21090060633591554	0.8445942036817794
0.4100168293079411	0.09136783817240904	0.511523672148473
0.39757879269096535	0.13663301819043033	0.5095639183735172
0.37794569560400043	0.18196586072634904	0.5150086295101731
0.35106138122156805	0.22470718194045164	0.5287604345579145
0.3175546040170539	0.2618635254956225	0.5510842769933952
0.2787940126904086	0.29050883692487117	0.581422775759467
0.23678664569381216	0.3082702244233842	0.618367198221515
0.1939170455698875	0.3137643671085222	0.659829618162732
0.15258702093830828	0.30684456944002264	0.7033925166733612
0.11485968171282016	0.2885804667037103	0.7467430248654181
0.08220822969290414	0.26099605959058003	0.7880727792661725
0.05542129705667349	0.22668249528838733	0.8263592462705789
0.03465482516642311	0.18844236947351622	0.8615210572520332
0.38846161543862223	0.10643870263515459	0.5810094802150684
0.37392271546473127	0.14707915182959225	0.583917232011178
0.3521905147726504	0.18622065968652762	0.5936974015527936
0.3234666786681032	0.2211561964758784	0.6108093549353518
0.28868564468093155	0.24907012850685584	0.6350484930059249
0.24950629952632372	0.2674834841179496	0.6654606735692193
0.20813344326673192	0.27471361270784733	0.7004281131487321
0.16699555959410076	0.27020450536340396	0.7379375046372343
0.1283669342044211	0.2546186202389366	0.7759690376955926
0.09404828746232298	0.22967334475260953	0.812903231977483
0.06519017578352077	0.1978157950708456	0.847858118499198
0.04228337178274772	0.1619105963068732	0.8809421982120273
0.3552862893969466	0.11423965542377008	0.6515362800468026
0.33833404990298777	0.1486272638159465	0.6585416996502955
0.3145235380030128	0.17998961195023022	0.6715296892551248
0.2843742004149694	0.2057751365818124	0.6905293356038983
0.24913366767151704	0.22357764878622513	0.7149661199407744
0.2106923323096707	0.2315732491553923	0.7436847517279584
0.17133347940282254	0.22889353159275677	0.7751388570198219
0.13338070852427975	0.21581448586977578	0.8077169445511554
0.09884804159644375	0.19371000670894678	0.8401348360362323
0.06920270758536294	0.16483849416618546	0.8718220698918643
0.045305217471774045	0.13216836100969734	0.9033016639032367
0.31082504622743623	0.11371095736559757	0.7202495019559119
0.2915092844678581	0.14048370582148412	0.7302178927600564
0.26606135659378016	0.16294392033426314	0.7450282566896814
0.23533444408884843	0.1789104389409744	0.7643890887295679
0.2008416133449451	0.18658759878483044	0.7875570808800477
0.16459431650011605	0.18493928919866687	0.8134675526737145
0.128813019420739	0.17394560529130237	0.841003892718969
0.09559854754803311	0.15468169581030355	0.8693722217328377
0.0666844619677779	0.12928441655765086	0.8985537074523987
0.043403457974994925	0.1011312154794925	0.9298559689927797
0.25657523469200666	0.10447816622292168	0.7845659101255915
0.23540986383609322	0.12278271135056644	0.7962730783483496
0.20923499483956381	0.13592470842691687	0.8116671326741554
0.17920326208483567	0.14228537920385292	0.8303565280608649
0.1470043588737902	0.14082727916586046	0.8517540000780858
0.11466710957901112	0.1313968161928708	0.8753182591709657
0.08431265191391538	0.11495103580989345	0.9009487940431323
0.058019206516690555	0.09387705241275768	0.9295518607255049
0.038086481854113265	0.07313513929951139	0.9636162432158571
0.19531484180570466	0.0870955721798883	0.8431947412461878
0.1733460139931994	0.09682191411299637	0.8558734706277331
0.1478726414656923	0.10117011298002677	0.8715074051822281
0.12031854577899713	0.09928483323789263	0.890019837949783
0.09258080438543397	0.09115478674395074	0.9115985900241036
0.06700573324927817	0.07814650605729738	0.9371737451425425
0.0467287057250209	0.06426130999975857	0.9688796365709691
0.0363089301581638	0.05874908224602182	1.0079997055028918
0.13151561194803693	0.06342280898574745	0.8981111814962753
0.11067465015590648	0.06564242141849778	0.9126801199007617
0.08858579064319515	0.0634570646013507	0.9309345062392294
0.06755660642056716	0.057700230469264244	0.9540667120608319
0.05136452697302637	0.051834542581430505	0.9838412402028444
0.04525436650057888	0.05362413394268312	1.0196056031725755
0.050383231479492654	0.06982927412161592	1.0533892412978036
0.07542377817610191	0.038947583703872836	0.9597701688141521
0.062485846933967845	0.03908440774702885	0.9817286328870304
0.055366856116644055	0.04132342539820167	1.009277611546645
0.05761302229647894	0.05075623255809908	1.0390570138941722
0.06768089327099629	0.06983798027866199	1.0650501771746255
0.08067878096303402	0.0969878936459116	1.0842389383922602
0.06815373725564763	0.03738431221952462	1.0408706847213751
0.07815678298397684	0.051262198409892636	1.0615043222115534
0.09186150576261366	0.07114160373420224	1.0788159939357866
0.10667834607864232	0.0966549667119754	1.0918208256690984
0.12045576826287925	0.12683480738035002	1.1003836246286167
0.1230928963737011	0.07125257593368561	1.0911850022626948
0.13847625544870656	0.09478420785854112	1.0988466645874588
0.15294507352514425	0.12247503443879766	1.1036733881145169
0.16535536346816399	0.15368944348258126	1.1055572657091461
0.18885457047187418	0.11472970440488442	1.1054544839639693
0.2018987543561742	0.14363487115343299	1.1051272473262672
0.21256294912203985	0.17547444571803747	1.1025919775852664
0.250900888128689	0.15922581445561548	1.0992051383103236
0.2600091792441314	0.19158763711570723	1.0935729432109178
0.3061606149049179	0.2021617735456938	1.0801443414674863
0.44369985910975884	0.26337018098196735	0.9961482392990187
0.4931425519474078	0.2800528596544835	0.9505967077740592
0.5412296105850939	0.29274591592974963	0.8963500976451617
0.5864229496195806	0.3005189775507609	0.8336968130634717
0.627067528203654	0.30255414250668966	0.7634006911528818
0.6615305796110784	0.29825086960697356	0.6867432662461463
0.6883735841133779	0.287323719956295	0.605492762691104
0.7065261793705516	0.26986902045561595	0.5217876156102312
0.7154221503559088	0.24637888188734713	0.4379470435623761
0.7150631930862626	0.2176951052005834	0.3562428167859544
0.705995311000883	0.1849107062308277	0.27868101837978937
0.689206621585338	0.14924243487352792	0.20683848896058382
0.6659761680248437	0.1119030483102323	0.1417802346289618
0.6377117105817102	0.07399736047953955	0.08405942907605474
0.6058070063454505	0.03645482451355196	0.0337803795595049
0.5562494523092831	0.060002002833088125	-0.022610693534999216
0.5368878692015093	0.12410034373758173	-0.031547375524481086
0.5130965483309811	0.19158640626675663	-0.03501365516959746
0.48466788303102415	0.26140301951936046	-0.031939840332254055
0.45160721327329	0.3321436125666171	-0.021401241459948997
0.4141893077403835	0.4021033902816732	-0.0027493764939093084
0.37298877137775577	0.46939559455722535	0.0242638513733522
0.32887000887340045	0.5321228505145629	0.059401643724873006
0.2829249761277067	0.5885770836836846	0.10192282140783637
0.23636905856871154	0.6374218166106576	0.15064120332719735
0.19041515572110873	0.6778159451206246	0.20405176494485514
0.14615615434490878	0.7094569304046445	0.26049946419890896
0.10447742026920007	0.7325414361674387	0.3183474249562529
0.06601193166846946	0.74766676946998	0.37611695125371164
0.031136672933809506	0.7557022991601439	0.43257805484302303
0.4580859447052918	0.3024800137886346	0.9680143820427123
0.46817813729709007	0.3449768324900675	0.9356708624547112
0.47278386810396683	0.3902913821182553	0.8991980824222218
0.4707632517451324	0.43755062221909463	0.8589256671549351
0.46116739196488743	0.48558967472868064	0.8154665604131033
0.4433866478171782	0.533016693227098	0.7697156769482362
0.4172779672357558	0.578331653277863	0.7228006708488178
0.38323321935916943	0.6200843656220293	0.6759853192647913
0.34216469772628183	0.6570379203687007	0.6305417186695992
0.29540465397089916	0.6883007278265002	0.5876176274153406
0.24454149688457222	0.7133979405843986	0.548128333957236
0.19123444493068192	0.7322709071601041	0.5126944867249567
0.1370464210019237	0.7452166380135028	0.481631856815171
0.08332458511397442	0.7527908185921784	0.4549835276223347
0.5058991473795361	0.32105188775813437	0.9159862587879604
0.5133773602371503	0.36522707247944763	0.8769571488672567
0.5143013272428633	0.4118411356063299	0.8338017620875121
0.5075257482985867	0.45983919052426514	0.78711989138149
0.4921999812134887	0.5078870995911638	0.7378324293912507
0.4679270132412837	0.5544698285220563	0.6871442540656153
0.434876804162576	0.5980425241915492	0.6364491831315034
0.39381552154995986	0.6372069281379735	0.5871907223103499
0.34603413247026155	0.6708732380125908	0.5407043091176018
0.29318971946037414	0.6983679330933648	0.4980799696799375
0.2370999635798325	0.7194660428982821	0.4600731450535437
0.17954024958246306	0.7343500412564214	0.42707876337964934
0.12208479415116504	0.7435173512395754	0.3991602948376527
0.5515644322380602	0.33507700720616057	0.85495932996703
0.5555570914194478	0.38026763981852973	0.8091194467120103
0.5518986366267187	0.42741465842947207	0.759395223258356
0.5395112624857272	0.4753015553588268	0.7067049031801276
0.5177298268309517	0.5224673590129322	0.6523009140252367
0.4864567050530549	0.5673378978872828	0.597683819118289
0.44624110451598914	0.6084007087979847	0.5444589745070136
0.3982523807701026	0.6443858740328492	0.4941587495782799
0.3441435352346178	0.6744093807270416	0.4480733010802917
0.28584007378825405	0.6980440323018241	0.40712907445677154
0.2253072090616778	0.7153090874492418	0.3718369675157957
0.16434977984045793	0.7265932413233571	0.3423127256108377
0.5934358109389071	0.34351153824768355	0.7854773323665931
0.5930142103533215	0.3889516808445149	0.733019943339738
0.5838893381065495	0.4357897340824096	0.6772100673322836
0.5651405780639621	0.4826876797040581	0.6193087830462084
0.5363810302693789	0.5281191792647507	0.5608859373375609
0.49788648717992506	0.5705271501224747	0.5036814543223698
0.45062262897615746	0.608508567749603	0.44941598121339094
0.3961495284967542	0.6409833008535727	0.3995937763082462
0.33642405895144606	0.667304475535645	0.35534429497483716
0.2735512614276797	0.6872868661395337	0.3173373161088138
0.20954636802608811	0.7011580908413386	0.28578327168754475
0.6298086488981793	0.3454684088804744	0.7086372212575262
0.6240689088767872	0.3903502135861167	0.6501362443353053
0.6087105031225118	0.43604037893331266	0.589126769819643
0.5830662049717378	0.4811363913390578	0.5271988127264982
0.547108236461766	0.5241189100813782	0.4661814356930641
0.5015306871050278	0.5635232780620189	0.40795420427678375
0.44770888962788197	0.5981181799936612	0.35422972456759483
0.3875364626784916	0.6270472009126654	0.30636064590525963
0.32318032267616875	0.6498988338146399	0.2652157287407546
0.25681752090290355	0.6666954457745693	0.2311490374078261
0.6590884926109678	0.3403423277774565	0.6261002015280319
0.647256268574832	0.3838952161827641	0.5625250218074076
0.6251242181091562	0.4276916077632072	0.49757609528655283
0.5923639502243532	0.47033032939134534	0.43311354371780636
0.549358227278493	0.5103694936195105	0.3711247643747475
0.4972197766323464	0.5464973402536389	0.31350123257759105
0.4376797268615183	0.5776898565072179	0.2618182047423793
0.37286968724865693	0.6033158203793034	0.21717121152680724
0.305052265806281	0.623168149998792	0.1801054609077296
0.6799814838952445	0.3279179948915329	0.5400084720156296
0.6615205985832039	0.369490414602286	0.4726762163286714
0.6323962107592674	0.4108216726539992	0.40532526218333836
0.5926749947812284	0.4505746869150035	0.33998577198192653
0.5431578160364715	0.48744093307136377	0.2786755732999157
0.48532808091052665	0.5202964665368286	0.2231653756765812
0.4211792663950101	0.5483291787576475	0.17478348054151827
0.3529635272055502	0.5711070109005891	0.13430157927562172
0.6916653911155046	0.30843018604882905	0.45280937216264455
0.6663645715572524	0.3475557375145705	0.3832732654726593
0.6304028468920567	0.38607752955008917	0.31518334080296634
0.5842557360760009	0.4227714881107681	0.2506145769829968
0.5291017718869554	0.4564946291761135	0.1914826195473392
0.46670689498004375	0.4863177510057588	0.13932644551830234
0.3992112171024691	0.5116193231384099	0.09515700729675958
0.6938977460349673	0.2825571382170915	0.36701136021271225
0.6619118977732471	0.3189875632821224	0.29690713259599855
0.6196357560547249	0.35459349081120006	0.22969412496483194
0.5679214033558746	0.388291424577618	0.16736428815506796
0.5082447115805456	0.4191113915698102	0.11162027365586778
0.4425438788015134	0.44630203485298486	0.06369691803938424
0.6870328371939374	0.25134126933181966	0.2849259949096439