# TIME = 0.000000
VARIABLES = X, Y, Z
ZONE N=1002 E=2000 F=FEPOINT ET=TRIANGLE
0.39423142802205313	0.24364842247912813	1.0331011987865593
-0.3942314280220531	0.24364842247912818	1.0331011987865593
0.39423142802205313	-0.24364842247912813	1.0331011987865593
-0.3942314280220531	-0.24364842247912818	1.0331011987865593
0.4253389096138325	0.	0.40126751522198095
0.5703591314839194	0.	-0.010631575882587643
-0.4253389096138325	5.2088993421140537e-17	0.40126751522198095
-0.5703591314839194	6.984884847362463e-17	-0.010631575882587643
1.1518746301145937e-17	0.18811540289274808	0.864334432048599
1.1518746301145937e-17	-0.18811540289274808	0.864334432048599
4.639390644699245e-17	0.7576699907155874	0.4861120942113109
4.639390644699245e-17	-0.7576699907155874	0.4861120942113109
0.3197447952127957	0.18491496315998035	1.0792413958791416
0.22649081773137617	0.12124555119728031	1.104533791160776
0.12057732018375512	0.05891575616795665	1.087959902689695
0.06629995463508626	0.029019102649352875	0.9857341818235337
0.15013814002449397	0.05734766266443714	0.8862311320411673
0.24977728419055775	0.08010728787011	0.7994247857418845
0.3335478850355913	0.08441326451916235	0.7013247148324281
0.39139240248563223	0.06966714408972548	0.5960247662506489
0.42093711967077674	0.03964363556374192	0.4932457489106406
0.3320646251668441	-0.1493642633755265	1.0811352745900602
0.22792976697760944	-0.09151189625481887	1.105233145598183
0.11274399216319203	-0.039348771804056895	1.0806800681871778
0.07717021863367944	-0.02251796196891137	0.9671720496242561
0.17323349448872097	-0.03970158459706529	0.8726615057652795
0.2731853028623781	-0.04380730788845541	0.7849363020412142
0.35147258458147884	-0.029649854930459355	0.6877919000162886
0.4005862247727214	0.	0.5874949669045384
0.342317059820631	-0.10998276872825533	1.0827224893958067
0.22834721486280962	-0.06111966968320825	1.1055311966515986
0.10656803115701116	-0.022315983728937755	1.0741397344020827
0.08667918272288257	-0.01264632513225809	0.9557994401654509
0.18638690435898642	-0.014238698633648395	0.8652882902491761
0.2816339736168074	0.	0.7797285452491571
0.35147258458147884	0.029649854930459355	0.6877919000162886
0.34970859136589155	-0.06741455922084072	1.0838735449743835
0.22825118628018026	-0.030546969772008794	1.105588584907651
0.10321185658639534	-0.007204396034558221	1.0701972490866258
0.09039914446707728	0.	0.951976216432192
0.18638690435898642	0.014238698633648395	0.8652882902491761
0.2731853028623781	0.04380730788845541	0.7849363020412142
0.35358841755357434	-0.022720811283657223	1.0844801683877017
0.22814764947258517	0.	1.105581781626675
0.10321185658639534	0.007204396034558221	1.0701972490866258
0.08667918272288257	0.01264632513225809	0.9557994401654509
0.17323349448872097	0.03970158459706529	0.8726615057652795
0.35358841755357434	0.022720811283657223	1.0844801683877017
0.22825118628018026	0.030546969772008794	1.105588584907651
0.10656803115701116	0.022315983728937755	1.0741397344020827
0.07717021863367944	0.02251796196891137	0.9671720496242561
0.34970859136589155	0.06741455922084072	1.0838735449743835
0.22834721486280962	0.06111966968320825	1.1055311966515986
0.11274399216319203	0.039348771804056895	1.0806800681871778
0.342317059820631	0.10998276872825533	1.0827224893958067
0.22792976697760944	0.09151189625481887	1.105233145598183
0.3320646251668441	0.1493642633755265	1.0811352745900602
0.4154413965586122	0.20540549808197653	1.0331011987865593
0.43453297893979054	0.1611336800007575	1.0331011987865593
0.4499028958032854	0.11122210645682384	1.0331011987865593
0.4599464810688255	0.05685250363246511	1.0331011987865593
0.46344683904076306	0.	1.0331011987865593
0.4599464810688255	-0.05685250363246511	1.0331011987865593
0.4499028958032854	-0.11122210645682384	1.0331011987865593
0.43453297893979054	-0.1611336800007575	1.0331011987865593
0.4154413965586122	-0.20540549808197653	1.0331011987865593
0.473511443289738	-0.273841364746778	0.9697964187898361
0.5506624127905416	-0.2947817859953993	0.8843078020141988
0.6195132611053256	-0.30270279832454255	0.7777173659068135
0.6733621492934603	-0.29472667723659257	0.6542229360263805
0.7065632829618156	-0.26988314092449084	0.5211565969055386
0.7161978038638789	-0.22969528166658304	0.3877259639710565
0.7029263960787067	-0.17789443276896166	0.2628437740676968
0.6705262854175952	-0.11935247349072094	0.15310182900317768
0.6244660821695891	-0.05881188573440885	0.06182829174671428
0.5026012776067715	0.22607246876602732	0.9660163984933563
0.5858550782803783	0.2352159169680518	0.8752038474720135
0.6576183158854543	0.2295153165100795	0.7627909929154175
0.7102609977128173	0.2072513259346677	0.6345535089998044
0.7382349188102548	0.16918839031767752	0.4994244482434176
0.7398479170146822	0.11864015066587268	0.3675190820594426
0.7176072857813058	0.0605365904876827	0.24755383685157686
0.6769827538178284	0.	0.14501844145027104
0.5280453944807989	0.16965527376763798	0.9627180433227214
0.615018403485152	0.16461651039926362	0.8676833520794046
0.6866522961427548	0.14378910168268916	0.7514519217852237
0.7349993692264667	0.10723498657064168	0.6213984252817569
0.7554476644961031	0.057711091158722375	0.4876334809568539
0.7481668434208132	0.	0.3604180864524967
0.7176072857813058	-0.0605365904876827	0.24755383685157686
0.5471631137965268	0.10547856429384043	0.9602445427494952
0.6344905585051442	0.08491418698472979	0.8626733018661923
0.7024641776683227	0.04903341828539443	0.7452885364186748
0.74374027568196	0.	0.616756236060524
0.7554476644961031	-0.057711091158722375	0.4876334809568539
0.7398479170146822	-0.11864015066587268	0.3675190820594426
0.5574793672935625	0.035822393692775595	0.9589114807049686
0.6413558366507358	0.	0.8609090753730301
0.7024641776683227	-0.04903341828539443	0.7452885364186748
0.7349993692264667	-0.10723498657064168	0.6213984252817569
0.7382349188102548	-0.16918839031767752	0.4994244482434176
0.5574793672935625	-0.035822393692775595	0.9589114807049686
0.6344905585051442	-0.08491418698472979	0.8626733018661923
0.6866522961427548	-0.14378910168268916	0.7514519217852237
0.7102609977128173	-0.2072513259346677	0.6345535089998044
0.5471631137965268	-0.10547856429384043	0.9602445427494952
0.615018403485152	-0.16461651039926362	0.8676833520794046
0.6576183158854543	-0.2295153165100795	0.7627909929154175
0.5280453944807989	-0.16965527376763798	0.9627180433227214
0.5858550782803783	-0.2352159169680518	0.8752038474720135
0.5026012776067715	-0.22607246876602732	0.9660163984933563
0.32841370913002177	0.23946122865404684	1.0638765868801145
0.2568070780631546	0.22291727510409826	1.0889201824703723
0.1836383757300787	0.19219693909088853	1.10372823565418
0.1153504982645855	0.14819085232104717	1.1026083972478158
0.060367847667663246	0.09767722533569466	1.0779944139922764
0.030158485218878452	0.06387670357108627	1.0219522217345245
0.027339189993389187	0.080688003512239	0.9593038851914636
0.0261088537584793	0.12057155742953676	0.9173634318525058
0.016469391498769238	0.15840319577184936	0.8874007479811001
0.4094317000124812	0.1114475287053375	0.4798407810150823
0.38039772060581656	0.18697890164974454	0.4842704073483943
0.3331701001127597	0.2560256030773024	0.510892369924369
0.27133320068401734	0.30635060269939973	0.5598515333995792
0.20268552385309238	0.32795208179277535	0.6257135287335557
0.1368652831954187	0.31736044266915137	0.6989643684315456
0.08186121965786686	0.2788919873434146	0.7699474244969312
0.041710790753250085	0.22216159720015966	0.8327773866798825
0.3750122001183908	0.13255159821928697	0.5954670028128833
0.3407086941446021	0.19315295165992677	0.6112830420872561
0.289362540176656	0.24080913533263215	0.6450738060207546
0.2264748433605936	0.2651613734300857	0.6941670651716995
0.16104904061036873	0.2605828484000183	0.7519091575156412
0.10234612705841845	0.2288528880789622	0.8105559759731022
0.05664218863010445	0.17819055874924986	0.8652508801895578
0.3105447947095756	0.13212575923295264	0.7110484171457161
0.271272750321028	0.17167217684771735	0.7335784349110274
0.21868757685910245	0.19398859150521103	0.7680911787344807
0.1598178037021431	0.1927420765268357	0.8108500737487802
0.10360789784244423	0.16764107512173576	0.857080269600545
0.05775007661356551	0.125365062430576	0.9047126817130096
0.22082321447956274	0.10813960214598142	0.8150369482343844
0.17976666369829433	0.12421571957789902	0.8392551115731443
0.13146443287510223	0.1228866823433171	0.8708790542432148
0.0836513958325207	0.10339880012746601	0.9089588070068376
0.04560251973516868	0.0737864303577927	0.9570209052161721
0.11965528493579898	0.06549805800371108	0.9060707530774565
0.08450253936598857	0.06275546251486125	0.934725904212677
0.05410104876899852	0.05283530947340914	0.9768504124941374
0.04611662466641602	0.05820091507438222	1.033542210625408
0.06071805787038768	0.03639791753572909	1.0226375071429856
0.07313008095093043	0.05768899010599961	1.061184745388901
0.09532423497474224	0.09662301697120897	1.0886097082426185
0.14515777878447178	0.09387305502850438	1.0999635918697646
0.16756910638705536	0.13915427588656518	1.1053464374458453
0.2451451938103789	0.1690884096048595	1.099085323559584
0.473511443289738	0.273841364746778	0.9697964187898361
0.5506624127905416	0.2947817859953993	0.8843078020141988
0.6195132611053256	0.30270279832454255	0.7777173659068135
0.6733621492934603	0.29472667723659257	0.6542229360263805
0.7065632829618156	0.26988314092449084	0.5211565969055386
0.7161978038638789	0.22969528166658304	0.3877259639710565
0.7029263960787067	0.17789443276896166	0.2628437740676968
0.6705262854175952	0.11935247349072094	0.15310182900317768
0.6244660821695891	0.05881188573440885	0.06182829174671428
0.5438791335869785	0.09777941614958155	-0.029921466811090883
0.506555070109207	0.20490586485453882	-0.0363173652062118
0.45754413574247477	0.3172808338577581	-0.025490683073234145
0.39737684085735275	0.4286460576812492	0.005747022770441678
0.32841596815571283	0.5313882561552331	0.05816324769537929
0.2547490402455296	0.6182890373631476	0.12935629808312712
0.18129320197294346	0.6844567181042699	0.21411857194715872
0.11253857296019512	0.728364970778191	0.3058267996958903
0.0516120424876744	0.7515897822719626	0.39812576198552047
0.49287447509784343	0.3399591884048427	0.9164829426901514
0.4978366930304918	0.41341811758788405	0.8523254857962984
0.48373768438021253	0.49032855600537684	0.7792114219503357
0.447767302496727	0.5650991791833262	0.7009694821401411
0.3903408367951008	0.6315847706935419	0.6228577000957628
0.3154383391477365	0.6847600799712891	0.5503189206493636
0.22952048726758403	0.7220480857068088	0.48757392878142236
0.1396109799856501	0.7436013017296916	0.4367914336629798
0.5632027530028684	0.364221356013882	0.8136430628937011
0.5569296021229637	0.43933639740079056	0.7325976714991056
0.5275355167058636	0.5151933819689806	0.6450518467820914
0.473737836070136	0.5855721035750013	0.5568608382992434
0.398359360056427	0.6445588878390336	0.47458521484922667
0.3078016124605936	0.6882653012044212	0.4037079856691026
0.210071610119944	0.7156903974268103	0.3473075212815644
0.6214785594870893	0.37255021243798475	0.6900938372873572
0.6004384828642927	0.4459131641082543	0.5943622280882478
0.5533522772628793	0.5172473195435119	0.49657011423395225
0.4812752588294743	0.5804233985136369	0.40413566090031183
0.38966216722757946	0.6304866956366678	0.3238765120294807
0.28680456334814686	0.6650366043062941	0.2601477071667007
0.6611306335094347	0.36189602995693254	0.5524196008072247
0.622855093529588	0.43038231919009273	0.4467165234518304
0.557647021160937	0.4946653200231118	0.3448521740432503
0.4692389335417336	0.5493945298228406	0.2547066563040636
0.3652299771851001	0.5909545441330932	0.18208164809445013
0.6777016465572158	0.33187808901838317	0.4102541550927417
0.621765136383006	0.3934776873997523	0.3010034586315805
0.5404449057225269	0.4497612937822379	0.20174345334309454
0.43976278329967916	0.49651717286714586	0.11950538542714752
0.6703293417316608	0.2852012808498383	0.2740840698302207
0.5986760766363163	0.3393985926329525	0.16782670580285863
0.50523855101873	0.3882521411095821	0.0766323440050222
0.6418842177761616	0.22688002926599868	0.15257007675589154
0.5582568955831995	0.27440296174305384	0.05441987350298915
0.5977191183799595	0.16269946513997055	0.05079253187967582
0.417272222486192	0.3042519733553174	0.9958014427008303
0.4298984823802632	0.37316649909481187	0.9484342147844034
0.4277382794758695	0.4476732476010444	0.8914337119078325
0.4073156879036278	0.523278701542496	0.8267654309071664
0.3673279816885884	0.59434913494061	0.7579429349910979
0.3094493901015656	0.6554243960965832	0.6894250847252495
0.23807803511172065	0.7026558335461512	0.6255543052885432
0.159076394584183	0.7346200956471098	0.5695495186709877
0.07820499292179342	0.7521784156416884	0.5230239687861277
0.008040538810445341	0.07733418591000196	0.9722033142355404
0.01238116385283632	0.11908245030694066	1.0808540160623545
0.026470552004147576	0.25459470032842824	1.1046054019075333
0.04110627459624057	0.39536144570020526	1.0679103071232219
0.054194853944902054	0.5212478147345306	0.9896358747039544
0.06465049324285564	0.6218107182151282	0.8835576922472015
0.07201452123351627	0.6926380870247334	0.763115422280212
0.07637953766484258	0.7346210875594016	0.6400840823996917
0.015123134173190245	0.06983914219280392	1.0252955638871253
0.03779359244257366	0.17453206559101372	1.1010865325994743
0.06865096171651922	0.31703249615468876	1.09321709325541
0.09808262527020047	0.45294897200124035	1.0331011987865593
0.12286730054150556	0.5674054086424948	0.9367311954641072
0.1413384673413711	0.6527057381496623	0.8187011121932047
0.1531716071873861	0.707351633051308	0.6927011000236435
0.03524245909246016	0.10401346089177078	1.0747812964960617
0.07976357809323065	0.23541161765766294	1.1050858098330552
0.1268051415453133	0.3742485847243425	1.0689325427494238
0.16880658725703215	0.4982102902390197	0.9880083338028133
0.20203512685450525	0.5962798707562825	0.8775874898961714
0.2249847208226463	0.6640126728710267	0.7524980571520867
0.07520186379042894	0.1592801036701689	1.1006247921996548
0.13795239863315212	0.2921878728709581	1.0935364149517606
0.19786514038136815	0.4190851450943309	1.0331011987865593
0.24824443877610877	0.5257901655695093	0.9357804732034806
0.2856525146832385	0.6050217356206187	0.8165488452117577
0.1326709677236129	0.2146661504605172	1.104859023883981
0.208373707975821	0.33715576773266376	1.0684099979535324
0.27601957056276166	0.4466090809936858	0.9888437947848404
0.3298038535556959	0.533633882865277	0.8806528132598495
0.2021599365411834	0.25971500187892876	1.091983062215321
0.2846686603627512	0.36571399539004734	1.0331011987865593
0.35453348072193874	0.45546939313113455	0.9402883702548565
0.27674639286613034	0.2896442546782971	1.0665327217419045
0.3602117721554553	0.37699956697460635	0.991786239410641
0.3499847714654595	0.30379867076592854	1.0331011987865593
-0.4154413965586122	0.20540549808197656	1.0331011987865593
-0.43453297893979054	0.16113368000075745	1.0331011987865593
-0.4499028958032854	0.11122210645682391	1.0331011987865593
-0.4599464810688255	0.05685250363246511	1.0331011987865593
-0.46344683904076306	5.675586880062292e-17	1.0331011987865593
-0.4599464810688255	-0.05685250363246511	1.0331011987865593
-0.4499028958032854	-0.11122210645682391	1.0331011987865593
-0.43453297893979054	-0.16113368000075745	1.0331011987865593
-0.4154413965586122	-0.20540549808197656	1.0331011987865593
-0.3197447952127957	-0.18491496315998043	1.0792413958791416
-0.22649081773137617	-0.12124555119728031	1.104533791160776
-0.12057732018375511	-0.05891575616795668	1.087959902689695
-0.06629995463508626	-0.029019102649352882	0.9857341818235337
-0.15013814002449394	-0.057347662664437166	0.8862311320411673
-0.24977728419055775	-0.08010728787011002	0.7994247857418845
-0.3335478850355913	-0.0844132645191624	0.7013247148324281
-0.39139240248563223	-0.06966714408972544	0.5960247662506489
-0.42093711967077674	-0.03964363556374192	0.4932457489106406
-0.3320646251668441	0.14936426337552652	1.0811352745900602
-0.22792976697760947	0.09151189625481883	1.105233145598183
-0.11274399216319203	0.03934877180405688	1.0806800681871778
-0.07717021863367944	0.02251796196891137	0.9671720496242561
-0.17323349448872097	0.0397015845970653	0.8726615057652795
-0.2731853028623781	0.043807307888455445	0.7849363020412142
-0.35147258458147884	0.0296498549304594	0.6877919000162886
-0.4005862247727214	4.905766379504355e-17	0.5874949669045384
-0.342317059820631	0.10998276872825534	1.0827224893958067
-0.22834721486280962	0.06111966968320826	1.1055311966515986
-0.10656803115701116	0.022315983728937755	1.0741397344020827
-0.08667918272288257	0.012646325132258086	0.9557994401654509
-0.18638690435898642	0.014238698633648435	0.8652882902491761
-0.2816339736168074	3.449021443209734e-17	0.7797285452491571
-0.35147258458147884	-0.0296498549304594	0.6877919000162886
-0.34970859136589155	0.06741455922084075	1.0838735449743835
-0.22825118628018026	0.030546969772008815	1.105588584907651
-0.10321185658639534	0.007204396034558203	1.0701972490866258
-0.09039914446707728	1.1070702291726536e-17	0.951976216432192
-0.18638690435898642	-0.014238698633648435	0.8652882902491761
-0.2731853028623781	-0.043807307888455445	0.7849363020412142
-0.35358841755357434	0.02272081128365725	1.0844801683877017
-0.22814764947258517	2.794002886595938e-17	1.105581781626675
-0.10321185658639534	-0.007204396034558203	1.0701972490866258
-0.08667918272288257	-0.012646325132258086	0.9557994401654509
-0.17323349448872097	-0.0397015845970653	0.8726615057652795
-0.35358841755357434	-0.02272081128365725	1.0844801683877017
-0.22825118628018026	-0.030546969772008815	1.105588584907651
-0.10656803115701116	-0.022315983728937755	1.0741397344020827
-0.07717021863367944	-0.02251796196891137	0.9671720496242561
-0.34970859136589155	-0.06741455922084075	1.0838735449743835
-0.22834721486280962	-0.06111966968320826	1.1055311966515986
-0.11274399216319203	-0.03934877180405688	1.0806800681871778
-0.342317059820631	-0.10998276872825534	1.0827224893958067
-0.22792976697760947	-0.09151189625481883	1.105233145598183
-0.3320646251668441	-0.14936426337552652	1.0811352745900602
-0.473511443289738	0.2738413647467781	0.9697964187898361
-0.5506624127905416	0.2947817859953993	0.8843078020141988
-0.6195132611053256	0.3027027983245428	0.7777173659068135
-0.6733621492934603	0.2947266772365926	0.6542229360263805
-0.7065632829618155	0.26988314092449095	0.5211565969055386
-0.7161978038638789	0.22969528166658312	0.3877259639710565
-0.7029263960787067	0.17789443276896175	0.2628437740676968
-0.6705262854175952	0.11935247349072085	0.15310182900317768
-0.6244660821695891	0.05881188573440885	0.06182829174671428
-0.5026012776067715	-0.22607246876602735	0.9660163984933563
-0.5858550782803785	-0.23521591696805166	0.8752038474720135
-0.6576183158854543	-0.22951531651007942	0.7627909929154175
-0.7102609977128173	-0.2072513259346677	0.6345535089998044
-0.7382349188102548	-0.16918839031767754	0.4994244482434176
-0.7398479170146822	-0.11864015066587277	0.3675190820594426
-0.7176072857813058	-0.06053659048768279	0.24755383685157686
-0.6769827538178284	8.290647625409643e-17	0.14501844145027104
-0.5280453944807989	-0.169655273767638	0.9627180433227214
-0.615018403485152	-0.16461651039926364	0.8676833520794046
-0.6866522961427548	-0.14378910168268916	0.7514519217852237
-0.7349993692264667	-0.10723498657064165	0.6213984252817569
-0.7554476644961031	-0.05771109115872254	0.4876334809568539
-0.7481668434208132	9.16240130023478e-17	0.3604180864524967
-0.7176072857813058	0.06053659048768279	0.24755383685157686
-0.5471631137965268	-0.10547856429384048	0.9602445427494952
-0.6344905585051442	-0.08491418698472986	0.8626733018661923
-0.7024641776683227	-0.04903341828539431	0.7452885364186748
-0.74374027568196	9.108191480108824e-17	0.616756236060524
-0.7554476644961031	0.05771109115872254	0.4876334809568539
-0.7398479170146822	0.11864015066587277	0.3675190820594426
-0.5574793672935625	-0.035822393692775636	0.9589114807049686
-0.6413558366507358	7.854343724687963e-17	0.8609090753730301
-0.7024641776683227	0.04903341828539431	0.7452885364186748
-0.7349993692264667	0.10723498657064165	0.6213984252817569
-0.7382349188102548	0.16918839031767754	0.4994244482434176
-0.5574793672935625	0.035822393692775636	0.9589114807049686
-0.6344905585051442	0.08491418698472986	0.8626733018661923
-0.6866522961427548	0.14378910168268916	0.7514519217852237
-0.7102609977128173	0.2072513259346677	0.6345535089998044
-0.5471631137965268	0.10547856429384048	0.9602445427494952
-0.615018403485152	0.16461651039926364	0.8676833520794046
-0.6576183158854543	0.22951531651007942	0.7627909929154175
-0.5280453944807989	0.169655273767638	0.9627180433227214
-0.5858550782803785	0.23521591696805166	0.8752038474720135
-0.5026012776067715	0.22607246876602735	0.9660163984933563
-0.3197447952127957	0.18491496315998043	1.0792413958791416
-0.22649081773137617	0.12124555119728031	1.104533791160776
-0.12057732018375511	0.05891575616795668	1.087959902689695
-0.06629995463508626	0.029019102649352882	0.9857341818235337
-0.15013814002449394	0.057347662664437166	0.8862311320411673
-0.24977728419055775	0.08010728787011002	0.7994247857418845
-0.3335478850355913	0.0844132645191624	0.7013247148324281
-0.39139240248563223	0.06966714408972544	0.5960247662506489
-0.42093711967077674	0.03964363556374192	0.4932457489106406
-0.41597052873783247	0.07478381302693128	0.37518865266955054
-0.3906299056486915	0.15801314285085707	0.36639186710137767
-0.3479339229554592	0.24127238571983975	0.3812386144976621
-0.289901872761102	0.31271398354607505	0.4228809910031631
-0.2225675856211553	0.36012195711455364	0.4888176040242212
-0.1546944101403305	0.375451298418791	0.5706555313155458
-0.09483537396607694	0.3580427071650462	0.6569400182824279
-0.048554967842995574	0.31425436456003675	0.7375050510735829
-0.017454459851257514	0.2541769913952593	0.8066996536850111
-0.2451451938103789	0.16908840960485946	1.099085323559584
-0.16756910638705538	0.13915427588656515	1.1053464374458453
-0.09532423497474224	0.09662301697120897	1.0886097082426185
-0.04611662466641601	0.05820091507438222	1.033542210625408
-0.04560251973516867	0.07378643035779271	0.9570209052161721
-0.05775007661356553	0.12536506243057596	0.9047126817130096
-0.05664218863010442	0.17819055874924986	0.8652508801895578
-0.04171079075325006	0.22216159720015966	0.8327773866798825
-0.14515777878447178	0.09387305502850436	1.0999635918697646
-0.07313008095093043	0.05768899010599961	1.061184745388901
-0.05410104876899853	0.052835309473409135	0.9768504124941374
-0.0836513958325207	0.10339880012746601	0.9089588070068376
-0.10360789784244422	0.16764107512173576	0.857080269600545
-0.10234612705841846	0.2288528880789622	0.8105559759731022
-0.0818612196578669	0.2788919873434146	0.7699474244969312
-0.06071805787038768	0.03639791753572909	1.0226375071429856
-0.08450253936598859	0.06275546251486123	0.934725904212677
-0.13146443287510223	0.1228866823433171	0.8708790542432148
-0.1598178037021431	0.1927420765268357	0.8108500737487802
-0.16104904061036873	0.2605828484000183	0.7519091575156412
-0.13686528319541869	0.31736044266915137	0.6989643684315456
-0.119655284935799	0.06549805800371107	0.9060707530774565
-0.17976666369829433	0.12421571957789902	0.8392551115731443
-0.21868757685910242	0.19398859150521106	0.7680911787344807
-0.22647484336059356	0.2651613734300857	0.6941670651716995
-0.20268552385309244	0.32795208179277535	0.6257135287335557
-0.2208232144795627	0.10813960214598146	0.8150369482343844
-0.27127275032102793	0.17167217684771743	0.7335784349110274
-0.289362540176656	0.24080913533263215	0.6450738060207546
-0.2713332006840174	0.30635060269939973	0.5598515333995792
-0.3105447947095756	0.13212575923295258	0.7110484171457161
-0.3407086941446021	0.1931529516599267	0.6112830420872561
-0.3331701001127597	0.2560256030773023	0.510892369924369
-0.3750122001183908	0.13255159821928697	0.5954670028128833
-0.38039772060581656	0.1869789016497445	0.4842704073483943
-0.4094317000124812	0.1114475287053375	0.4798407810150823
-0.417272222486192	0.3042519733553174	0.9958014427008303
-0.4298984823802632	0.3731664990948119	0.9484342147844034
-0.4277382794758694	0.44767324760104443	0.8914337119078325
-0.4073156879036279	0.523278701542496	0.8267654309071664
-0.36732798168858855	0.59434913494061	0.7579429349910979
-0.30944939010156547	0.6554243960965833	0.6894250847252495
-0.23807803511172074	0.7026558335461512	0.6255543052885432
-0.1590763945841829	0.7346200956471098	0.5695495186709877
-0.07820499292179332	0.7521784156416884	0.5230239687861277
-0.5977191183799595	0.16269946513997055	0.05079253187967582
-0.5582568955831995	0.2744029617430538	0.05441987350298915
-0.5052385510187302	0.38825214110958206	0.0766323440050222
-0.4397627832996792	0.49651717286714586	0.11950538542714752
-0.36522997718510014	0.5909545441330932	0.18208164809445013
-0.2868045633481468	0.6650366043062941	0.2601477071667007
-0.2100716101199441	0.7156903974268103	0.3473075212815644
-0.13961097998565003	0.7436013017296916	0.4367914336629798
-0.6418842177761616	0.22688002926599868	0.15257007675589154
-0.5986760766363164	0.33939859263295247	0.16782670580285863
-0.5404449057225269	0.4497612937822379	0.20174345334309454
-0.46923893354173357	0.5493945298228408	0.2547066563040636
-0.38966216722757946	0.6304866956366678	0.3238765120294807
-0.3078016124605937	0.6882653012044212	0.4037079856691026
-0.22952048726758392	0.7220480857068088	0.48757392878142236
-0.6703293417316608	0.2852012808498382	0.2740840698302207
-0.6217651363830059	0.3934776873997525	0.3010034586315805
-0.557647021160937	0.4946653200231119	0.3448521740432503
-0.4812752588294743	0.5804233985136369	0.40413566090031183
-0.39835936005642697	0.6445588878390336	0.47458521484922667
-0.3154383391477366	0.6847600799712888	0.5503189206493636
-0.6777016465572158	0.3318780890183833	0.4102541550927417
-0.622855093529588	0.43038231919009273	0.4467165234518304
-0.5533522772628793	0.5172473195435119	0.49657011423395225
-0.473737836070136	0.5855721035750013	0.5568608382992434
-0.3903408367951007	0.631584770693542	0.6228577000957628
-0.6611306335094348	0.3618960299569325	0.5524196008072247
-0.6004384828642928	0.44591316410825416	0.5943622280882478
-0.5275355167058637	0.5151933819689806	0.6450518467820914
-0.44776730249672697	0.5650991791833262	0.7009694821401411
-0.6214785594870893	0.37255021243798475	0.6900938372873572
-0.5569296021229637	0.43933639740079056	0.7325976714991056
-0.48373768438021253	0.49032855600537684	0.7792114219503357
-0.5632027530028685	0.36422135601388195	0.8136430628937011
-0.49783669303049183	0.413418117587884	0.8523254857962984
-0.49287447509784343	0.3399591884048426	0.9164829426901514
-0.32841370913002177	0.23946122865404684	1.0638765868801145
-0.2568070780631546	0.22291727510409828	1.0889201824703723
-0.18363837573007868	0.19219693909088856	1.10372823565418
-0.11535049826458553	0.14819085232104715	1.1026083972478158
-0.06036784766766327	0.09767722533569466	1.0779944139922764
-0.030158485218878445	0.06387670357108628	1.0219522217345245
-0.027339189993389194	0.080688003512239	0.9593038851914636
-0.026108853758479288	0.12057155742953676	0.9173634318525058
-0.016469391498769217	0.15840319577184936	0.8874007479811001
6.375809850119011e-18	0.10412487673275425	0.9359131519335384
4.920640917307782e-18	0.0803601645916802	1.0453569769173945
1.1890984907397067e-17	0.19419452066793516	1.1034665141291313
2.035253614492723e-17	0.33238213922736676	1.0911014013681661
2.837793440031146e-17	0.46344683904076306	1.0331011987865593
3.5199356505703324e-17	0.5748491161730955	0.9427259100737233
4.0400599407570117e-17	0.6597918589375906	0.8323012180307596
4.387820783024388e-17	0.716585514464964	0.7135330529173932
4.577923025905933e-17	0.7476315667657419	0.5959790832966104
-0.3499847714654595	0.30379867076592854	1.0331011987865593
-0.3602117721554553	0.37699956697460635	0.991786239410641
-0.3545334807219387	0.4554693931311346	0.9402883702548565
-0.32980385355569586	0.5336338828652771	0.8806528132598495
-0.28565251468323855	0.6050217356206187	0.8165488452117577
-0.2249847208226462	0.6640126728710267	0.7524980571520867
-0.15317160718738615	0.707351633051308	0.6927011000236435
-0.0763795376648425	0.7346210875594018	0.6400840823996917
-0.27674639286613034	0.2896442546782971	1.0665327217419045
-0.2846686603627512	0.36571399539004734	1.0331011987865593
-0.27601957056276166	0.44660908099368574	0.9888437947848404
-0.2482444387761087	0.5257901655695093	0.9357804732034806
-0.2020351268545053	0.5962798707562824	0.8775874898961714
-0.141338467341371	0.6527057381496623	0.8187011121932047
-0.07201452123351636	0.6926380870247334	0.763115422280212
-0.20215993654118333	0.25971500187892876	1.091983062215321
-0.208373707975821	0.33715576773266376	1.0684099979535324
-0.1978651403813681	0.4190851450943309	1.0331011987865593
-0.1688065872570321	0.4982102902390197	0.9880083338028133
-0.1228673005415056	0.5674054086424947	0.9367311954641072
-0.06465049324285557	0.6218107182151282	0.8835576922472015
-0.13267096772361286	0.21466615046051724	1.104859023883981
-0.1379523986331521	0.2921878728709581	1.0935364149517606
-0.12680514154531328	0.3742485847243425	1.0689325427494238
-0.0980826252702005	0.45294897200124035	1.0331011987865593
-0.0541948539449021	0.5212478147345306	0.9896358747039544
-0.07520186379042895	0.1592801036701689	1.1006247921996548
-0.07976357809323067	0.23541161765766289	1.1050858098330552
-0.06865096171651924	0.3170324961546887	1.09321709325541
-0.04110627459624061	0.39536144570020526	1.0679103071232219
-0.03524245909246014	0.10401346089177078	1.0747812964960617