# TIME = 0.000000
VARIABLES = X, Y, Z
ZONE N=1962 E=3920 F=FEPOINT ET=TRIANGLE
0.5440009188513697	0.33621103279396286	1.1039897890232089
-0.5440009188513697	0.33621103279396286	1.1039897890232089
0.5440009188513697	-0.33621103279396286	1.1039897890232089
-0.5440009188513697	-0.33621103279396286	1.1039897890232089
0.4480007089669707	0.	0.47914457361809903
0.6401773942789365	0.	-0.10490672064783517
-0.4480007089669707	5.4864263425214566e-17	0.47914457361809903
-0.6401773942789365	7.839911967901928e-17	-0.10490672064783517
8.971998104925524e-18	0.14652384852795397	0.9983948475237373
8.971998104925524e-18	-0.14652384852795397	0.9983948475237373
5.47796143975215e-17	0.8946189944016707	0.4442651970076222
5.47796143975215e-17	-0.8946189944016707	0.4442651970076222
0.4923116923207884	0.29045672525268224	1.153172199298137
0.4289353919024505	0.24034024270906384	1.1947882161059316
0.35367484502062296	0.18705422447668546	1.2236453326492145
0.26815436038560514	0.1328790140843841	1.2323541431460827
0.1787127237207615	0.08222008339408032	1.2094580468252976
0.10925091576669213	0.04613570978847839	1.13751373403639
0.11691600975267222	0.04465794563360812	1.0319561147345022
0.1817581773016006	0.06158439043010986	0.9463830913486266
0.25527062623141833	0.07468346358619017	0.8701851797374968
0.3222010535707204	0.07824147818989008	0.7923007972290902
0.37649489611507136	0.07124245001669341	0.7114333402554259
0.4155194297441287	0.05454416711549197	0.6300731719241872
0.4389324969672994	0.03002680643337063	0.5516411110572486
0.5089526190368513	-0.25407856714736793	1.1548849613942138
0.43994423298655216	-0.20542391923413245	1.1973329133539898
0.3581594380221678	-0.15498492409018824	1.2255903214231432
0.26597792199878356	-0.1054404083933075	1.2315078373042654
0.17186638425141088	-0.061499123957790724	1.202384549581548
0.10734562509402214	-0.033998342375417115	1.1208152028992424
0.12973043880938595	-0.03539472845235308	1.0157812318046868
0.19970745863489908	-0.04511073425579425	0.9331754527099589
0.2732433034162346	-0.04796499711136674	0.8577477830367448
0.3374244598869792	-0.040969097825818895	0.7808443389526002
0.38720579812276024	-0.024423094704727265	0.7023002609182458
0.4208802647231096	0.	0.6248495765775803
0.5242344659460526	-0.2141243489695598	1.1564615445289534
0.4495885968915646	-0.16794174411810203	1.1995801481188328
0.36157750184263515	-0.12169426362613373	1.2271286630133162
0.2634887608262834	-0.07834024984086671	1.2303723838650633
0.16603798924964897	-0.04243824395339501	1.195757634293353
0.10753490915403825	-0.022705522621633615	1.1073646268454984
0.14004396352342058	-0.022925162579450837	1.0047249903748547
0.21158679954494958	-0.02389704998063989	0.9248442251392089
0.28284009689807293	-0.0165498556379948	0.8511893094177707
0.34271121015293504	0.	0.7768744995810237
0.38720579812276024	0.024423094704727265	0.7023002609182458
0.5375383279751837	-0.1707675843337527	1.1578369765794285
0.45752159961884104	-0.128178791604965	1.201442078392979
0.3639803445821765	-0.087502098200333	1.2282526351193157
0.26118552484629315	-0.05177028811016803	1.2292285384898651
0.16183406795807087	-0.024818242318185295	1.1905603313337578
0.10850175662719347	-0.011454840203725752	1.0987018297060225
0.14577862936214347	-0.007954639421720585	0.9991025377341624
0.21574731755091944	0.	0.9219901679720072
0.28284009689807293	0.0165498556379948	0.8511893094177707
0.3374244598869792	0.040969097825818895	0.7808443389526002
0.5482318383864654	-0.1244033688315842	1.158944635153746
0.4634340802104242	-0.08655682388533795	1.2028384599426791
0.3654759802624135	-0.05271699887227933	1.2289779415387636
0.2595593922609653	-0.025723975327677083	1.2283804615392437
0.1596455460335385	-0.008160874026197742	1.1876911741476253
0.10899218144790493	0.	1.095720037929525
0.14577862936214347	0.007954639421720585	0.9991025377341624
0.21158679954494958	0.02389704998063989	0.9248442251392089
0.2732433034162346	0.04796499711136674	0.8577477830367448
0.5557380485836788	-0.075664024053127	1.1597232132921753
0.4670842329578253	-0.04361926864696943	1.2037044292788812
0.3661844962691834	-0.01760640762689911	1.2293308791584865
0.25897272233044966	0.	1.2280673646016949
0.1596455460335385	0.008160874026197742	1.1876911741476253
0.10850175662719347	0.011454840203725752	1.0987018297060225
0.14004396352342058	0.022925162579450837	1.0047249903748547
0.19970745863489908	0.04511073425579425	0.9331754527099589
0.5596124807544133	-0.025397194245271107	1.1601254618670547
0.4683184783656129	0.	1.2039979335595203
0.3661844962691834	0.01760640762689911	1.2293308791584865
0.2595593922609653	0.025723975327677083	1.2283804615392437
0.16183406795807087	0.024818242318185295	1.1905603313337578
0.10753490915403825	0.022705522621633615	1.1073646268454984
0.12973043880938595	0.03539472845235308	1.0157812318046868
0.5596124807544133	0.025397194245271107	1.1601254618670547
0.4670842329578253	0.04361926864696943	1.2037044292788812
0.3654759802624135	0.05271699887227933	1.2289779415387636
0.26118552484629315	0.05177028811016803	1.2292285384898651
0.16603798924964897	0.04243824395339501	1.195757634293353
0.10734562509402214	0.033998342375417115	1.1208152028992424
0.5557380485836788	0.075664024053127	1.1597232132921753
0.4634340802104242	0.08655682388533795	1.2028384599426791
0.3639803445821765	0.087502098200333	1.2282526351193157
0.2634887608262834	0.07834024984086671	1.2303723838650633
0.17186638425141088	0.061499123957790724	1.202384549581548
0.5482318383864654	0.1244033688315842	1.158944635153746
0.45752159961884104	0.128178791604965	1.201442078392979
0.36157750184263515	0.12169426362613373	1.2271286630133162
0.26597792199878356	0.1054404083933075	1.2315078373042654
0.5375383279751837	0.1707675843337527	1.1578369765794285
0.4495885968915646	0.16794174411810203	1.1995801481188328
0.3581594380221678	0.15498492409018824	1.2255903214231432
0.5242344659460526	0.2141243489695598	1.1564615445289534
0.43994423298655216	0.20542391923413245	1.1973329133539898
0.5089526190368513	0.25407856714736793	1.1548849613942138
0.5651149371297279	0.2993659401407936	1.1039897890232089
0.5850406578621802	0.2582678588824112	1.1039897890232089
0.6030112315913553	0.21296082470302968	1.1039897890232089
0.6181936702173968	0.16374200556565263	1.1039897890232089
0.6297684161119728	0.11120521728468886	1.1039897890232089
0.6370333347355885	0.056244010518216196	1.1039897890232089
0.639511421542663	0.	1.1039897890232089
0.6370333347355885	-0.056244010518216196	1.1039897890232089
0.6297684161119728	-0.11120521728468886	1.1039897890232089
0.6181936702173968	-0.16374200556565263	1.1039897890232089
0.6030112315913553	-0.21296082470302968	1.1039897890232089
0.5850406578621802	-0.2582678588824112	1.1039897890232089
0.5651149371297279	-0.2993659401407936	1.1039897890232089
0.6032333613033288	-0.3558988937706658	1.0463346500390067
0.6607140279990139	-0.37020999630331275	0.9764712336655521
0.7141142593158338	-0.37768614546583584	0.8946920903584458
0.7608764745202439	-0.37703849241483156	0.8021118552818073
0.7984768541818662	-0.3673539979260533	0.7007663778048083
0.824765758338981	-0.3482913932864476	0.5935563058554572
0.8383111973915818	-0.3202064110497282	0.48399850324231575
0.8386441108918875	-0.2841544029756483	0.37581983493544097
0.8263246209267747	-0.2417543516401718	0.2724869006723213
0.8028067509249115	-0.19494904252198886	0.1768006937246107
0.7701517637197928	-0.1457323833556192	0.09065697569063796
0.7306847357118704	-0.09591510644387741	0.015007252764173251
0.6866863673935867	-0.04697532941084054	-0.05002049998245087
0.6286237193099042	0.31382059528324185	1.0439518909463466
0.6897136161468171	0.32204916795069355	0.9710432519564175
0.7456580582753805	0.3226656770437924	0.8857981355691653
0.7935469267523886	0.31458217060741084	0.7897033109135368
0.8306356831979008	0.2972272155910707	0.6852599193655478
0.8547607490567722	0.27071851852412804	0.5758448005249442
0.8647126573451551	0.23592203939905307	0.4653564030015524
0.8604444816785479	0.19436070450341505	0.35771393018718695
0.8430426978183406	0.14798730677039904	0.25634736281284315
0.8144746555106251	0.0988911469234972	0.1638203583590741
0.7772070611448726	0.0490225140004385	0.08166965092926017
0.7338168965477887	0.	0.010460114670377727
0.6523253226202598	0.2664432502932669	1.041730323103908
0.7162957071903899	0.2675689534867748	0.9660768055869335
0.7738300412866349	0.2604439617129232	0.8778711821064539
0.8217220105662605	0.2443136754889576	0.7790236767256039
0.8571210173087523	0.21907462861068006	0.672511637550165
0.8780059114938494	0.18538708259654488	0.5621383566923062
0.8835488776191539	0.14463673518439754	0.4520692779963698
0.8742399985674364	0.0987384703855418	0.3462627618398351
0.8517304918526732	0.04983740578946213	0.2479619041845071
0.8184604376505338	0.	0.15938580638835254
0.7772070611448726	-0.0490225140004385	0.08166965092926017
0.6732687616772834	0.21388703661762817	1.0397694842974858
0.7390784630621643	0.20705947954257362	0.9618270634228065
0.7969734813544448	0.19159510359986837	0.871370434346835
0.8435649035880909	0.1672052772606069	0.7707575295340526
0.8760618466159533	0.1343494325352111	0.6634069198108462
0.8927656208412329	0.0942518153070464	0.5534437793853044
0.8933713338418883	0.04874820720642077	0.44514460648645604
0.8789655653633852	0.	0.34234124994325277
0.8517304918526732	-0.04983740578946213	0.2479619041845071
0.8144746555106251	-0.0988911469234972	0.1638203583590741
0.690318107230665	0.15664522213392423	1.0381746373548106
0.7566520657457363	0.14132193205880175	0.958553252908529
0.813492863948749	0.11733986556545226	0.8667363853062917
0.857438485703276	0.08497757010101054	0.7655130996495408
0.8859540091852772	0.04528882415828229	0.6586556398429043
0.897830515382112	0.	0.5504615619792393
0.8933713338418883	-0.04874820720642077	0.44514460648645604
0.8742399985674364	-0.0987384703855418	0.3462627618398351
0.8430426978183406	-0.14798730677039904	0.25634736281284315
0.7024027657646218	0.09563250149822136	1.0370450388992516
0.7677742790803151	0.07169959972179463	0.9564830669244354
0.8221101490053333	0.03952763305128702	0.8643209849713754
0.8622001306338253	0.	0.7637140959815033
0.8859540091852772	-0.04528882415828229	0.6586556398429043
0.8927656208412329	-0.0942518153070464	0.5534437793853044
0.8835488776191539	-0.14463673518439754	0.4520692779963698
0.8604444816785479	-0.19436070450341505	0.35771393018718695
0.7086789134205072	0.03216235634595671	1.0364586262193711
0.7715845140707385	0.	0.9557742019761598
0.8221101490053333	-0.03952763305128702	0.8643209849713754
0.857438485703276	-0.08497757010101054	0.7655130996495408
0.8760618466159533	-0.1343494325352111	0.6634069198108462
0.8780059114938494	-0.18538708259654488	0.5621383566923062
0.8647126573451551	-0.23592203939905307	0.4653564030015524
0.7086789134205072	-0.03216235634595671	1.0364586262193711
0.7677742790803151	-0.07169959972179463	0.9564830669244354
0.813492863948749	-0.11733986556545226	0.8667363853062917
0.8435649035880909	-0.1672052772606069	0.7707575295340526
0.8571210173087523	-0.21907462861068006	0.672511637550165
0.8547607490567722	-0.27071851852412804	0.5758448005249442
0.7024027657646218	-0.09563250149822136	1.0370450388992516
0.7566520657457363	-0.14132193205880175	0.958553252908529
0.7969734813544448	-0.19159510359986837	0.871370434346835
0.8217220105662605	-0.2443136754889576	0.7790236767256039
0.8306356831979008	-0.2972272155910707	0.6852599193655478
0.690318107230665	-0.15664522213392423	1.0381746373548106
0.7390784630621643	-0.20705947954257362	0.9618270634228065
0.7738300412866349	-0.2604439617129232	0.8778711821064539
0.7935469267523886	-0.31458217060741084	0.7897033109135368
0.6732687616772834	-0.21388703661762817	1.0397694842974858
0.7162957071903899	-0.2675689534867748	0.9660768055869335
0.7456580582753805	-0.3226656770437924	0.8857981355691653
0.6523253226202598	-0.2664432502932669	1.041730323103908
0.6897136161468171	-0.32204916795069355	0.9710432519564175
0.6286237193099042	-0.31382059528324185	1.0439518909463466
0.4913455094365325	0.3414640387581165	1.1354688824251709
0.43380817961506796	0.3404095733837996	1.165225043808098
0.3724843556278268	0.33179460308108943	1.1917108670165963
0.3091451007192179	0.31472021675261497	1.2131066047637915
0.2462253754098683	0.2889675344852678	1.2274330889921345
0.1866566527446888	0.2553526471200453	1.2327156725043205
0.13353252151517545	0.21606016958940613	1.2271688398109564
0.08966209014472953	0.17496367734926557	1.2094041739008388
0.05706965643293108	0.1379963512923669	1.1789174165716034
0.03624964935750313	0.11302764762513748	1.1377457649483487
0.024764745466543173	0.10610949825416209	1.0930027147867298
0.01731294266497257	0.11457761127914108	1.0535001267279913
0.00955347574709591	0.13009962672848957	1.0223608319881428
0.4346078115998127	0.08355229243930837	0.5361862393185081
0.42042719965880965	0.1411438890488574	0.5299080656569121
0.395344375667453	0.1992063666713865	0.5353292894079412
0.3594098721676855	0.2529243378812105	0.5541762554993058
0.31411753569663664	0.29687792568107263	0.5867497760238335
0.26243360997225046	0.32608281193934724	0.6315352924441797
0.2083831449543297	0.337171021198775	0.6853202529564043
0.15626724155400845	0.3292568103734914	0.7438998443232278
0.10979011925938548	0.3041255462928687	0.8031687022909042
0.07142768415017199	0.2657304102464824	0.860229364768966
0.04222490405947225	0.2193896926928891	0.9142213190904008
0.021977420312785885	0.1713881339774603	0.966833520928529
0.40875725423570997	0.10388387551189907	0.6222516626440939
0.39180021550879857	0.15499260104174253	0.6234745559551677
0.3639254858680789	0.20385492619229834	0.6355652064480359
0.3256943186420338	0.2455776252853861	0.6593534526360079
0.27920754489178673	0.27522791596851404	0.6942185388532186
0.22795314609391976	0.2889673215788446	0.737999158708307
0.17619315264662372	0.28508650452584944	0.787447256698907
0.12807778476540038	0.2645123538578413	0.8391606022138224
0.08683795052102891	0.23063194767250458	0.8907133726451468
0.05436633138100633	0.18876727274715202	0.9416864788864463
0.03128670826633696	0.1462266281440577	0.9944338965009898
0.3662794067514729	0.11387362221569304	0.7106933295689872
0.34600511717112115	0.15574533592211745	0.7182866937064483
0.31547583650008587	0.1927617802102543	0.7352433960958378
0.2758940739908632	0.2204558528683153	0.7615685894431253
0.22995177502666844	0.23495302217623265	0.7960564772085856
0.1814699767793405	0.23403021924426107	0.8365398112658295
0.13465073199017774	0.2178694595633725	0.880630011019657
0.09324142977232214	0.18928537874151505	0.9268001166825518
0.06000751732498069	0.15375758296054604	0.9755664715182905
0.03680316812531734	0.12058166297616452	1.0301977892708467
0.30806529241723146	0.11186051092601997	0.7973964625436523
0.2846766392774924	0.1423383196387462	0.809653384947712
0.2525170489855908	0.16595821949563855	0.8294377406008419
0.21345532438820056	0.1792261525952821	0.8563132151363106
0.1706419375171614	0.17983484436110297	0.8891911631636727
0.12801632441538813	0.16757555415945743	0.9269280809333958
0.0896512376283856	0.1450587494008511	0.969354077926897
0.059409221411239194	0.11881842738945537	1.0183855407095042
0.04113638827293289	0.10219115599220324	1.0767869848662404
0.23766688876592976	0.09775457827329136	0.8797215100991245
0.21244077135640876	0.11594811699464545	0.8952634556707681
0.180837661284927	0.12647062675235596	0.9169992700790849
0.14539713069440457	0.1274250737399628	0.9449023826815289
0.10981449073417372	0.11889744567720696	0.9792893601890436
0.07878838611957312	0.10449214748127042	1.0216537965158148
0.058142870487244744	0.09407713723226839	1.0740340270880158
0.05244955676334943	0.10353701742808959	1.1314630183108405
0.16267833179885152	0.07417249027573024	0.9602748640453644
0.13884603640964616	0.08163832772941819	0.9802111773195701
0.1127409718670803	0.08319860696929458	1.0072812723649307
0.0886834339449924	0.08068685740639268	1.0430923636287528
0.07304149804713643	0.08098446676789084	1.0885088278878463
0.07105155242544349	0.09532565890897864	1.138168387337934
0.07940440750608536	0.12847902911455397	1.180447823880016
0.10355622122717117	0.051508642600634744	1.0541429747139133
0.09263342091671055	0.05807841376147392	1.0840325164064564
0.08899692503777747	0.0688348072607974	1.1204773814962188
0.09517972999056913	0.08950530350245302	1.1581621031343987
0.1081805377194137	0.12249988269279745	1.1903467358381719
0.12239926307267461	0.16591207690134138	1.213473309308648
0.11734789615015609	0.06289784339913572	1.1614744366963936
0.1304837738914405	0.08652626496807526	1.1851128285968953
0.14679662923389808	0.11834587131662938	1.205555686059489
0.16336467571959434	0.15820346739894525	1.220785480377023
0.1773398976933786	0.20463089673188484	1.229857900391547
0.19583957354591178	0.11202441419822752	1.220249443934031
0.21297091036742588	0.14838180949694907	1.2281683844786244
0.2282010185458735	0.1908864709368016	1.2322702543916897
0.23973105807452785	0.23834202805578208	1.2320412764216708
0.2837720450986707	0.1718881340011149	1.23236273459081
0.29666572513366773	0.2159854045720569	1.2292848182336094
0.30546271221949806	0.26410272472210516	1.2228533493095037
0.3645264709076636	0.23232246304257168	1.2157184614050605
0.3710749770957312	0.2810162609678681	1.2050317102292174
0.43394164420584524	0.28944526654398045	1.1810816072981543
0.6032333613033288	0.3558988937706658	1.0463346500390067
0.6607140279990139	0.37020999630331275	0.9764712336655521
0.7141142593158338	0.37768614546583584	0.8946920903584458
0.7608764745202439	0.37703849241483156	0.8021118552818073
0.7984768541818662	0.3673539979260533	0.7007663778048083
0.824765758338981	0.3482913932864476	0.5935563058554572
0.8383111973915818	0.3202064110497282	0.48399850324231575
0.8386441108918875	0.2841544029756483	0.37581983493544097
0.8263246209267747	0.2417543516401718	0.2724869006723213
0.8028067509249115	0.19494904252198886	0.1768006937246107
0.7701517637197928	0.1457323833556192	0.09065697569063796
0.7306847357118704	0.09591510644387741	0.015007252764173251
0.6866863673935867	0.04697532941084054	-0.05002049998245087
0.6195294323734292	0.07710916710423	-0.12138036314775673
0.5931867381627763	0.159966096159656	-0.13133163953400248
0.5606276016487618	0.24739489545719132	-0.13290080295551207
0.5216277413264275	0.3376045314544673	-0.12437666370243257
0.47638765005662626	0.42822864004489763	-0.10449387023041251
0.4256110839058608	0.5164898242326439	-0.07269553925811166
0.37049858145160514	0.5994792164018627	-0.029280651978804858
0.3126495887366464	0.6745036166813015	0.024594030045498705
0.2538836130044979	0.7394261725820663	0.0870452938654717
0.19601872884968896	0.7929123905689819	0.15570465018797988
0.1406619891512077	0.8345180236986667	0.22801908647224928
0.08906004742277954	0.8646133064025595	0.3015459422916263
0.04203535292848319	0.8841894077072178	0.37417751256084897
0.6136399915781985	0.40930662750621777	1.0028247372133148
0.6164314340121781	0.4668254865497807	0.9532472785826427
0.6097507972380479	0.5271898680593368	0.8980396063656335
0.5920291572023981	0.5885988704555252	0.8381581441749355
0.5622915220589527	0.6488230786204858	0.7750948059363539
0.5204271834236219	0.7054385190739343	0.7107818640912552
0.467327409596812	0.7561516262055912	0.6473844802659663
0.40482314823335086	0.7991331851105219	0.5870189692710063
0.33542398514766053	0.8332614074509069	0.5314747937848842
0.2619364192817871	0.8582067968570419	0.48201698946117755
0.18707714104010204	0.874354032525622	0.43931161617266357
0.11317905427114498	0.8826125469139008	0.40347130583008284
0.6676106662515712	0.4254861216274885	0.9236167376301248
0.6652710845559805	0.48434595632229877	0.8646430273352039
0.6518068536137731	0.5452259188481325	0.8004581373585936
0.6258163335284981	0.6060448103789682	0.7325745885255762
0.5867205305533539	0.6643819459712634	0.6630469267665554
0.5350018579288489	0.7177803001294094	0.5942734398662063
0.4722448383676099	0.7641081717161942	0.5286878361278081
0.40093687228583474	0.801873640418344	0.46842159151195834
0.3240811885573331	0.8303949647790655	0.4150361573967799
0.2447453120913277	0.8497889025719898	0.36939418399905855
0.1656759618775286	0.860809495545935	0.33168263451010477
0.7161469178912423	0.4337888791835469	0.8323668642798125
0.7072828984760593	0.49278052162647135	0.7642872981652249
0.6857451911249874	0.5528404335195385	0.6919263382281097
0.6504757393262308	0.6116956675034235	0.6173906716827028
0.601461786368201	0.6668683331064491	0.5432517223117691
0.5398926204738133	0.7160260807599458	0.4722333534885475
0.4680621958926955	0.7573405406788609	0.40682756779292545
0.38902410266002607	0.7897409423191772	0.348950913274459
0.30610832359815515	0.8129896945588498	0.2997430677226041
0.22245138775572684	0.8275796595049804	0.2595431802278175
0.7566100724863873	0.4327971033234277	0.7307624458616188
0.7398933401419681	0.4906373052215788	0.6545320974277221
0.7092407076791288	0.5485633059106374	0.5754958641817831
0.6641197804483182	0.6042361649982548	0.49630700546108053
0.6052148748335665	0.6552732906420379	0.419908345976876
0.53445404873735	0.6996094740176856	0.34912697148784416
0.45475505923126425	0.7358091376410214	0.28626591079184627
0.36955983991386393	0.7632326193492277	0.23281704183735646
0.2823103661948073	0.7820174977703741	0.1893696955740509
0.7865665174438259	0.421595437670908	0.6215052917187741
0.7609408723078577	0.47708740962561447	0.5387675990889794
0.7205934458639746	0.5317709249284218	0.455180592883287
0.6656613780624644	0.5833811835237205	0.3737960505467993
0.5975742428769261	0.6297670580021881	0.29769840078444043
0.5189230512283348	0.6692218603055108	0.22955837053187816
0.4330685256427663	0.7007195815564815	0.17126815177645252
0.3436096476429519	0.7239893369294298	0.12376121268462233
0.8041676723091902	0.3999912775215305	0.5081414837323939
0.7690593303291132	0.45218948467162107	0.42110892972373176
0.7190643799309211	0.5028848645740464	0.3354904118619941
0.6550515719900676	0.5500091100363345	0.2545056052574287
0.5791345187942178	0.5917301809107547	0.18111583522793087
0.494392494736529	0.626722102593119	0.11760506921456447
0.40438997888847555	0.6543167499188153	0.06531538067676809
0.8084797094511127	0.3686228689727148	0.3946772767426773
0.7639446650370378	0.4169536046851561	0.30587457658860484
0.705031457537217	0.4633578835620245	0.2208024703646287
0.6332960848637412	0.5060414183141341	0.14258593408009707
0.5513750559328405	0.5435161418013766	0.07382938031380111
0.4626002900771702	0.5747968158814403	0.01628592108264564
0.7996530512452675	0.3289046580923545	0.28505975006158246
0.7464063964936085	0.37320319824680426	0.19698987671826249
0.679902192613569	0.4154332657328927	0.11475178798137795
0.6022420271358757	0.45409808647487393	0.041144674019798974
0.5163635736826825	0.4880241604856761	-0.02173378068501691
0.7788699463481517	0.2828127422592858	0.18266266393169234
0.7181834486496119	0.3232718734859633	0.09749202634383672
0.6458160041057198	0.36175749971657667	0.01982461102223656
0.5642142992452966	0.39704955013909127	-0.04801865085332204
0.7480906914086765	0.23257599309794028	0.08992365684573102
0.6815944263945558	0.26963255460505064	0.009268738479850665
0.6052462680725396	0.30497186105301793	-0.0627586787049798
0.7096907149970473	0.18036480362056181	0.00821110698021846
0.6391428668012298	0.21457010857378084	-0.06693891676291808
0.6661002862680385	0.1280561564397757	-0.06209530776735515
0.5567502458212773	0.3869175231411456	1.0692808250221175
0.5633705092187642	0.44207722148149253	1.0288516122658635
0.5621320888100284	0.5007254411302677	0.9827842163597674
0.5514397513254915	0.561384403826582	0.9315721091073673
0.530090685858921	0.6221089044590725	0.8761795838282386
0.49753529241264344	0.6806451957916049	0.8180269443661295
0.4540660012592498	0.7346942611707342	0.7588776283767674
0.4008597798456838	0.7822246957438403	0.7006388686112613
0.3398427421451494	0.8217511960026825	0.645119367989191
0.2734090478316251	0.8524987707071674	0.5938102478473741
0.20407880115720445	0.8744163845478273	0.5477453176229606
0.13418790759287086	0.8880598874530853	0.5074624230663882
0.06567758064269855	0.8944000018676732	0.4730528802943668
0.008090191990618476	0.11017251006947641	1.111073347024802
0.01208732176865468	0.1646054928882442	1.191501912361665
0.019304320641190302	0.26288693220440323	1.2288241702038862
0.0274718138515542	0.37411202778837205	1.2281377372662579
0.03565818279202465	0.48559450497396506	1.1967764081591503
0.043322572975148625	0.589968483220812	1.1401583850757204
0.05008254211707156	0.6820260058330428	1.0634801536993934
0.05568430628966312	0.7583110251371366	0.9722474182312014
0.06000425522457371	0.8171398408309428	0.872069451488739
0.06304038789842917	0.8584862677960459	0.7681828403587001
0.06488796063678486	0.8836461002328183	0.6650064811172719
0.06570483991259449	0.8947707477496165	0.5658852706375006
0.01849397961128908	0.12239381602200854	1.1475996445533305
0.030407402860871884	0.20123717250041442	1.2123979340285844
0.046615805444460215	0.30850488602068105	1.232700165043881
0.06379744117880014	0.4222136562386821	1.2171775220820658
0.0804379260990063	0.5323407852039903	1.1724405364548487
0.09554704903991736	0.63233347191437	1.1039897890232089
0.10843356466395115	0.7176168227488464	1.0174936767141702
0.11869175743856049	0.7855061260698657	0.918903953144836
0.12619815625630265	0.8351834198865588	0.8140284512384708
0.13107217338639665	0.8674398693781185	0.7079933970656966
0.13360654546700407	0.8842128784030163	0.6048560862430089
0.03465778556583918	0.14849827093422885	1.1817164606946422
0.056968076781212976	0.24409113115116787	1.226515692106608
0.08304088620425076	0.35580529815642337	1.2294901907576645
0.10937698988475629	0.4686477106061905	1.1990617401985213
0.13406024537943878	0.5744080844596997	1.1413198377203413
0.15576049226711097	0.667387156754924	1.062014290270109
0.17360595970680945	0.7438496492718514	0.9672377473871849
0.18718687824052613	0.8020396465847354	0.8631901496851451
0.19652203966177864	0.8420380266900218	0.755615916594796
0.20196529967675142	0.8653610523885402	0.6492907830267726
0.05950095199385344	0.1855260145479375	1.2085942888899959
0.09299011447937863	0.2899463381880082	1.2325510206402355
0.1288637832689089	0.4018017011805286	1.218517673635566
0.16369707995513041	0.5104131065368226	1.173701207293841
0.19530243044739368	0.6089596201267031	1.1039897890232089
0.2221645893837611	0.6927168050946604	1.0154307387238524
0.2434053232028217	0.7589461558427381	0.9143763093691087
0.25877382036800795	0.806865569041363	0.8070079174200989
0.26855512159493355	0.8373641047136805	0.6987417416540832
0.0944842256166264	0.22846606500727926	1.2258054577951711
0.13863800764084994	0.33523137956508603	1.2298119779055987
0.18333709864443537	0.4433153564556911	1.1996594825908165
0.225244630885714	0.5446491200201938	1.1416284398635175
0.26205623508543424	0.6336608214537436	1.0616228007042232
0.29226672064999626	0.7067108970474677	0.9658983076003721
0.31517543749084304	0.762104840606155	0.8608187848622665
0.3308263670095979	0.7999493860278466	0.7522686066521523
0.13957062009066062	0.27235353417963376	1.232594393396033
0.19291335243048374	0.376444815782223	1.2182471944993292
0.2446808181313178	0.47746219643032417	1.1734434050796978
0.29165776954411	0.5691314468100251	1.1039897890232089
0.3316132334662068	0.6470992864310324	1.0158546176751075
0.3632508855264305	0.708835914994542	0.9153067313072192
0.3861954615869219	0.753609167738959	0.808449422754341
0.19341606815379417	0.312953766211874	1.2291610180625554
0.25377755201797797	0.41062073480475314	1.1984748592806933
0.3103336465091283	0.502130452060465	1.1410187995673886
0.36009622680117204	0.582648008628422	1.0623953701813704
0.4011007159529518	0.6489946388309635	0.9685408193097003
0.43241474911133276	0.699661747814821	0.8654981960141419
0.25368225734958183	0.34704591943368623	1.2163885519983182
0.31850712972360284	0.43572858125686753	1.1717170004182234
0.377391938337247	0.5162849825063414	1.1039897890232089
0.4277145575203262	0.5851280550390453	1.0186665040289187
0.46792529358704926	0.6401376487099553	0.9214785491235014
0.3174887085335922	0.3726014035425144	1.195693224652851
0.38418052023824084	0.4508702824016176	1.1396174859015924
0.44309218395584893	0.5200084012230393	1.0641587886180393
0.49208244395125494	0.5775027720567539	0.9745634258371296
0.3819156806922768	0.3888031757368563	1.1688332188569561
0.4481439036040282	0.45622571162316267	1.1039897890232089
0.505186972042518	0.5142975504828217	1.0232642788299777
0.44442472720457565	0.39587633260363336	1.1376772268112136
0.5083277403272395	0.45279866146783504	1.0665722935177784
0.5031071858103552	0.39478857363087705	1.1039897890232089
-0.565114937129728	0.2993659401407935	1.1039897890232089
-0.5850406578621802	0.25826785888241127	1.1039897890232089
-0.6030112315913553	0.21296082470302966	1.1039897890232089
-0.6181936702173968	0.16374200556565266	1.1039897890232089
-0.6297684161119728	0.11120521728468895	1.1039897890232089
-0.6370333347355885	0.056244010518216134	1.1039897890232089
-0.639511421542663	7.831756154103961e-17	1.1039897890232089
-0.6370333347355885	-0.056244010518216134	1.1039897890232089
-0.6297684161119728	-0.11120521728468895	1.1039897890232089
-0.6181936702173968	-0.16374200556565266	1.1039897890232089
-0.6030112315913553	-0.21296082470302966	1.1039897890232089
-0.5850406578621802	-0.25826785888241127	1.1039897890232089
-0.565114937129728	-0.2993659401407935	1.1039897890232089
-0.4923116923207885	-0.2904567252526821	1.153172199298137
-0.42893539190245056	-0.24034024270906373	1.1947882161059316
-0.35367484502062296	-0.1870542244766854	1.2236453326492145