# TIME = 0.000000
VARIABLES = X, Y, Z
ZONE N=1442 E=2880 F=FEPOINT ET=TRIANGLE
0.5440009254307264	0.33621105616114133	1.1039897741475913
-0.5440009254307265	0.33621105616114133	1.1039897741475913
0.5440009254307264	-0.33621105616114133	1.1039897741475913
-0.5440009254307265	-0.33621105616114133	1.1039897741475913
0.4480232749951568	0.	0.47853453757861275
0.6397587752928274	0.	-0.10535080384865897
-0.4480232749951568	5.486702696663333e-17	0.47853453757861275
-0.6397587752928274	7.834785363887919e-17	-0.10535080384865897
8.9805430902693e-18	0.1466633987288727	0.9982086046239268
8.9805430902693e-18	-0.1466633987288727	0.9982086046239268
5.477829204346079e-17	0.8945973987209955	0.4440334219040001
5.477829204346079e-17	-0.8945973987209955	0.4440334219040001
0.4825589319106178	0.2823727387682856	1.1607674009543056
0.40509199224491244	0.22281872921283544	1.2061535470603473
0.3118918767419159	0.1598324926661255	1.2311115806715227
0.20803550666033196	0.09822105814973321	1.221548972615497
0.11699635704881355	0.05016308543423355	1.153299349515649
0.11700917710392082	0.0446935345921886	1.03176295286462
0.19421398530704745	0.06435116775910575	0.9333197866753805
0.27891023620238087	0.07708887874426835	0.8443566179367721
0.35135749232948255	0.07608376655616861	0.7518031569240525
0.404439016135762	0.06111168944408707	0.6566151993718107
0.436184539415117	0.03456838020607128	0.5638528883055038
0.5008478921142404	-0.2397883402589864	1.1630005874114338
0.41536123247338036	-0.1827738030336805	1.2090802579100948
0.3130775413575359	-0.12478672030585337	1.232100375825392
0.2013146149470414	-0.07128591252511277	1.2162683111878096
0.11260463071293023	-0.034485782190165015	1.1356456482201343
0.13180732482759347	-0.03356394286069963	1.0133844529397007
0.21488565285088487	-0.04272031790915765	0.9186028333341189
0.29828131785435624	-0.04122147676159242	0.8306911262425423
0.365686872269678	-0.026395558714513486	0.7403407521167903
0.4117713845880522	0.	0.6497733955590599
0.5171351218667859	-0.19256695506126723	1.164996078170504
0.4237990001948679	-0.13986504880446474	1.211518371302934
0.313295683159802	-0.08919547361400204	1.232575287487146
0.19544082993672596	-0.04613733048031815	1.2112596438047207
0.11102580717349893	-0.0204013533147199	1.121850963425468
0.14267790721250354	-0.01816604045201751	1.00204762149568
0.22627877718661057	-0.014995104130049883	0.9108157861875407
0.3051254075638881	0.	0.8258991960971106
0.365686872269678	0.026395558714513486	0.7403407521167903
0.5304890108220521	-0.1410997299308643	1.1666372053676242
0.4300640249686914	-0.0946217782952065	1.2133510927440805
0.3130127914618902	-0.053468956455576803	1.2327108114640244
0.191434668372612	-0.02259579604848376	1.2076199249145994
0.11086579972186421	-0.006790651387389576	1.114321067187457
0.1466633987288727	0.	0.9982086046239268
0.22627877718661057	0.014995104130049883	0.9108157861875407
0.29828131785435624	0.04122147676159242	0.8306911262425423
0.5400095194295023	-0.08617917256853161	1.1678099820670929
0.4339137533956913	-0.04773439877738971	1.214488034878669
0.3127148785344512	-0.017806023553763015	1.2327096444618995
0.1900144627496949	0.	1.2062831704557617
0.11086579972186421	0.006790651387389576	1.114321067187457
0.14267790721250354	0.01816604045201751	1.00204762149568
0.21488565285088487	0.04272031790915765	0.9186028333341189
0.5449727343908545	-0.028990403357676112	1.168422337541689
0.43521133640150067	0.	1.2148732552912833
0.3127148785344512	0.017806023553763015	1.2327096444618995
0.191434668372612	0.02259579604848376	1.2076199249145994
0.11102580717349893	0.0204013533147199	1.121850963425468
0.13180732482759347	0.03356394286069963	1.0133844529397007
0.5449727343908545	0.028990403357676112	1.168422337541689
0.4339137533956913	0.04773439877738971	1.214488034878669
0.3130127914618902	0.053468956455576803	1.2327108114640244
0.19544082993672596	0.04613733048031815	1.2112596438047207
0.11260463071293023	0.034485782190165015	1.1356456482201343
0.5400095194295023	0.08617917256853161	1.1678099820670929
0.4300640249686914	0.0946217782952065	1.2133510927440805
0.313295683159802	0.08919547361400204	1.232575287487146
0.2013146149470414	0.07128591252511277	1.2162683111878096
0.5304890108220521	0.1410997299308643	1.1666372053676242
0.4237990001948679	0.13986504880446474	1.211518371302934
0.3130775413575359	0.12478672030585337	1.232100375825392
0.5171351218667859	0.19256695506126723	1.164996078170504
0.41536123247338036	0.1827738030336805	1.2090802579100948
0.5008478921142404	0.2397883402589864	1.1630005874114338
0.5685378965203715	0.29281315095922245	1.1039897741475913
0.5912885087443357	0.24362426106891874	1.1039897741475913
0.6110036496835878	0.188810543211476	1.1039897741475913
0.6263580257897837	0.12903683459850374	1.1039897741475913
0.6361455370336397	0.06552661189668775	1.1039897741475913
0.6395114394242506	0.	1.1039897741475913
0.6361455370336397	-0.06552661189668775	1.1039897741475913
0.6263580257897837	-0.12903683459850374	1.1039897741475913
0.6110036496835878	-0.188810543211476	1.1039897741475913
0.5912885087443357	-0.24362426106891874	1.1039897741475913
0.5685378965203715	-0.29281315095922245	1.1039897741475913
0.6130098737473653	-0.3587070210402955	1.0355187378985597
0.6791191565892686	-0.3735459361137591	0.9504496014739364
0.738521038244028	-0.37846339462888096	0.8495621491943111
0.7871363315163735	-0.37163542238907354	0.7352334345054584
0.8212583845049665	-0.35212083132054267	0.6115172387920725
0.838301812008078	-0.32020284187112663	0.4837814454538912
0.8373911285688009	-0.27746249534668493	0.35791219525930323
0.8195352692489548	-0.2265139345833902	0.2393213155670552
0.7873111224670957	-0.17048617706062563	0.13210803975194593
0.7442092421826585	-0.11245177214658075	0.03865195156838322
0.6939155388643804	-0.0549940082941266	-0.040321028012483114
0.6432560608979085	0.3079683585232312	1.032209954684062
0.7138787468392835	0.31413218967924733	0.9428529157139444
0.7758748563368771	0.3092488789525994	0.837218534457639
0.8246115721025987	0.29199662633319146	0.7184608828454245
0.8562083542015195	0.26221847738809484	0.5915208929358379
0.868407100202607	0.22113464732822105	0.46251359078384086
0.8611019025878086	0.17119126634414675	0.3376903200953974
0.8362815137301683	0.11557129770094991	0.22233970761297916
0.7974254614318408	0.05755878097847008	0.12004032435117465
0.7486462876024771	0.	0.03246793921253136
0.6708120256074123	0.2497920248065766	1.0292002184249764
0.744615447317086	0.24574309007731293	0.9361503374754501
0.8074949471382398	0.22989430790902812	0.8267939426368699
0.854459444331796	0.2017105523852315	0.7051299257976731
0.881775287907014	0.1620290782004222	0.5769166103138076
0.8878599257735661	0.11304412604893053	0.44878559413001023
0.8736172433847151	0.05789310733086324	0.327021541286284
0.8420593614497613	0.	0.21648078742339594
0.7974254614318408	-0.05755878097847008	0.12004032435117465
0.6938617288830039	0.1845536864242328	1.0266860312672812
0.7689615799181776	0.16918530243920418	0.9308509381812188
0.8306115539998645	0.1418853613135007	0.8191864569534864
0.8737966295868966	0.10313769495276418	0.6965060190879185
0.8953256007412671	0.05483967145947592	0.5691841239314226
0.8945973987209955	0.	0.4440334219040001
0.8736172433847151	-0.05789310733086324	0.327021541286284
0.8362815137301683	-0.11557129770094991	0.22233970761297916
0.7105556508564599	0.11339633071542239	1.0248669000213833
0.7846719996183485	0.08632094706866225	0.9274356506805249
0.8428588743535996	0.04799248772419691	0.8151604881104703
0.8805035898737258	0.	0.6935170852912885
0.8953256007412671	-0.05483967145947592	0.5691841239314226
0.8878599257735661	-0.11304412604893053	0.44878559413001023
0.8611019025878086	-0.17119126634414675	0.3376903200953974
0.7193470907423261	0.0382664324263868	1.0239095559524973
0.7901096626460342	0.	0.9262544313167574
0.8428588743535996	-0.04799248772419691	0.8151604881104703
0.8737966295868966	-0.10313769495276418	0.6965060190879185
0.881775287907014	-0.1620290782004222	0.5769166103138076
0.868407100202607	-0.22113464732822105	0.46251359078384086
0.7193470907423261	-0.0382664324263868	1.0239095559524973
0.7846719996183485	-0.08632094706866225	0.9274356506805249
0.8306115539998645	-0.1418853613135007	0.8191864569534864
0.854459444331796	-0.2017105523852315	0.7051299257976731
0.8562083542015195	-0.26221847738809484	0.5915208929358379
0.7105556508564599	-0.11339633071542239	1.0248669000213833
0.7689615799181776	-0.16918530243920418	0.9308509381812188
0.8074949471382398	-0.22989430790902812	0.8267939426368699
0.8246115721025987	-0.29199662633319146	0.7184608828454245
0.6938617288830039	-0.1845536864242328	1.0266860312672812
0.744615447317086	-0.24574309007731293	0.9361503374754501
0.7758748563368771	-0.3092488789525994	0.837218534457639
0.6708120256074123	-0.2497920248065766	1.0292002184249764
0.7138787468392835	-0.31413218967924733	0.9428529157139444
0.6432560608979085	-0.3079683585232312	1.032209954684062
0.4820616511456655	0.3417542339834025	1.1405955033200466
0.41368983326991576	0.33841234733180686	1.174518899356879
0.34089082369654905	0.32431240182370474	1.2031862411860297
0.2669276845343395	0.29843424539231067	1.2235829901418727
0.19615995184730986	0.26134775791281667	1.2325457128202042
0.13346938901628663	0.21595798246185047	1.2271460732321042
0.08335171983219586	0.16820658256832915	1.2051316308089268
0.04882732958213161	0.12783160489700954	1.1660213851157921
0.029628565210082412	0.10719715285978161	1.1150150943532793
0.0196873514248706	0.11060418754926353	1.0655561893820567
0.010968966697131417	0.1274378819600007	1.026809378401331
0.4298180591294751	0.09685617824681919	0.5481174755251178
0.40965760304003856	0.16343304772870304	0.5454867834409848
0.3745211314981397	0.2279556320019769	0.5595236138224694
0.3255462398326563	0.2822599581403216	0.5918503196751458
0.26663784091194637	0.3181639308806657	0.6410390058887759
0.20391637836696364	0.32994361431273533	0.7025009386863403
0.14416816045012665	0.316311879723941	0.7697956835795121
0.09299919224321031	0.28081340183153186	0.8369267296278611
0.053620660442892834	0.23063931637320428	0.9006239775848325
0.026703679508619085	0.17523770101069558	0.9619320607222693
0.3943438530373193	0.11660198347778554	0.651167082955044
0.37015956407218675	0.17249631976887245	0.6582034359925855
0.33148387926954165	0.22196264076965486	0.6798345545744567
0.28054611177825023	0.2573416710214135	0.7160049890105411
0.22228343926859082	0.272323810726671	0.7640164470968775
0.1632898265149924	0.2642084779105456	0.8192445696565447
0.10999811486981036	0.23506175202258087	0.8770432497931079
0.06705908115049884	0.1913934853562699	0.9351544383200512
0.036782525380509704	0.14381339049076902	0.9958577179567061
0.3362215051228962	0.12079277973792354	0.7552923921526506
0.307771119180742	0.1619086377692092	0.7695857041120353
0.2667569636210928	0.1930271281010032	0.7953732642039345
0.2165772065265449	0.20818220573151572	0.8315293270693833
0.1628631767081508	0.20399360368463157	0.8754486566490763
0.11210523465590781	0.18139008695855022	0.9245350707191097
0.07011008225638807	0.14654195877644619	0.9785875353816157
0.04152003160662552	0.11308423414591057	1.0417788927611893
0.25875232380109947	0.10790267635386848	0.8545078535428737
0.22748742165619268	0.13198338370422205	0.8733559548176996
0.18719655972504076	0.1444768016294009	0.9009554555388691
0.14232401418442395	0.14232401418442392	0.9367149356065753
0.09908285286880704	0.12646869401279906	0.9806936195439544
0.06485651148758356	0.10494002643593721	1.0355236407004036
0.04794542312780239	0.0983417455284027	1.1029309389919717
0.17136321621762174	0.08048785684425168	0.9490804884432525
0.141595383594156	0.08908894243972969	0.9730048170915762
0.10896757024269065	0.08881409157625945	1.0066180649070395
0.08078911362085858	0.08357164273453552	1.0524678098268945
0.06737547198744308	0.08740748080548663	1.110424339269592
0.07211800931628265	0.11668937574419935	1.166416159485232
0.10149422353974769	0.05256837830707502	1.0583816253292848
0.09038449529446432	0.06089764390859541	1.0954329318378901
0.0908671477832418	0.07760981630641418	1.1394649174112088
0.10335699434940694	0.11010077602812766	1.1804271151052153
0.12007736187690042	0.15800133652033707	1.2102326775090582
0.13019491223238325	0.07320936956296667	1.178949111582386
0.1485048683786452	0.10610643056200406	1.2023726368377707
0.16828892642878884	0.14969822761018994	1.2201338287354209
0.18527719865114345	0.20250132612781754	1.2303225974884622
0.22810721062285924	0.1376006952745041	1.2292474803074673
0.2463093188150394	0.18519123657629905	1.232643431519815
0.25995046016139023	0.2396273851775762	1.2308206803855728
0.3272892321818636	0.20982395815366253	1.2258635501982211
0.33748834295969077	0.265354667288293	1.2165448180258451
0.41281488164808444	0.27916195759912077	1.1919239258474086
0.6130098737473653	0.3587070210402955	1.0355187378985597
0.6791191565892686	0.3735459361137591	0.9504496014739364
0.738521038244028	0.37846339462888096	0.8495621491943111
0.7871363315163735	0.37163542238907354	0.7352334345054584
0.8212583845049665	0.35212083132054267	0.6115172387920725
0.838301812008078	0.32020284187112663	0.4837814454538912
0.8373911285688009	0.27746249534668493	0.35791219525930323
0.8195352692489548	0.2265139345833902	0.2393213155670552
0.7873111224670957	0.17048617706062563	0.13210803975194593
0.7442092421826585	0.11245177214658075	0.03865195156838322
0.6939155388643804	0.0549940082941266	-0.040321028012483114
0.6151068630554811	0.0904784888051024	-0.12399520066491897
0.5826000707200361	0.18853336626004905	-0.13333430305001445
0.5415263213661808	0.2920693149537278	-0.13044982695336862
0.491793500905898	0.3978692479955587	-0.11288246317545979
0.43416432891250756	0.5017805400485984	-0.07925314806974207
0.3703319392917914	0.5992096558776351	-0.02969140173711563
0.30276747598822323	0.6858432295811143	0.03408151502471547
0.234354247864877	0.7583863655925739	0.10901143953407608
0.16791246588873904	0.8150643691774714	0.1912382749430063
0.10577328753872035	0.8557233952108472	0.2767479178055561
0.049529973173063735	0.8815521539715032	0.3619487747302844
0.6238634261364309	0.42188143658834265	0.9823553933470344
0.6235570487527368	0.49027996569000054	0.9209737162356194
0.6092231788547716	0.5615937638575597	0.8523895197431817
0.5787771432812393	0.6325826377999239	0.7786251588019297
0.5315638639117605	0.6994474198231838	0.7026185414705411
0.46876599329704705	0.7584792154765135	0.6278374296852791
0.39333887643855736	0.8067846557540944	0.5576806650120432
0.30944388292107633	0.8428034169820506	0.49487616263823203
0.22160256586994972	0.8664281750512537	0.44109845976728734
0.13390750705983318	0.8787419605475978	0.39690719272124486
0.6845630947325039	0.4388709557755324	0.884456961301533
0.6762302004286579	0.5084334917984238	0.8104401522143624
0.6513466814948278	0.5793931059439842	0.7303771160357144
0.6083956989427662	0.6480919748819888	0.6473536725000553
0.5477501348390871	0.710606664188909	0.5652282438861829
0.4718744418317757	0.7635087867738571	0.48798637256506416
0.38492175065648	0.804551720686647	0.4189926546933378
0.29186098055752163	0.8330011290049871	0.36043257224876846
0.19750179079620087	0.8495172874685664	0.3131332173143181
0.7363386836458877	0.4441802367865773	0.7708817964566658
0.71781807900873	0.512879577538775	0.6852357334716204
0.6806362815730175	0.5813328367076223	0.5956998094844197
0.6242259591845721	0.6457254759770864	0.5063695980035305
0.5502540886512481	0.7023406568548087	0.4217362665782773
0.4624903291089044	0.7483251007149265	0.34583799538094034
0.36604396805175604	0.7822219185245182	0.28151221388443565
0.266288356969666	0.8040643965296438	0.23003847098647914
0.7751080126872288	0.43584782215415807	0.6451658551219345
0.744600592169756	0.5016836302327644	0.5501744837232118
0.6941422013195145	0.5657610690743381	0.45437558046820686
0.6244190696937568	0.6244190696937568	0.3625754070702138
0.5384541093027716	0.6744384850868114	0.27940608608831685
0.44108916470801557	0.7136972297514119	0.20842757386823588
0.33795259127350175	0.7414842436050807	0.15155777137201415
0.7975852738282535	0.4131049329160657	0.5125924657380773
0.7541103675606641	0.4744709426500555	0.41166271127821635
0.6905392843024057	0.5329526746752581	0.31358338126286944
0.6089116463375457	0.5853089143737843	0.22336984568129858
0.5134000873328659	0.6289765385578474	0.1452415274180443
0.40947275681107215	0.6625408043571491	0.081865602040197
0.8020453336447217	0.37671392625483463	0.37950087793167014
0.7457776115157654	0.43268437411657673	0.2766489835326594
0.6705106128814577	0.4851859768114311	0.1803285677986272
0.5794708731548409	0.5315418626217623	0.09520772002284543
0.47755457072536567	0.5698389955167227	0.02466445528508539
0.7887504739595134	0.32891796241812954	0.25219373934846573
0.7210707606952454	0.37933248873430936	0.15132711043603347
0.6365461001893397	0.42623325659454925	0.06012693776262841
0.5392071662879931	0.46751144250243987	-0.017518639693755857
0.7598346083319057	0.2729823437318169	0.13583072572823907
0.6830584469550907	0.3183088584570978	0.04009640644428635
0.592255983235211	0.3604818943734431	-0.04377613288202707
0.7187053601360232	0.2125111622319258	0.03372246165680422
0.6356125296788052	0.2535778467897859	-0.05485518294372373
0.6692434141185146	0.15080883185703162	-0.05279292105668169
0.5583359448117503	0.39582836069007377	1.0629299224271906
0.5639323990910596	0.4613158737897878	1.014079386367968
0.5580777663630089	0.530936969352713	0.957725577526586
0.5384652633936908	0.6020225096966095	0.8949606664920046
0.5037609174487766	0.6711705679955633	0.8277465521026053
0.4540847235934511	0.7347244300490695	0.7587605918414615
0.39118521595735406	0.7894249627951183	0.6910101171312671
0.31818232703749855	0.8330121238076714	0.6273225682421345
0.23895542704799835	0.8645488317882479	0.569891586916587
0.15741756001309615	0.8843770274370654	0.520029984704262
0.07693123427340566	0.8937900736753391	0.47816795491029157
0.009986033913613815	0.11601806758121012	1.1324476163946573
0.0172897541358861	0.20087301529714383	1.2116014442247591
0.028022865724186705	0.3255704167632547	1.2325457128202042
0.03932841643145378	0.45691874418145945	1.2074504624399653
0.049997018778696334	0.5808668611525808	1.1458689048119814
0.05926335126482069	0.6885233894235169	1.0561558226172294
0.0666504210484801	0.774346628924548	0.9471388450903115
0.07196588505358449	0.8361016114568697	0.8277465521026053
0.07527237993426049	0.8745173475083786	0.7059806419034603
0.07681502940153669	0.8924395159734657	0.5880721920807259
0.025009087054561868	0.14050193165886818	1.1724906868551406
0.044489802626396506	0.24994516489749918	1.2271460732321042
0.06784615357458143	0.38116206321523705	1.226156341054401
0.09106735464585655	0.5116195000281286	1.1820436172840287
0.11207037353351297	0.6296150510673453	1.1039897741475913
0.12949917081879816	0.7275307522220338	1.0011095062928173
0.1426325234113586	0.8013145040758405	0.8829899511706802
0.15136159592271214	0.8503543917635755	0.7587605918414615
0.15606571816441966	0.8767826998238909	0.6359843069816948
0.05001103322927325	0.18094159326600814	1.2051316308089268
0.08394863599369853	0.3037290251571401	1.2327164001540574
0.12032889245515908	0.4353540031493032	1.209781137711806
0.1547616010435753	0.5599327157449513	1.1472330025486066
0.18456555082367973	0.6677644157775788	1.0543614977128022
0.2080956581059589	0.7528971300735486	0.9409635853774391
0.22472140338278757	0.8130496937022529	0.8169259364798702
0.2347111358161435	0.849192750670642	0.6910101171312671
0.08812321702094675	0.23070957755928487	1.2257483837086007
0.13639896580642266	0.3570970989379618	1.2270033104935838
0.18460186725182876	0.4832939533042934	1.1831685497748632
0.22819182224031467	0.5974139046064475	1.1039897741475913
0.26424283438132734	0.6917967080271678	0.9990809660774996
0.29121754334069533	0.7624173634453298	0.8785544518548306
0.30891350572007004	0.8087460582617461	0.752007771043239
0.1399143873119538	0.28235201155867423	1.2327164001540574
0.20054812815699402	0.4047129831254918	1.209781137711806
0.257935982332656	0.5205236097788216	1.1472330025486066
0.3076092282288383	0.620765914204443	1.0543614977128022
0.34682605199162664	0.6999068374115511	0.9409635853774391
0.3745356562141792	0.7558257443299154	0.8169259364798702
0.2035384877083334	0.3293322076729919	1.226156341054401
0.2732020820457563	0.44205022141956946	1.1820436172840287
0.33621105616114144	0.5440009254307264	1.1039897741475913
0.3884975382065128	0.6286021742557003	1.0011095062928173
0.42789762696360034	0.6923529389089942	0.8829899511706802
0.2752988267743049	0.36678606721092755	1.2074504624399653
0.34997902787230223	0.46628391814598025	1.1458689048119814
0.4148433360781584	0.5527039072577012	1.0561558226172294
0.46655279778783965	0.6215975122449335	0.9471388450903115
0.3505992351104732	0.3919818895888988	1.1789417372197286
0.4263409445669866	0.4766636971075169	1.1039897741475913
0.4897666600712501	0.5475758120575478	1.0065776808191775
0.42499811720247743	0.4043293176341123	1.1434941439655069
0.4985052523566763	0.4742616034375715	1.0592377524465162
0.49499040462279775	0.40491898015014793	1.1039897741475913
-0.5685378965203715	0.2928131509592225	1.1039897741475913
-0.5912885087443357	0.2436242610689188	1.1039897741475913
-0.6110036496835877	0.1888105432114761	1.1039897741475913
-0.6263580257897838	0.12903683459850365	1.1039897741475913
-0.6361455370336397	0.06552661189668776	1.1039897741475913
-0.6395114394242506	7.831756373090251e-17	1.1039897741475913
-0.6361455370336397	-0.06552661189668776	1.1039897741475913
-0.6263580257897838	-0.12903683459850365	1.1039897741475913
-0.6110036496835877	-0.1888105432114761	1.1039897741475913
-0.5912885087443357	-0.2436242610689188	1.1039897741475913
-0.5685378965203715	-0.2928131509592225	1.1039897741475913
-0.4825589319106178	-0.28237273876828567	1.1607674009543056
-0.40509199224491244	-0.2228187292128355	1.2061535470603473
-0.3118918767419159	-0.15983249266612548	1.2311115806715227
-0.20803550666033196	-0.09822105814973323	1.221548972615497
-0.11699635704881355	-0.05016308543423355	1.153299349515649
-0.1170091771039208	-0.04469353459218861	1.03176295286462
-0.19421398530704745	-0.06435116775910575	0.9333197866753805
-0.27891023620238087	-0.07708887874426834	0.8443566179367721
-0.3513574923294826	-0.07608376655616858	0.7518031569240525
-0.404439016135762	-0.06111168944408701	0.6566151993718107
-0.436184539415117	-0.0345683802060713	0.5638528883055038
-0.5008478921142404	0.2397883402589864	1.1630005874114338
-0.41536123247338047	0.1827738030336804	1.2090802579100948
-0.3130775413575359	0.12478672030585339	1.232100375825392
-0.2013146149470414	0.07128591252511281	1.2162683111878096
-0.11260463071293023	0.034485782190164994	1.1356456482201343
-0.13180732482759347	0.0335639428606996	1.0133844529397007
-0.21488565285088487	0.04272031790915768	0.9186028333341189
-0.29828131785435624	0.041221476761592366	0.8306911262425423
-0.365686872269678	0.026395558714513476	0.7403407521167903
-0.4117713845880522	5.0427450811623194e-17	0.6497733955590599
-0.5171351218667859	0.19256695506126734	1.164996078170504
-0.4237990001948679	0.1398650488044647	1.211518371302934
-0.31329568315980194	0.08919547361400208	1.232575287487146
-0.19544082993672596	0.04613733048031812	1.2112596438047207
-0.11102580717349893	0.020401353314719907	1.121850963425468
-0.14267790721250354	0.018166040452017525	1.00204762149568
-0.22627877718661057	0.014995104130049862	0.9108157861875407
-0.3051254075638881	3.736708537116472e-17	0.8258991960971106
-0.365686872269678	-0.026395558714513476	0.7403407521167903
-0.5304890108220521	0.14109972993086425	1.1666372053676242
-0.4300640249686914	0.09462177829520649	1.2133510927440805
-0.3130127914618902	0.05346895645557683	1.2327108114640244
-0.19143466837261197	0.02259579604848378	1.2076199249145994
-0.11086579972186421	0.006790651387389584	1.114321067187457
-0.1466633987288727	1.79610861805386e-17	0.9982086046239268
-0.22627877718661057	-0.014995104130049862	0.9108157861875407
-0.29828131785435624	-0.041221476761592366	0.8306911262425423
-0.5400095194295023	0.08617917256853154	1.1678099820670929
-0.4339137533956913	0.04773439877738978	1.214488034878669
-0.3127148785344512	0.017806023553763074	1.2327096444618995
-0.1900144627496949	2.3270060359811787e-17	1.2062831704557617
-0.11086579972186421	-0.006790651387389584	1.114321067187457
-0.14267790721250354	-0.018166040452017525	1.00204762149568
-0.21488565285088487	-0.04272031790915768	0.9186028333341189
-0.5449727343908545	0.028990403357676157	1.168422337541689
-0.43521133640150067	5.329801700767398e-17	1.2148732552912833
-0.3127148785344512	-0.017806023553763074	1.2327096444618995
-0.19143466837261197	-0.02259579604848378	1.2076199249145994
-0.11102580717349893	-0.020401353314719907	1.121850963425468
-0.13180732482759347	-0.0335639428606996	1.0133844529397007
-0.5449727343908545	-0.028990403357676157	1.168422337541689
-0.4339137533956913	-0.04773439877738978	1.214488034878669
-0.3130127914618902	-0.05346895645557683	1.2327108114640244
-0.19544082993672596	-0.04613733048031812	1.2112596438047207
-0.11260463071293023	-0.034485782190164994	1.1356456482201343
-0.5400095194295023	-0.08617917256853154	1.1678099820670929
-0.4300640249686914	-0.09462177829520649	1.2133510927440805
-0.31329568315980194	-0.08919547361400208	1.232575287487146
-0.2013146149470414	-0.07128591252511281	1.2162683111878096
-0.5304890108220521	-0.14109972993086425	1.1666372053676242
-0.4237990001948679	-0.1398650488044647	1.211518371302934
-0.3130775413575359	-0.12478672030585339	1.232100375825392
-0.5171351218667859	-0.19256695506126734	1.164996078170504
-0.41536123247338047	-0.1827738030336804	1.2090802579100948
-0.5008478921142404	-0.2397883402589864	1.1630005874114338
-0.6130098737473653	0.3587070210402956	1.0355187378985597
-0.6791191565892686	0.37354593611375914	0.9504496014739364
-0.738521038244028	0.3784633946288809	0.8495621491943111
-0.7871363315163735	0.37163542238907366	0.7352334345054584
-0.8212583845049665	0.35212083132054267	0.6115172387920725
-0.8383018120080777	0.32020284187112674	0.4837814454538912
-0.8373911285688009	0.27746249534668493	0.35791219525930323
-0.8195352692489548	0.22651393458339014	0.2393213155670552
-0.7873111224670958	0.1704861770606256	0.13210803975194593
-0.7442092421826585	0.11245177214658064	0.03865195156838322
-0.6939155388643804	0.05499400829412663	-0.040321028012483114
-0.6432560608979085	-0.3079683585232312	1.032209954684062
-0.7138787468392837	-0.31413218967924716	0.9428529157139444
-0.7758748563368771	-0.30924887895259945	0.837218534457639
-0.8246115721025987	-0.2919966263331916	0.7184608828454245
-0.8562083542015195	-0.2622184773880947	0.5915208929358379
-0.868407100202607	-0.22113464732822088	0.46251359078384086
-0.8611019025878086	-0.17119126634414686	0.3376903200953974
-0.8362815137301683	-0.11557129770094976	0.22233970761297916
-0.7974254614318408	-0.05755878097847006	0.12004032435117465
-0.7486462876024771	9.168272798059224e-17	0.03246793921253136
-0.6708120256074123	-0.24979202480657675	1.0292002184249764
-0.744615447317086	-0.24574309007731285	0.9361503374754501
-0.8074949471382397	-0.2298943079090282	0.8267939426368699
-0.854459444331796	-0.20171055238523136	0.7051299257976731
-0.881775287907014	-0.16202907820042226	0.5769166103138076
-0.8878599257735661	-0.11304412604893062	0.44878559413001023
-0.8736172433847151	-0.05789310733086316	0.327021541286284
-0.8420593614497613	1.0312253016915145e-16	0.21648078742339594
-0.7974254614318408	0.05755878097847006	0.12004032435117465
-0.6938617288830039	-0.18455368642423273	1.0266860312672812
-0.7689615799181776	-0.16918530243920415	0.9308509381812188
-0.8306115539998645	-0.1418853613135008	0.8191864569534864
-0.8737966295868964	-0.10313769495276426	0.6965060190879185
-0.8953256007412671	-0.05483967145947599	0.5691841239314226
-0.8945973987209955	1.0955658408692158e-16	0.4440334219040001
-0.8736172433847151	0.05789310733086316	0.327021541286284
-0.8362815137301683	0.11557129770094976	0.22233970761297916
-0.7105556508564599	-0.11339633071542231	1.0248669000213833
-0.7846719996183485	-0.08632094706866238	0.9274356506805249
-0.8428588743535996	-0.04799248772419707	0.8151604881104703
-0.8805035898737258	1.0783059029766123e-16	0.6935170852912885
-0.8953256007412671	0.05483967145947599	0.5691841239314226
-0.8878599257735661	0.11304412604893062	0.44878559413001023
-0.8611019025878086	0.17119126634414686	0.3376903200953974
-0.7193470907423261	-0.03826643242638686	1.0239095559524973
-0.7901096626460342	9.67605269334861e-17	0.9262544313167574
-0.8428588743535996	0.04799248772419707	0.8151604881104703
-0.8737966295868964	0.10313769495276426	0.6965060190879185
-0.881775287907014	0.16202907820042226	0.5769166103138076
-0.868407100202607	0.22113464732822088	0.46251359078384086
-0.7193470907423261	0.03826643242638686	1.0239095559524973
-0.7846719996183485	0.08632094706866238	0.9274356506805249
-0.8306115539998645	0.1418853613135008	0.8191864569534864
-0.854459444331796	0.20171055238523136	0.7051299257976731
-0.8562083542015195	0.2622184773880947	0.5915208929358379
-0.7105556508564599	0.11339633071542231	1.0248669000213833
-0.7689615799181776	0.16918530243920415	0.9308509381812188
-0.8074949471382397	0.2298943079090282	0.8267939426368699
-0.8246115721025987	0.2919966263331916	0.7184608828454245
-0.6938617288830039	0.18455368642423273	1.0266860312672812
-0.744615447317086	0.24574309007731285	0.9361503374754501
-0.7758748563368771	0.30924887895259945	0.837218534457639
-0.6708120256074123	0.24979202480657675	1.0292002184249764