# TIME = 0.000000
VARIABLES = X, Y, Z, U, V, W
ZONE N=5762 E=11520 F=FEPOINT ET=TRIANGLE
0.394231406788005	0.24364840433819943	1.0331012159198893
-0.394231406788005	0.2436484043381994	1.0331012159198893
0.394231406788005	-0.24364840433819943	1.0331012159198893
-0.394231406788005	-0.2436484043381994	1.0331012159198893
0.4255103752490269	0.	0.40366962948814833
0.5719563103983285	0.	-0.008829325222151957
-0.4255103752490269	5.2109991905270996e-17	0.40366962948814833
-0.5719563103983285	7.004444647814431e-17	-0.008829325222151957
1.147495675441834e-17	0.1874002653239718	0.8649100183198135
1.147495675441834e-17	-0.1874002653239718	0.8649100183198135
4.6393148381609384e-17	0.7576576105683711	0.4870300858222031
4.6393148381609384e-17	-0.7576576105683711	0.4870300858222031
0.3655300865644036	0.21999841377650567	1.0540045321688978
0.3335679424951615	0.1951896016606043	1.0725876629516276
0.29828594471016834	0.16939486055270417	1.088037802259988
0.25974717369239436	0.1428725686368092	1.0993365309827487
0.21821837311583653	0.11600007281629197	1.1051601833663482
0.17435207182904972	0.08934866251317672	1.1036702971721795
0.12969587314631265	0.06389593117400076	1.0920476202932086
0.0885057014649558	0.04178672093031576	1.0656005621194438
0.06392421690488964	0.028820218043436163	1.0193450169265803
0.07454384120379194	0.03196124205722241	0.9659045185921047
0.1085095818974502	0.04403462473192049	0.9230819330958612
0.14951270736813402	0.05710876955064415	0.8867670192983254
0.1918337575994855	0.06851567445467444	0.8516488051050998
0.23312748442284695	0.0772448174427144	0.8153032251495057
0.2719923943975516	0.08280582347833357	0.7768615636265779
0.3074281060097984	0.0849710533068302	0.7362606658364617
0.338707139352436	0.08370155339400348	0.6938815645704376
0.3653417958872145	0.0791119933278024	0.6503463926311003
0.3870693810328319	0.07144091211016898	0.6063841741265192
0.40383171204070667	0.061019893631067426	0.5627386382904536
0.41574751767379264	0.04824158855951043	0.5201023136162272
0.42307747505329735	0.033529550525848446	0.47907577945729857
0.42618711939653464	0.017311989380787825	0.44014393263897456
0.3731389340940893	-0.20504939249429704	1.0544478400728559
0.33959099159265405	-0.18064912443594647	1.0733342951850167
0.3025446802854441	-0.1554501987178224	1.088895973726027
0.26209676242867	-0.1297484449875059	1.1000487400517391
0.21857924779909804	-0.10396115730149104	1.105378200319697
0.17277478592096396	-0.07870255400266192	1.1029021871684928
0.1265432247138883	-0.05500831331646045	1.089535587043536
0.08513525786098713	-0.03517099008710151	1.0601448124745938
0.06440104571356013	-0.02516383306852845	1.0107044976814927
0.08078423231604391	-0.029688741607942562	0.9580033877711859
0.11760971822317957	-0.04038487304732737	0.9164851424249308
0.16001710379849704	-0.050934250124123163	0.8804740297500208
0.20303207977579266	-0.05933068380149731	0.8451517415972056
0.24448502311918588	-0.06480644901241386	0.8084526176268407
0.2830378877305676	-0.06701999906202287	0.769718672741454
0.31774485750950276	-0.06586687464279835	0.7290186939836723
0.3479451980453817	-0.06141746909418215	0.6868146167671796
0.3732313800616588	-0.053880263542335174	0.6437684467576554
0.39342751110975843	-0.04356869111180634	0.6006157957583694
0.4085620820177263	-0.03086733623275957	0.5580791275593842
0.4188330373450572	-0.016199876550271265	0.5168104090007527
0.42456854000690686	0.	0.4773567796754384
0.3804965023899578	-0.18917896181569102	1.054876795363577
0.345341849834133	-0.16533751716449246	1.0740487664236749
0.30652678937776223	-0.1409177160993619	1.0897023675605821
0.2641899833549763	-0.11625303720670636	1.100690938204297
0.2187382681324126	-0.09179717416136426	1.1055146171227448
0.17109819999834977	-0.06819647711753622	1.102054462965587
0.12347350384537589	-0.04651737510937473	1.086968949200974
0.08222037544805469	-0.02911439822290464	1.0547462012941127
0.06570896911753975	-0.02172490476071128	1.0028271905699155
0.0869558666977136	-0.026630712688933484	0.9512630953212365
0.12593059986863805	-0.035379896436886486	0.9108380855119314
0.16927824845370126	-0.04310569759138647	0.8750908041516952
0.21258395318731924	-0.04831708317047761	0.8396821964501094
0.2538217366603691	-0.05046099626703658	0.8028494954613096
0.29172315220368256	-0.0493404064212444	0.7641097976511603
0.3254108761726317	-0.044970666109590544	0.7236361434633797
0.3543041422355448	-0.037523956056232315	0.6819460928639232
0.3780840138635984	-0.027290413972696163	0.6397187767031395
0.3966642610221306	-0.01464236037063966	0.5976768647345135
0.41015715402182207	0.	0.5565070982231901
0.4188330373450572	0.016199876550271265	0.5168104090007527
0.38751471150900424	-0.17238750814507708	1.0552863835722122
0.3507518738973945	-0.14926904346023254	1.0747224227079182
0.31019036644971837	-0.12582525285222512	1.0904477352040542
0.26601845306426825	-0.10242544351413128	1.1012588513500523
0.21872723989975446	-0.07955354706471036	1.1055790395574805
0.1693973036972244	-0.05787303556176267	1.1011659727417726
0.12059509789328178	-0.03844328114219495	1.0844450380878712
0.07983533168730796	-0.02355820296364073	1.049624674250212
0.06755538680676794	-0.018274395829931938	0.9959800123489092
0.09265248863620526	-0.022700267775157674	0.9457051508247915
0.13311168180570454	-0.02908687360775933	0.906202339672298
0.17693204249756342	-0.03379100419128446	0.870739736090859
0.22012122712215354	-0.03573584825367002	0.8354061309812991
0.2607787701711563	-0.034562735340993	0.7986885217290975
0.29771528985622153	-0.03021230577648841	0.7602431599311261
0.3301347426016388	-0.022811741688328408	0.720318579827205
0.3575458042753613	-0.012622447644451185	0.6794629373355975
0.3797218499396569	0.	0.638351353404018
0.3966642610221306	0.01464236037063966	0.5976768647345135
0.4085620820177263	0.03086733623275957	0.5580791275593842
0.39409977040897703	-0.15469137379509254	1.055670965990527
0.35575027107949103	-0.1324716454759412	1.075346107761125
0.31349461387595223	-0.11021015004556245	1.0911231662721352
0.26757938973053297	-0.08830836899707796	1.1017496901966337
0.21858656790255301	-0.06727124167717712	1.1055849117036165
0.16775543961816325	-0.0477600874246493	1.1002835469251395
0.11801441268630176	-0.030780498673822335	1.0820766638878496
0.07800296983212608	-0.018414001509483385	1.0450167445237195
0.06959179334861167	-0.014641872590614205	0.9903497389334948
0.09750909948315417	-0.017917619182280305	0.9413488918104347
0.1388253589079458	-0.021668145100764417	0.9026461741474257
0.18265706215512476	-0.023256272778875188	0.8675354926170976
0.22533440073734826	-0.021949324039069754	0.8324667381032116
0.2650738960907844	-0.017566000197836235	0.796124865403761
0.3007742347090552	-0.010174241282990435	0.7582700588244654
0.33173060276592636	0.	0.7191976813977013
0.3575458042753613	0.012622447644451185	0.6794629373355975
0.3780840138635984	0.027290413972696163	0.6397187767031395
0.39342751110975843	0.04356869111180634	0.6006157957583694
0.40015357407137914	-0.1361252263185881	1.0560248085744235
0.36026556497860523	-0.114988319365693	1.0759105734834873
0.3164022142541071	-0.09411967695840016	1.0917199863104425
0.26887544860339235	-0.0739467683368352	1.1021621745210253
0.2183629125364684	-0.05498378504588999	1.1055487844531309
0.16625895404756347	-0.037867224729471315	1.099459327531906
0.11582806964663206	-0.02349686912120137	1.0799846943383022
0.07669475163033791	-0.013578883138304606	1.0411533230282306
0.07147342141794003	-0.010741259075080832	0.9860537609058162
0.10121715438201094	-0.012399320566974925	0.9382156842691266
0.14279928183470017	-0.013373033782229374	0.9002334971138615
0.18620051536857202	-0.01185370840589954	0.8655717349250752
0.2279997953890282	-0.007402981460577001	0.8309691331136142
0.2665262410805497	0.	0.7952588715115491
0.3007742347090552	0.010174241282990435	0.7582700588244654
0.3301347426016388	0.022811741688328408	0.720318579827205
0.3543041422355448	0.037523956056232315	0.6819460928639232
0.3732313800616588	0.053880263542335174	0.6437684467576554
0.40557716603777333	-0.1167440707607523	1.056342018865263
0.3642278712323301	-0.09687749586316524	1.0764068482202742
0.3188791642488468	-0.07760984460759637	1.0922304056168595
0.2699137920500513	-0.05938586846710798	1.1024964052568478
0.21810547381601605	-0.04271475419754767	1.10548903864349
0.16499148222175347	-0.028183912484675108	1.0987468753773721
0.11411725224208527	-0.01653558203318053	1.078288033101723
0.07584492161947542	-0.008952275153574189	1.0382365279118368
0.0729059814386629	-0.006573928951648541	0.9831603727963273
0.10354107037965131	-0.006342007807475535	0.9363257983669812
0.14483758629681406	-0.004521315678214135	0.899013679082547
0.1874002653239718	0.	0.8649100183198135
0.2279997953890282	0.007402981460577001	0.8309691331136142
0.2650738960907844	0.017566000197836235	0.796124865403761
0.29771528985622153	0.03021230577648841	0.7602431599311261
0.3254108761726317	0.044970666109590544	0.7236361434633797
0.3479451980453817	0.06141746909418215	0.6868146167671796
0.41027418606663546	-0.09662404834475617	1.0566168995565148
0.36757202524227667	-0.07821359159396155	1.0768263159256475
0.32089635277640916	-0.06074506447343539	1.0926475291241204
0.27070459878438424	-0.04466988111898086	1.1027535319606314
0.21786222440786301	-0.030476513901727745	1.1054241048385602
0.16402685238121328	-0.018679415869865892	1.09819602985535
0.1129431549313106	-0.009819272284514107	1.0770910334293786
0.07537621645334969	-0.004448480283889153	1.036421898811992
0.0736774895516929	-0.002214499737160161	0.9817059252664696
0.10433261761145647	0.	0.9356940040142172
0.14483758629681406	0.004521315678214135	0.899013679082547
0.18620051536857202	0.01185370840589954	0.8655717349250752
0.22533440073734826	0.021949324039069754	0.8324667381032116
0.2607787701711563	0.034562735340993	0.7986885217290975
0.29172315220368256	0.0493404064212444	0.7641097976511603
0.31774485750950276	0.06586687464279835	0.7290186939836723
0.4141550786165377	-0.07586295431942651	1.0568440840497764
0.3702395465840053	-0.059085873892767385	1.077161399931699
0.32243024930656444	-0.04359673272620687	1.0929655676636092
0.2712589693361041	-0.02984092558487177	1.102935298613106
0.21767419347188244	-0.018270116522568207	1.1053703751937305
0.16342329587427315	-0.009305348460454147	1.0978476001245605
0.112346173484825	-0.003255792121071475	1.0764716678173338
0.0752276274283669	0.	1.0358060752672917
0.0736774895516929	0.002214499737160161	0.9817059252664696
0.10354107037965131	0.006342007807475535	0.9363257983669812
0.14279928183470017	0.013373033782229374	0.9002334971138615
0.18265706215512476	0.023256272778875188	0.8675354926170976
0.22012122712215354	0.03573584825367002	0.8354061309812991
0.2538217366603691	0.05046099626703658	0.8028494954613096
0.2830378877305676	0.06701999906202287	0.769718672741454
0.41714106217736624	-0.054578511985986525	1.0570190343176709
0.37218205000452387	-0.03959726140635629	1.0774055934805071
0.3234628972742131	-0.02624182761418085	1.0931800934094402
0.27158694834368463	-0.014938493925583161	1.1030434783005156
0.2175721645006548	-0.0060871966643530305	1.105340198930137
0.16321787534349996	0.	1.0977283490141494
0.112346173484825	0.003255792121071475	1.0764716678173338
0.07537621645334969	0.004448480283889153	1.036421898811992
0.0729059814386629	0.006573928951648541	0.9831603727963273
0.10121715438201094	0.012399320566974925	0.9382156842691266
0.1388253589079458	0.021668145100764417	0.9026461741474257
0.17693204249756342	0.03379100419128446	0.870739736090859
0.21258395318731924	0.04831708317047761	0.8396821964501094
0.24448502311918588	0.06480644901241386	0.8084526176268407
0.41916907042632656	-0.032906286685900676	1.0571378558805469
0.3733626640420166	-0.019861436361315002	1.0775541583937942
0.3239821623370658	-0.008761315197223497	1.0932881320627916
0.27169541329420205	0.	1.1030793828825267
0.2175721645006548	0.0060871966643530305	1.105340198930137
0.16342329587427315	0.009305348460454147	1.0978476001245605
0.1129431549313106	0.009819272284514107	1.0770910334293786
0.07584492161947542	0.008952275153574189	1.0382365279118368
0.07147342141794003	0.010741259075080832	0.9860537609058162
0.09750909948315417	0.017917619182280305	0.9413488918104347
0.13311168180570454	0.02908687360775933	0.906202339672298
0.16927824845370126	0.04310569759138647	0.8750908041516952
0.20303207977579266	0.05933068380149731	0.8451517415972056
0.42019453693802394	-0.01099559481151257	1.0571979522498531
0.37375881668644473	0.	1.0776040061883512
0.3239821623370658	0.008761315197223497	1.0932881320627916
0.27158694834368463	0.014938493925583161	1.1030434783005156
0.21767419347188244	0.018270116522568207	1.1053703751937305
0.16402685238121328	0.018679415869865892	1.09819602985535
0.11411725224208527	0.01653558203318053	1.078288033101723
0.07669475163033791	0.013578883138304606	1.0411533230282306
0.06959179334861167	0.014641872590614205	0.9903497389334948
0.09265248863620526	0.022700267775157674	0.9457051508247915
0.12593059986863805	0.035379896436886486	0.9108380855119314
0.16001710379849704	0.050934250124123163	0.8804740297500208
0.42019453693802394	0.01099559481151257	1.0571979522498531
0.3733626640420166	0.019861436361315002	1.0775541583937942
0.3234628972742131	0.02624182761418085	1.0931800934094402
0.2712589693361041	0.02984092558487177	1.102935298613106
0.21786222440786301	0.030476513901727745	1.1054241048385602
0.16499148222175347	0.028183912484675108	1.0987468753773721
0.11582806964663206	0.02349686912120137	1.0799846943383022
0.07800296983212608	0.018414001509483385	1.0450167445237195
0.06755538680676794	0.018274395829931938	0.9959800123489092
0.0869558666977136	0.026630712688933484	0.9512630953212365
0.11760971822317957	0.04038487304732737	0.9164851424249308
0.41916907042632656	0.032906286685900676	1.0571378558805469
0.37218205000452387	0.03959726140635629	1.0774055934805071
0.32243024930656444	0.04359673272620687	1.0929655676636092
0.27070459878438424	0.04466988111898086	1.1027535319606314
0.21810547381601605	0.04271475419754767	1.10548903864349
0.16625895404756347	0.037867224729471315	1.099459327531906
0.11801441268630176	0.030780498673822335	1.0820766638878496
0.07983533168730796	0.02355820296364073	1.049624674250212
0.06570896911753975	0.02172490476071128	1.0028271905699155
0.08078423231604391	0.029688741607942562	0.9580033877711859
0.41714106217736624	0.054578511985986525	1.0570190343176709
0.3702395465840053	0.059085873892767385	1.077161399931699
0.32089635277640916	0.06074506447343539	1.0926475291241204
0.2699137920500513	0.05938586846710798	1.1024964052568478
0.2183629125364684	0.05498378504588999	1.1055487844531309
0.16775543961816325	0.0477600874246493	1.1002835469251395
0.12059509789328178	0.03844328114219495	1.0844450380878712
0.08222037544805469	0.02911439822290464	1.0547462012941127
0.06440104571356013	0.02516383306852845	1.0107044976814927
0.4141550786165377	0.07586295431942651	1.0568440840497764
0.36757202524227667	0.07821359159396155	1.0768263159256475
0.3188791642488468	0.07760984460759637	1.0922304056168595
0.26887544860339235	0.0739467683368352	1.1021621745210253
0.21858656790255301	0.06727124167717712	1.1055849117036165
0.1693973036972244	0.05787303556176267	1.1011659727417726
0.12347350384537589	0.04651737510937473	1.086968949200974
0.08513525786098713	0.03517099008710151	1.0601448124745938
0.41027418606663546	0.09662404834475617	1.0566168995565148
0.3642278712323301	0.09687749586316524	1.0764068482202742
0.3164022142541071	0.09411967695840016	1.0917199863104425
0.26757938973053297	0.08830836899707796	1.1017496901966337
0.21872723989975446	0.07955354706471036	1.1055790395574805
0.17109819999834977	0.06819647711753622	1.102054462965587
0.1265432247138883	0.05500831331646045	1.089535587043536
0.40557716603777333	0.1167440707607523	1.056342018865263
0.36026556497860523	0.114988319365693	1.0759105734834873
0.31349461387595223	0.11021015004556245	1.0911231662721352
0.26601845306426825	0.10242544351413128	1.1012588513500523
0.2187382681324126	0.09179717416136426	1.1055146171227448
0.17277478592096396	0.07870255400266192	1.1029021871684928
0.40015357407137914	0.1361252263185881	1.0560248085744235
0.35575027107949103	0.1324716454759412	1.075346107761125
0.31019036644971837	0.12582525285222512	1.0904477352040542
0.2641899833549763	0.11625303720670636	1.100690938204297
0.21857924779909804	0.10396115730149104	1.105378200319697
0.39409977040897703	0.15469137379509254	1.055670965990527
0.3507518738973945	0.14926904346023254	1.0747224227079182
0.30652678937776223	0.1409177160993619	1.0897023675605821
0.26209676242867	0.1297484449875059	1.1000487400517391
0.38751471150900424	0.17238750814507708	1.0552863835722122
0.345341849834133	0.16533751716449246	1.0740487664236749
0.3025446802854441	0.1554501987178224	1.088895973726027
0.3804965023899578	0.18917896181569102	1.054876795363577
0.33959099159265405	0.18064912443594647	1.0733342951850167
0.3731389340940893	0.20504939249429704	1.0544478400728559
0.4032324484515207	0.22844373388296724	1.0331012159198893
0.4120130834559468	0.21219841209519738	1.0331012159198893
0.4204724137547803	0.19489970832669062	1.0331012159198893
0.4285001858372246	0.17655179911874083	1.0331012159198893
0.4359790015532683	0.1571790610711728	1.0331012159198893
0.44278753307302393	0.13682889895671124	1.0331012159198893
0.4488047387619435	0.11557358478226688	1.0331012159198893
0.453914673701637	0.09351158234644837	1.0331012159198893
0.4580120260364542	0.0707667368230482	1.0331012159198893
0.46100758199935626	0.0474863809287148	1.0331012159198893
0.4628333758828527	0.02383722306566254	1.0331012159198893
0.4634468114407523	0.	1.0331012159198893
0.4628333758828527	-0.02383722306566254	1.0331012159198893
0.46100758199935626	-0.0474863809287148	1.0331012159198893
0.4580120260364542	-0.0707667368230482	1.0331012159198893
0.453914673701637	-0.09351158234644837	1.0331012159198893
0.4488047387619435	-0.11557358478226688	1.0331012159198893
0.44278753307302393	-0.13682889895671124	1.0331012159198893
0.4359790015532683	-0.1571790610711728	1.0331012159198893
0.4285001858372246	-0.17655179911874083	1.0331012159198893
0.4204724137547803	-0.19489970832669062	1.0331012159198893
0.4120130834559468	-0.21219841209519738	1.0331012159198893
0.4032324484515207	-0.22844373388296724	1.0331012159198893
0.42714479187994847	-0.25708192053276385	1.0094159546174608
0.460225346510232	-0.2693040625771429	0.981950145408393
0.4931152280576191	-0.2800372822608151	0.9506281361592225
0.5254079640985005	-0.28899789108730234	0.9154359642658569
0.5566555037561416	-0.2959057848672779	0.8764356144373675
0.5863783889512885	-0.30049614111152545	0.8337787166523641
0.6140812941294004	-0.30253311191073184	0.7877160096276407
0.6392728561853298	-0.3018236791255694	0.7386016781980216
0.6614878433279958	-0.29823163741153214	0.6868917315014028
0.6803116334851134	-0.29168881615207154	0.6331335930749562
0.6954027323938263	-0.28220363421411204	0.5779495803479632
0.7065128562916557	-0.2698638838448792	0.5220123967999487
0.7135007157419134	-0.25483514150317227	0.4660161512563302
0.7163388951033047	-0.2373528257140483	0.410645265311276
0.7151124703012178	-0.2177100470550906	0.35654488186998684
0.7100100176238813	-0.19624197617760883	0.30429387364007265
0.701308303863947	-0.1733078155770619	0.2543845295516418
0.6893525852813743	-0.1492740708597145	0.20721061962438633
0.67453459234882	-0.1244980070463729	0.16306109522229198
0.6572711356468324	-0.09931516913634017	0.12212321727172831
0.6379840246456846	-0.07402897555878246	0.08448907131678844
0.6170839023872677	-0.048904862829615606	0.05016812511816545
0.5949568809089311	-0.024167523455205134	0.019100144541084562
0.4376021222360067	0.24047356391944427	1.0088438911667421
0.47208658421413047	0.2511315971494816	0.9806632928071575
0.506287306020757	0.2601350063566929	0.9484952812283884
0.5397544006570281	0.2672001497136845	0.9123449353870711
0.571995333866254	0.2720537172606827	0.8723020403716043
0.6024880376333738	0.27444599086055027	0.8285547464969132
0.6307000653750915	0.2741651865068793	0.7813978572958645
0.6561112208177233	0.27105199212641057	0.7312358349048685
0.6782394160140823	0.26501283101806805	0.6785775273790832
0.6966669690234345	0.2560297354712567	0.6240229907291076
0.7110649975522475	0.24416578908940884	0.5682417016920029
0.7212125744234192	0.22956559509165578	0.5119444436017176
0.7270091271527632	0.21244893265899537	0.45585104464137904
0.7284776488938405	0.19309996582779232	0.4006573443400584
0.7257594959068454	0.17185120029313267	0.34700431595740155
0.7191007581345524	0.14906588847051058	0.29545258830161564
0.7088328496120123	0.12511947248747113	0.2464651378563352
0.6953494527581953	0.10038173039587585	0.2003974645937076
0.6790822866076365	0.07520248469978794	0.1574960365346446
0.6604783146838554	0.04989989798639319	0.1179036510714628
0.6399799878275887	0.0247535315341174	0.0816702773486151
0.6180095182485928	0.	0.04876689285739391
0.447787634045152	0.22263542290264735	1.0082870419838914
0.48360343170161235	0.2315322939521415	0.9794150667578612
0.5190186921038693	0.238605339691922	0.9464362873557763
0.5535380325772619	0.24357652277099232	0.9093793533799519
0.5866241458415985	0.24618663822685366	0.8683660402970487
0.617714037273797	0.2462090262114372	0.8236248920422736
0.6462415627624517	0.24346487505477318	0.7754981726140608
0.6716636909154277	0.2378374467717219	0.7244422695709352
0.6934894499805266	0.22928364964050874	0.6710189074539394
0.7113080092545542	0.21784199211820798	0.6158775336478803
0.7248132974295858	0.203634537005992	0.5597298923698335
0.733822108496007	0.18686342860733235	0.5033168718881849
0.7382833561001815	0.16780052203018136	0.44737495859539117
0.7382771885284747	0.14677309731050459	0.3926005056015924
0.7340049619920554	0.12414545388777302	0.3396204072598993
0.7257711963257383	0.10029908811224877	0.2889684836492456
0.7139600011560057	0.07561470645035497	0.24107113726026697
0.6990090808746704	0.05045504831797982	0.19624094148809032
0.6813842021749674	0.025152437513270263	0.15467961542620384
0.6615558569865854	0.	0.11648621699383584
0.6399799878275887	-0.0247535315341174	0.0816702773486151
0.45757191766067296	0.20355274352172556	1.0077524648504586
0.49461526899307157	0.21049281152242436	0.9782226222967101
0.5311150137655991	0.21544086512274793	0.9444823112007751
0.5665298659679908	0.21813175784370817	0.9065878221646084
0.6002789900112839	0.21832819225308153	0.8646971852962044
0.6317617766321113	0.2158356182040672	0.8190828645106556
0.6603842347996739	0.2105171540450439	0.7701367849507648
0.6855887100015485	0.20230689393333845	0.7183674895589076
0.7068852799687287	0.1912194130343821	0.6643871948307712
0.7238809029152341	0.17735400932423073	0.6088903800769966
0.7363035262055323	0.16089322374386833	0.5526228179071787
0.7440174164533552	0.14209464426495946	0.4963470376796406
0.7470285523886045	0.12127725861942207	0.44080478394207656
0.7454789074766659	0.09880325060394225	0.38668271652271097
0.7396313597517533	0.0750581833183362	0.334584234437838
0.7298468639868803	0.05043116032593725	0.28500812253568775
0.7165577265618654	0.02529665368632992	0.23833881101192403
0.7002394592708556	0.	0.19484385951192007
0.6813842021749674	-0.025152437513270263	0.15467961542620384
0.6604783146838554	-0.04989989798639319	0.1179036510714628
0.46681384450451124	0.18323297889271406	1.0072477587090753
0.504947303206325	0.18802852892116084	0.9771047936395383
0.5423667708091369	0.19067097342302178	0.9426667514945494
0.5784859812086097	0.19091587561976336	0.904021920346261
0.6126836276417446	0.18855682113601638	0.8613684027863536
0.6443271951796049	0.183440389425829	0.815025199069195
0.6728030129758451	0.17548036529821617	0.7654345621337766
0.6975490063433097	0.1646689668789274	0.7131555480672483
0.7180877936237494	0.15108318778975624	0.6588469247045848
0.7340560129401493	0.1348852175647143	0.6032406688462494
0.7452262832783418	0.11631643790444578	0.5471080659404735
0.7515190661471757	0.09568495296393828	0.49122197569528636
0.7530029998039702	0.07334835156552057	0.4363185764834149
0.7498838883886421	0.04969354103158349	0.38306461482734677
0.7424845450366755	0.025115904350656422	0.3320311242814615
0.7312179429130835	0.	0.28367618563870994
0.7165577265618654	-0.02529665368632992	0.23833881101192403
0.6990090808746704	-0.05045504831797982	0.19624094148809032
0.6790822866076365	-0.07520248469978794	0.1574960365346446
0.4753634674404087	0.1617103126945248	1.0067810604995235
0.5144154225625307	0.16418933877227757	0.9760813056391584
0.552555772859233	0.16436791052683056	0.9410243380489294
0.5891560133972984	0.16203109455786038	0.9017344892819119
0.6235597439128169	0.15701235399507937	0.8584530189562286
0.655110628872296	0.14920833315886042	0.8115466513090028
0.6831855641858023	0.13859094635817995	0.7615071781648034
0.7072299472056719	0.12521577553706253	0.7089407233722944
0.7267915451422605	0.10922460580559018	0.6545458164986887
0.7415482666824833	0.09084126826741605	0.5990834482951204
0.7513271237901501	0.07036115923595188	0.5433395560044068
0.7561112988273165	0.04813479082463249	0.48808585986119274
0.7560348819117778	0.02454788261889707	0.4340425910720383
0.7513665382026875	0.	0.38184715121484436
0.7424845450366755	-0.025115904350656422	0.3320311242814615
0.7298468639868803	-0.05043116032593725	0.28500812253568775
0.7139600011560057	-0.07561470645035497	0.24107113726026697
0.6953494527581953	-0.10038173039587585	0.2003974645937076
0.48306678127078573	0.1390492049781548	1.0063607594669932
0.5228330355111501	0.13906337003669048	0.9751719571708773
0.5614641158861912	0.1366509564502735	0.9395895742822984
0.5982946034312445	0.1316355283443978	0.8997771832175222
0.6326408789014143	0.12389922712526649	0.8560209669358583
0.6638328787792428	0.11339620390110876	0.808735509244232
0.6912504187294796	0.100162138325272	0.7584590032668568
0.7143593567428292	0.0843186515793027	0.7058388426333181
0.7327448868967195	0.06607157233313453	0.6516055828156856
0.7461370270048195	0.045701737806654166	0.5965384301028299
0.7544247277612014	0.023550463915278465	0.541426767280446
0.7576576105683711	0.	0.4870300858222031
0.7560348819117778	-0.02454788261889707	0.4340425910720383
0.7498838883886421	-0.04969354103158349	0.38306461482734677
0.7396313597517533	-0.0750581833183362	0.334584234437838
0.7257711963257383	-0.10029908811224877	0.2889684836492456
0.7088328496120123	-0.12511947248747113	0.2464651378563352
0.4897718791138319	0.11534662265519867	1.0059950654259426
0.5300184860373678	0.11277966373216951	0.9743962476035851
0.5688843474314794	0.10768871650819806	0.9383952974300923
0.6056741974323027	0.09994434715046965	0.8981978424193101
0.6396874909766791	0.08948519994459617	0.8541352804780596
0.6702528255422077	0.07632854672574044	0.8066677334505857
0.6967659016265789	0.06057679290787771	0.7563755595364567
0.718726267681035	0.04241708833012456	0.7039398602186894
0.7357682975028316	0.022114742390721996	0.6501129480775736
0.7476825770631028	0.	0.5956814006277001
0.7544247277612014	-0.023550463915278465	0.541426767280446
0.7561112988273165	-0.04813479082463249	0.48808585986119274
0.7530029998039702	-0.07334835156552057	0.4363185764834149
0.7454789074766659	-0.09880325060394225	0.38668271652271097
0.7340049619920554	-0.12414545388777302	0.3396204072598993
0.7191007581345524	-0.14906588847051058	0.29545258830161564
0.49533557593427224	0.09073321108463643	1.0056917807761927
0.5358049720247161	0.08550816707795149	0.9737718196008929
0.5746310323072773	0.07769753484842985	0.9374709476023421
0.6110989156772587	0.06722637526918362	0.8970375370022433
0.6445030136118645	0.05409527408841027	0.8528472454281009
0.6741837616416574	0.03838813062050713	0.8054022399184878
0.6995666988718012	0.020273443017250974	0.7553179271697936
0.7201971709307787	0.	0.7033003646236791
0.7357682975028316	-0.022114742390721996	0.6501129480775736
0.7461370270048195	-0.045701737806654166	0.5965384301028299
0.7513271237901501	-0.07036115923595188	0.5433395560044068
0.7515190661471757	-0.09568495296393828	0.49122197569528636
0.7470285523886045	-0.12127725861942207	0.44080478394207656
0.7382771885284747	-0.14677309731050459	0.3926005056015924
0.7257594959068454	-0.17185120029313267	0.34700431595740155
0.49963144729131537	0.06537150956136309	1.005457579193112
0.5400495027015836	0.05745704643893331	0.9733139769748622
0.578552531186629	0.046936683981646445	0.9368404768350709
0.6144176109243904	0.03379571000941568	0.8963279747310677
0.6469471734930174	0.018100176948358967	0.8521937689367663
0.6755075571651122	0.	0.804976179786731
0.6995666988718012	-0.020273443017250974	0.7553179271697936
0.718726267681035	-0.04241708833012456	0.7039398602186894
0.7327448868967195	-0.06607157233313453	0.6516055828156856
0.7415482666824833	-0.09084126826741605	0.5990834482951204
0.7452262832783418	-0.11631643790444578	0.5471080659404735
0.7440174164533552	-0.14209464426495946	0.4963470376796406
0.7382833561001815	-0.16780052203018136	0.44737495859539117
0.7284776488938405	-0.19309996582779232	0.4006573443400584
0.5025563284574934	0.039452487759214436	1.0052981926463613
0.5426423430372549	0.028866454525770233	0.9730344242244076
0.5805412854502029	0.015699337118254112	0.9365207819978103
0.6155347603851292	0.	0.896089142103005
0.6469471734930174	-0.018100176948358967	0.8521937689367663
0.6741837616416574	-0.03838813062050713	0.8054022399184878
0.6967659016265789	-0.06057679290787771	0.7563755595364567
0.7143593567428292	-0.0843186515793027	0.7058388426333181
0.7267915451422605	-0.10922460580559018	0.6545458164986887
0.7340560129401493	-0.1348852175647143	0.6032406688462494
0.7363035262055323	-0.16089322374386833	0.5526228179071787