# TIME = 0.000000
VARIABLES = X, Y, Z
ZONE N=1002 E=2000 F=FEPOINT ET=TRIANGLE
1.1644361 0.6235318 0.3852773
-1.1644361 0.6235318 0.3852773
1.1644361 -0.6235318 0.3852773
-1.1644361 -0.6235318 0.3852773
0.7196611 0.0000000 0.7256918
0.7196611 0.0000000 0.1426059
-0.7196611 0.0000000 0.7256918
-0.7196611 0.0000000 0.1426059
0.0000000 1.0088956 0.7183598
0.0000000 -1.0088956 0.7183598
0.0000000 1.0088956 0.2352981
0.0000000 -1.0088956 0.2352981
1.1802132 0.5913705 0.4431608
1.1854255 0.5498194 0.5069511
1.1765970 0.4981088 0.5751720
1.1509717 0.4364816 0.6436217
1.1074445 0.3665028 0.7047821
1.0471886 0.2909877 0.7496876
0.9735634 0.2134752 0.7720335
0.8912794 0.1374549 0.7714762
0.8052498 0.0657078 0.7533822
1.2428247 -0.4843559 0.4462425
1.2454187 -0.4332339 0.5131771
1.2309709 -0.3722341 0.5840106
1.1968809 -0.3025945 0.6535330
1.1429196 -0.2269458 0.7133398
1.0716586 -0.1488937 0.7547362
0.9878916 -0.0722057 0.7731931
0.8973261 0.0000000 0.7705654
1.2969242 -0.3610283 0.4489066
1.2943148 -0.3001620 0.5182560
1.2717082 -0.2307316 0.5906194
1.2272117 -0.1551313 0.6600026
1.1619852 -0.0769105 0.7177949
1.0802046 0.0000000 0.7563878
0.9878916 0.0722057 0.7731931
1.3371791 -0.2233405 0.4508897
1.3265697 -0.1538211 0.5216084
1.2936544 -0.0782378 0.5941739
1.2378462 0.0000000 0.6622546
1.1619852 0.0769105 0.7177949
1.0716586 0.1488937 0.7547362
1.3587650 -0.0756486 0.4519534
1.3378693 0.0000000 0.5227832
1.2936544 0.0782378 0.5941739
1.2272117 0.1551313 0.6600026
1.1429196 0.2269458 0.7133398
1.3587650 0.0756486 0.4519534
1.3265697 0.1538211 0.5216084
1.2717082 0.2307316 0.5906194
1.1968809 0.3025945 0.6535330
1.3371791 0.2233405 0.4508897
1.2943148 0.3001620 0.5182560
1.2309709 0.3722341 0.5840106
1.2969242 0.3610283 0.4489066
1.2454187 0.4332339 0.5131771
1.2428247 0.4843559 0.4462425
1.2270837 0.5256626 0.3852773
1.2834742 0.4123646 0.3852773
1.3288722 0.2846336 0.3852773
1.3585378 0.1454939 0.3852773
1.3688767 0.0000000 0.3852773
1.3585378 -0.1454939 0.3852773
1.3288722 -0.2846336 0.3852773
1.2834742 -0.4123646 0.3852773
1.2270837 -0.5256626 0.3852773
1.1802132 -0.5913705 0.3597046
1.1854255 -0.5498194 0.3317814
1.1765970 -0.4981088 0.3021952
1.1509717 -0.4364816 0.2720282
1.1074445 -0.3665028 0.2426386
1.0471886 -0.2909877 0.2154037
0.9735634 -0.2134752 0.1914191
0.8912794 -0.1374549 0.1712939
0.8052498 -0.0657078 0.1551227
1.2428247 0.4843559 0.3583479
1.2454187 0.4332339 0.3290741
1.2309709 0.3722341 0.2983557
1.1968809 0.3025945 0.2675110
1.1429196 0.2269458 0.2380695
1.0716586 0.1488937 0.2114342
0.9878916 0.0722057 0.1885660
0.8973261 0.0000000 0.1698422
1.2969242 0.3610283 0.3571757
1.2943148 0.3001620 0.3268675
1.2717082 0.2307316 0.2954792
1.2272117 0.1551313 0.2645266
1.1619852 0.0769105 0.2356138
1.0802046 -0.0000000 0.2100479
0.9878916 -0.0722057 0.1885660
1.3371791 0.2233405 0.3563034
1.3265697 0.1538211 0.3254119
1.2936544 0.0782378 0.2939295
1.2378462 -0.0000000 0.2634803
1.1619852 -0.0769105 0.2356138
1.0716586 -0.1488937 0.2114342
1.3587650 0.0756486 0.3558357
1.3378693 -0.0000000 0.3249020
1.2936544 -0.0782378 0.2939295
1.2272117 -0.1551313 0.2645266
1.1429196 -0.2269458 0.2380695
1.3587650 -0.0756486 0.3558357
1.3265697 -0.1538211 0.3254119
1.2717082 -0.2307316 0.2954792
1.1968809 -0.3025945 0.2675110
1.3371791 -0.2233405 0.3563034
1.2943148 -0.3001620 0.3268675
1.2309709 -0.3722341 0.2983557
1.2969242 -0.3610283 0.3571757
1.2454187 -0.4332339 0.3290741
1.2428247 -0.4843559 0.3583479
1.1043753 0.6976880 0.4210136
1.0267794 0.7722261 0.4601944
0.9302105 0.8435189 0.5020155
0.8151227 0.9073096 0.5449653
0.6844384 0.9595168 0.5868473
0.5434151 0.9972297 0.6251919
0.3986616 1.0194321 0.6579727
0.2566948 1.0270814 0.6842022
0.1227084 1.0225653 0.7040263
0.7681079 0.1811514 0.7499693
0.7182057 0.3058681 0.7511218
0.6545737 0.4358193 0.7575277
0.5778291 0.5652567 0.7668386
0.4905178 0.6876588 0.7737120
0.3968010 0.7971918 0.7722651
0.3015180 0.8900241 0.7592649
0.2090794 0.9648557 0.7353943
0.8530486 0.2612425 0.7714202
0.7999306 0.3929172 0.7728106
0.7310974 0.5271527 0.7743432
0.6478009 0.6571468 0.7726973
0.5535618 0.7760405 0.7638328
0.4534929 0.8785895 0.7453402
0.3530234 0.9622297 0.7178171
0.9326303 0.3437980 0.7709449
0.8747267 0.4796194 0.7675520
0.7995224 0.6144878 0.7597785
0.7092227 0.7410792 0.7452196
0.6084233 0.8529510 0.7225656
0.5030092 0.9460855 0.6926233
1.0016470 0.4249965 0.7434718
0.9375063 0.5612704 0.7321721
0.8553307 0.6927256 0.7144307
0.7584585 0.8122782 0.6897937
0.6524018 0.9146046 0.6592913
1.0556083 0.5006451 0.6917186
0.9844497 0.6334405 0.6728860
0.8956819 0.7578844 0.6482780
0.7936745 0.8678512 0.6189587
1.0919426 0.5671385 0.6248334
1.0140408 0.6930792 0.6014098
0.9200941 0.8080535 0.5742784
1.1105758 0.6222708 0.5532285
1.0272382 0.7391020 0.5284573
1.1136065 0.6655073 0.4841912
1.1802132 0.5913705 0.3597046
1.1854255 0.5498194 0.3317814
1.1765970 0.4981088 0.3021952
1.1509717 0.4364816 0.2720282
1.1074445 0.3665028 0.2426386
1.0471886 0.2909877 0.2154037
0.9735634 0.2134752 0.1914191
0.8912794 0.1374549 0.1712939
0.8052498 0.0657078 0.1551227
0.6825415 0.1063175 0.1393179
0.6345846 0.2224066 0.1382317
0.5749017 0.3454101 0.1400716
0.5037735 0.4708280 0.1454120
0.4230062 0.5930140 0.1544831
0.3358490 0.7062420 0.1670406
0.2463864 0.8059569 0.1823843
0.1586461 0.8896265 0.1995325
0.0758379 0.9568575 0.2174612
1.1136065 0.6655073 0.3417046
1.0272382 0.7391020 0.3224402
0.9200941 0.8080535 0.3025830
0.7936745 0.8678512 0.2830522
0.6524018 0.9146046 0.2648563
0.5030092 0.9460855 0.2488625
0.3530234 0.9622297 0.2356014
0.2090794 0.9648557 0.2252017
1.1105758 0.6222708 0.3117063
1.0140408 0.6930792 0.2907683
0.8956819 0.7578844 0.2699136
0.7584585 0.8122782 0.2502740
0.6084233 0.8529510 0.2329148
0.4534929 0.8785895 0.2185698
0.3015180 0.8900241 0.2074998
1.0919426 0.5671385 0.2804489
0.9844497 0.6334405 0.2584804
0.8553307 0.6927256 0.2374735
0.7092227 0.7410792 0.2186548
0.5535618 0.7760405 0.2029821
0.3968010 0.7971918 0.1909148
1.0556083 0.5006451 0.2493151
0.9375063 0.5612704 0.2272127
0.7995224 0.6144878 0.2070243
0.6478009 0.6571468 0.1898987
0.4905178 0.6876588 0.1765316
1.0016470 0.4249965 0.2198736
0.8747267 0.4796194 0.1986150
0.7310974 0.5271527 0.1801155
0.5778291 0.5652567 0.1652859
0.9326303 0.3437980 0.1935274
0.7999306 0.3929172 0.1739487
0.6545737 0.4358193 0.1577138
0.8530486 0.2612425 0.1711983
0.7182057 0.3058681 0.1538306
0.7681079 0.1811514 0.1531989
1.1043753 0.6976880 0.3694725
1.0267794 0.7722261 0.3522150
0.9302105 0.8435189 0.3339297
0.8151227 0.9073096 0.3152855
0.6844384 0.9595168 0.2971218
0.5434151 0.9972297 0.2802896
0.3986616 1.0194321 0.2654663
0.2566948 1.0270814 0.2530283
0.1227084 1.0225653 0.2430340
0.1292182 1.0768134 0.6507747
0.1348430 1.1236865 0.5838202
0.1390283 1.1585643 0.5074674
0.1412726 1.1772669 0.4264290
0.1412726 1.1772669 0.3670814
0.1390283 1.1585643 0.3315568
0.1348430 1.1236865 0.2984385
0.1292182 1.0768134 0.2687744
0.2696859 1.0790609 0.6234325
0.2802740 1.1214257 0.5500598
0.2872585 1.1493721 0.4691690
0.2897054 1.1591624 0.3852773
0.2872585 1.1493721 0.3482784
0.2802740 1.1214257 0.3130788
0.2696859 1.0790609 0.2810708
0.4170849 1.0665430 0.5900135
0.4308878 1.1018388 0.5115553
0.4383238 1.1208535 0.4278401
0.4383238 1.1208535 0.3664586
0.4308878 1.1018388 0.3297790
0.4170849 1.0665430 0.2957432
0.5650905 1.0370066 0.5514106
0.5794108 1.0632859 0.4698881
0.5844317 1.0724999 0.3852773
0.5794108 1.0632859 0.3479633
0.5650905 1.0370066 0.3124937
0.7063632 0.9902532 0.5094611
0.7181463 1.0067721 0.4271167
0.7181463 1.0067721 0.3667779
0.7063632 0.9902532 0.3306896
0.8341699 0.9285110 0.4664653
0.8408220 0.9359154 0.3852773
0.8341699 0.9285110 0.3494636
0.9439007 0.8559332 0.4245530
0.9439007 0.8559332 0.3679095
1.0337453 0.7774650 0.3852773
-1.2270837 0.5256626 0.3852773
-1.2834742 0.4123646 0.3852773
-1.3288722 0.2846336 0.3852773
-1.3585378 0.1454939 0.3852773
-1.3688767 0.0000000 0.3852773
-1.3585378 -0.1454939 0.3852773
-1.3288722 -0.2846336 0.3852773
-1.2834742 -0.4123646 0.3852773
-1.2270837 -0.5256626 0.3852773
-1.1802132 -0.5913705 0.4431608
-1.1854255 -0.5498194 0.5069511
-1.1765970 -0.4981088 0.5751720
-1.1509717 -0.4364816 0.6436217
-1.1074445 -0.3665028 0.7047821
-1.0471886 -0.2909877 0.7496876
-0.9735634 -0.2134752 0.7720335
-0.8912794 -0.1374549 0.7714762
-0.8052498 -0.0657078 0.7533822
-1.2428247 0.4843559 0.4462425
-1.2454187 0.4332339 0.5131771
-1.2309709 0.3722341 0.5840106
-1.1968809 0.3025945 0.6535330
-1.1429196 0.2269458 0.7133398
-1.0716586 0.1488937 0.7547362
-0.9878916 0.0722057 0.7731931
-0.8973261 0.0000000 0.7705654
-1.2969242 0.3610283 0.4489066
-1.2943148 0.3001620 0.5182560
-1.2717082 0.2307316 0.5906194
-1.2272117 0.1551313 0.6600026
-1.1619852 0.0769105 0.7177949
-1.0802046 -0.0000000 0.7563878
-0.9878916 -0.0722057 0.7731931
-1.3371791 0.2233405 0.4508897
-1.3265697 0.1538211 0.5216084
-1.2936544 0.0782378 0.5941739
-1.2378462 -0.0000000 0.6622546
-1.1619852 -0.0769105 0.7177949
-1.0716586 -0.1488937 0.7547362
-1.3587650 0.0756486 0.4519534
-1.3378693 -0.0000000 0.5227832
-1.2936544 -0.0782378 0.5941739
-1.2272117 -0.1551313 0.6600026
-1.1429196 -0.2269458 0.7133398
-1.3587650 -0.0756486 0.4519534
-1.3265697 -0.1538211 0.5216084
-1.2717082 -0.2307316 0.5906194
-1.1968809 -0.3025945 0.6535330
-1.3371791 -0.2233405 0.4508897
-1.2943148 -0.3001620 0.5182560
-1.2309709 -0.3722341 0.5840106
-1.2969242 -0.3610283 0.4489066
-1.2454187 -0.4332339 0.5131771
-1.2428247 -0.4843559 0.4462425
-1.1802132 0.5913705 0.3597046
-1.1854255 0.5498194 0.3317814
-1.1765970 0.4981088 0.3021952
-1.1509717 0.4364816 0.2720282
-1.1074445 0.3665028 0.2426386
-1.0471886 0.2909877 0.2154037
-0.9735634 0.2134752 0.1914191
-0.8912794 0.1374549 0.1712939
-0.8052498 0.0657078 0.1551227
-1.2428247 -0.4843559 0.3583479
-1.2454187 -0.4332339 0.3290741
-1.2309709 -0.3722341 0.2983557
-1.1968809 -0.3025945 0.2675110
-1.1429196 -0.2269458 0.2380695
-1.0716586 -0.1488937 0.2114342
-0.9878916 -0.0722057 0.1885660
-0.8973261 0.0000000 0.1698422
-1.2969242 -0.3610283 0.3571757
-1.2943148 -0.3001620 0.3268675
-1.2717082 -0.2307316 0.2954792
-1.2272117 -0.1551313 0.2645266
-1.1619852 -0.0769105 0.2356138
-1.0802046 0.0000000 0.2100479
-0.9878916 0.0722057 0.1885660
-1.3371791 -0.2233405 0.3563034
-1.3265697 -0.1538211 0.3254119
-1.2936544 -0.0782378 0.2939295
-1.2378462 0.0000000 0.2634803
-1.1619852 0.0769105 0.2356138
-1.0716586 0.1488937 0.2114342
-1.3587650 -0.0756486 0.3558357
-1.3378693 0.0000000 0.3249020
-1.2936544 0.0782378 0.2939295
-1.2272117 0.1551313 0.2645266
-1.1429196 0.2269458 0.2380695
-1.3587650 0.0756486 0.3558357
-1.3265697 0.1538211 0.3254119
-1.2717082 0.2307316 0.2954792
-1.1968809 0.3025945 0.2675110
-1.3371791 0.2233405 0.3563034
-1.2943148 0.3001620 0.3268675
-1.2309709 0.3722341 0.2983557
-1.2969242 0.3610283 0.3571757
-1.2454187 0.4332339 0.3290741
-1.2428247 0.4843559 0.3583479
-1.1802132 0.5913705 0.4431608
-1.1854255 0.5498194 0.5069511
-1.1765970 0.4981088 0.5751720
-1.1509717 0.4364816 0.6436217
-1.1074445 0.3665028 0.7047821
-1.0471886 0.2909877 0.7496876
-0.9735634 0.2134752 0.7720335
-0.8912794 0.1374549 0.7714762
-0.8052498 0.0657078 0.7533822
-0.6825415 0.1063175 0.7161290
-0.6345846 0.2224066 0.7127445
-0.5749017 0.3454101 0.7184107
-0.5037735 0.4708280 0.7330670
-0.4230062 0.5930140 0.7522796
-0.3358490 0.7062420 0.7684331
-0.2463864 0.8059569 0.7743868
-0.1586461 0.8896265 0.7668302
-0.0758379 0.9568575 0.7468934
-1.1136065 0.6655073 0.4841912
-1.0272382 0.7391020 0.5284573
-0.9200941 0.8080535 0.5742784
-0.7936745 0.8678512 0.6189587
-0.6524018 0.9146046 0.6592913
-0.5030092 0.9460855 0.6926233
-0.3530234 0.9622297 0.7178171
-0.2090794 0.9648557 0.7353943
-1.1105758 0.6222708 0.5532285
-1.0140408 0.6930792 0.6014098
-0.8956819 0.7578844 0.6482780
-0.7584585 0.8122782 0.6897937
-0.6084233 0.8529510 0.7225656
-0.4534929 0.8785895 0.7453402
-0.3015180 0.8900241 0.7592649
-1.0919426 0.5671385 0.6248334
-0.9844497 0.6334405 0.6728860
-0.8553307 0.6927256 0.7144307
-0.7092227 0.7410792 0.7452196
-0.5535618 0.7760405 0.7638328
-0.3968010 0.7971918 0.7722651
-1.0556083 0.5006451 0.6917186
-0.9375063 0.5612704 0.7321721
-0.7995224 0.6144878 0.7597785
-0.6478009 0.6571468 0.7726973
-0.4905178 0.6876588 0.7737120
-1.0016470 0.4249965 0.7434718
-0.8747267 0.4796194 0.7675520
-0.7310974 0.5271527 0.7743432
-0.5778291 0.5652567 0.7668386
-0.9326303 0.3437980 0.7709449
-0.7999306 0.3929172 0.7728106
-0.6545737 0.4358193 0.7575277
-0.8530486 0.2612425 0.7714202
-0.7182057 0.3058681 0.7511218
-0.7681079 0.1811514 0.7499693
-1.1043753 0.6976880 0.3694725
-1.0267794 0.7722261 0.3522150
-0.9302105 0.8435189 0.3339297
-0.8151227 0.9073096 0.3152855
-0.6844384 0.9595168 0.2971218
-0.5434151 0.9972297 0.2802896
-0.3986616 1.0194321 0.2654663
-0.2566948 1.0270814 0.2530283
-0.1227084 1.0225653 0.2430340
-0.7681079 0.1811514 0.1531989
-0.7182057 0.3058681 0.1538306
-0.6545737 0.4358193 0.1577138
-0.5778291 0.5652567 0.1652859
-0.4905178 0.6876588 0.1765316
-0.3968010 0.7971918 0.1909148
-0.3015180 0.8900241 0.2074998
-0.2090794 0.9648557 0.2252017
-0.8530486 0.2612425 0.1711983
-0.7999306 0.3929172 0.1739487
-0.7310974 0.5271527 0.1801155
-0.6478009 0.6571468 0.1898987
-0.5535618 0.7760405 0.2029821
-0.4534929 0.8785895 0.2185698
-0.3530234 0.9622297 0.2356014
-0.9326303 0.3437980 0.1935274
-0.8747267 0.4796194 0.1986150
-0.7995224 0.6144878 0.2070243
-0.7092227 0.7410792 0.2186548
-0.6084233 0.8529510 0.2329148
-0.5030092 0.9460855 0.2488625
-1.0016470 0.4249965 0.2198736
-0.9375063 0.5612704 0.2272127
-0.8553307 0.6927256 0.2374735
-0.7584585 0.8122782 0.2502740
-0.6524018 0.9146046 0.2648563
-1.0556083 0.5006451 0.2493151
-0.9844497 0.6334405 0.2584804
-0.8956819 0.7578844 0.2699136
-0.7936745 0.8678512 0.2830522
-1.0919426 0.5671385 0.2804489
-1.0140408 0.6930792 0.2907683
-0.9200941 0.8080535 0.3025830
-1.1105758 0.6222708 0.3117063
-1.0272382 0.7391020 0.3224402
-1.1136065 0.6655073 0.3417046
-1.1043753 0.6976880 0.4210136
-1.0267794 0.7722261 0.4601944
-0.9302105 0.8435189 0.5020155
-0.8151227 0.9073096 0.5449653
-0.6844384 0.9595168 0.5868473
-0.5434151 0.9972297 0.6251919
-0.3986616 1.0194321 0.6579727
-0.2566948 1.0270814 0.6842022
-0.1227084 1.0225653 0.7040263
0.0000000 1.0631750 0.6721315
0.0000000 1.1120331 0.6120705
0.0000000 1.1513670 0.5414373
0.0000000 1.1770700 0.4646007
0.0000000 1.1860279 0.3852773
0.0000000 1.1770700 0.3502814
0.0000000 1.1513670 0.3168139
0.0000000 1.1120331 0.2860905
0.0000000 1.0631750 0.2588388
-1.0337453 0.7774650 0.3852773
-0.9439007 0.8559332 0.3679095
-0.8341699 0.9285110 0.3494636
-0.7063632 0.9902532 0.3306896
-0.5650905 1.0370066 0.3124937
-0.4170849 1.0665430 0.2957432
-0.2696859 1.0790609 0.2810708
-0.1292182 1.0768134 0.2687744
-0.9439007 0.8559332 0.4245530
-0.8408220 0.9359154 0.3852773
-0.7181463 1.0067721 0.3667779
-0.5794108 1.0632859 0.3479633
-0.4308878 1.1018388 0.3297790
-0.2802740 1.1214257 0.3130788
-0.1348430 1.1236865 0.2984385
-0.8341699 0.9285110 0.4664653
-0.7181463 1.0067721 0.4271167
-0.5844317 1.0724999 0.3852773
-0.4383238 1.1208535 0.3664586
-0.2872585 1.1493721 0.3482784
-0.1390283 1.1585643 0.3315568
-0.7063632 0.9902532 0.5094611
-0.5794108 1.0632859 0.4698881
-0.4383238 1.1208535 0.4278401
-0.2897054 1.1591624 0.3852773
-0.1412726 1.1772669 0.3670814
-0.5650905 1.0370066 0.5514106
-0.4308878 1.1018388 0.5115553
-0.2872585 1.1493721 0.4691690
-0.1412726 1.1772669 0.4264290
-0.4170849 1.0665430 0.5900135
-0.2802740 1.1214257 0.5500598
-0.1390283 1.1585643 0.5074674
-0.2696859 1.0790609 0.6234325
-0.1348430 1.1236865 0.5838202
-0.1292182 1.0768134 0.6507747
1.1802132 -0.5913705 0.4431608
1.1854255 -0.5498194 0.5069511
1.1765970 -0.4981088 0.5751720
1.1509717 -0.4364816 0.6436217
1.1074445 -0.3665028 0.7047821
1.0471886 -0.2909877 0.7496876
0.9735634 -0.2134752 0.7720335
0.8912794 -0.1374549 0.7714762
0.8052498 -0.0657078 0.7533822
0.6825415 -0.1063175 0.7161290
0.6345846 -0.2224066 0.7127445
0.5749017 -0.3454101 0.7184107
0.5037735 -0.4708280 0.7330670
0.4230062 -0.5930140 0.7522796
0.3358490 -0.7062420 0.7684331
0.2463864 -0.8059569 0.7743868
0.1586461 -0.8896265 0.7668302
0.0758379 -0.9568575 0.7468934
1.1136065 -0.6655073 0.4841912
1.0272382 -0.7391020 0.5284573
0.9200941 -0.8080535 0.5742784
0.7936745 -0.8678512 0.6189587
0.6524018 -0.9146046 0.6592913
0.5030092 -0.9460855 0.6926233
0.3530234 -0.9622297 0.7178171
0.2090794 -0.9648557 0.7353943
1.1105758 -0.6222708 0.5532285
1.0140408 -0.6930792 0.6014098
0.8956819 -0.7578844 0.6482780
0.7584585 -0.8122782 0.6897937
0.6084233 -0.8529510 0.7225656
0.4534929 -0.8785895 0.7453402
0.3015180 -0.8900241 0.7592649
1.0919426 -0.5671385 0.6248334
0.9844497 -0.6334405 0.6728860
0.8553307 -0.6927256 0.7144307
0.7092227 -0.7410792 0.7452196
0.5535618 -0.7760405 0.7638328
0.3968010 -0.7971918 0.7722651
1.0556083 -0.5006451 0.6917186
0.9375063 -0.5612704 0.7321721
0.7995224 -0.6144878 0.7597785
0.6478009 -0.6571468 0.7726973
0.4905178 -0.6876588 0.7737120
1.0016470 -0.4249965 0.7434718
0.8747267 -0.4796194 0.7675520
0.7310974 -0.5271527 0.7743432
0.5778291 -0.5652567 0.7668386
0.9326303 -0.3437980 0.7709449
0.7999306 -0.3929172 0.7728106
0.6545737 -0.4358193 0.7575277
0.8530486 -0.2612425 0.7714202
0.7182057 -0.3058681 0.7511218
0.7681079 -0.1811514 0.7499693
1.1043753 -0.6976880 0.3694725
1.0267794 -0.7722261 0.3522150
0.9302105 -0.8435189 0.3339297
0.8151227 -0.9073096 0.3152855
0.6844384 -0.9595168 0.2971218
0.5434151 -0.9972297 0.2802896
0.3986616 -1.0194321 0.2654663
0.2566948 -1.0270814 0.2530283
0.1227084 -1.0225653 0.2430340
0.7681079 -0.1811514 0.1531989
0.7182057 -0.3058681 0.1538306
0.6545737 -0.4358193 0.1577138
0.5778291 -0.5652567 0.1652859
0.4905178 -0.6876588 0.1765316
0.3968010 -0.7971918 0.1909148
0.3015180 -0.8900241 0.2074998
0.2090794 -0.9648557 0.2252017
0.8530486 -0.2612425 0.1711983
0.7999306 -0.3929172 0.1739487
0.7310974 -0.5271527 0.1801155
0.6478009 -0.6571468 0.1898987
0.5535618 -0.7760405 0.2029821
0.4534929 -0.8785895 0.2185698
0.3530234 -0.9622297 0.2356014
0.9326303 -0.3437980 0.1935274
0.8747267 -0.4796194 0.1986150
0.7995224 -0.6144878 0.2070243
0.7092227 -0.7410792 0.2186548
0.6084233 -0.8529510 0.2329148
0.5030092 -0.9460855 0.2488625
1.0016470 -0.4249965 0.2198736
0.9375063 -0.5612704 0.2272127
0.8553307 -0.6927256 0.2374735
0.7584585 -0.8122782 0.2502740
0.6524018 -0.9146046 0.2648563
1.0556083 -0.5006451 0.2493151
0.9844497 -0.6334405 0.2584804
0.8956819 -0.7578844 0.2699136
0.7936745 -0.8678512 0.2830522
1.0919426 -0.5671385 0.2804489
1.0140408 -0.6930792 0.2907683
0.9200941 -0.8080535 0.3025830
1.1105758 -0.6222708 0.3117063
1.0272382 -0.7391020 0.3224402
1.1136065 -0.6655073 0.3417046
1.1043753 -0.6976880 0.4210136
1.0267794 -0.7722261 0.4601944
0.9302105 -0.8435189 0.5020155
0.8151227 -0.9073096 0.5449653
0.6844384 -0.9595168 0.5868473
0.5434151 -0.9972297 0.6251919
0.3986616 -1.0194321 0.6579727
0.2566948 -1.0270814 0.6842022
0.1227084 -1.0225653 0.7040263
0.0000000 -1.0631750 0.6721315
0.0000000 -1.1120331 0.6120705
0.0000000 -1.1513670 0.5414373
0.0000000 -1.1770700 0.4646007
0.0000000 -1.1860279 0.3852773
0.0000000 -1.1770700 0.3502814
0.0000000 -1.1513670 0.3168139
0.0000000 -1.1120331 0.2860905
0.0000000 -1.0631750 0.2588388
1.0337453 -0.7774650 0.3852773
0.9439007 -0.8559332 0.3679095
0.8341699 -0.9285110 0.3494636
0.7063632 -0.9902532 0.3306896
0.5650905 -1.0370066 0.3124937
0.4170849 -1.0665430 0.2957432
0.2696859 -1.0790609 0.2810708
0.1292182 -1.0768134 0.2687744
0.9439007 -0.8559332 0.4245530
0.8408220 -0.9359154 0.3852773
0.7181463 -1.0067721 0.3667779
0.5794108 -1.0632859 0.3479633
0.4308878 -1.1018388 0.3297790
0.2802740 -1.1214257 0.3130788
0.1348430 -1.1236865 0.2984385
0.8341699 -0.9285110 0.4664653
0.7181463 -1.0067721 0.4271167
0.5844317 -1.0724999 0.3852773
0.4383238 -1.1208535 0.3664586
0.2872585 -1.1493721 0.3482784
0.1390283 -1.1585643 0.3315568
0.7063632 -0.9902532 0.5094611
0.5794108 -1.0632859 0.4698881
0.4383238 -1.1208535 0.4278401
0.2897054 -1.1591624 0.3852773
0.1412726 -1.1772669 0.3670814
0.5650905 -1.0370066 0.5514106
0.4308878 -1.1018388 0.5115553
0.2872585 -1.1493721 0.4691690
0.1412726 -1.1772669 0.4264290
0.4170849 -1.0665430 0.5900135
0.2802740 -1.1214257 0.5500598
0.1390283 -1.1585643 0.5074674
0.2696859 -1.0790609 0.6234325
0.1348430 -1.1236865 0.5838202
0.1292182 -1.0768134 0.6507747
-1.1043753 -0.6976880 0.4210136
-1.0267794 -0.7722261 0.4601944
-0.9302105 -0.8435189 0.5020155
-0.8151227 -0.9073096 0.5449653
-0.6844384 -0.9595168 0.5868473
-0.5434151 -0.9972297 0.6251919
-0.3986616 -1.0194321 0.6579727
-0.2566948 -1.0270814 0.6842022
-0.1227084 -1.0225653 0.7040263
-0.7681079 -0.1811514 0.7499693
-0.7182057 -0.3058681 0.7511218
-0.6545737 -0.4358193 0.7575277
-0.5778291 -0.5652567 0.7668386
-0.4905178 -0.6876588 0.7737120
-0.3968010 -0.7971918 0.7722651
-0.3015180 -0.8900241 0.7592649
-0.2090794 -0.9648557 0.7353943
-0.8530486 -0.2612425 0.7714202
-0.7999306 -0.3929172 0.7728106
-0.7310974 -0.5271527 0.7743432
-0.6478009 -0.6571468 0.7726973
-0.5535618 -0.7760405 0.7638328
-0.4534929 -0.8785895 0.7453402
-0.3530234 -0.9622297 0.7178171
-0.9326303 -0.3437980 0.7709449
-0.8747267 -0.4796194 0.7675520
-0.7995224 -0.6144878 0.7597785
-0.7092227 -0.7410792 0.7452196
-0.6084233 -0.8529510 0.7225656
-0.5030092 -0.9460855 0.6926233
-1.0016470 -0.4249965 0.7434718
-0.9375063 -0.5612704 0.7321721
-0.8553307 -0.6927256 0.7144307
-0.7584585 -0.8122782 0.6897937
-0.6524018 -0.9146046 0.6592913
-1.0556083 -0.5006451 0.6917186
-0.9844497 -0.6334405 0.6728860
-0.8956819 -0.7578844 0.6482780
-0.7936745 -0.8678512 0.6189587
-1.0919426 -0.5671385 0.6248334
-1.0140408 -0.6930792 0.6014098
-0.9200941 -0.8080535 0.5742784
-1.1105758 -0.6222708 0.5532285
-1.0272382 -0.7391020 0.5284573
-1.1136065 -0.6655073 0.4841912
-1.1802132 -0.5913705 0.3597046
-1.1854255 -0.5498194 0.3317814
-1.1765970 -0.4981088 0.3021952
-1.1509717 -0.4364816 0.2720282
-1.1074445 -0.3665028 0.2426386
-1.0471886 -0.2909877 0.2154037
-0.9735634 -0.2134752 0.1914191
-0.8912794 -0.1374549 0.1712939
-0.8052498 -0.0657078 0.1551227
-0.6825415 -0.1063175 0.1393179
-0.6345846 -0.2224066 0.1382317
-0.5749017 -0.3454101 0.1400716
-0.5037735 -0.4708280 0.1454120
-0.4230062 -0.5930140 0.1544831
-0.3358490 -0.7062420 0.1670406
-0.2463864 -0.8059569 0.1823843
-0.1586461 -0.8896265 0.1995325
-0.0758379 -0.9568575 0.2174612
-1.1136065 -0.6655073 0.3417046
-1.0272382 -0.7391020 0.3224402
-0.9200941 -0.8080535 0.3025830
-0.7936745 -0.8678512 0.2830522
-0.6524018 -0.9146046 0.2648563
-0.5030092 -0.9460855 0.2488625
-0.3530234 -0.9622297 0.2356014
-0.2090794 -0.9648557 0.2252017
-1.1105758 -0.6222708 0.3117063
-1.0140408 -0.6930792 0.2907683
-0.8956819 -0.7578844 0.2699136
-0.7584585 -0.8122782 0.2502740
-0.6084233 -0.8529510 0.2329148
-0.4534929 -0.8785895 0.2185698
-0.3015180 -0.8900241 0.2074998
-1.0919426 -0.5671385 0.2804489
-0.9844497 -0.6334405 0.2584804
-0.8553307 -0.6927256 0.2374735
-0.7092227 -0.7410792 0.2186548
-0.5535618 -0.7760405 0.2029821
-0.3968010 -0.7971918 0.1909148
-1.0556083 -0.5006451 0.2493151
-0.9375063 -0.5612704 0.2272127
-0.7995224 -0.6144878 0.2070243
-0.6478009 -0.6571468 0.1898987
-0.4905178 -0.6876588 0.1765316
-1.0016470 -0.4249965 0.2198736
-0.8747267 -0.4796194 0.1986150
-0.7310974 -0.5271527 0.1801155
-0.5778291 -0.5652567 0.1652859
-0.9326303 -0.3437980 0.1935274
-0.7999306 -0.3929172 0.1739487
-0.6545737 -0.4358193 0.1577138
-0.8530486 -0.2612425 0.1711983
-0.7182057 -0.3058681 0.1538306
-0.7681079 -0.1811514 0.1531989
-1.1043753 -0.6976880 0.3694725
-1.0267794 -0.7722261 0.3522150
-0.9302105 -0.8435189 0.3339297
-0.8151227 -0.9073096 0.3152855
-0.6844384 -0.9595168 0.2971218
-0.5434151 -0.9972297 0.2802896
-0.3986616 -1.0194321 0.2654663
-0.2566948 -1.0270814 0.2530283
-0.1227084 -1.0225653 0.2430340
-0.1292182 -1.0768134 0.6507747
-0.1348430 -1.1236865 0.5838202
-0.1390283 -1.1585643 0.5074674
-0.1412726 -1.1772669 0.4264290
-0.1412726 -1.1772669 0.3670814
-0.1390283 -1.1585643 0.3315568
-0.1348430 -1.1236865 0.2984385
-0.1292182 -1.0768134 0.2687744
-0.2696859 -1.0790609 0.6234325
-0.2802740 -1.1214257 0.5500598
-0.2872585 -1.1493721 0.4691690
-0.2897054 -1.1591624 0.3852773
-0.2872585 -1.1493721 0.3482784
-0.2802740 -1.1214257 0.3130788
-0.2696859 -1.0790609 0.2810708
-0.4170849 -1.0665430 0.5900135
-0.4308878 -1.1018388 0.5115553
-0.4383238 -1.1208535 0.4278401
-0.4383238 -1.1208535 0.3664586
-0.4308878 -1.1018388 0.3297790
-0.4170849 -1.0665430 0.2957432
-0.5650905 -1.0370066 0.5514106
-0.5794108 -1.0632859 0.4698881
-0.5844317 -1.0724999 0.3852773
-0.5794108 -1.0632859 0.3479633
-0.5650905 -1.0370066 0.3124937
-0.7063632 -0.9902532 0.5094611
-0.7181463 -1.0067721 0.4271167
-0.7181463 -1.0067721 0.3667779
-0.7063632 -0.9902532 0.3306896
-0.8341699 -0.9285110 0.4664653
-0.8408220 -0.9359154 0.3852773
-0.8341699 -0.9285110 0.3494636
-0.9439007 -0.8559332 0.4245530
-0.9439007 -0.8559332 0.3679095
-1.0337453 -0.7774650 0.3852773
0.6825415 0.1063175 0.7161290
0.6345846 0.2224066 0.7127445
0.5749017 0.3454101 0.7184107
0.5037735 0.4708280 0.7330670
0.4230062 0.5930140 0.7522796
0.3358490 0.7062420 0.7684331
0.2463864 0.8059569 0.7743868
0.1586461 0.8896265 0.7668302
0.0758379 0.9568575 0.7468934
-0.5590285 0.1119577 0.6675326
-0.5000252 0.2336624 0.6651254
-0.4296211 0.3613725 0.6781165
-0.3492452 0.4896081 0.7049012
-0.2619339 0.6120101 0.7371435
-0.1718484 0.7227450 0.7632241
-0.0833375 0.8178184 0.7742729
0.0000000 0.8956620 0.7678132
-0.4166877 0.1168312 0.6101646
-0.3464377 0.2428362 0.6132914
-0.2663033 0.3733316 0.6388181
-0.1790478 0.5020155 0.6813324
-0.0887678 0.6222194 0.7270873
0.0000000 0.7285085 0.7609816
0.0833375 0.8178184 0.7742729
-0.2577727 0.1204575 0.5569392
-0.1775355 0.2488878 0.5719000
-0.0902997 0.3797743 0.6140767
0.0000000 0.5063658 0.6720605
0.0887678 0.6222194 0.7270873
0.1718484 0.7227450 0.7632241
-0.0873113 0.1224020 0.5243356
0.0000000 0.2510078 0.5559420
0.0902997 0.3797743 0.6140767
0.1790478 0.5020155 0.6813324
0.2619339 0.6120101 0.7371435
0.0873113 0.1224020 0.5243356
0.1775355 0.2488878 0.5719000
0.2663033 0.3733316 0.6388181
0.3492452 0.4896081 0.7049012
0.2577727 0.1204575 0.5569392
0.3464377 0.2428362 0.6132914
0.4296211 0.3613725 0.6781165
0.4166877 0.1168312 0.6101646
0.5000252 0.2336624 0.6651254
0.5590285 0.1119577 0.6675326
0.6067035 0.0000000 0.6814408
0.4759384 0.0000000 0.6258780
0.3285153 0.0000000 0.5687113
0.1679245 0.0000000 0.5246943
0.0000000 0.0000000 0.5080312
-0.1679245 0.0000000 0.5246943
-0.3285153 0.0000000 0.5687113
-0.4759384 0.0000000 0.6258780
-0.6067035 0.0000000 0.6814408
-0.6825415 -0.1063175 0.7161290
-0.6345846 -0.2224066 0.7127445
-0.5749017 -0.3454101 0.7184107
-0.5037735 -0.4708280 0.7330670
-0.4230062 -0.5930140 0.7522796
-0.3358490 -0.7062420 0.7684331
-0.2463864 -0.8059569 0.7743868
-0.1586461 -0.8896265 0.7668302
-0.0758379 -0.9568575 0.7468934
0.5590285 -0.1119577 0.6675326
0.5000252 -0.2336624 0.6651254
0.4296211 -0.3613725 0.6781165
0.3492452 -0.4896081 0.7049012
0.2619339 -0.6120101 0.7371435
0.1718484 -0.7227450 0.7632241
0.0833375 -0.8178184 0.7742729
0.0000000 -0.8956620 0.7678132
0.4166877 -0.1168312 0.6101646
0.3464377 -0.2428362 0.6132914
0.2663033 -0.3733316 0.6388181
0.1790478 -0.5020155 0.6813324
0.0887678 -0.6222194 0.7270873
-0.0000000 -0.7285085 0.7609816
-0.0833375 -0.8178184 0.7742729
0.2577727 -0.1204575 0.5569392
0.1775355 -0.2488878 0.5719000
0.0902997 -0.3797743 0.6140767
-0.0000000 -0.5063658 0.6720605
-0.0887678 -0.6222194 0.7270873
-0.1718484 -0.7227450 0.7632241
0.0873113 -0.1224020 0.5243356
-0.0000000 -0.2510078 0.5559420
-0.0902997 -0.3797743 0.6140767
-0.1790478 -0.5020155 0.6813324
-0.2619339 -0.6120101 0.7371435
-0.0873113 -0.1224020 0.5243356
-0.1775355 -0.2488878 0.5719000
-0.2663033 -0.3733316 0.6388181
-0.3492452 -0.4896081 0.7049012
-0.2577727 -0.1204575 0.5569392
-0.3464377 -0.2428362 0.6132914
-0.4296211 -0.3613725 0.6781165
-0.4166877 -0.1168312 0.6101646
-0.5000252 -0.2336624 0.6651254
-0.5590285 -0.1119577 0.6675326
0.6067035 0.0000000 0.1295500
0.4759384 0.0000000 0.1177981
0.3285153 0.0000000 0.1083371
0.1679245 0.0000000 0.1021547
0.0000000 0.0000000 0.1000000
-0.1679245 0.0000000 0.1021547
-0.3285153 0.0000000 0.1083371
-0.4759384 0.0000000 0.1177981
-0.6067035 0.0000000 0.1295500
-0.6825415 0.1063175 0.1393179
-0.6345846 0.2224066 0.1382317
-0.5749017 0.3454101 0.1400716
-0.5037735 0.4708280 0.1454120
-0.4230062 0.5930140 0.1544831
-0.3358490 0.7062420 0.1670406
-0.2463864 0.8059569 0.1823843
-0.1586461 0.8896265 0.1995325
-0.0758379 0.9568575 0.2174612
0.5590285 0.1119577 0.1262696
0.5000252 0.2336624 0.1257290
0.4296211 0.3613725 0.1287399
0.3492452 0.4896081 0.1358443
0.2619339 0.6120101 0.1470900
0.1718484 0.7227450 0.1619410
0.0833375 0.8178184 0.1793982
0.0000000 0.8956620 0.1982723
0.4166877 0.1168312 0.1149951
0.3464377 0.2428362 0.1155389
0.2663033 0.3733316 0.1202502
0.1790478 0.5020155 0.1295233
0.0887678 0.6222194 0.1431167
-0.0000000 0.7285085 0.1601600
-0.0833375 0.8178184 0.1793982
0.2577727 0.1204575 0.1066059
0.1775355 0.2488878 0.1088169
0.0902997 0.3797743 0.1156765
-0.0000000 0.5063658 0.1273071
-0.0887678 0.6222194 0.1431167
-0.1718484 0.7227450 0.1619410
0.0873113 0.1224020 0.1021073
-0.0000000 0.2510078 0.1064620
-0.0902997 0.3797743 0.1156765
-0.1790478 0.5020155 0.1295233
-0.2619339 0.6120101 0.1470900
-0.0873113 0.1224020 0.1021073
-0.1775355 0.2488878 0.1088169
-0.2663033 0.3733316 0.1202502
-0.3492452 0.4896081 0.1358443
-0.2577727 0.1204575 0.1066059
-0.3464377 0.2428362 0.1155389
-0.4296211 0.3613725 0.1287399
-0.4166877 0.1168312 0.1149951
-0.5000252 0.2336624 0.1257290
-0.5590285 0.1119577 0.1262696
0.6825415 -0.1063175 0.1393179
0.6345846 -0.2224066 0.1382317
0.5749017 -0.3454101 0.1400716
0.5037735 -0.4708280 0.1454120
0.4230062 -0.5930140 0.1544831
0.3358490 -0.7062420 0.1670406
0.2463864 -0.8059569 0.1823843
0.1586461 -0.8896265 0.1995325
0.0758379 -0.9568575 0.2174612