# TIME = 181.600000
VARIABLES = X, Y, Z, U, V, W
ZONE N=2562 E=5120 F=FEPOINT ET=TRIANGLE
1.5883003 0.4646989 -0.0022536 -0.001931 -0.000011 0.000067
-1.5836150 0.4615749 0.0055727 0.001900 -0.000001 0.000207
1.6113457 -0.4521156 0.0063685 -0.002007 0.000014 0.000020
-1.5940282 -0.4517532 0.0009541 0.002041 -0.000004 0.000122
1.2079113 0.0025738 0.5175806 -0.000287 -0.000083 -0.000259
1.1926327 0.0007812 -0.5030792 -0.000315 0.000107 0.000397
-1.1834551 0.0027656 0.5176603 0.000300 0.000019 -0.000244
-1.1837038 0.0052628 -0.5026122 0.000287 0.000014 0.000385
-0.0350153 0.3818914 0.3302386 0.000156 -0.001020 0.000843
-0.0333395 -0.4054244 0.2905608 -0.000620 0.000961 0.000920
-0.0129767 0.4133895 -0.2740460 -0.000479 -0.001446 -0.001544
-0.0430371 -0.3852156 -0.3027332 -0.000135 0.000819 -0.000461
1.6584505 0.4449056 0.0298990 -0.001814 0.000013 0.000241
1.6731683 0.4333123 0.0889677 -0.000964 -0.000301 0.000335
1.6855376 0.4141392 0.1466740 -0.001111 -0.000097 -0.000267
1.6934774 0.3875168 0.2031978 -0.001033 -0.000340 0.000241
1.6979138 0.3528922 0.2573914 -0.001292 -0.000129 0.000018
1.6238464 0.3565948 0.2905892 -0.000645 -0.000565 0.000231
1.6243468 0.3152645 0.3352960 0.000123 -0.000572 -0.000151
1.6164850 0.2720186 0.3739283 -0.000741 -0.000518 0.000056
1.6005876 0.2279070 0.4067949 -0.000890 -0.000245 -0.000112
1.5806506 0.1843366 0.4327201 -0.001253 0.000140 -0.000199
1.5258429 0.1614654 0.4551017 -0.000822 -0.000193 -0.000172
1.4665372 0.1338614 0.4747803 -0.000554 -0.000301 -0.000193
1.4034034 0.1031184 0.4912601 -0.000462 0.000062 -0.000288
1.3380657 0.0709300 0.5039000 -0.000127 -0.000106 -0.000280
1.2726602 0.0375430 0.5126287 -0.000327 0.000002 -0.000265
1.7570944 -0.3991333 0.0575622 -0.001661 -0.000021 -0.000029
1.7717631 -0.3817867 0.1133867 -0.001321 0.000114 -0.000010
1.7788615 -0.3579862 0.1703273 -0.001023 0.000177 -0.000187
1.7771497 -0.3286453 0.2256382 -0.001037 0.000234 -0.000045
1.7671619 -0.2945631 0.2772102 -0.000860 0.000211 -0.000199
1.7500027 -0.2565692 0.3237008 -0.000930 0.000126 -0.000215
1.7264339 -0.2158190 0.3643406 -0.001049 -0.000015 -0.000230
1.6970692 -0.1737206 0.3987645 -0.001231 0.000081 -0.000095
1.6608887 -0.1314955 0.4276330 -0.001052 -0.000234 -0.000266
1.6064049 -0.0965448 0.4529036 -0.000459 -0.000163 -0.000382
1.5419166 -0.0730065 0.4727530 -0.000320 0.000357 -0.000285
1.4754657 -0.0491153 0.4883703 -0.000283 -0.000036 -0.000325
1.4076850 -0.0228100 0.5002143 -0.000284 0.000202 -0.000287
1.3397925 0.0060575 0.5083147 -0.000506 -0.000023 -0.000259
1.8313388 -0.3609837 0.0642667 -0.001708 -0.000180 -0.000298
1.8457996 -0.3377673 0.1239415 -0.000989 0.000250 -0.000110
1.8498978 -0.3088010 0.1829897 -0.000932 0.000115 -0.000398
1.8437437 -0.2746679 0.2392440 -0.000763 0.000234 -0.000317
1.8280050 -0.2363572 0.2908480 -0.000717 -0.000002 -0.000507
1.8036051 -0.1950936 0.3365627 -0.000908 0.000054 -0.000270
1.7711844 -0.1523149 0.3758691 -0.000630 -0.000155 -0.000469
1.7302265 -0.1097106 0.4090538 -0.000978 -0.000321 -0.000302
1.6775424 -0.0708496 0.4371609 -0.000752 -0.000275 -0.000326
1.6135760 -0.0398372 0.4602922 -0.000582 -0.000045 -0.000308
1.5447346 -0.0140350 0.4781664 -0.000419 0.000096 -0.000313
1.4749640 0.0120055 0.4912285 -0.000334 0.000085 -0.000309
1.4058360 0.0402955 0.4997528 -0.000327 -0.000063 -0.000284
1.9002180 -0.3140553 0.0683965 -0.001507 -0.000126 -0.000118
1.9126406 -0.2846530 0.1314020 -0.001227 0.000047 -0.000129
1.9122530 -0.2502030 0.1926584 -0.000863 0.000191 -0.000378
1.8997376 -0.2114242 0.2499564 -0.001059 0.000090 -0.000186
1.8760751 -0.1695669 0.3015244 -0.000861 0.000119 -0.000303
1.8423280 -0.1261792 0.3463335 -0.001126 -0.000192 -0.000216
1.7991069 -0.0831540 0.3841932 -0.001222 -0.000092 -0.000107
1.7461105 -0.0431465 0.4156631 -0.000726 -0.000174 -0.000327
1.6837977 -0.0090379 0.4413891 -0.000524 -0.000238 -0.000355
1.6147661 0.0190759 0.4618395 -0.000009 0.000026 -0.000453
1.5428827 0.0450259 0.4770356 -0.000381 0.000030 -0.000325
1.4717732 0.0728254 0.4868151 -0.000330 0.000022 -0.000311
1.9619176 -0.2566118 0.0712668 -0.001155 0.000050 -0.000477
1.9696703 -0.2214397 0.1368654 -0.001119 0.000135 -0.000130
1.9626010 -0.1821098 0.1998115 -0.000827 0.000218 -0.000448
1.9417125 -0.1397386 0.2576596 -0.000940 0.000059 -0.000327
1.9084290 -0.0958488 0.3086844 -0.001007 -0.000066 -0.000254
1.8642929 -0.0522517 0.3520451 -0.000914 -0.000015 -0.000268
1.8107011 -0.0113012 0.3877599 -0.000813 -0.000243 -0.000301
1.7491143 0.0243442 0.4165652 -0.001014 0.000072 -0.000184
1.6814154 0.0533698 0.4395143 -0.000514 0.000124 -0.000364
1.6095017 0.0777147 0.4573510 -0.000593 -0.000276 -0.000251
1.5361304 0.1033792 0.4694778 -0.000268 0.000029 -0.000354
2.0127635 -0.1885626 0.0728703 -0.001163 0.000125 -0.000095
2.0133949 -0.1486315 0.1403655 -0.001089 0.000011 -0.000350
1.9976322 -0.1059107 0.2042102 -0.001118 0.000131 -0.000109
1.9669254 -0.0618314 0.2618159 -0.001083 0.000060 -0.000164
1.9233123 -0.0179457 0.3115556 -0.001064 -0.000196 -0.000184
1.8691662 0.0240495 0.3527094 -0.001289 -0.000326 0.000013
1.8072840 0.0615076 0.3854536 -0.000839 0.000106 -0.000293
1.7402411 0.0918883 0.4112377 -0.000531 -0.000308 -0.000318
1.6702021 0.1147934 0.4316148 -0.000807 0.000488 -0.000383
1.5978972 0.1335739 0.4473359 -0.000216 -0.000045 -0.000386
2.0487461 -0.1113449 0.0730742 -0.001146 0.000096 -0.000258
2.0403895 -0.0684412 0.1416191 -0.001139 0.000198 -0.000088
2.0147341 -0.0245707 0.2053871 -0.000954 0.000000 -0.000424
1.9738115 0.0188578 0.2618670 -0.001125 -0.000115 -0.000113
1.9201417 0.0608440 0.3096203 -0.000747 -0.000098 -0.000425
1.8569360 0.1004644 0.3478278 -0.000709 -0.000401 -0.000284
1.7886708 0.1340004 0.3770367 -0.001213 0.000168 -0.000146
1.7181393 0.1581212 0.4001404 -0.000855 0.000218 -0.000342
1.6477396 0.1740480 0.4188692 -0.000787 -0.000195 -0.000188
2.0665171 -0.0280845 0.0718823 -0.001183 0.000081 -0.000115
2.0482953 0.0153775 0.1403880 -0.001168 -0.000003 -0.000098
2.0127742 0.0577893 0.2030036 -0.001240 0.000156 0.000001
1.9624133 0.0982367 0.2575322 -0.000936 -0.000028 -0.000331
1.8995819 0.1368959 0.3028722 -0.000764 -0.000565 -0.000175
1.8267564 0.1759697 0.3371600 -0.000585 -0.000658 -0.000143
1.7536140 0.2041595 0.3627406 -0.000804 -0.000033 -0.000290
1.6774841 0.2197104 0.3864670 -0.000619 0.000285 -0.000518
2.0643119 0.0568366 0.0694461 -0.001236 0.000080 0.000089
2.0365696 0.0983015 0.1366712 -0.001220 0.000221 -0.000133
1.9925174 0.1368585 0.1970505 -0.001012 -0.000147 -0.000236
1.9349849 0.1720083 0.2487618 -0.001445 0.000531 -0.000156
1.8641159 0.2060467 0.2917364 -0.000187 -0.000183 -0.000786
1.7798448 0.2494858 0.3196875 0.001628 -0.001373 -0.000766
1.6986699 0.2640828 0.3486204 -0.000325 -0.000158 -0.000413
2.0424176 0.1387745 0.0661099 -0.001249 0.000063 0.000040
2.0064736 0.1762806 0.1308686 -0.001448 0.000200 0.000291
1.9560634 0.2095127 0.1878433 -0.001357 0.000140 0.000013
1.8957234 0.2378175 0.2351199 -0.001670 0.000335 0.000065
1.8291048 0.2600163 0.2723106 -0.003425 0.001549 0.000185
1.7034346 0.3086864 0.3071515 -0.001115 -0.000587 0.000386
2.0028663 0.2139095 0.0625436 -0.001182 -0.000113 0.000105
1.9599993 0.2466527 0.1242958 -0.001267 0.000153 -0.000293
1.9038620 0.2747217 0.1780847 -0.001236 -0.000401 0.000555
1.8378025 0.2974048 0.2242569 -0.000835 0.000256 -0.000849
1.7690489 0.3058182 0.2711145 -0.001964 0.000617 -0.000330
1.9488463 0.2796723 0.0595590 -0.001235 -0.000087 0.000219
1.8998911 0.3074315 0.1184700 -0.001088 -0.000052 -0.000355
1.8380670 0.3303238 0.1703785 -0.001294 0.000190 -0.000473
1.7687199 0.3455573 0.2168519 -0.001173 0.000302 -0.000731
1.8842432 0.3348321 0.0573881 -0.001415 0.000046 0.000054
1.8299022 0.3579379 0.1130385 -0.000707 -0.000261 -0.000502
1.7642247 0.3759687 0.1614581 -0.001193 0.000089 -0.000544
1.8128814 0.3795090 0.0550763 -0.001646 0.000179 -0.000516
1.7534206 0.3992553 0.1050394 -0.001419 0.000016 -0.000229
1.7367746 0.4154761 0.0499451 -0.001558 0.000041 -0.000457
1.7159127 0.4245827 -0.0014810 -0.003029 0.000533 -0.000032
1.7855450 0.3960626 -0.0019425 -0.001822 0.000155 0.000011
1.8559188 0.3573190 -0.0030492 -0.001577 0.000120 0.000066
1.9230355 0.3079630 -0.0043751 -0.001436 0.000090 -0.000271
1.9822949 0.2476926 -0.0051656 -0.001479 0.000256 -0.000030
2.0295421 0.1770623 -0.0049123 -0.001318 0.000171 0.000260
2.0609165 0.0979595 -0.0036082 -0.001232 0.000050 0.000126
2.0734554 0.0137525 -0.0015559 -0.001220 0.000084 0.000073
2.0658407 -0.0710716 0.0008652 -0.001252 -0.000118 0.000044
2.0388462 -0.1518356 0.0032106 -0.001284 -0.000068 -0.000141
1.9951552 -0.2247014 0.0049762 -0.001470 -0.000245 0.000084
1.9387101 -0.2872760 0.0058181 -0.001388 -0.000040 0.000331
1.8739250 -0.3387161 0.0058174 -0.001591 -0.000111 0.000163
1.8055056 -0.3792661 0.0054492 -0.001890 -0.000178 0.000223
1.7373542 -0.4093486 0.0052605 -0.003328 -0.000676 0.000244
1.6801398 -0.4303187 -0.0263815 -0.001933 -0.000045 0.000136
1.6927784 -0.4171837 -0.0860865 -0.001028 0.000309 -0.000090
1.7022473 -0.3964860 -0.1442749 -0.001135 0.000118 0.000403
1.7065094 -0.3684611 -0.2009526 -0.001084 0.000333 -0.000023
1.7066671 -0.3326242 -0.2548858 -0.001489 0.000080 0.000121
1.6314490 -0.3376794 -0.2865919 -0.000758 0.000601 -0.000100
1.6276662 -0.2957919 -0.3304381 0.000055 0.000655 0.000248
1.6158870 -0.2524148 -0.3679411 -0.000872 0.000447 0.000138
1.5964916 -0.2085899 -0.3995203 -0.000953 0.000229 0.000271
1.5735319 -0.1655910 -0.4241838 -0.001240 -0.000130 0.000351
1.5171305 -0.1446823 -0.4450530 -0.000897 0.000150 0.000329
1.4562294 -0.1194315 -0.4632700 -0.000529 0.000298 0.000353
1.3915992 -0.0913759 -0.4784845 -0.000443 -0.000065 0.000437
1.3249490 -0.0620583 -0.4901701 -0.000129 0.000174 0.000415
1.2583986 -0.0315171 -0.4983199 -0.000345 0.000139 0.000396
1.7351990 0.4138647 -0.0526701 -0.001555 -0.000013 0.000062
1.7505352 0.3960035 -0.1065304 -0.001308 -0.000134 -0.000016
1.7601281 0.3714978 -0.1607776 -0.000989 -0.000344 -0.000096
1.7618113 0.3413662 -0.2139585 -0.001225 -0.000154 0.000093
1.7404667 0.3120167 -0.2671820 -0.000759 0.000111 0.000713
1.7146516 0.2824355 -0.3110486 -0.000541 -0.000308 0.000355
1.6941261 0.2417093 -0.3513200 -0.000994 -0.000143 0.000273
1.6679980 0.1983313 -0.3860296 -0.000994 -0.000172 0.000265
1.6349278 0.1543987 -0.4152113 -0.000866 0.000196 0.000448
1.5830282 0.1170033 -0.4404360 -0.000497 0.000136 0.000494
1.5203519 0.0906481 -0.4600054 -0.000259 -0.000350 0.000416
1.4556254 0.0638450 -0.4753635 -0.000278 0.000037 0.000457
1.3896221 0.0345971 -0.4869044 -0.000259 -0.000129 0.000426
1.3235896 0.0028181 -0.4945906 -0.000458 0.000002 0.000402
1.8113030 0.3773695 -0.0593451 -0.001629 0.000142 0.000333
1.8265087 0.3536145 -0.1172282 -0.001210 -0.000015 0.000402
1.8314455 0.3240833 -0.1750293 -0.001451 0.000185 0.000368
1.8223382 0.2912491 -0.2315902 -0.001319 0.000034 0.000221
1.8004822 0.2574216 -0.2830459 -0.000504 -0.000249 0.000519
1.7738661 0.2201370 -0.3272939 -0.000682 -0.000163 0.000435
1.7433312 0.1780884 -0.3656379 -0.000498 0.000179 0.000658
1.7051110 0.1346068 -0.3984166 -0.001029 0.000226 0.000395
1.6551207 0.0938977 -0.4261509 -0.000684 0.000174 0.000465
1.5933666 0.0603502 -0.4487931 -0.000489 -0.000013 0.000456
1.5263485 0.0316944 -0.4661523 -0.000471 -0.000103 0.000433
1.4583099 0.0026992 -0.4787138 -0.000267 -0.000083 0.000454
1.3909345 -0.0285383 -0.4866920 -0.000321 0.000050 0.000427
1.8820285 0.3323102 -0.0645200 -0.001413 0.000048 0.000111
1.8943213 0.3025817 -0.1265585 -0.001375 -0.000007 0.000004
1.8925525 0.2685811 -0.1876074 -0.000799 -0.000098 0.000636
1.8770078 0.2319553 -0.2447898 -0.000979 0.000058 0.000495
1.8508475 0.1931564 -0.2955868 -0.000565 -0.000054 0.000661
1.8171066 0.1518897 -0.3391448 -0.000918 -0.000065 0.000368
1.7757285 0.1091442 -0.3759691 -0.001088 0.000126 0.000325
1.7250915 0.0680833 -0.4066271 -0.000569 0.000170 0.000524
1.6650063 0.0319865 -0.4315903 -0.000554 0.000221 0.000483
1.5978633 0.0012977 -0.4512691 -0.000000 -0.000031 0.000582
1.5276770 -0.0275158 -0.4657257 -0.000340 -0.000026 0.000470
1.4582587 -0.0582377 -0.4747963 -0.000383 -0.000018 0.000444
1.9455921 0.2771576 -0.0692258 -0.001236 0.000082 0.000581
1.9522920 0.2421789 -0.1344091 -0.001370 0.000147 0.000165
1.9434947 0.2038903 -0.1970674 -0.000985 -0.000020 0.000481
1.9208469 0.1634043 -0.2543304 -0.000837 -0.000114 0.000495
1.8869299 0.1214007 -0.3043095 -0.000903 0.000027 0.000446
1.8436786 0.0787366 -0.3464539 -0.000811 0.000071 0.000471
1.7918933 0.0374479 -0.3810505 -0.000823 0.000183 0.000434
1.7322941 0.0004120 -0.4088319 -0.000965 -0.000069 0.000342
1.6663610 -0.0307419 -0.4307738 -0.000450 -0.000161 0.000518
1.5959599 -0.0576854 -0.4476124 -0.000629 0.000260 0.000395
1.5241235 -0.0861829 -0.4588169 -0.000289 -0.000051 0.000496
1.9988448 0.2116962 -0.0727994 -0.001135 -0.000127 0.000205
1.9981694 0.1723022 -0.1399509 -0.001028 -0.000002 0.000553
1.9810972 0.1306364 -0.2032384 -0.000980 -0.000052 0.000458
1.9496542 0.0878262 -0.2599334 -0.000936 -0.000073 0.000435
1.9063259 0.0448161 -0.3084916 -0.000921 0.000085 0.000431
1.8534115 0.0028340 -0.3484033 -0.001267 0.000232 0.000170
1.7931973 -0.0355647 -0.3799598 -0.000758 -0.000047 0.000460
1.7277305 -0.0676459 -0.4045729 -0.000614 0.000283 0.000440
1.6589376 -0.0927600 -0.4237565 -0.000766 -0.000507 0.000527
1.5876567 -0.1140937 -0.4382846 -0.000234 0.000068 0.000520
2.0382488 0.1368595 -0.0746192 -0.001219 0.000127 0.000329
2.0287198 0.0944996 -0.1427162 -0.001149 -0.000077 0.000227
2.0022381 0.0513411 -0.2056987 -0.000922 0.000004 0.000574
1.9611659 0.0084717 -0.2610867 -0.001076 0.000130 0.000314
1.9081515 -0.0334894 -0.3075758 -0.000706 0.000193 0.000578
1.8462543 -0.0738384 -0.3445074 -0.000770 0.000420 0.000402
1.7794358 -0.1088040 -0.3724667 -0.001221 -0.000244 0.000309
1.7099862 -0.1348462 -0.3942603 -0.000803 -0.000163 0.000482
1.6402416 -0.1529801 -0.4116378 -0.000910 0.000099 0.000345
2.0604322 0.0551940 -0.0744540 -0.001128 -0.000123 0.000399
2.0412319 0.0120426 -0.1424012 -0.001115 0.000004 0.000348
2.0051687 -0.0301266 -0.2041050 -0.001134 -0.000171 0.000295
1.9548648 -0.0706543 -0.2574603 -0.000923 -0.000089 0.000512
1.8927296 -0.1099543 -0.3014886 -0.000769 0.000567 0.000353
1.8212976 -0.1503833 -0.3344714 -0.000695 0.000699 0.000245
1.7492437 -0.1803397 -0.3587035 -0.000887 -0.000033 0.000437
1.6734464 -0.1979918 -0.3808686 -0.000637 -0.000250 0.000632
2.0632004 -0.0293037 -0.0723497 -0.001234 0.000023 0.000026
2.0345843 -0.0707532 -0.1389739 -0.001205 -0.000232 0.000285
1.9900588 -0.1094749 -0.1984266 -0.001021 0.000227 0.000336
1.9325123 -0.1451585 -0.2489725 -0.001382 -0.000481 0.000309
1.8621658 -0.1802926 -0.2906010 -0.000227 0.000328 0.000802
1.7797026 -0.2256527 -0.3172513 0.001531 0.001336 0.000947
1.6984819 -0.2422085 -0.3444756 -0.000386 0.000225 0.000503
2.0462525 -0.1120250 -0.0686495 -0.001243 -0.000067 0.000168
2.0094706 -0.1497217 -0.1328642 -0.001479 -0.000276 -0.000097
1.9585536 -0.1833692 -0.1890040 -0.001401 -0.000219 0.000160
1.8980232 -0.2124222 -0.2352342 -0.001723 -0.000409 0.000098
1.8313932 -0.2357609 -0.2711805 -0.003339 -0.001480 -0.000102
1.7074902 -0.2873422 -0.3040332 -0.001176 0.000594 -0.000203
2.0111442 -0.1888494 -0.0641395 -0.001233 0.000124 -0.000086
1.9674941 -0.2218553 -0.1255049 -0.001270 -0.000125 0.000375
1.9108176 -0.2504583 -0.1786057 -0.001309 0.000474 -0.000485
1.8443317 -0.2740024 -0.2237978 -0.000792 -0.000159 0.000891
1.7742962 -0.2833314 -0.2693668 -0.002029 -0.000721 0.000516
1.9608594 -0.2567471 -0.0598725 -0.001326 0.000016 -0.000010
1.9112103 -0.2847631 -0.1186171 -0.001193 -0.000018 0.000487
1.8487695 -0.3082282 -0.1699787 -0.001400 -0.000262 0.000608
1.7785841 -0.3242857 -0.2155370 -0.001053 -0.000252 0.000887
1.8993239 -0.3140976 -0.0563987 -0.001501 -0.000065 -0.000023
1.8443962 -0.3374693 -0.1120835 -0.000600 0.000355 0.000665
1.7780730 -0.3560985 -0.1600579 -0.001205 -0.000054 0.000616
1.8304865 -0.3608361 -0.0530267 -0.001827 -0.000301 0.000738
1.7706067 -0.3809539 -0.1030856 -0.001476 -0.000037 0.000421
1.7564980 -0.3987753 -0.0471307 -0.001446 0.000037 0.000444
1.5197483 0.4791332 0.0295200 -0.001318 -0.000195 0.000294
1.4498476 0.4883947 0.0613541 -0.001418 -0.000172 -0.000098
1.3793393 0.4930468 0.0927263 -0.001120 -0.000308 0.000410
1.3095996 0.4935810 0.1232801 -0.001230 -0.000314 0.000328
1.1595996 0.5013481 0.1275935 -0.000857 -0.000132 -0.000588
1.1051597 0.4874294 0.1837091 0.000286 -0.000100 -0.000570
1.0302163 0.4835425 0.1905664 -0.000169 -0.000416 0.000345
0.9664533 0.4729061 0.2188906 -0.000028 -0.000444 0.000351
0.8360551 0.4766415 0.2072516 -0.000397 -0.000439 0.000362
0.7692822 0.4634539 0.2324208 -0.000552 -0.000085 -0.000419
0.6345023 0.4539596 0.2440617 -0.000502 -0.000211 -0.000159
0.5068819 0.4578044 0.2288963 -0.001346 -0.000124 -0.000384
0.3561699 0.4237110 0.2817098 -0.000399 -0.000398 0.000147
0.2268326 0.4009627 0.3105212 0.000138 -0.000223 -0.000097
0.1482840 0.4064327 0.3023658 0.001909 0.000037 -0.000400
1.2067390 0.0713837 0.5130848 -0.000372 -0.000122 -0.000238
1.1421760 0.1062328 0.5097683 -0.000246 -0.000050 -0.000246
1.0782163 0.1397396 0.5032666 -0.000051 -0.000309 -0.000172
1.0132739 0.1711490 0.4942074 -0.000394 -0.000483 -0.000087
0.9479436 0.2013403 0.4826630 -0.000309 -0.000111 -0.000212
0.8827879 0.2306156 0.4686237 -0.000244 -0.000435 -0.000047
0.8211110 0.2685925 0.4470878 -0.000510 -0.000026 -0.000264
0.7657884 0.3085462 0.4196865 -0.000332 0.000053 -0.000338
0.6884300 0.3254107 0.4032012 -0.000282 -0.000122 -0.000207
0.6139603 0.3404691 0.3878765 0.000067 0.000156 -0.000445
0.5464601 0.3519959 0.3736971 -0.000549 -0.000769 0.000396
0.4483894 0.3813692 0.3404989 -0.000874 -0.000100 -0.000274
0.3693234 0.3775176 0.3419514 0.000058 -0.000098 -0.000239
0.3008476 0.3804004 0.3365701 0.000480 -0.000237 -0.000074
1.2717178 0.1040737 0.5037315 -0.000467 -0.000190 -0.000219
1.2074380 0.1395095 0.4991462 -0.000117 0.000109 -0.000304
1.1453803 0.1748852 0.4906149 -0.000254 0.000010 -0.000269
1.0829191 0.2058765 0.4800402 -0.000564 -0.000374 -0.000101
1.0167269 0.2341138 0.4676516 -0.000387 -0.000445 -0.000047
0.9516329 0.2641802 0.4515615 -0.000514 -0.000340 -0.000079
0.8919851 0.2855222 0.4367884 -0.000831 -0.000357 -0.000060
0.8558041 0.3237289 0.4089959 -0.000807 -0.000202 -0.000156
0.8179392 0.3561774 0.3795816 -0.000791 0.000151 -0.000488
0.7488286 0.3632973 0.3715732 -0.000464 -0.000049 -0.000296
0.6710114 0.3755121 0.3558715 -0.000612 0.000127 -0.000503
0.5182398 0.3895022 0.3341511 -0.000722 -0.000542 0.000240
0.4154987 0.4156065 0.2946167 0.000082 0.000339 -0.000890
1.3372237 0.1345921 0.4910441 -0.000505 -0.000224 -0.000204
1.2724031 0.1689388 0.4859353 -0.000298 -0.000176 -0.000218
1.2111278 0.2065733 0.4753330 -0.000435 -0.000192 -0.000189
1.1523606 0.2425715 0.4608423 -0.000308 -0.000127 -0.000216
1.0886395 0.2661006 0.4490806 -0.000476 -0.000562 0.000052
1.0133271 0.2919262 0.4336977 -0.000074 -0.000299 -0.000094
0.9420210 0.3258363 0.4093939 -0.000515 -0.000854 0.000366
0.8958648 0.3755419 0.3637387 -0.000291 -0.000684 0.000354
0.8191619 0.4007258 0.3329651 -0.000417 -0.000029 -0.000360
0.7283721 0.4052106 0.3231585 -0.000181 -0.000031 -0.000357
0.5945996 0.3897052 0.3369376 -0.000750 -0.000326 -0.000015
0.4822573 0.4253054 0.2843208 0.000047 -0.000342 0.000085
1.4019185 0.1654345 0.4742994 -0.000526 0.000111 -0.000315
1.3382072 0.1947101 0.4703786 -0.000349 -0.000203 -0.000209
1.2766156 0.2312109 0.4594057 -0.000108 -0.000082 -0.000273
1.2211751 0.2705481 0.4414089 -0.000240 -0.000241 -0.000162
1.1608225 0.3070085 0.4208113 -0.000105 -0.000303 -0.000102
1.0845130 0.3122132 0.4173915 -0.000559 -0.000509 0.000079
1.0262410 0.3410419 0.3957241 -0.000552 -0.000313 -0.000053
0.9724376 0.3675401 0.3706104 -0.001401 -0.000398 0.000052
0.8989625 0.4209462 0.3081988 -0.000533 -0.000372 0.000085
0.6464352 0.4185087 0.3020242 -0.000582 -0.000238 -0.000104
0.5645509 0.4303836 0.2814925 -0.000437 -0.000390 0.000139
1.4631938 0.1956631 0.4535563 -0.000458 -0.000020 -0.000299
1.4017934 0.2278483 0.4479331 -0.000679 -0.000190 -0.000177
1.3421941 0.2491901 0.4428196 -0.001123 0.000216 -0.000348
1.2998538 0.2875628 0.4239688 -0.000226 0.000079 -0.000386
1.2444823 0.3242859 0.4015583 -0.000846 -0.000258 -0.000090
1.1119730 0.3530655 0.3835336 -0.001037 -0.000555 0.000192
1.0495017 0.3866553 0.3510075 -0.000815 -0.000578 0.000266
0.9744411 0.4062432 0.3278720 -0.000713 -0.000385 0.000077
0.7739371 0.4308573 0.2887981 -0.000615 0.000022 -0.000506
0.7048383 0.4437608 0.2660795 -0.000576 -0.000266 -0.000059
1.5254442 0.2197789 0.4301421 -0.000696 -0.000098 -0.000234
1.4614597 0.2545338 0.4235361 -0.000943 -0.000155 -0.000150
1.3873959 0.2879004 0.4143682 -0.000039 -0.000260 -0.000208
1.3306356 0.3343528 0.3849862 -0.000626 0.000091 -0.000412
1.1914345 0.3599613 0.3736903 -0.000662 -0.000287 -0.000064
1.1295286 0.3959996 0.3378469 -0.001012 -0.000470 0.000185
1.0597101 0.4269256 0.3005942 -0.000264 -0.000505 0.000277
0.9755063 0.4417680 0.2775318 -0.000775 -0.000477 0.000286
0.8367830 0.4433180 0.2730398 -0.000293 -0.000323 0.000047
1.5365192 0.2690058 0.3985183 -0.000483 0.000207 -0.000501
1.4672275 0.3031537 0.3890225 -0.000696 -0.000085 -0.000252
1.4027227 0.3336957 0.3743614 -0.001927 0.000183 -0.000289
1.2797416 0.3705508 0.3555899 -0.000947 0.000017 -0.000350
1.2169535 0.4019854 0.3251710 -0.000810 -0.000363 0.000066
1.1522631 0.4301877 0.2908842 -0.000932 -0.000398 0.000161
1.1044694 0.4558828 0.2502038 -0.001265 -0.000210 -0.000126
0.9025922 0.4589258 0.2469951 -0.000084 -0.000270 -0.000035
1.5440140 0.3145186 0.3616463 -0.001091 -0.000180 -0.000080
1.4651033 0.3508085 0.3467595 -0.000473 -0.000450 0.000042
1.3741533 0.3776021 0.3365166 -0.000272 -0.000029 -0.000416
1.3042516 0.4091454 0.3067773 -0.000872 -0.000327 0.000044
1.2364288 0.4369666 0.2734946 -0.000762 -0.000197 -0.000159
1.1706347 0.4623260 0.2338758 -0.000791 -0.000651 0.000733
1.0424351 0.4623130 0.2407460 -0.000330 -0.000444 0.000292
1.5443722 0.3568095 0.3194942 -0.001030 -0.000093 -0.000190
1.4601177 0.3897058 0.3031895 -0.000774 -0.000242 -0.000090
1.3852487 0.4173659 0.2817518 -0.000834 0.000059 -0.000530
1.3155283 0.4440555 0.2505911 -0.001170 -0.000286 0.000068
1.2485119 0.4662934 0.2166611 -0.001064 -0.000113 -0.000336
1.1810931 0.4830399 0.1823989 -0.001807 -0.000276 0.000143
1.5426261 0.3942664 0.2718536 -0.000732 -0.000561 0.000358
1.4639642 0.4246909 0.2497408 -0.000727 -0.000174 -0.000221
1.3899802 0.4506410 0.2217425 -0.000816 -0.000324 0.000097
1.3178383 0.4727722 0.1884002 -0.001190 -0.000285 0.000117
1.2434856 0.4903575 0.1530768 -0.000995 -0.000363 0.000327
1.6198548 0.3932542 0.2394935 -0.001081 -0.000066 -0.000249
1.5404399 0.4265235 0.2173506 -0.000915 -0.000366 0.000217
1.4629125 0.4538360 0.1902466 -0.000977 -0.000216 -0.000077
1.3870806 0.4761329 0.1582546 -0.000868 -0.000252 -0.000038
1.6142723 0.4230928 0.1834748 -0.000935 -0.000300 0.000119
1.5350358 0.4522709 0.1577812 -0.000827 -0.000333 0.000185
1.4571849 0.4754655 0.1268894 -0.001146 -0.000227 0.000031
1.6054637 0.4455551 0.1242329 -0.001451 -0.000122 0.000053
1.5269226 0.4702102 0.0948308 -0.001100 -0.000270 0.000291
1.5947096 0.4600356 0.0622970 -0.001482 -0.000106 -0.000050
1.6571697 0.4439995 -0.0328836 -0.001723 -0.000044 -0.000326
1.6698356 0.4308561 -0.0905572 -0.000911 -0.000309 -0.000090
1.6807938 0.4106858 -0.1455902 -0.001234 -0.000107 0.000238
1.6876475 0.3845405 -0.1974350 -0.001362 -0.000012 0.000286
1.6892249 0.3531113 -0.2447016 -0.002629 0.000568 0.000300
1.6437827 0.3392709 -0.2886608 0.000605 -0.001058 -0.000044
1.6317375 0.2976258 -0.3334318 -0.000794 -0.000358 0.000164
1.6133599 0.2542881 -0.3720854 -0.000721 -0.000199 0.000325
1.5912385 0.2111268 -0.4031951 -0.001222 0.000174 0.000377
1.5678786 0.1689072 -0.4269253 -0.001417 -0.000151 0.000185
1.5115346 0.1495930 -0.4467871 -0.000761 -0.000163 0.000338
1.4512233 0.1255920 -0.4642428 -0.000485 -0.000144 0.000388
1.3877329 0.0979662 -0.4790183 -0.000508 -0.000221 0.000365
1.3224223 0.0680244 -0.4905338 -0.000081 -0.000014 0.000434
1.2571877 0.0357890 -0.4985837 -0.000391 -0.000012 0.000398
1.1275686 0.0340572 -0.5044967 -0.000323 0.000176 0.000401
1.0628089 0.0667689 -0.5028075 -0.000265 0.000016 0.000389
0.9976690 0.0977132 -0.4984859 -0.000540 -0.000224 0.000343
0.9318233 0.1267876 -0.4919606 -0.000549 -0.000311 0.000310
0.8653870 0.1547291 -0.4833919 -0.000477 -0.000285 0.000302
0.7998892 0.1846830 -0.4719081 -0.000299 -0.000077 0.000362
0.7390729 0.2175097 -0.4567637 -0.000041 -0.000130 0.000332
0.6823940 0.2500436 -0.4387117 -0.000386 -0.000756 -0.000007
0.6282296 0.2838543 -0.4166733 -0.000228 -0.000573 0.000044
0.5685241 0.3164182 -0.3912170 0.000066 0.000580 0.000876
0.5079080 0.3375796 -0.3714999 -0.000822 -0.000137 0.000357
0.3766923 0.3227806 -0.3792465 -0.000205 -0.000939 -0.000334
0.2438000 0.3244004 -0.3743615 0.000068 0.000543 0.000883
0.1642868 0.3443498 -0.3559335 -0.000898 -0.000139 0.000336
0.0525007 0.3960874 -0.2986147 -0.000134 0.000275 0.000894
1.5916299 0.4580960 -0.0660187 -0.001651 -0.000098 -0.000040
1.5218042 0.4668797 -0.1001281 -0.001267 -0.000189 0.000113
1.4498364 0.4703100 -0.1341408 -0.001238 -0.000236 0.000042
1.3766098 0.4688698 -0.1674103 -0.001128 -0.000235 0.000142
1.2196682 0.4802145 -0.1723763 -0.000889 -0.000219 0.000282
1.1412835 0.4695403 -0.2074336 -0.000822 -0.000040 0.000665
1.0457977 0.4630007 -0.2249704 -0.000248 -0.000089 0.000550
0.9026230 0.4632529 -0.2234978 -0.000999 -0.000162 0.000411
0.8269226 0.4481505 -0.2486410 -0.000032 -0.000652 -0.000481
0.6955349 0.4486941 -0.2415645 -0.000253 0.000056 0.000744
0.5643244 0.4172046 -0.2851196 0.000007 -0.000189 0.000288
0.4316198 0.4107281 -0.2889606 -0.000253 -0.000731 -0.000434
0.3851244 0.3696622 -0.3345626 -0.001263 -0.000860 -0.000402
0.2393622 0.3730723 -0.3274284 -0.000314 -0.000057 0.000438
1.6003676 0.4420178 -0.1259593 -0.001648 -0.000109 -0.000031
1.5294805 0.4468838 -0.1608208 -0.001058 -0.000320 -0.000113
1.4578387 0.4462531 -0.1944781 -0.001251 -0.000053 0.000472
1.3029205 0.4628756 -0.2000120 -0.001182 -0.000215 0.000206
1.2305292 0.4526025 -0.2316991 -0.000816 -0.000337 0.000044
1.1043871 0.4425061 -0.2585298 -0.001136 -0.000225 0.000243
0.9751290 0.4372090 -0.2711871 -0.000291 -0.000718 -0.000505
0.8984200 0.4320415 -0.2754353 0.000075 -0.000139 0.000376
0.7678715 0.4309929 -0.2755423 -0.000528 -0.000498 -0.000139
0.6974897 0.4173321 -0.2895575 -0.000765 -0.000040 0.000526
0.6299279 0.4158268 -0.2902084 -0.000107 -0.000290 0.000154
0.5036545 0.3887752 -0.3187511 -0.000519 -0.000315 0.000155
0.3113024 0.3563828 -0.3478869 0.000389 0.000093 0.000554
1.6089896 0.4181739 -0.1826233 -0.001234 -0.000120 0.000239
1.5391023 0.4184023 -0.2183497 -0.001414 -0.000363 -0.000259
1.3852501 0.4409447 -0.2266805 -0.000968 -0.000348 -0.000022
1.3138205 0.4307164 -0.2584312 -0.001041 -0.000193 0.000260
1.2485174 0.4156227 -0.2893318 -0.001062 -0.000440 -0.000074
1.1694353 0.4343579 -0.2688045 -0.000984 0.000150 0.000820
1.0449798 0.4275803 -0.2832042 -0.001247 -0.000095 0.000441
0.9265659 0.4006361 -0.3193549 -0.000391 -0.000415 0.000028
0.8437618 0.4090984 -0.3075225 -0.000513 -0.000299 0.000166
0.7308544 0.3945470 -0.3205001 -0.001158 -0.000236 0.000274
0.6558298 0.3803103 -0.3344269 -0.000359 -0.000438 0.000017
0.4443531 0.3576170 -0.3506828 -0.000627 -0.000441 0.000054
1.6181816 0.3853843 -0.2379559 -0.001529 -0.000033 0.000199
1.4678079 0.4143552 -0.2504591 -0.000765 -0.000273 0.000181
1.3929059 0.4057996 -0.2814173 -0.000925 0.000041 0.000589
1.3203923 0.3889803 -0.3152533 -0.001203 -0.000208 0.000213
1.1850091 0.3970228 -0.3173348 -0.001951 -0.000037 0.000397
1.1062899 0.4016819 -0.3178578 -0.000845 0.000036 0.000578
1.0149136 0.3939176 -0.3287914 -0.000196 -0.000958 -0.000580
0.9448521 0.3642011 -0.3586634 -0.001748 -0.000531 -0.000028
0.7913169 0.3827881 -0.3372862 -0.000964 0.000177 0.000726
0.7174009 0.3546936 -0.3627358 -0.000145 -0.000540 -0.000048
0.5780458 0.3723658 -0.3412339 -0.000088 -0.000166 0.000309
1.5536112 0.3810370 -0.2714480 -0.001040 -0.000457 -0.000148
1.4754058 0.3772624 -0.2997561 -0.000521 -0.000489 -0.000001
1.3944719 0.3655578 -0.3299807 -0.000793 0.000237 0.000744
1.2491382 0.3703776 -0.3436106 -0.001133 0.000206 0.000681
1.1627097 0.3596295 -0.3603067 -0.000538 -0.000297 0.000201
1.0835434 0.3579666 -0.3648056 -0.000775 -0.000194 0.000293
1.0028517 0.3433445 -0.3791882 -0.000284 -0.000378 0.000138
0.8639163 0.3612664 -0.3621403 -0.000320 -0.000274 0.000215
0.7828935 0.3344536 -0.3832718 -0.000753 0.000059 0.000517
0.6381003 0.3377318 -0.3756956 -0.000094 -0.000457 0.000053
1.5594224 0.3415493 -0.3162007 -0.000605 -0.000036 0.000514
1.4777550 0.3370365 -0.3423929 -0.000901 -0.000509 -0.000037
1.4009248 0.3251646 -0.3666888 -0.001798 0.000292 0.000533
1.3195298 0.3389300 -0.3679323 -0.000227 -0.000196 0.000350
1.2273045 0.3250173 -0.3869341 -0.000958 0.000207 0.000602
1.0629972 0.3140390 -0.4014453 -0.000023 -0.000490 0.000082
0.9221017 0.3179101 -0.4002346 -0.000168 -0.000645 -0.000048
0.8380861 0.3081557 -0.4055495 -0.000506 -0.000034 0.000415
0.7017834 0.3073980 -0.4022908 -0.000247 -0.000820 -0.000175
1.5484653 0.2996049 -0.3578741 -0.001208 0.000092 0.000411
1.4641192 0.2927464 -0.3822456 -0.001040 0.000077 0.000443
1.3750992 0.2864829 -0.4019273 -0.000553 -0.000427 0.000163
1.2867209 0.2905440 -0.4081642 -0.000542 0.000261 0.000620
1.1397103 0.3083547 -0.4056982 -0.000077 -0.000521 0.000079
0.9957172 0.2894184 -0.4203907 0.000184 -0.000198 0.000303
0.8778379 0.2724948 -0.4297199 -0.000264 -0.000131 0.000338
0.7587485 0.2791372 -0.4236213 0.000185 0.000047 0.000439
1.5307841 0.2555469 -0.3934934 -0.000963 0.000098 0.000439
1.4507881 0.2467443 -0.4148147 -0.000928 -0.000077 0.000340
1.3284306 0.2492518 -0.4291586 -0.001185 -0.000045 0.000340
1.2052311 0.2722372 -0.4262211 -0.000282 -0.000051 0.000414
1.0714724 0.2658467 -0.4345235 -0.000464 -0.000426 0.000171
0.9372322 0.2561019 -0.4409935 -0.000217 -0.000341 0.000222