# TIME = 245.400000
VARIABLES = X, Y, Z, U, V, W
ZONE N=2562 E=5120 F=FEPOINT ET=TRIANGLE
1.5862255 0.4308343 0.0040226 -0.001070 0.000067 0.000084
-1.5857019 0.4132324 0.0107609 0.002415 -0.000032 0.000000
1.6070764 -0.4213264 -0.0014845 -0.001024 -0.000060 -0.000075
-1.5885244 -0.4085263 0.0021234 0.002386 0.000037 0.000069
1.2045667 0.0043902 0.5078393 0.000517 -0.000104 -0.000217
1.1883688 -0.0032731 -0.4921600 0.000521 0.000106 0.000254
-1.1766306 0.0025703 0.4991078 0.000999 -0.000030 -0.000390
-1.1766435 0.0045931 -0.4815331 0.000967 -0.000031 0.000433
-0.0346112 0.4225835 0.3654815 0.001112 -0.001459 0.001280
-0.0331831 -0.4519732 0.3224063 0.000305 0.001243 0.001274
-0.0138771 0.4555255 -0.3054871 0.000409 -0.001877 -0.002141
-0.0435304 -0.4284026 -0.3362246 0.000872 0.001009 -0.000752
1.6571428 0.4095320 0.0354607 -0.001100 0.000121 -0.000223
1.6708811 0.3975546 0.0919279 -0.000419 -0.000118 0.000044
1.6817130 0.3779890 0.1480045 -0.000554 0.000190 -0.000700
1.6870930 0.3512688 0.2033537 0.000833 -0.000258 -0.000615
1.7270473 0.3093583 0.2389421 -0.002202 0.000622 0.000124
1.6591469 0.3242630 0.2594055 -0.000379 -0.000140 -0.000000
1.6458443 0.2874595 0.3060506 0.000457 -0.000431 -0.000090
1.6290008 0.2499967 0.3440136 -0.000415 -0.000156 -0.000002
1.6079639 0.2113835 0.3759835 -0.000121 -0.000173 -0.000103
1.5854804 0.1722137 0.4016407 -0.000259 0.000021 -0.000153
1.5287284 0.1539547 0.4248661 0.000089 -0.000168 -0.000160
1.4680385 0.1301057 0.4468177 0.000328 -0.000137 -0.000214
1.4037712 0.1019758 0.4668412 0.000369 0.000106 -0.000263
1.3372488 0.0714270 0.4839446 0.000662 -0.000098 -0.000254
1.2705892 0.0389783 0.4976471 0.000502 -0.000073 -0.000221
1.7562856 -0.3696324 0.0457673 -0.000845 -0.000055 0.000032
1.7717446 -0.3544482 0.0978726 -0.000638 0.000010 -0.000044
1.7794443 -0.3333748 0.1509820 -0.000378 0.000055 -0.000199
1.7780665 -0.3071809 0.2026237 -0.000527 0.000038 -0.000055
1.7681814 -0.2765440 0.2509259 -0.000372 0.000057 -0.000124
1.7509836 -0.2421563 0.2947188 -0.000303 -0.000024 -0.000213
1.7273157 -0.2049789 0.3333561 -0.000352 -0.000047 -0.000175
1.6978482 -0.1661938 0.3665539 -0.000324 0.000039 -0.000122
1.6615311 -0.1267671 0.3949952 -0.000062 -0.000205 -0.000284
1.6064590 -0.0935203 0.4209845 0.000309 -0.000174 -0.000340
1.5413101 -0.0705575 0.4427936 0.000449 0.000241 -0.000260
1.4743991 -0.0469041 0.4612365 0.000556 -0.000049 -0.000300
1.4063091 -0.0207602 0.4766364 0.000528 0.000117 -0.000258
1.3381446 0.0078764 0.4888323 0.000452 -0.000008 -0.000232
1.8326867 -0.3344576 0.0525286 -0.000721 -0.000067 -0.000286
1.8480975 -0.3142009 0.1080692 -0.000457 0.000102 -0.000014
1.8527956 -0.2885967 0.1630001 -0.000370 0.000015 -0.000284
1.8468916 -0.2581088 0.2153957 -0.000283 0.000004 -0.000298
1.8311077 -0.2236025 0.2635920 -0.000185 -0.000133 -0.000424
1.8064714 -0.1861443 0.3065168 -0.000207 -0.000084 -0.000295
1.7737131 -0.1469411 0.3437893 0.000216 -0.000201 -0.000493
1.7323348 -0.1073748 0.3758060 -0.000026 -0.000238 -0.000326
1.6790088 -0.0705746 0.4037163 0.000173 -0.000182 -0.000325
1.6142274 -0.0403878 0.4277875 0.000396 -0.000007 -0.000321
1.5447360 -0.0145223 0.4477271 0.000375 0.000085 -0.000277
1.4745845 0.0119385 0.4637071 0.000490 0.000102 -0.000281
1.4052569 0.0406398 0.4757681 0.000525 0.000041 -0.000266
1.9042602 -0.2920727 0.0575052 -0.000680 -0.000030 0.000039
1.9177024 -0.2664096 0.1160004 -0.000497 0.000021 -0.000172
1.9178271 -0.2358772 0.1728969 -0.000335 0.000078 -0.000229
1.9053570 -0.2011152 0.2261502 -0.000410 -0.000037 -0.000216
1.8813784 -0.1632734 0.2741434 -0.000169 -0.000043 -0.000346
1.8470910 -0.1237146 0.3160273 -0.000303 -0.000214 -0.000273
1.8031946 -0.0840101 0.3517842 -0.000310 -0.000102 -0.000184
1.7493727 -0.0463755 0.3821035 0.000127 -0.000180 -0.000339
1.6860892 -0.0133494 0.4077467 0.000271 -0.000227 -0.000332
1.6161250 0.0149202 0.4292381 0.000712 -0.000095 -0.000407
1.5435998 0.0418147 0.4464942 0.000442 -0.000023 -0.000295
1.4722205 0.0707642 0.4590778 0.000477 -0.000014 -0.000276
1.9692166 -0.2404477 0.0616852 -0.000436 0.000092 -0.000280
1.9778575 -0.2095897 0.1225033 -0.000469 0.000102 -0.000059
1.9710542 -0.1745583 0.1808943 -0.000171 0.000090 -0.000459
1.9498788 -0.1364373 0.2344956 -0.000282 -0.000065 -0.000339
1.9159273 -0.0966606 0.2817409 -0.000187 -0.000145 -0.000360
1.8709144 -0.0567802 0.3220311 -0.000033 -0.000125 -0.000369
1.8163120 -0.0186822 0.3556076 0.000073 -0.000203 -0.000355
1.7535846 0.0154706 0.3833221 -0.000022 0.000061 -0.000258
1.6846921 0.0445514 0.4062350 0.000362 0.000141 -0.000370
1.6117351 0.0702282 0.4250580 0.000297 -0.000243 -0.000254
1.5377588 0.0978310 0.4390901 0.000441 0.000006 -0.000303
2.0234908 -0.1788916 0.0647806 -0.000453 0.000153 -0.000089
2.0247135 -0.1436131 0.1273281 -0.000359 0.000101 -0.000342
2.0088415 -0.1054176 0.1864286 -0.000414 0.000100 -0.000165
1.9774729 -0.0657572 0.2395570 -0.000284 0.000006 -0.000296
1.9328923 -0.0260593 0.2853245 -0.000284 -0.000181 -0.000254
1.8776466 0.0123711 0.3233573 -0.000403 -0.000281 -0.000115
1.8145519 0.0475688 0.3540739 -0.000031 0.000012 -0.000295
1.7461489 0.0775476 0.3788592 0.000209 -0.000293 -0.000290
1.6747395 0.1018857 0.3991396 0.000102 0.000312 -0.000350
1.6012689 0.1233195 0.4156023 0.000558 -0.000207 -0.000310
2.0624991 -0.1082599 0.0664630 -0.000451 0.000125 -0.000330
2.0543368 -0.0701613 0.1299224 -0.000449 0.000194 -0.000150
2.0281884 -0.0309833 0.1887257 -0.000255 0.000048 -0.000440
1.9863623 0.0078361 0.2405005 -0.000414 -0.000087 -0.000165
1.9316750 0.0455075 0.2841923 0.000078 -0.000057 -0.000503
1.8674326 0.0816661 0.3194415 0.000007 -0.000400 -0.000268
1.7979309 0.1137036 0.3468947 -0.000207 0.000277 -0.000301
1.7258470 0.1389549 0.3690302 0.000088 0.000100 -0.000342
1.6538794 0.1580192 0.3873710 -0.000075 -0.000019 -0.000207
2.0823286 -0.0313295 0.0666231 -0.000519 0.000199 -0.000119
2.0639000 0.0072650 0.1298595 -0.000493 0.000087 -0.000171
2.0276686 0.0448245 0.1872648 -0.000592 0.000197 -0.000018
1.9765054 0.0804576 0.2369304 -0.000294 0.000160 -0.000346
1.9130490 0.1146205 0.2782866 -0.000292 -0.000392 -0.000068
1.8398170 0.1501513 0.3101466 0.000004 -0.000324 -0.000211
1.7654925 0.1781881 0.3342814 -0.000018 -0.000072 -0.000264
1.6872210 0.1975345 0.3565057 0.000176 0.000010 -0.000343
2.0808211 0.0475772 0.0653719 -0.000573 0.000023 0.000014
2.0525751 0.0841749 0.1270909 -0.000641 0.000319 -0.000060
2.0078887 0.1178013 0.1820507 -0.000395 -0.000056 -0.000221
1.9501721 0.1480655 0.2289037 -0.000807 0.000489 -0.000116
1.8797532 0.1774404 0.2681986 0.000219 -0.000079 -0.000561
1.7965760 0.2167871 0.2946089 0.001486 -0.000561 -0.000805
1.7136452 0.2352004 0.3211786 0.000040 -0.000248 -0.000142
2.0581167 0.1237455 0.0630944 -0.000614 0.000103 -0.000025
2.0214972 0.1565316 0.1221376 -0.000779 0.000135 0.000261
1.9708209 0.1850162 0.1736506 -0.000938 0.000396 0.000038
1.9113007 0.2087646 0.2162894 -0.000881 0.000202 0.000056
1.8471691 0.2268441 0.2505383 -0.002357 0.001234 0.000133
1.7254945 0.2725260 0.2834192 -0.000411 -0.000620 0.000477
2.0163020 0.1933689 0.0605734 -0.000521 -0.000132 0.000177
1.9725646 0.2217910 0.1165727 -0.000607 0.000166 -0.000313
1.9163716 0.2456870 0.1651046 -0.000567 -0.000298 0.000405
1.8527766 0.2641042 0.2066697 -0.000754 0.000352 -0.000351
1.7907701 0.2676155 0.2504287 -0.001419 0.000803 -0.000383
1.9587965 0.2540778 0.0588162 -0.000443 -0.000142 -0.000006
1.9083556 0.2783156 0.1124271 -0.000598 -0.000038 0.000059
1.8457334 0.2981179 0.1598023 -0.000582 0.000240 -0.000539
1.7785134 0.3108209 0.2020125 -0.000467 0.000064 -0.000261
1.8900054 0.3049419 0.0583577 -0.000438 -0.000105 -0.000122
1.8329270 0.3255588 0.1102499 -0.000006 -0.000198 -0.000480
1.7627124 0.3419022 0.1576461 -0.000425 0.000055 -0.000391
1.8149881 0.3462812 0.0580599 -0.000834 0.000139 -0.000420
1.7524188 0.3643185 0.1060379 -0.000510 0.000055 -0.000498
1.7365159 0.3802472 0.0544690 -0.000627 0.000008 -0.000368
1.7162913 0.3896078 0.0058613 -0.001703 0.000353 0.000069
1.7874166 0.3622706 0.0053824 -0.000835 0.000057 -0.000316
1.8602895 0.3263651 0.0037912 -0.000542 -0.000061 0.000144
1.9308280 0.2811258 0.0016377 -0.000634 0.000007 -0.000114
1.9936758 0.2258882 -0.0001813 -0.000719 0.000126 -0.000061
2.0438507 0.1608556 -0.0010777 -0.000601 0.000036 0.000060
2.0769834 0.0876216 -0.0009908 -0.000593 0.000090 0.000175
2.0898648 0.0094033 -0.0001885 -0.000572 0.000072 -0.000065
2.0811179 -0.0692862 0.0009269 -0.000583 -0.000036 -0.000116
2.0516882 -0.1437294 0.0018584 -0.000573 0.000015 -0.000098
2.0046527 -0.2102442 0.0020433 -0.000639 -0.000053 -0.000001
1.9445259 -0.2668563 0.0011115 -0.000607 -0.000002 0.000281
1.8763907 -0.3132599 -0.0006913 -0.000722 -0.000048 0.000062
1.8054660 -0.3501788 -0.0024690 -0.000955 -0.000136 0.000373
1.7357236 -0.3784296 -0.0033018 -0.001933 -0.000469 0.000127
1.6766308 -0.3982406 -0.0331611 -0.001100 -0.000163 0.000474
1.6881721 -0.3844071 -0.0896424 -0.000391 0.000094 0.000141
1.6958834 -0.3630978 -0.1455631 -0.000555 -0.000223 0.000724
1.6973062 -0.3348573 -0.2004210 0.000888 0.000232 0.000714
1.7329802 -0.2914187 -0.2357049 -0.002196 -0.000595 -0.000155
1.6652319 -0.3071204 -0.2551743 -0.000432 0.000051 0.000121
1.6476589 -0.2698330 -0.3004396 0.000396 0.000465 0.000089
1.6270947 -0.2323459 -0.3369273 -0.000449 0.000072 0.000091
1.6027874 -0.1940781 -0.3673986 -0.000261 0.000037 0.000171
1.5774601 -0.1554956 -0.3916657 -0.000289 -0.000106 0.000213
1.5193297 -0.1390254 -0.4134631 0.000021 0.000073 0.000215
1.4571399 -0.1174346 -0.4340067 0.000306 0.000013 0.000280
1.3913587 -0.0919960 -0.4527961 0.000373 -0.000101 0.000296
1.3234371 -0.0644160 -0.4689696 0.000616 0.000118 0.000280
1.2555188 -0.0349796 -0.4821213 0.000423 0.000137 0.000242
1.7362064 0.3796186 -0.0423935 -0.000798 0.000028 0.000011
1.7520556 0.3631595 -0.0928156 -0.000362 -0.000103 0.000168
1.7621754 0.3405734 -0.1433387 -0.000418 0.000090 0.000506
1.7658605 0.3128218 -0.1911384 -0.000430 0.000176 0.000496
1.7626429 0.2806650 -0.2345419 -0.002147 0.000848 0.000079
1.7131477 0.2693770 -0.2763792 0.001103 -0.000750 0.000225
1.6939700 0.2292569 -0.3165179 -0.000369 -0.000228 0.000020
1.6679464 0.1879148 -0.3512088 -0.000226 -0.000085 0.000170
1.6348584 0.1465795 -0.3803813 -0.000124 0.000091 0.000264
1.5824096 0.1109115 -0.4066873 0.000243 0.000009 0.000314
1.5190520 0.0852832 -0.4285018 0.000474 -0.000215 0.000297
1.4538390 0.0589402 -0.4468699 0.000497 -0.000030 0.000310
1.3875030 0.0300984 -0.4620679 0.000479 -0.000086 0.000283
1.3211714 -0.0012193 -0.4738901 0.000514 0.000003 0.000277
1.8143797 0.3453660 -0.0480780 -0.000698 0.000057 0.000307
1.8307153 0.3238472 -0.1012353 -0.000405 -0.000132 0.000045
1.8378046 0.2969553 -0.1532177 -0.000653 -0.000159 -0.000257
1.8345325 0.2654472 -0.2033030 -0.000611 -0.000008 0.000058
1.8068672 0.2366215 -0.2532273 -0.000047 0.000181 0.000585
1.7741996 0.2087059 -0.2938661 -0.000044 -0.000099 0.000289
1.7444239 0.1698690 -0.3304482 0.000055 0.000058 0.000384
1.7062032 0.1291828 -0.3624617 0.000043 -0.000025 0.000303
1.6558031 0.0905370 -0.3904011 0.000148 0.000088 0.000333
1.5933427 0.0579919 -0.4143404 0.000380 -0.000160 0.000324
1.5257121 0.0295201 -0.4340514 0.000318 -0.000190 0.000287
1.4572967 0.0003839 -0.4497338 0.000542 -0.000110 0.000323
1.3897038 -0.0309881 -0.4613807 0.000506 -0.000128 0.000303
1.8880428 0.3039779 -0.0526908 -0.000710 0.000005 -0.000178
1.9020560 0.2771303 -0.1090759 -0.000559 0.000089 0.000351
1.9025456 0.2457005 -0.1644343 -0.000561 0.000068 0.000198
1.8865708 0.2124543 -0.2177538 -0.000846 0.000341 0.000164
1.8564051 0.1797687 -0.2655044 0.000071 -0.000260 0.000331
1.8202455 0.1448048 -0.3059291 -0.000068 -0.000053 0.000322
1.7783605 0.1062012 -0.3406342 -0.000182 0.000095 0.000279
1.7271875 0.0678940 -0.3704267 0.000065 0.000098 0.000336
1.6663760 0.0332176 -0.3956523 0.000294 0.000086 0.000365
1.5984675 0.0027074 -0.4167169 0.000675 0.000059 0.000426
1.5277402 -0.0267104 -0.4335258 0.000400 -0.000080 0.000324
1.4580985 -0.0582468 -0.4456243 0.000414 -0.000034 0.000304
1.9550042 0.2536097 -0.0575686 -0.000391 -0.000140 0.000218
1.9630296 0.2219366 -0.1170879 -0.000827 0.000107 -0.000183
1.9543009 0.1872735 -0.1749061 -0.000147 -0.000089 0.000486
1.9297788 0.1516433 -0.2281043 -0.000235 0.000149 0.000455
1.8933698 0.1154389 -0.2744471 -0.000090 0.000225 0.000486
1.8485691 0.0781361 -0.3134795 0.000016 -0.000103 0.000369
1.7958790 0.0406808 -0.3460572 0.000112 0.000119 0.000397
1.7354125 0.0058046 -0.3730317 0.000017 -0.000126 0.000299
1.6685631 -0.0248966 -0.3952881 0.000278 -0.000283 0.000374
1.5973491 -0.0527395 -0.4134591 0.000298 0.000096 0.000313
1.5250706 -0.0827706 -0.4268758 0.000420 -0.000041 0.000336
2.0112780 0.1937455 -0.0620641 -0.000475 -0.000106 0.000136
2.0108095 0.1583671 -0.1238335 -0.000453 0.000099 0.000393
1.9927073 0.1213041 -0.1822694 -0.000547 0.000074 0.000129
1.9593569 0.0838845 -0.2345496 -0.000162 -0.000137 0.000381
1.9141665 0.0465153 -0.2791910 -0.000116 0.000022 0.000383
1.8599112 0.0094458 -0.3160882 -0.000397 0.000271 0.000169
1.7986449 -0.0256808 -0.3458560 -0.000065 -0.000098 0.000311
1.7321199 -0.0566182 -0.3698048 0.000187 0.000262 0.000326
1.6622829 -0.0826040 -0.3892514 0.000142 -0.000404 0.000400
1.5901269 -0.1061321 -0.4048656 0.000452 0.000100 0.000345
2.0528391 0.1250426 -0.0651816 -0.000531 -0.000007 0.000180
2.0426674 0.0873810 -0.1279630 -0.000462 -0.000116 0.000176
2.0147294 0.0494794 -0.1859009 -0.000131 -0.000026 0.000599
1.9719395 0.0123297 -0.2366024 -0.000416 0.000180 0.000202
1.9174866 -0.0240065 -0.2791369 0.000131 -0.000007 0.000557
1.8545296 -0.0596866 -0.3133313 0.000002 0.000305 0.000330
1.7867058 -0.0921950 -0.3398591 -0.000211 -0.000315 0.000323
1.7160701 -0.1186518 -0.3610532 0.000026 -0.000224 0.000381
1.6451533 -0.1393850 -0.3783983 -0.000135 -0.000105 0.000267
2.0761271 0.0496918 -0.0663572 -0.000508 -0.000126 0.000178
2.0558016 0.0117669 -0.1289222 -0.000513 0.000048 0.000148
2.0182593 -0.0246962 -0.1853814 -0.000551 -0.000294 0.000108
1.9666648 -0.0592603 -0.2339404 -0.000181 -0.000277 0.000484
1.9037267 -0.0928448 -0.2741703 -0.000316 0.000449 0.000090
1.8319608 -0.1285878 -0.3050494 -0.000066 0.000308 0.000224
1.7590320 -0.1575252 -0.3282087 0.000010 0.000011 0.000336
1.6815996 -0.1783230 -0.3492495 0.000213 -0.000011 0.000383
2.0787693 -0.0284843 -0.0655377 -0.000577 -0.000036 0.000010
2.0488667 -0.0643558 -0.1266640 -0.000589 -0.000325 0.000159
2.0031781 -0.0971426 -0.1807545 -0.000394 0.000138 0.000202
1.9451758 -0.1268140 -0.2265839 -0.000774 -0.000563 0.000184
1.8752027 -0.1561292 -0.2647805 0.000287 0.000105 0.000603
1.7939098 -0.1962508 -0.2903236 0.001482 0.000505 0.000868
1.7114780 -0.2158670 -0.3155584 -0.000051 0.000195 0.000182
2.0603973 -0.1048977 -0.0631171 -0.000615 -0.000051 -0.000056
2.0223946 -0.1369421 -0.1217661 -0.000827 -0.000240 -0.000188
1.9708929 -0.1647929 -0.1726017 -0.000938 -0.000525 0.000086
1.9110436 -0.1882486 -0.2143862 -0.000897 -0.000197 -0.000049
1.8468338 -0.2064860 -0.2476264 -0.002367 -0.001234 -0.000175
1.7271540 -0.2536256 -0.2791541 -0.000501 0.000565 -0.000380
2.0226529 -0.1754911 -0.0600328 -0.000584 0.000058 -0.000123
1.9778236 -0.2031479 -0.1159190 -0.000577 -0.000119 0.000260
1.9209228 -0.2265405 -0.1639829 -0.000693 0.000239 -0.000378
1.8568021 -0.2448071 -0.2047744 -0.000619 -0.000359 0.000456
1.7933060 -0.2482291 -0.2473773 -0.001318 -0.000865 0.000473
1.9687443 -0.2374860 -0.0575639 -0.000566 0.000020 0.000080
1.9174530 -0.2609528 -0.1113214 -0.000623 -0.000056 0.000144
1.8541127 -0.2803309 -0.1583437 -0.000607 -0.000267 0.000518
1.7860222 -0.2929359 -0.1997797 -0.000513 -0.000127 0.000326
1.9030257 -0.2896411 -0.0565305 -0.000476 0.000102 0.000037
1.8452144 -0.3095351 -0.1086823 -0.000026 0.000151 0.000576
1.7741765 -0.3255355 -0.1556714 -0.000324 -0.000039 0.000449
1.8305237 -0.3321787 -0.0559385 -0.000800 -0.000172 0.000559
1.7673209 -0.3496422 -0.1040856 -0.000582 -0.000138 0.000614
1.7540969 -0.3673561 -0.0522612 -0.000598 -0.000004 0.000328
1.5157732 0.4475338 0.0329403 -0.000615 -0.000065 0.000042
1.4433546 0.4604535 0.0615284 -0.000775 -0.000045 0.000070
1.3697540 0.4699249 0.0898172 -0.000386 -0.000159 0.000255
1.2968208 0.4759497 0.1181895 -0.000491 -0.000182 0.000343
1.1440584 0.4948495 0.1238757 -0.000074 -0.000036 -0.000545
1.0882810 0.4854417 0.1808149 0.000924 -0.000044 -0.000646
1.0133614 0.4872766 0.1903807 0.000719 -0.000346 0.000288
0.9499336 0.4810631 0.2214540 0.000773 -0.000407 0.000361
0.8205778 0.4941090 0.2138273 0.000382 -0.000342 0.000297
0.7545522 0.4849868 0.2425472 0.000259 0.000098 -0.000647
0.6215045 0.4832885 0.2596128 0.000200 -0.000116 -0.000222
0.4957172 0.4944004 0.2468609 -0.000447 0.000007 -0.000481
0.3481715 0.4636426 0.3082628 0.000478 -0.000314 0.000040
0.2215435 0.4421333 0.3423436 0.001250 -0.000417 0.000110
0.1446550 0.4493352 0.3340840 0.003265 -0.000220 -0.000131
1.2038881 0.0723281 0.5029290 0.000533 -0.000184 -0.000195
1.1380679 0.1068171 0.5046784 0.000535 -0.000131 -0.000188
1.0724567 0.1404783 0.5033961 0.000716 -0.000301 -0.000147
1.0057592 0.1728669 0.4995884 0.000369 -0.000405 -0.000057
0.9388890 0.2048907 0.4930512 0.000571 0.000001 -0.000220
0.8725221 0.2367335 0.4835751 0.000653 -0.000398 -0.000033
0.8097834 0.2781473 0.4655887 0.000412 0.000031 -0.000247
0.7536810 0.3220674 0.4404575 0.000593 0.000209 -0.000414
0.6764908 0.3435255 0.4276110 0.000723 0.000102 -0.000362
0.6026610 0.3628893 0.4150280 0.000998 0.000260 -0.000539
0.5358409 0.3782418 0.4029089 0.000329 -0.000826 0.000497
0.4390669 0.4140151 0.3703786 -0.000062 0.000086 -0.000429
0.3614228 0.4126112 0.3743585 0.000978 -0.000025 -0.000339
0.2941741 0.4178533 0.3700542 0.001489 -0.000264 -0.000102
1.2703124 0.1043459 0.4882585 0.000355 -0.000157 -0.000177
1.2048051 0.1393135 0.4885348 0.000597 -0.000019 -0.000232
1.1408270 0.1744398 0.4850997 0.000477 -0.000116 -0.000177
1.0761064 0.2060340 0.4797288 0.000288 -0.000378 -0.000035
1.0078289 0.2360322 0.4725422 0.000451 -0.000339 -0.000048
0.9411212 0.2686642 0.4610516 0.000342 -0.000147 -0.000129
0.8803672 0.2928649 0.4502256 -0.000002 -0.000208 -0.000060
0.8429543 0.3338469 0.4239503 0.000140 -0.000021 -0.000210
0.8044254 0.3695648 0.3955611 -0.000021 0.000306 -0.000525
0.7357839 0.3806518 0.3907605 0.000432 0.000177 -0.000459
0.6585799 0.3977457 0.3779306 0.000214 0.000354 -0.000669
0.5077365 0.4199433 0.3610755 -0.000039 -0.000653 0.000447
0.4064209 0.4527263 0.3210909 0.000934 0.000611 -0.001294
1.3373143 0.1338176 0.4704913 0.000472 -0.000237 -0.000177
1.2714941 0.1678428 0.4699387 0.000510 -0.000290 -0.000139
1.2081090 0.2047584 0.4643358 0.000469 -0.000227 -0.000133
1.1463078 0.2405826 0.4550640 0.000379 -0.000221 -0.000105
1.0798633 0.2655659 0.4485599 0.000306 -0.000458 0.000059
1.0023805 0.2944264 0.4385455 0.000728 -0.000245 -0.000101
0.9293202 0.3320183 0.4185887 0.000291 -0.000703 0.000325
0.8814948 0.3854433 0.3744155 0.000474 -0.000530 0.000262
0.8047197 0.4160894 0.3464608 0.000362 0.000151 -0.000498
0.7148094 0.4262301 0.3403986 0.000577 0.000194 -0.000594
0.5829629 0.4167267 0.3609698 -0.000009 -0.000263 0.000001
0.4719083 0.4604800 0.3079054 0.000805 -0.000273 -0.000009
1.4034313 0.1629602 0.4492087 0.000241 0.000194 -0.000296
1.3391959 0.1926187 0.4490567 0.000415 -0.000097 -0.000207
1.2757336 0.2281497 0.4429276 0.000609 -0.000206 -0.000170
1.2164373 0.2663890 0.4302920 0.000401 -0.000387 -0.000005
1.1513485 0.3031686 0.4152956 0.000709 -0.000344 -0.000038
1.0733003 0.3116917 0.4173995 0.000303 -0.000416 0.000084
1.0128944 0.3433217 0.3994924 0.000373 -0.000187 -0.000092
0.9578440 0.3731493 0.3772674 -0.000452 -0.000271 0.000095
0.8833913 0.4322910 0.3167649 0.000284 -0.000302 0.000099
0.6336871 0.4449367 0.3213053 0.000152 -0.000138 -0.000152
0.5528347 0.4619020 0.3022118 0.000179 -0.000416 0.000262
1.4661248 0.1902407 0.4250351 0.000281 -0.000089 -0.000217
1.4046899 0.2243306 0.4215767 0.000078 0.000003 -0.000209
1.3442684 0.2458044 0.4205104 -0.000085 0.000176 -0.000276
1.2987881 0.2820091 0.4059734 0.000464 -0.000030 -0.000257
1.2358779 0.3171192 0.3904259 0.000023 -0.000277 0.000019
1.0981356 0.3511808 0.3818104 -0.000175 -0.000441 0.000221
1.0337524 0.3883100 0.3527335 0.000040 -0.000467 0.000272
0.9583166 0.4125844 0.3333883 0.000182 -0.000314 0.000108
0.7595693 0.4505529 0.3019768 0.000095 0.000292 -0.000794
0.6911129 0.4683186 0.2806202 0.000153 -0.000125 -0.000174
1.5303037 0.2095328 0.3996908 0.000182 -0.000048 -0.000237
1.4661825 0.2474264 0.3940377 -0.000008 -0.000232 -0.000062
1.3915325 0.2835355 0.3871053 0.000646 -0.000013 -0.000342
1.3258462 0.3245693 0.3670042 0.000038 -0.000096 -0.000142
1.1765409 0.3540388 0.3674172 0.000112 -0.000353 0.000108
1.1122594 0.3934313 0.3349960 0.000055 -0.000343 0.000152
1.0422366 0.4283831 0.3009392 0.000518 -0.000427 0.000256
0.9587755 0.4488525 0.2814380 0.000162 -0.000359 0.000249
0.8216770 0.4594638 0.2827064 0.000521 -0.000256 0.000027
1.5448462 0.2548552 0.3678742 0.000160 0.000150 -0.000388
1.4757278 0.2934006 0.3580364 0.000095 -0.000128 -0.000155
1.4102333 0.3296036 0.3428259 -0.000061 0.000079 -0.000305
1.2605639 0.3607291 0.3449872 -0.000010 -0.000041 -0.000190
1.1971166 0.3949195 0.3177669 -0.000093 -0.000386 0.000251
1.1332341 0.4263025 0.2866073 -0.000140 -0.000275 0.000157
1.0866330 0.4546780 0.2478775 -0.000262 -0.000127 -0.000052
0.8866289 0.4712506 0.2528784 0.000704 -0.000211 -0.000070
1.5620705 0.2948301 0.3306088 -0.000034 0.000054 -0.000305
1.4950829 0.3337140 0.3140676 0.000093 -0.000127 -0.000167
1.3455047 0.3656631 0.3204714 -0.000063 -0.000305 0.000115
1.2802579 0.3985069 0.2947093 -0.000323 -0.000072 -0.000102
1.2160086 0.4283251 0.2651599 0.000122 -0.000208 0.000001
1.1521709 0.4568631 0.2284453 -0.000096 -0.000447 0.000567
1.0252601 0.4650740 0.2409943 0.000458 -0.000357 0.000253
1.5794368 0.3316373 0.2861186 -0.000404 0.000099 -0.000272
1.4290612 0.3688401 0.2933538 -0.000322 0.000050 -0.000254
1.3623816 0.4011902 0.2683322 -0.000053 -0.000098 -0.000147
1.2955916 0.4302163 0.2398767 -0.000382 -0.000194 0.000127
1.2305336 0.4553844 0.2088764 -0.000313 -0.000025 -0.000254
1.1640715 0.4760424 0.1772747 -0.000994 -0.000124 0.000218
1.5128501 0.3685987 0.2644022 0.000119 -0.000216 -0.000072
1.4432855 0.4013925 0.2400354 -0.000413 -0.000156 0.000069
1.3728534 0.4307767 0.2117221 0.000020 -0.000193 -0.000008
1.3019661 0.4564038 0.1802356 -0.000545 -0.000185 0.000238
1.2281416 0.4781834 0.1471959 -0.000139 -0.000247 0.000306
1.5983450 0.3630790 0.2344205 -0.000402 0.000053 -0.000279
1.5247124 0.3975113 0.2110026 0.000093 -0.000106 -0.000271
1.4498194 0.4278857 0.1832134 -0.000447 -0.000132 0.000070
1.3745700 0.4540177 0.1517338 -0.000038 -0.000188 0.000027
1.6068617 0.3886331 0.1816104 -0.000191 -0.000337 0.000356
1.5267620 0.4210746 0.1546512 -0.000168 -0.000140 -0.000086
1.4484985 0.4479649 0.1234912 -0.000404 -0.000139 0.000111
1.6010338 0.4108891 0.1248850 -0.000764 -0.000041 0.000115
1.5215807 0.4384551 0.0950158 -0.000368 -0.000111 -0.000039
1.5917661 0.4256528 0.0655808 -0.000670 -0.000034 -0.000033
1.6566063 0.4092046 -0.0242668 -0.000811 -0.000010 -0.000307
1.6699218 0.3967734 -0.0789245 -0.000596 -0.000091 -0.000148
1.6815023 0.3774627 -0.1312841 -0.000723 -0.000021 -0.000006
1.6892075 0.3515773 -0.1819271 -0.000696 0.000044 0.000137
1.6946616 0.3173767 -0.2316203 -0.000718 0.000195 0.000291
1.6280790 0.3175919 -0.2644827 -0.000634 -0.000405 -0.000378
1.6279916 0.2782800 -0.3040404 0.000166 -0.000015 0.000377
1.6111451 0.2389793 -0.3404465 -0.000032 0.000072 0.000330
1.5895883 0.1989421 -0.3708048 -0.000161 0.000039 0.000238
1.5665644 0.1594209 -0.3945807 -0.000150 -0.000065 0.000183
1.5094433 0.1409087 -0.4163955 0.000184 -0.000320 0.000171
1.4486074 0.1178758 -0.4366236 0.000280 -0.000118 0.000245
1.3847262 0.0912181 -0.4548736 0.000467 -0.000222 0.000247
1.3190878 0.0622147 -0.4704388 0.000655 -0.000126 0.000285
1.2534847 0.0308844 -0.4829312 0.000442 -0.000011 0.000254
1.1219787 0.0299118 -0.4989904 0.000510 0.000242 0.000260
1.0560025 0.0630773 -0.5027541 0.000518 0.000058 0.000250
0.9898017 0.0950591 -0.5038623 0.000340 -0.000175 0.000194
0.9230945 0.1257523 -0.5026539 0.000338 -0.000277 0.000162
0.8560132 0.1558636 -0.4991622 0.000361 -0.000274 0.000152
0.7900912 0.1885637 -0.4922962 0.000615 -0.000124 0.000211
0.7290243 0.2246282 -0.4809114 0.000820 -0.000168 0.000201
0.6722621 0.2607931 -0.4657485 0.000514 -0.000743 -0.000133
0.6182213 0.2987544 -0.4456759 0.000651 -0.000524 -0.000046
0.5587841 0.3359689 -0.4217985 0.000979 0.000794 0.000936
0.4986133 0.3612231 -0.4034825 0.000040 -0.000038 0.000282
0.3690486 0.3497230 -0.4166239 0.000672 -0.001027 -0.000493
0.2381970 0.3548350 -0.4146301 0.000774 0.000743 0.000975
0.1600450 0.3781498 -0.3955479 -0.000312 -0.000287 0.000127
0.0503359 0.4363013 -0.3328239 0.000783 0.000304 0.000899
1.5902390 0.4247659 -0.0565160 -0.000820 -0.000028 -0.000162
1.5190733 0.4363375 -0.0898754 -0.000614 -0.000072 -0.000014
1.4450184 0.4437535 -0.1234393 -0.000535 -0.000124 -0.000095
1.3693783 0.4470446 -0.1570569 -0.000288 -0.000113 0.000100
1.2091101 0.4682343 -0.1675197 0.000044 -0.000108 0.000240
1.1296575 0.4630189 -0.2049222 0.000011 0.000072 0.000583
1.0334561 0.4629878 -0.2264383 0.000497 -0.000066 0.000367
0.8897179 0.4733579 -0.2306099 -0.000062 0.000025 0.000458
0.8142410 0.4627615 -0.2596602 0.000882 -0.000579 -0.000492
0.6832793 0.4716820 -0.2575995 0.000567 0.000139 0.000703
0.5537910 0.4449489 -0.3087869 0.000867 -0.000209 0.000148
0.4227825 0.4440522 -0.3169089 0.000429 -0.000730 -0.000550
0.3771457 0.4008393 -0.3679491 -0.000378 -0.000806 -0.000500
0.2337167 0.4086531 -0.3633244 0.000397 -0.000056 0.000357
1.5996469 0.4093984 -0.1132524 -0.000679 -0.000044 0.000004
1.5267777 0.4174139 -0.1469140 -0.000414 -0.000146 -0.000060
1.4521835 0.4211195 -0.1800598 -0.000378 -0.000107 0.000068
1.2936853 0.4460188 -0.1910096 -0.000302 -0.000177 -0.000052
1.2200260 0.4406424 -0.2248634 0.000035 -0.000239 -0.000050
1.0929058 0.4385613 -0.2573168 -0.000278 -0.000023 0.000254
0.9629511 0.4415358 -0.2761446 0.000551 -0.000624 -0.000542
0.8860449 0.4413547 -0.2842374 0.000764 -0.000078 0.000317
0.7557542 0.4483283 -0.2901243 0.000185 -0.000335 -0.000112
0.6858361 0.4380359 -0.3082539 0.000142 -0.000008 0.000352
0.6188297 0.4399748 -0.3117967 0.000811 -0.000290 0.000027
0.4940258 0.4171006 -0.3469614 0.000208 -0.000299 0.000022
0.3045529 0.3883789 -0.3841797 0.001265 0.000226 0.000626
1.6089508 0.3865603 -0.1668522 -0.000399 -0.000197 -0.000137
1.5351942 0.3910095 -0.2003789 -0.000553 -0.000052 0.000084
1.3769513 0.4203746 -0.2132473 -0.000243 -0.000140 0.000057
1.3041804 0.4145150 -0.2470069 -0.000400 -0.000145 0.000008
1.2383376 0.4033750 -0.2803439 -0.000160 -0.000283 -0.000110
1.1585697 0.4263197 -0.2643152 -0.000269 0.000201 0.000590
1.0332165 0.4273244 -0.2849259 -0.000483 0.000033 0.000296
0.9146608 0.4069703 -0.3278821 0.000422 -0.000256 0.000037
0.8317946 0.4207913 -0.3198541 0.000328 -0.000181 0.000121
0.7194018 0.4118605 -0.3392488 -0.000152 -0.000159 0.000123
0.6449021 0.4006158 -0.3575099 0.000575 -0.000427 -0.000111
0.4357367 0.3854533 -0.3834172 0.000169 -0.000429 -0.000071
1.6172651 0.3562826 -0.2177093 -0.000608 -0.000186 -0.000169
1.4597579 0.3914150 -0.2325848 -0.000193 -0.000289 -0.000154
1.3834458 0.3867081 -0.2655615 0.000081 0.000065 0.000452
1.3106814 0.3737700 -0.3019324 -0.000577 -0.000138 -0.000006
1.1745139 0.3885466 -0.3114338 -0.001372 0.000129 0.000187
1.0952493 0.3973556 -0.3162335 0.000065 0.000127 0.000461
1.0034369 0.3949099 -0.3323108 0.000558 -0.000830 -0.000595
0.9334860 0.3684268 -0.3669634 -0.000869 -0.000349 -0.000165
0.7798364 0.3961530 -0.3535765 -0.000064 0.000317 0.000644
0.7063979 0.3702851 -0.3842620 0.000829 -0.000576 -0.000202
0.5678366 0.3957535 -0.3681011 0.000816 -0.000131 0.000230
1.5434707 0.3579624 -0.2493662 -0.000028 -0.000218 0.000064
1.4653902 0.3564957 -0.2795370 -0.000340 -0.000269 -0.000113
1.3848457 0.3480528 -0.3124012 0.000164 0.000105 0.000445
1.2392496 0.3589009 -0.3335315 -0.000367 0.000239 0.000456
1.1525154 0.3524943 -0.3550529 0.000191 -0.000206 0.000089
1.0729468 0.3549140 -0.3643554 0.000072 -0.000212 0.000067
0.9921226 0.3439942 -0.3840092 0.000537 -0.000163 0.000170
0.8525746 0.3696206 -0.3751791 0.000460 -0.000203 0.000121
0.7718747 0.3456756 -0.4020215 0.000192 0.000119 0.000379
0.6276582 0.3559813 -0.4019197 0.000913 -0.000435 -0.000035
1.5482426 0.3205895 -0.2924957 0.000176 -0.000287 0.000085
1.4688356 0.3180530 -0.3201523 -0.000246 -0.000268 -0.000036
1.3924463 0.3090638 -0.3473185 -0.001008 0.000048 0.000063
1.3104173 0.3250699 -0.3529829 0.000328 0.000079 0.000396
1.2179017 0.3152317 -0.3773274 -0.000051 0.000120 0.000331
1.0529766 0.3115624 -0.4024449 0.000718 -0.000459 -0.000028
0.9114325 0.3219247 -0.4104964 0.000649 -0.000537 -0.000102
0.8273515 0.3155979 -0.4216010 0.000485 0.000037 0.000308
0.6912329 0.3208186 -0.4265273 0.000763 -0.000877 -0.000335
1.5424081 0.2811742 -0.3310683 -0.000496 -0.000334 -0.000137
1.4574515 0.2763170 -0.3584205 -0.000173 0.000271 0.000422
1.3678459 0.2726551 -0.3821879 0.000256 -0.000490 -0.000042
1.2785943 0.2792033 -0.3940506 0.000274 0.000321 0.000494
1.1302907 0.3023210 -0.4013326 0.000724 -0.000404 0.000033
0.9857742 0.2895198 -0.4259719 0.000978 -0.000132 0.000241
0.8676234 0.2769589 -0.4437060 0.000585 -0.000188 0.000163
0.7483014 0.2885647 -0.4453182 0.001102 -0.000028 0.000297
1.5266521 0.2403828 -0.3650281 -0.000153 -0.000142 0.000131
1.4456745 0.2331170 -0.3898333 -0.000161 -0.000099 0.000147
1.3218570 0.2379342 -0.4115201 -0.000498 0.000050 0.000163
1.1969378 0.2640072 -0.4170932 0.000517 -0.000122 0.000223
1.0622986 0.2624794 -0.4348338 0.000354 -0.000381 0.000035
0.9275192 0.2577591 -0.4508853 0.000630 -0.000184 0.000173
0.8004752 0.2528346 -0.4628446 0.000874 0.000090 0.000339
1.5109914 0.1957621 -0.3939444 0.000106 -0.000058 0.000243
1.3830273 0.2127299 -0.4142503 0.000233 -0.000138 0.000201