# TIME = 162.800000
VARIABLES = X, Y, Z, U, V, W
ZONE N=2562 E=5120 F=FEPOINT ET=TRIANGLE
1.4922698 0.4355050 -0.0171974 -0.001302 -0.000126 -0.000076
-1.5014854 0.4270659 0.0081289 0.001680 -0.000048 0.000026
1.5183627 -0.4282939 0.0009759 -0.001538 0.000040 -0.000035
-1.5045185 -0.4257214 -0.0025585 0.001666 0.000045 0.000065
1.1333864 0.0042589 0.5107394 -0.000079 -0.000133 -0.000343
1.1250384 0.0001521 -0.5058901 -0.000157 0.000201 0.000391
-1.1054579 0.0014445 0.5111711 0.000339 -0.000036 -0.000323
-1.1064586 0.0028735 -0.5049532 0.000286 -0.000019 0.000391
-0.0276612 0.4415369 0.3782596 0.000647 -0.001571 0.001360
-0.0294548 -0.4761569 0.3328532 -0.000679 0.001481 0.001582
-0.0121531 0.4773876 -0.3256913 -0.000485 -0.002150 -0.002483
-0.0381125 -0.4526416 -0.3581658 0.000202 0.001246 -0.000999
1.5682094 0.4139968 0.0135955 -0.001489 -0.000043 0.000110
1.5829559 0.4033514 0.0742246 -0.001129 -0.000152 0.000029
1.5940351 0.3847784 0.1329448 -0.001253 -0.000117 0.000042
1.5990409 0.3589240 0.1895890 -0.001106 -0.000152 -0.000013
1.5901042 0.3295632 0.2424700 -0.000843 0.000147 -0.000580
1.5100232 0.3381598 0.2705204 -0.001053 -0.000208 -0.000005
1.5664219 0.2955068 0.2940259 -0.000575 -0.000083 -0.000348
1.5437226 0.2589377 0.3355061 -0.000706 -0.000348 -0.000058
1.5222575 0.2185979 0.3701892 -0.000937 -0.000200 -0.000102
1.4994937 0.1781905 0.3976001 -0.000625 0.000079 -0.000335
1.4444381 0.1586354 0.4217523 -0.000500 -0.000129 -0.000272
1.3855817 0.1336186 0.4448323 -0.000274 -0.000046 -0.000345
1.3235790 0.1045534 0.4660231 -0.000198 0.000085 -0.000377
1.2597777 0.0731377 0.4843403 0.000034 -0.000145 -0.000364
1.1961569 0.0398028 0.4992911 -0.000192 -0.000067 -0.000329
1.6657205 -0.3771788 0.0487561 -0.001317 0.000050 -0.000008
1.6812098 -0.3611155 0.1010993 -0.001280 0.000028 -0.000108
1.6890837 -0.3388922 0.1544576 -0.001056 0.000051 -0.000226
1.6877666 -0.3113131 0.2062716 -0.000984 0.000119 -0.000118
1.6776318 -0.2792512 0.2545580 -0.000941 0.000029 -0.000235
1.6599447 -0.2435993 0.2980683 -0.000856 -0.000008 -0.000278
1.6358519 -0.2053979 0.3361669 -0.000714 0.000016 -0.000292
1.6063299 -0.1658070 0.3686603 -0.000693 0.000079 -0.000249
1.5705307 -0.1257549 0.3963060 -0.000425 -0.000154 -0.000405
1.5170668 -0.0921303 0.4214662 -0.000171 -0.000114 -0.000434
1.4543154 -0.0691076 0.4428261 -0.000107 0.000345 -0.000346
1.3902283 -0.0456008 0.4611996 -0.000181 0.000005 -0.000364
1.3252648 -0.0196849 0.4768823 -0.000084 0.000155 -0.000365
1.2603782 0.0087558 0.4896601 -0.000207 -0.000031 -0.000337
1.7428207 -0.3437459 0.0558509 -0.001395 -0.000069 -0.000308
1.7583884 -0.3225517 0.1121734 -0.000972 0.000119 -0.000181
1.7630402 -0.2954972 0.1678156 -0.001113 -0.000090 -0.000356
1.7567026 -0.2632102 0.2205948 -0.000940 -0.000017 -0.000298
1.7401521 -0.2268382 0.2686833 -0.000777 -0.000131 -0.000440
1.7146932 -0.1876894 0.3110018 -0.000773 -0.000003 -0.000289
1.6814131 -0.1470775 0.3472877 -0.000369 -0.000167 -0.000506
1.6401205 -0.1063906 0.3780931 -0.000530 -0.000129 -0.000372
1.5877599 -0.0687669 0.4047180 -0.000435 -0.000136 -0.000368
1.5249103 -0.0381371 0.4277799 -0.000270 -0.000039 -0.000378
1.4580265 -0.0121948 0.4472081 -0.000202 0.000020 -0.000373
1.3908500 0.0141038 0.4631333 -0.000040 0.000128 -0.000399
1.3246455 0.0425474 0.4755267 -0.000116 0.000011 -0.000367
1.8166585 -0.3038801 0.0614253 -0.001376 -0.000084 -0.000076
1.8304036 -0.2769760 0.1215358 -0.001112 0.000011 -0.000174
1.8300978 -0.2443569 0.1796869 -0.000902 -0.000023 -0.000381
1.8164746 -0.2070622 0.2334088 -0.001031 -0.000085 -0.000240
1.7909847 -0.1667085 0.2809448 -0.000696 -0.000114 -0.000423
1.7553453 -0.1249689 0.3216066 -0.000684 -0.000135 -0.000369
1.7107037 -0.0835045 0.3556788 -0.000640 -0.000001 -0.000307
1.6570473 -0.0445208 0.3841675 -0.000334 -0.000187 -0.000425
1.5949761 -0.0105847 0.4081845 -0.000214 -0.000157 -0.000419
1.5271762 0.0181147 0.4285471 0.000005 0.000010 -0.000453
1.4574394 0.0450164 0.4452718 -0.000316 0.000075 -0.000354
1.3890769 0.0736928 0.4578451 -0.000216 0.000039 -0.000367
1.8859766 -0.2550116 0.0666777 -0.001049 0.000012 -0.000419
1.8948349 -0.2220833 0.1300995 -0.001110 0.000013 -0.000086
1.8867397 -0.1839127 0.1901698 -0.000860 -0.000094 -0.000443
1.8631998 -0.1423520 0.2439764 -0.000829 -0.000123 -0.000370
1.8266540 -0.0994895 0.2900181 -0.000693 -0.000143 -0.000392
1.7795991 -0.0571381 0.3281921 -0.000534 -0.000133 -0.000411
1.7239882 -0.0171365 0.3593164 -0.000470 -0.000147 -0.000386
1.6614852 0.0184425 0.3847105 -0.000611 0.000044 -0.000300
1.5940318 0.0484330 0.4057818 -0.000305 -0.000063 -0.000380
1.5234717 0.0744278 0.4234414 -0.000272 -0.000325 -0.000321
1.4524213 0.1018383 0.4370046 -0.000107 0.000045 -0.000419
1.9468140 -0.1951552 0.0713280 -0.001064 0.000024 -0.000193
1.9474142 -0.1564060 0.1373607 -0.000974 -0.000014 -0.000292
1.9285641 -0.1138969 0.1981373 -0.000890 -0.000012 -0.000295
1.8930931 -0.0702091 0.2506937 -0.000795 -0.000180 -0.000364
1.8446865 -0.0273627 0.2941875 -0.000598 -0.000117 -0.000411
1.7867929 0.0133874 0.3291827 -0.000763 -0.000286 -0.000253
1.7225596 0.0504175 0.3568537 -0.000442 -0.000025 -0.000392
1.6545656 0.0818524 0.3790009 -0.000300 -0.000256 -0.000367
1.5848864 0.1070414 0.3973677 -0.000624 0.000336 -0.000382
1.5140137 0.1285060 0.4128265 -0.000266 -0.000113 -0.000355
1.9934221 -0.1234487 0.0746996 -0.000961 0.000193 -0.000194
1.9825971 -0.0804410 0.1420282 -0.000985 -0.000024 -0.000236
1.9510751 -0.0364241 0.2018600 -0.000817 -0.000019 -0.000367
1.9033772 0.0060944 0.2519012 -0.000783 -0.000072 -0.000319
1.8440167 0.0462089 0.2922669 -0.000504 -0.000208 -0.000433
1.7769418 0.0841626 0.3238114 -0.000447 -0.000287 -0.000366
1.7064938 0.1179697 0.3478437 -0.000928 -0.000004 -0.000186
1.6352239 0.1448646 0.3671391 -0.000585 -0.000041 -0.000311
1.5654432 0.1645374 0.3837000 -0.000322 -0.000291 -0.000279
2.0191902 -0.0418621 0.0760331 -0.001043 0.000019 -0.000175
1.9952066 0.0020827 0.1427202 -0.001029 0.000162 -0.000134
1.9514081 0.0437247 0.2000125 -0.000885 0.000020 -0.000291
1.8934564 0.0817402 0.2468332 -0.000869 0.000038 -0.000269
1.8254156 0.1170705 0.2841807 -0.000544 -0.000155 -0.000387
1.7499353 0.1537506 0.3119812 -0.000443 -0.000804 -0.000063
1.6750754 0.1842002 0.3322323 -0.000725 0.000142 -0.000377
1.5987774 0.2053080 0.3513407 -0.000510 0.000204 -0.000495
2.0192330 0.0437914 0.0748710 -0.001070 0.000129 -0.000171
1.9829675 0.0847030 0.1389137 -0.001083 0.000016 -0.000061
1.9297904 0.1207618 0.1925892 -0.001044 0.000212 -0.000253
1.8657626 0.1518117 0.2359368 -0.000985 0.000121 -0.000257
1.7921221 0.1809108 0.2709381 -0.000986 0.000092 -0.000244
1.7080298 0.2212311 0.2927650 0.000466 -0.000729 -0.000426
1.6269370 0.2435887 0.3138107 -0.000368 -0.000376 -0.000192
1.9932505 0.1258188 0.0715517 -0.001101 -0.000024 0.000004
1.9475453 0.1612383 0.1315577 -0.001224 0.000208 -0.000103
1.8887000 0.1907791 0.1810198 -0.001222 -0.000003 0.000053
1.8242437 0.2142567 0.2201815 -0.001682 0.000222 0.000157
1.7604621 0.2301330 0.2511758 -0.002133 0.000639 -0.000034
1.6458312 0.2830696 0.2691003 -0.001690 0.000009 0.000125
1.9453582 0.1985073 0.0672700 -0.000960 -0.000190 -0.000095
1.8924088 0.2284448 0.1230985 -0.001151 -0.000045 0.000026
1.8283013 0.2529774 0.1693622 -0.000981 -0.000134 -0.000090
1.7590458 0.2717137 0.2078478 -0.000605 -0.000409 -0.000044
1.7055318 0.2692674 0.2477726 -0.002863 0.000850 0.000042
1.8815062 0.2596928 0.0633846 -0.000985 -0.000150 -0.000104
1.8220664 0.2850582 0.1161881 -0.000931 -0.000150 -0.000158
1.7504492 0.3052899 0.1633505 -0.001112 -0.000086 -0.000060
1.6742475 0.3161839 0.2107817 -0.000169 -0.000077 -0.000773
1.8079288 0.3097490 0.0596972 -0.001286 0.000006 -0.000016
1.7439634 0.3313425 0.1091349 -0.000586 -0.000293 -0.000267
1.6729411 0.3469383 0.1536974 -0.001068 0.000051 -0.000481
1.7291049 0.3509441 0.0533450 -0.001146 -0.000098 -0.000055
1.6637808 0.3700623 0.0959873 -0.001263 -0.000066 -0.000042
1.6477423 0.3856927 0.0387610 -0.001185 -0.000122 0.000094
1.6278944 0.3937024 -0.0189799 -0.001539 0.000024 0.000313
1.7072148 0.3637148 -0.0006441 -0.001188 -0.000097 0.000038
1.7841381 0.3277641 0.0029696 -0.001244 -0.000040 -0.000138
1.8575094 0.2838974 0.0033977 -0.000902 -0.000234 0.000088
1.9249827 0.2294929 0.0029980 -0.001310 0.000134 0.000038
1.9810303 0.1630928 0.0027647 -0.001154 0.000039 -0.000004
2.0188778 0.0852613 0.0030218 -0.001131 0.000089 -0.000094
2.0323597 0.0000955 0.0036803 -0.001094 0.000104 0.000087
2.0188946 -0.0849350 0.0044389 -0.001084 0.000051 -0.000111
1.9813267 -0.1623526 0.0048811 -0.001184 -0.000093 -0.000050
1.9260500 -0.2281562 0.0046005 -0.001149 0.000017 0.000138
1.8598131 -0.2819741 0.0034519 -0.001165 0.000043 0.000165
1.7881232 -0.3253012 0.0017782 -0.001117 0.000101 -0.000091
1.7155553 -0.3598587 0.0002866 -0.001553 -0.000069 0.000196
1.6454242 -0.3867213 -0.0004135 -0.002252 -0.000282 0.000092
1.5872049 -0.4061493 -0.0303263 -0.001514 -0.000007 0.000336
1.5998708 -0.3933716 -0.0867813 -0.001164 0.000118 0.000090
1.6093857 -0.3732995 -0.1419854 -0.001205 0.000060 0.000188
1.6140242 -0.3457379 -0.1963218 -0.001005 0.000079 0.000255
1.6146555 -0.3095852 -0.2494655 -0.000229 0.000185 0.000507
1.5357292 -0.3250997 -0.2670674 -0.002100 -0.000090 -0.000058
1.5677862 -0.2804188 -0.3022826 0.000478 0.000166 0.000756
1.5458489 -0.2389967 -0.3429007 -0.000841 -0.000287 0.000515
1.5217416 -0.1987294 -0.3750530 -0.000569 0.000023 0.000374
1.4972763 -0.1588589 -0.4001056 -0.000769 -0.000255 0.000409
1.4411111 -0.1409720 -0.4226165 -0.000308 0.000179 0.000364
1.3812872 -0.1181730 -0.4439738 -0.000524 -0.000064 0.000373
1.3182967 -0.0916017 -0.4636461 -0.000241 -0.000130 0.000431
1.2534772 -0.0629497 -0.4807659 -0.000071 0.000282 0.000387
1.1888322 -0.0324995 -0.4948901 -0.000234 0.000178 0.000374
1.6808250 0.3698160 -0.0503565 -0.002297 0.000364 0.000179
1.6929897 0.3548981 -0.1000848 -0.001295 0.000017 0.000300
1.6996570 0.3329253 -0.1515703 -0.001228 0.000107 0.000459
1.6999777 0.3040191 -0.2025386 -0.000866 0.000156 0.000678
1.6954559 0.2663416 -0.2524121 -0.001540 0.000532 0.000518
1.6278039 0.2704514 -0.2843980 -0.001105 -0.000269 -0.000020
1.6176620 0.2290417 -0.3224486 -0.000528 -0.000067 0.000406
1.5913848 0.1889183 -0.3570450 -0.000482 0.000122 0.000496
1.5577389 0.1480441 -0.3867682 -0.000535 -0.000130 0.000336
1.5055081 0.1130253 -0.4136561 -0.000106 -0.000003 0.000489
1.4432642 0.0881329 -0.4361766 -0.000150 -0.000189 0.000414
1.3797757 0.0623240 -0.4555103 -0.000166 -0.000068 0.000419
1.3156260 0.0336366 -0.4719429 -0.000062 -0.000061 0.000430
1.2517894 0.0020196 -0.4851755 -0.000165 -0.000010 0.000404
1.7495033 0.3404791 -0.0519447 -0.001619 0.000164 0.000289
1.7667367 0.3180384 -0.1071811 -0.000881 -0.000041 0.000622
1.7720603 0.2909636 -0.1608891 -0.001277 0.000258 0.000545
1.7678063 0.2591390 -0.2108093 -0.000868 0.000141 0.000568
1.7547483 0.2235417 -0.2548877 -0.002464 0.000944 0.000125
1.7006162 0.2130218 -0.2967979 0.000618 -0.000603 0.000657
1.6691446 0.1713732 -0.3355828 -0.000600 0.000057 0.000432
1.6290775 0.1296230 -0.3690139 -0.000569 0.000152 0.000439
1.5779561 0.0910743 -0.3974931 -0.000555 0.000288 0.000434
1.5158019 0.0590321 -0.4219391 -0.000359 -0.000266 0.000372
1.4493623 0.0311579 -0.4423704 -0.000248 -0.000027 0.000419
1.3827300 0.0023831 -0.4590406 -0.000202 -0.000179 0.000416
1.3173085 -0.0290264 -0.4718838 -0.000205 -0.000020 0.000407
1.8200373 0.3022792 -0.0544065 -0.001415 0.000117 0.000203
1.8366651 0.2738705 -0.1132070 -0.001038 -0.000128 0.000089
1.8380549 0.2410482 -0.1697432 -0.001246 -0.000116 -0.000120
1.8251442 0.2045118 -0.2226118 -0.001375 0.000171 0.000101
1.7872903 0.1729392 -0.2733198 -0.000571 -0.000051 0.000472
1.7443409 0.1441122 -0.3134707 -0.000598 -0.000292 0.000296
1.7010496 0.1051221 -0.3482853 -0.000933 0.000169 0.000293
1.6486325 0.0667305 -0.3781116 -0.000347 -0.000191 0.000425
1.5874539 0.0324092 -0.4034253 -0.000313 0.000166 0.000454
1.5201266 0.0025206 -0.4248233 -0.000057 -0.000031 0.000491
1.4507528 -0.0263360 -0.4423114 -0.000307 -0.000082 0.000411
1.3829376 -0.0576336 -0.4553689 -0.000131 -0.000033 0.000440
1.8882982 0.2539996 -0.0580620 -0.001284 0.000065 0.000035
1.8995004 0.2197695 -0.1205904 -0.001277 0.000248 0.000330
1.8916556 0.1817134 -0.1808307 -0.001230 0.000039 0.000037
1.8639318 0.1436265 -0.2365719 -0.001222 0.000498 0.000335
1.8210803 0.1086762 -0.2842999 -0.000645 -0.000276 0.000332
1.7718753 0.0736215 -0.3230091 -0.000512 -0.000255 0.000402
1.7170446 0.0369971 -0.3548741 -0.000510 0.000167 0.000437
1.6554633 0.0027892 -0.3813439 -0.000712 0.000041 0.000318
1.5885552 -0.0271225 -0.4034279 -0.000267 -0.000132 0.000464
1.5182213 -0.0541658 -0.4218515 -0.000336 0.000115 0.000400
1.4474610 -0.0836130 -0.4359356 -0.000287 -0.000004 0.000417
1.9485156 0.1943073 -0.0624930 -0.001028 -0.000196 -0.000101
1.9500747 0.1549030 -0.1285879 -0.001319 0.000268 0.000045
1.9296802 0.1139675 -0.1907939 -0.000947 0.000055 0.000320
1.8908330 0.0748062 -0.2452001 -0.000742 -0.000037 0.000408
1.8398228 0.0380116 -0.2901326 -0.000450 0.000183 0.000579
1.7816041 0.0023783 -0.3261375 -0.000932 -0.000049 0.000232
1.7181495 -0.0314675 -0.3548801 -0.000395 -0.000111 0.000480
1.6507984 -0.0612092 -0.3781628 -0.000424 0.000111 0.000411
1.5812903 -0.0861014 -0.3974259 -0.000551 -0.000206 0.000413
1.5103386 -0.1086694 -0.4133349 -0.000266 0.000069 0.000424
1.9943893 0.1228771 -0.0664990 -0.001194 0.000205 0.000112
1.9833977 0.0803504 -0.1346374 -0.001112 0.000093 0.000110
1.9503588 0.0389287 -0.1961486 -0.000881 0.000159 0.000380
1.9008783 0.0006726 -0.2479984 -0.000804 0.000055 0.000360
1.8407219 -0.0347879 -0.2898959 -0.000494 -0.000165 0.000545
1.7741072 -0.0687014 -0.3228204 -0.000535 0.000359 0.000370
1.7044632 -0.0994339 -0.3483290 -0.000895 -0.000111 0.000289
1.6335682 -0.1243714 -0.3689914 -0.000305 -0.000036 0.000494
1.5634542 -0.1438653 -0.3863369 -0.000582 0.000150 0.000312
2.0195498 0.0419440 -0.0686549 -0.001093 -0.000015 0.000057
1.9952014 -0.0005047 -0.1366087 -0.000960 0.000115 0.000319
1.9505497 -0.0392081 -0.1958045 -0.000908 -0.000189 0.000353
1.8918511 -0.0736302 -0.2445807 -0.000681 -0.000116 0.000505
1.8237481 -0.1054449 -0.2836308 -0.000574 0.000443 0.000317
1.7491822 -0.1385614 -0.3132228 -0.000551 -0.000000 0.000450
1.6752410 -0.1653124 -0.3357138 -0.000476 0.000067 0.000422
1.5984210 -0.1846876 -0.3564705 -0.000983 -0.000007 0.000248
2.0195019 -0.0427863 -0.0681708 -0.001099 0.000105 -0.000028
1.9832990 -0.0815063 -0.1339584 -0.001100 -0.000190 0.000187
1.9298986 -0.1146919 -0.1899180 -0.000859 0.000156 0.000294
1.8653533 -0.1430376 -0.2355169 -0.001278 -0.000572 0.000328
1.7914710 -0.1697970 -0.2723317 -0.000463 0.000180 0.000460
1.7091884 -0.2061241 -0.2968611 0.000714 0.000635 0.000697
1.6262175 -0.2238959 -0.3220498 -0.000718 0.000611 -0.000051
1.9941470 -0.1237319 -0.0653648 -0.001082 -0.000016 0.000187
1.9493254 -0.1564726 -0.1276984 -0.001261 -0.000196 0.000061
1.8907659 -0.1832981 -0.1799476 -0.001227 -0.000169 0.000166
1.8250954 -0.2051341 -0.2217760 -0.001145 -0.000088 0.000210
1.7574748 -0.2218794 -0.2542439 -0.002820 -0.001104 0.000020
1.6430213 -0.2593019 -0.2857311 -0.002390 0.000028 -0.000439
1.9477944 -0.1951943 -0.0615455 -0.001074 0.000157 -0.000176
1.8970876 -0.2219572 -0.1202715 -0.001150 -0.000177 0.000420
1.8343128 -0.2436838 -0.1696952 -0.001393 0.000256 -0.000484
1.7639838 -0.2608460 -0.2112708 -0.000924 -0.000265 0.000666
1.6953164 -0.2653813 -0.2531122 -0.001423 0.000068 -0.000045
1.8865759 -0.2550570 -0.0582640 -0.001305 -0.000059 -0.000082
1.8312637 -0.2768600 -0.1141794 -0.000958 0.000130 0.000201
1.7637755 -0.2944132 -0.1628020 -0.001325 -0.000249 0.000478
1.6890728 -0.3059107 -0.2072776 -0.001128 -0.000060 0.000331
1.8164017 -0.3038646 -0.0561624 -0.001282 0.000016 -0.000086
1.7572976 -0.3220016 -0.1093059 -0.000846 0.000154 0.000324
1.6873961 -0.3363364 -0.1556727 -0.001134 -0.000094 0.000511
1.7418745 -0.3434866 -0.0542436 -0.001501 -0.000148 0.000521
1.6793222 -0.3599111 -0.1021365 -0.001201 0.000013 0.000324
1.6647740 -0.3766539 -0.0495708 -0.001200 0.000089 0.000116
1.4258370 0.4525568 0.0149689 -0.001287 -0.000143 0.000115
1.3572198 0.4660044 0.0471323 -0.001236 -0.000167 0.000033
1.2875771 0.4759519 0.0791892 -0.001207 -0.000227 0.000284
1.2186446 0.4824106 0.1109686 -0.001170 -0.000258 0.000259
1.0722405 0.5029574 0.1213136 -0.000840 -0.000089 -0.000754
1.0204331 0.4937025 0.1800678 0.000096 -0.000152 -0.000693
0.9489846 0.4966937 0.1911703 -0.000178 -0.000439 0.000214
0.8892657 0.4910095 0.2236930 -0.000101 -0.000517 0.000324
0.7665041 0.5063177 0.2176871 -0.000502 -0.000377 0.000112
0.7046213 0.4977664 0.2477825 -0.000624 0.000140 -0.000939
0.5795284 0.4978177 0.2666525 -0.000698 -0.000140 -0.000368
0.4610541 0.5111303 0.2545832 -0.001323 0.000041 -0.000692
0.3234407 0.4803025 0.3193954 -0.000325 -0.000250 -0.000197
0.2071172 0.4579226 0.3566746 0.001034 -0.001369 0.001212
0.1390352 0.4568915 0.3590465 0.003021 -0.000717 0.000364
1.1328166 0.0733085 0.5055433 -0.000159 -0.000212 -0.000305
1.0703903 0.1081696 0.5083482 -0.000081 -0.000130 -0.000318
1.0082469 0.1423657 0.5081745 0.000057 -0.000353 -0.000265
0.9451487 0.1754118 0.5055312 -0.000277 -0.000429 -0.000176
0.8819292 0.2082138 0.5001684 -0.000058 -0.000096 -0.000316
0.8191908 0.2409640 0.4918242 -0.000004 -0.000504 -0.000119
0.7598417 0.2836681 0.4746993 -0.000227 0.000022 -0.000376
0.7066714 0.3291649 0.4500599 -0.000042 0.000346 -0.000661
0.6337999 0.3519204 0.4383223 0.000181 0.000237 -0.000628
0.5642204 0.3725597 0.4266007 0.000402 0.000207 -0.000646
0.5013302 0.3890900 0.4151570 -0.000366 -0.000968 0.000498
0.4100887 0.4272794 0.3828226 -0.000771 0.000126 -0.000582
0.3376114 0.4263183 0.3879231 0.000617 -0.000035 -0.000470
0.2749916 0.4320968 0.3843405 0.001398 -0.000522 0.000040
1.1959897 0.1060643 0.4895005 -0.000266 -0.000206 -0.000284
1.1336622 0.1413178 0.4907155 -0.000078 -0.000007 -0.000358
1.0729231 0.1769740 0.4882467 -0.000183 -0.000061 -0.000324
1.0115977 0.2092045 0.4839080 -0.000377 -0.000452 -0.000129
0.9469642 0.2399372 0.4778741 -0.000290 -0.000303 -0.000192
0.8838090 0.2734633 0.4674628 -0.000281 -0.000176 -0.000254
0.8262818 0.2984796 0.4576948 -0.000703 -0.000406 -0.000056
0.7907148 0.3407517 0.4316250 -0.000473 -0.000052 -0.000331
0.7539519 0.3777831 0.4033843 -0.000666 0.000365 -0.000725
0.6891364 0.3898111 0.3996115 -0.000261 0.000312 -0.000743
0.6162055 0.4082905 0.3876850 -0.000543 0.000487 -0.000946
0.4742324 0.4328616 0.3724060 -0.000806 -0.000908 0.000609
0.3784236 0.4682811 0.3321883 0.000293 0.000892 -0.001832
1.2599745 0.1361801 0.4703891 -0.000317 -0.000331 -0.000236
1.1970494 0.1703245 0.4707024 -0.000159 -0.000263 -0.000267
1.1366575 0.2077457 0.4659199 -0.000202 -0.000318 -0.000218
1.0780138 0.2442952 0.4574388 -0.000335 -0.000168 -0.000259
1.0150493 0.2699228 0.4520079 -0.000291 -0.000566 -0.000023
0.9416157 0.2996109 0.4432912 0.000011 -0.000279 -0.000226
0.8723281 0.3383459 0.4243845 -0.000528 -0.000711 0.000199
0.8266316 0.3934185 0.3803162 -0.000363 -0.000551 0.000130
0.7536062 0.4257256 0.3532006 -0.000434 0.000219 -0.000744
0.6686031 0.4372719 0.3483979 -0.000245 0.000309 -0.000909
0.5448350 0.4287749 0.3713372 -0.000821 -0.000337 -0.000043
0.4395698 0.4757647 0.3178784 -0.000029 -0.000287 -0.000157
1.3234838 0.1659810 0.4477863 -0.000365 0.000069 -0.000364
1.2616772 0.1954409 0.4484783 -0.000205 -0.000220 -0.000277
1.2008142 0.2313426 0.4431024 -0.000019 -0.000167 -0.000328
1.1444198 0.2703582 0.4310054 -0.000206 -0.000487 -0.000088
1.0828107 0.3080255 0.4166187 -0.000011 -0.000310 -0.000212
1.0086991 0.3170119 0.4203577 -0.000500 -0.000484 0.000007
0.9514184 0.3495053 0.4032833 -0.000447 -0.000203 -0.000215
0.8990014 0.3803226 0.3817983 -0.001141 -0.000374 0.000061
0.8276808 0.4415837 0.3216294 -0.000618 -0.000376 0.000036
0.5919010 0.4576386 0.3299200 -0.000720 -0.000147 -0.000286
0.5155541 0.4762921 0.3111677 -0.000774 -0.000534 0.000291
1.3842530 0.1940214 0.4222611 -0.000272 -0.000042 -0.000362
1.3244602 0.2274200 0.4197061 -0.000493 -0.000169 -0.000242
1.2660110 0.2489411 0.4195649 -0.000870 0.000021 -0.000270
1.2224238 0.2858005 0.4052332 -0.000102 0.000076 -0.000489
1.1629405 0.3219976 0.3898505 -0.000622 -0.000517 0.000078
1.0323334 0.3571086 0.3834909 -0.000811 -0.000624 0.000241
0.9709954 0.3952255 0.3552684 -0.000739 -0.000486 0.000143
0.8990664 0.4206408 0.3371704 -0.000407 -0.000360 -0.000035
0.7102496 0.4619521 0.3084695 -0.000812 0.000444 -0.001182
0.6453809 0.4812538 0.2875008 -0.000772 -0.000101 -0.000384
1.4470438 0.2148502 0.3951903 -0.000286 -0.000011 -0.000398
1.3845239 0.2507862 0.3908755 -0.000647 -0.000231 -0.000167
1.3105051 0.2864429 0.3854640 -0.000126 -0.000262 -0.000265
1.2478284 0.3291718 0.3649419 -0.000564 0.000090 -0.000463
1.1070735 0.3597411 0.3671797 -0.000639 -0.000306 -0.000079
1.0458230 0.3999630 0.3355492 -0.000610 -0.000500 0.000163
0.9786674 0.4359730 0.3024790 -0.000293 -0.000533 0.000215
0.8987731 0.4577781 0.2843875 -0.000596 -0.000470 0.000219
0.7686839 0.4703228 0.2879186 -0.000377 -0.000215 -0.000242
1.4627036 0.2614049 0.3611816 -0.000358 0.000252 -0.000603
1.3928856 0.2948517 0.3559421 -0.000668 -0.000222 -0.000157
1.3250910 0.3337071 0.3406765 -0.000859 -0.000123 -0.000195
1.1875043 0.3663031 0.3426043 -0.000728 -0.000246 -0.000112
1.1271699 0.4010144 0.3161575 -0.000955 -0.000360 0.000093
1.0656471 0.4331700 0.2859894 -0.000677 -0.000365 0.000064
1.0202526 0.4623929 0.2479174 -0.001075 -0.000124 -0.000249
0.8297308 0.4816847 0.2565966 -0.000012 -0.000379 -0.000021
1.4796537 0.3035997 0.3210058 -0.000192 -0.000102 -0.000444
1.3966026 0.3314052 0.3200638 -0.001138 -0.000223 0.000004
1.2702190 0.3710851 0.3156280 -0.001005 -0.000067 -0.000238
1.2075270 0.4041747 0.2908549 -0.000772 -0.000266 -0.000061
1.1451044 0.4346062 0.2623686 -0.000878 -0.000250 -0.000051
1.0828688 0.4639799 0.2267904 -0.000674 -0.000538 0.000474
0.9614345 0.4736485 0.2421839 -0.000060 -0.000507 0.000227
1.4364783 0.3463382 0.2891816 -0.001434 -0.000098 -0.000009
1.3541939 0.3734946 0.2868843 -0.000319 -0.000227 -0.000267
1.2879291 0.4061342 0.2625131 -0.000990 -0.000125 -0.000193
1.2216228 0.4360203 0.2348733 -0.000889 -0.000237 -0.000054
1.1578714 0.4618878 0.2050515 -0.001118 -0.000144 -0.000187
1.0930350 0.4834994 0.1747963 -0.001354 -0.000175 -0.000039
1.4362970 0.3770889 0.2484796 -0.001196 -0.000058 -0.000172
1.3641046 0.4073733 0.2307010 -0.000811 -0.000160 -0.000208
1.2952252 0.4365781 0.2039424 -0.001055 -0.000315 0.000208
1.2257951 0.4625601 0.1739807 -0.001195 -0.000194 -0.000011
1.1536914 0.4850962 0.1426563 -0.001028 -0.000321 0.000296
1.5189305 0.3699662 0.2195726 -0.000876 -0.000462 0.000355
1.4425764 0.4047032 0.1966361 -0.000817 -0.000062 -0.000423
1.3681326 0.4341905 0.1716032 -0.001165 -0.000135 -0.000118
1.2946375 0.4600656 0.1422907 -0.000806 -0.000264 0.000003
1.5201096 0.3963681 0.1655548 -0.001147 -0.000164 0.000015
1.4417850 0.4276952 0.1392956 -0.000883 -0.000289 0.000160
1.3648693 0.4539596 0.1103139 -0.001277 -0.000125 -0.000117
1.5139830 0.4172472 0.1073880 -0.001155 -0.000134 -0.000077
1.4351314 0.4441669 0.0783040 -0.001267 -0.000122 -0.000109
1.5034110 0.4308346 0.0461826 -0.001392 -0.000114 0.000234
1.5562136 0.4144917 -0.0491439 -0.001498 -0.000017 0.000237
1.6196981 0.3884141 -0.0799294 -0.001286 -0.000116 -0.000101
1.6245950 0.3704516 -0.1355618 -0.001164 -0.000113 0.000097
1.6275513 0.3451472 -0.1882246 -0.001163 -0.000212 -0.000088
1.6274332 0.3122677 -0.2383945 -0.001333 0.000011 0.000157
1.5530892 0.3190426 -0.2681484 -0.000758 -0.000354 0.000026
1.5479621 0.2802977 -0.3099634 -0.000253 -0.000411 0.000221
1.5338215 0.2409544 -0.3459998 -0.000740 -0.000375 0.000102
1.5128517 0.2015408 -0.3765751 -0.000773 0.000002 0.000325
1.4899859 0.1623788 -0.4009718 -0.000722 -0.000050 0.000305
1.4340160 0.1448652 -0.4232487 -0.000501 -0.000217 0.000302
1.3748769 0.1225954 -0.4443458 -0.000196 -0.000220 0.000372
1.3131990 0.0963147 -0.4638140 -0.000241 -0.000111 0.000383
1.2501213 0.0672219 -0.4808618 -0.000027 -0.000130 0.000414
1.1872784 0.0353237 -0.4949865 -0.000314 0.000158 0.000384
1.0620146 0.0341591 -0.5136744 -0.000176 0.000294 0.000404
0.9993497 0.0679619 -0.5184264 -0.000195 0.000042 0.000386
0.9363643 0.1003901 -0.5206136 -0.000399 -0.000312 0.000298
0.8727544 0.1314212 -0.5205858 -0.000379 -0.000430 0.000255
0.8086658 0.1619036 -0.5183210 -0.000427 -0.000461 0.000220
0.7455934 0.1952084 -0.5125875 -0.000157 -0.000265 0.000294
0.6871016 0.2322152 -0.5020550 0.000009 -0.000309 0.000275
0.6327674 0.2695889 -0.4874448 -0.000235 -0.000833 -0.000047
0.5811085 0.3090492 -0.4675826 -0.000071 -0.000563 0.000072
0.5245184 0.3479825 -0.4437513 0.000319 0.001009 0.001262
0.4676046 0.3746940 -0.4255462 -0.000839 0.000041 0.000471
0.3462813 0.3636298 -0.4409062 -0.000199 -0.001220 -0.000537
0.2236048 0.3696687 -0.4402218 -0.000223 0.000887 0.001191
0.1504408 0.3945619 -0.4207985 -0.001381 -0.000531 -0.000030
0.0479719 0.4565771 -0.3548313 0.000128 0.000217 0.000878
1.4844862 0.4299167 -0.0808389 -0.001179 -0.000140 0.000123
1.4109757 0.4411854 -0.1129469 -0.001158 -0.000127 0.000231
1.3363046 0.4485665 -0.1452099 -0.001084 -0.000216 0.000018
1.2620338 0.4521268 -0.1773843 -0.000940 -0.000181 0.000216
1.1183284 0.4787894 -0.1728079 -0.000824 -0.000186 0.000293
1.0447810 0.4749582 -0.2103732 -0.000590 -0.000205 0.000305
0.9601558 0.4748145 -0.2345742 -0.000144 -0.000144 0.000529
0.8286052 0.4869114 -0.2404807 -0.000810 -0.000057 0.000552
0.7595065 0.4768726 -0.2715474 0.000125 -0.000712 -0.000465
0.6372612 0.4877024 -0.2710146 -0.000029 0.000061 0.000836
0.5175470 0.4614302 -0.3259111 0.000099 -0.000394 0.000083
0.3954132 0.4617292 -0.3358932 -0.000519 -0.000821 -0.000528
0.3533024 0.4170263 -0.3898932 -0.001193 -0.000899 -0.000494
0.2191537 0.4261703 -0.3863863 -0.000377 -0.000139 0.000375
1.5524280 0.4031572 -0.1106852 -0.001434 -0.000033 0.000148
1.4807909 0.4143171 -0.1420057 -0.001110 -0.000225 -0.000087
1.4063043 0.4217031 -0.1736576 -0.000849 -0.000102 0.000423
1.1906750 0.4523062 -0.2081134 -0.000869 -0.000441 -0.000314
1.1230556 0.4534315 -0.2279561 -0.001039 -0.000192 0.000168
1.0195945 0.4490537 -0.2653797 -0.000914 -0.000370 -0.000079
0.8993396 0.4531606 -0.2867017 -0.000245 -0.000646 -0.000354
0.8276955 0.4539671 -0.2961209 -0.000063 -0.000165 0.000421
0.7060099 0.4625659 -0.3039355 -0.000613 -0.000381 0.000014
0.6409309 0.4528073 -0.3238141 -0.000460 -0.000149 0.000367
0.5783452 0.4555237 -0.3282939 0.000173 -0.000396 0.000096
0.4623727 0.4329968 -0.3665460 -0.000728 -0.000372 0.000075
0.2855537 0.4044322 -0.4075930 0.000466 0.000201 0.000733
1.5532088 0.3822717 -0.1677078 -0.000986 -0.000087 0.000323
1.4789535 0.3904192 -0.1986266 -0.001013 -0.000283 -0.000084
1.3300508 0.4249740 -0.2061947 -0.000752 -0.000318 -0.000007
1.2529260 0.4235039 -0.2402531 -0.000996 -0.000132 0.000257
1.1753498 0.4196757 -0.2723573 -0.000533 -0.000462 -0.000111
1.0856108 0.4363243 -0.2701290 -0.000789 -0.000061 0.000449
0.9669456 0.4380571 -0.2943276 -0.001280 0.000035 0.000479
0.8572969 0.4183247 -0.3405593 -0.000271 -0.000364 0.000114
0.7785694 0.4333560 -0.3336331 -0.000435 -0.000264 0.000212
0.6733884 0.4253399 -0.3554890 -0.000770 -0.000388 0.000031
0.6039430 0.4144478 -0.3755314 -0.000095 -0.000486 0.000004
0.4083517 0.4004676 -0.4053748 -0.000707 -0.000631 -0.000146
1.5536558 0.3539524 -0.2203331 -0.001144 -0.000004 0.000307
1.4019893 0.3947158 -0.2295707 -0.000841 -0.000138 0.000283
1.3229863 0.3940911 -0.2622278 -0.000607 -0.000104 0.000409
1.2454409 0.3863403 -0.2981479 -0.001003 -0.000263 0.000060
1.1125725 0.4013971 -0.3121815 -0.001867 -0.000192 -0.000030
1.0311112 0.4077780 -0.3235368 -0.000821 -0.000021 0.000441
0.9429919 0.4054561 -0.3428728 -0.000197 -0.000897 -0.000485
0.8776982 0.3790263 -0.3800703 -0.001489 -0.000377 -0.000046
0.7308838 0.4085310 -0.3693389 -0.000688 0.000249 0.000755
0.6626063 0.3825218 -0.4023757 0.000247 -0.000767 -0.000192
0.5318698 0.4100260 -0.3876404 0.000098 -0.000219 0.000311
1.4771820 0.3598794 -0.2498487 -0.000820 -0.000346 -0.000028
1.3980394 0.3619077 -0.2792311 -0.000745 -0.000248 0.000150
1.3165474 0.3572946 -0.3117595 -0.000578 0.000060 0.000557
1.1753042 0.3738869 -0.3314215 -0.001082 0.000128 0.000508
1.0911685 0.3646996 -0.3592799 -0.000413 -0.000363 0.000124
1.0130603 0.3656114 -0.3728145 -0.000669 -0.000252 0.000191
0.9352346 0.3542431 -0.3957601 -0.000210 -0.000284 0.000238
0.8007490 0.3806136 -0.3902541 -0.000234 -0.000319 0.000191
0.7251212 0.3566205 -0.4196059 -0.000423 -0.000047 0.000409
0.5889065 0.3682873 -0.4219766 0.000258 -0.000501 0.000078
1.4743630 0.3242390 -0.2951203 -0.000958 -0.000149 0.000183
1.3961602 0.3245180 -0.3220017 -0.000535 -0.000422 0.000057
1.3212277 0.3183832 -0.3490270 -0.001537 0.000164 0.000324
1.2427990 0.3372514 -0.3534973 -0.000232 -0.000203 0.000339
1.1542995 0.3280273 -0.3805091 -0.000559 0.000037 0.000461
0.9951056 0.3220113 -0.4126367 -0.000038 -0.000473 0.000127
0.8587245 0.3317844 -0.4251229 -0.000151 -0.000659 -0.000038
0.7786463 0.3254573 -0.4386603 -0.000144 -0.000132 0.000358
0.6495737 0.3314937 -0.4464342 0.000182 -0.001057 -0.000299
1.4659869 0.2852995 -0.3352587 -0.000997 -0.000086 0.000225
1.3834118 0.2831622 -0.3619991 -0.000954 0.000052 0.000352
1.2969850 0.2822860 -0.3856891 -0.000322 -0.000417 0.000165
1.2118137 0.2906422 -0.3980957 -0.000456 0.000050 0.000459
1.0701693 0.3136847 -0.4085973 -0.000078 -0.000564 0.000065
0.9308876 0.2991483 -0.4390028 0.000146 -0.000158 0.000386
0.8179583 0.2859195 -0.4605052 -0.000078 -0.000442 0.000171
0.7042603 0.2979746 -0.4647901 0.000414 -0.000197 0.000360
1.4506835 0.2448035 -0.3700064 -0.000716 0.000073 0.000406
1.3718878 0.2398898 -0.3948042 -0.000586 -0.000185 0.000272
1.2528737 0.2476229 -0.4170354 -0.000889 -0.000154 0.000224
1.1340153 0.2752760 -0.4237571 -0.000212 -0.000084 0.000399
1.0050096 0.2724640 -0.4459252 -0.000337 -0.000447 0.000147