# TIME = 183.000000
VARIABLES = X, Y, Z, U, V, W
ZONE N=2562 E=5120 F=FEPOINT ET=TRIANGLE
1.5417179 0.4543503 0.0037477 -0.001863 0.000001 0.000178
-1.5455799 0.4496166 0.0105373 0.001916 0.000021 0.000045
1.5619831 -0.4453185 -0.0024547 -0.001800 0.000020 -0.000097
-1.5482660 -0.4449954 0.0014332 0.001881 0.000001 0.000116
1.1710449 0.0042751 0.5169603 -0.000235 -0.000089 -0.000265
1.1559734 -0.0033047 -0.5045110 -0.000213 0.000100 0.000397
-1.1452924 0.0026172 0.5177454 0.000260 -0.000028 -0.000262
-1.1456513 0.0045617 -0.5041126 0.000221 -0.000001 0.000398
-0.0336616 0.4098714 0.3541605 0.000309 -0.001371 0.001219
-0.0322749 -0.4382970 0.3124723 -0.000675 0.001129 0.001148
-0.0133941 0.4431854 -0.2972933 -0.000499 -0.001744 -0.001930
-0.0423040 -0.4169594 -0.3274170 0.000044 0.001013 -0.000705
1.6105941 0.4340761 0.0370381 -0.001883 0.000078 -0.000126
1.6240517 0.4215209 0.0969080 -0.000993 -0.000243 0.000184
1.6347115 0.4008384 0.1563588 -0.001182 0.000134 -0.000737
1.6401208 0.3724470 0.2150731 0.000607 -0.000449 -0.000680
1.6785342 0.3286211 0.2533040 -0.003098 0.000642 0.000215
1.6126719 0.3428695 0.2738945 -0.001145 -0.000202 0.000050
1.5997925 0.3034459 0.3228071 -0.000107 -0.000567 -0.000062
1.5834006 0.2634260 0.3623550 -0.001108 -0.000223 -0.000003
1.5628052 0.2222735 0.3953646 -0.000823 -0.000237 -0.000109
1.5407572 0.1807327 0.4215180 -0.001068 0.000029 -0.000171
1.4856839 0.1608309 0.4439969 -0.000657 -0.000196 -0.000185
1.4267370 0.1352259 0.4646790 -0.000402 -0.000149 -0.000250
1.3643401 0.1054148 0.4829601 -0.000386 0.000115 -0.000304
1.2997754 0.0733871 0.4979341 -0.000071 -0.000102 -0.000292
1.2350901 0.0397462 0.5092681 -0.000237 -0.000071 -0.000268
1.7071825 -0.3946526 0.0478928 -0.001562 -0.000018 0.000027
1.7223180 -0.3785889 0.1035110 -0.001312 0.000069 0.000003
1.7298412 -0.3560601 0.1601607 -0.000971 0.000138 -0.000202
1.7285096 -0.3279086 0.2151438 -0.001126 0.000128 -0.000034
1.7188833 -0.2949091 0.2664078 -0.000945 0.000143 -0.000138
1.7021150 -0.2578687 0.3126638 -0.000914 0.000028 -0.000242
1.6790186 -0.2178841 0.3531863 -0.001045 -0.000037 -0.000196
1.6502449 -0.1762856 0.3876423 -0.001114 0.000050 -0.000110
1.6148014 -0.1341889 0.4167031 -0.000804 -0.000207 -0.000301
1.5612689 -0.0986537 0.4423938 -0.000366 -0.000168 -0.000380
1.4979595 -0.0740414 0.4630511 -0.000274 0.000302 -0.000282
1.4329460 -0.0490028 0.4798284 -0.000145 -0.000048 -0.000338
1.3668145 -0.0216635 0.4931449 -0.000194 0.000163 -0.000296
1.3006422 0.0079402 0.5029773 -0.000318 0.000004 -0.000272
1.7818916 -0.3585418 0.0553164 -0.001452 -0.000073 -0.000286
1.7969822 -0.3368751 0.1147633 -0.001062 0.000179 0.000028
1.8015761 -0.3093257 0.1734937 -0.000922 0.000105 -0.000295
1.7958039 -0.2764519 0.2293866 -0.000810 0.000106 -0.000322
1.7803839 -0.2392304 0.2806217 -0.000758 -0.000076 -0.000462
1.7563169 -0.1988542 0.3260085 -0.000863 -0.000033 -0.000288
1.7243178 -0.1566789 0.3650810 -0.000466 -0.000209 -0.000519
1.6839229 -0.1142511 0.3981673 -0.000759 -0.000283 -0.000341
1.6319642 -0.0749165 0.4263279 -0.000555 -0.000182 -0.000339
1.5689408 -0.0427419 0.4497657 -0.000350 0.000017 -0.000336
1.5013551 -0.0153886 0.4683192 -0.000330 0.000133 -0.000310
1.4331548 0.0122585 0.4823968 -0.000242 0.000141 -0.000315
1.3658002 0.0419099 0.4922140 -0.000182 0.000054 -0.000309
1.8521314 -0.3140076 0.0608101 -0.001338 -0.000023 0.000051
1.8652677 -0.2863601 0.1235089 -0.001123 0.000032 -0.000201
1.8653551 -0.2534112 0.1843973 -0.000895 0.000154 -0.000244
1.8531186 -0.2158995 0.2412543 -0.000996 0.000040 -0.000202
1.8296374 -0.1750895 0.2923174 -0.000811 -0.000003 -0.000335
1.7960936 -0.1324821 0.3366160 -0.001019 -0.000215 -0.000240
1.7531858 -0.0898223 0.3740349 -0.001088 -0.000113 -0.000137
1.7006450 -0.0495361 0.4051855 -0.000581 -0.000199 -0.000348
1.6389566 -0.0143573 0.4307686 -0.000439 -0.000244 -0.000350
1.5708318 0.0155141 0.4513471 0.000035 -0.000071 -0.000439
1.5002600 0.0435972 0.4670005 -0.000273 -0.000004 -0.000328
1.4308456 0.0734879 0.4775211 -0.000233 0.000006 -0.000317
1.9160842 -0.2589673 0.0653924 -0.001034 0.000126 -0.000313
1.9244806 -0.2256336 0.1306087 -0.001068 0.000132 -0.000051
1.9177170 -0.1878148 0.1931095 -0.000738 0.000150 -0.000494
1.8968820 -0.1467056 0.2503609 -0.000900 -0.000011 -0.000312
1.8635711 -0.1038596 0.3006512 -0.000856 -0.000135 -0.000331
1.8194835 -0.0609816 0.3432498 -0.000710 -0.000141 -0.000361
1.7660776 -0.0201603 0.3782903 -0.000613 -0.000226 -0.000357
1.7048086 0.0162326 0.4065634 -0.000780 0.000073 -0.000240
1.6376093 0.0469594 0.4291454 -0.000346 0.000191 -0.000392
1.5665379 0.0737521 0.4468401 -0.000436 -0.000249 -0.000273
1.4945361 0.1021960 0.4590894 -0.000270 0.000041 -0.000343
1.9697286 -0.1928809 0.0687505 -0.001052 0.000171 -0.000081
1.9707716 -0.1547709 0.1358214 -0.000967 0.000098 -0.000336
1.9550061 -0.1135729 0.1990838 -0.001044 0.000132 -0.000095
1.9240749 -0.0708560 0.2558418 -0.000914 0.000030 -0.000266
1.8802747 -0.0281697 0.3045600 -0.001006 -0.000209 -0.000172
1.8261253 0.0130251 0.3447218 -0.001140 -0.000303 -0.000046
1.7643798 0.0505454 0.3766365 -0.000732 -0.000025 -0.000280
1.6975376 0.0822207 0.4016980 -0.000447 -0.000334 -0.000310
1.6278497 0.1075915 0.4214167 -0.000608 0.000371 -0.000383
1.5562657 0.1295655 0.4366227 -0.000092 -0.000201 -0.000354
2.0084525 -0.1168407 0.0705544 -0.001051 0.000122 -0.000292
2.0001455 -0.0757313 0.1386038 -0.001050 0.000204 -0.000105
1.9741506 -0.0335298 0.2015507 -0.000863 0.000050 -0.000425
1.9328580 0.0082137 0.2568621 -0.001080 -0.000128 -0.000083
1.8791044 0.0486050 0.3033349 -0.000545 -0.000089 -0.000516
1.8161418 0.0871643 0.3404514 -0.000663 -0.000441 -0.000253
1.7481271 0.1210160 0.3687774 -0.000931 0.000321 -0.000294
1.6776829 0.1472962 0.3908929 -0.000630 0.000112 -0.000353
1.6074301 0.1667043 0.4085217 -0.000793 -0.000002 -0.000236
2.0282106 -0.0339231 0.0707124 -0.001108 0.000206 -0.000052
2.0096541 0.0076496 0.1385318 -0.001095 0.000047 -0.000103
1.9736388 0.0480342 0.1999864 -0.001216 0.000209 0.000061
1.9231376 0.0862490 0.2530247 -0.000903 0.000114 -0.000325
1.8608219 0.1226978 0.2969322 -0.000923 -0.000508 -0.000015
1.7891359 0.1602123 0.3302633 -0.000607 -0.000460 -0.000186
1.7164427 0.1894122 0.3548944 -0.000648 -0.000105 -0.000286
1.6400331 0.2089290 0.3768633 -0.000447 0.000008 -0.000395
2.0267036 0.0511589 0.0693633 -0.001157 0.000001 0.000091
1.9983964 0.0904849 0.1355705 -0.001226 0.000328 -0.000019
1.9540573 0.1265409 0.1944107 -0.000965 -0.000137 -0.000200
1.8971365 0.1588475 0.2443909 -0.001452 0.000530 -0.000068
1.8281295 0.1899037 0.2859414 -0.000230 -0.000119 -0.000714
1.7469782 0.2310151 0.3132737 0.001197 -0.000810 -0.000909
1.6658827 0.2493306 0.3401220 -0.000534 -0.000348 -0.000148
2.0040791 0.1332509 0.0669331 -0.001190 0.000085 0.000017
1.9675707 0.1683527 0.1302827 -0.001385 0.000111 0.000386
1.9174290 0.1987325 0.1854182 -0.001537 0.000406 0.000076
1.8587939 0.2238597 0.2308705 -0.001480 0.000212 0.000054
1.7957671 0.2426297 0.2668981 -0.003214 0.001436 0.000200
1.6773267 0.2893202 0.3003794 -0.001067 -0.000834 0.000640
1.9625825 0.2081719 0.0642574 -0.001103 -0.000170 0.000233
1.9192442 0.2383986 0.1243212 -0.001177 0.000137 -0.000317
1.8638762 0.2635566 0.1761724 -0.001187 -0.000370 0.000509
1.8014680 0.2825706 0.2202895 -0.001446 0.000356 -0.000303
1.7408400 0.2854149 0.2662489 -0.002273 0.000914 -0.000363
1.9057874 0.2732582 0.0623841 -0.000988 -0.000228 0.000027
1.8561088 0.2986837 0.1197813 -0.001158 -0.000089 0.000040
1.7947307 0.3190168 0.1701987 -0.001052 0.000148 -0.000599
1.7290051 0.3313203 0.2147110 -0.000997 -0.000010 -0.000300
1.8381345 0.3273237 0.0618337 -0.001050 -0.000130 -0.000197
1.7822187 0.3483973 0.1171844 -0.000467 -0.000313 -0.000574
1.7137076 0.3643443 0.1672629 -0.000901 -0.000031 -0.000480
1.7645871 0.3705209 0.0613620 -0.001526 0.000140 -0.000454
1.7035548 0.3882817 0.1122906 -0.001082 -0.000016 -0.000533
1.6879106 0.4051223 0.0573333 -0.001289 -0.000039 -0.000401
1.6679841 0.4147536 0.0056531 -0.002587 0.000379 0.000166
1.7375608 0.3873566 0.0051203 -0.001561 0.000050 -0.000317
1.8090121 0.3501877 0.0033867 -0.001205 -0.000080 0.000156
1.8783669 0.3024009 0.0010301 -0.001288 0.000018 -0.000099
1.9403941 0.2433426 -0.0009857 -0.001332 0.000140 -0.000033
1.9901483 0.1734140 -0.0020104 -0.001173 0.000006 0.000138
2.0231712 0.0944682 -0.0019574 -0.001171 0.000084 0.000262
2.0360622 0.0100508 -0.0011033 -0.001151 0.000072 -0.000005
2.0273270 -0.0748868 0.0001144 -0.001172 -0.000066 -0.000042
1.9979928 -0.1551731 0.0011422 -0.001165 0.000024 -0.000086
1.9513212 -0.2267700 0.0013562 -0.001280 -0.000085 0.000028
1.8919280 -0.2874327 0.0003549 -0.001276 -0.000016 0.000346
1.8248722 -0.3366537 -0.0015826 -0.001438 -0.000062 0.000147
1.7552598 -0.3751190 -0.0034796 -0.001711 -0.000138 0.000489
1.6869612 -0.4036887 -0.0043552 -0.002867 -0.000513 0.000141
1.6297010 -0.4232273 -0.0360710 -0.001884 -0.000108 0.000479
1.6412346 -0.4090201 -0.0961614 -0.000986 0.000230 0.000092
1.6490690 -0.3867344 -0.1557531 -0.001206 -0.000152 0.000837
1.6508309 -0.3568814 -0.2143336 0.000634 0.000447 0.000858
1.6852695 -0.3113661 -0.2525718 -0.003163 -0.000613 -0.000187
1.6194647 -0.3266327 -0.2721929 -0.001270 0.000106 0.000154
1.6025338 -0.2866375 -0.3200246 -0.000214 0.000643 0.000117
1.5825813 -0.2464585 -0.3583204 -0.001174 0.000165 0.000169
1.5588254 -0.2054942 -0.3899872 -0.000991 0.000140 0.000253
1.5340117 -0.1643799 -0.4148405 -0.001093 -0.000073 0.000317
1.4775409 -0.1462880 -0.4358959 -0.000734 0.000149 0.000323
1.4170764 -0.1229395 -0.4551624 -0.000417 0.000049 0.000410
1.3531488 -0.0957965 -0.4721949 -0.000371 -0.000080 0.000430
1.2871603 -0.0666937 -0.4862231 -0.000106 0.000156 0.000411
1.2211841 -0.0359956 -0.4969908 -0.000308 0.000152 0.000386
1.6877519 0.4048676 -0.0457202 -0.001524 0.000001 0.000088
1.7034847 0.3878843 -0.0996537 -0.000968 -0.000183 0.000226
1.7135756 0.3641825 -0.1537946 -0.001033 0.000047 0.000645
1.7173118 0.3347662 -0.2050869 -0.001049 0.000156 0.000647
1.7141568 0.3004626 -0.2514908 -0.003041 0.000974 0.000161
1.6665517 0.2874008 -0.2956443 0.000866 -0.001007 0.000351
1.6477469 0.2442699 -0.3381513 -0.001031 -0.000296 0.000107
1.6223176 0.1998907 -0.3745415 -0.000956 -0.000084 0.000281
1.5900044 0.1556009 -0.4046742 -0.000848 0.000148 0.000402
1.5389907 0.1172935 -0.4309003 -0.000421 0.000044 0.000460
1.4773687 0.0896672 -0.4516872 -0.000216 -0.000210 0.000429
1.4139374 0.0616143 -0.4684903 -0.000178 0.000000 0.000452
1.3494352 0.0312763 -0.4816933 -0.000228 -0.000088 0.000420
1.2849660 -0.0012827 -0.4912262 -0.000220 0.000015 0.000414
1.7641807 0.3700106 -0.0520555 -0.001446 0.000078 0.000415
1.7804393 0.3474517 -0.1091311 -0.001022 -0.000178 0.000137
1.7875988 0.3189108 -0.1650346 -0.001284 -0.000225 -0.000250
1.7845569 0.2852661 -0.2189042 -0.001266 -0.000007 0.000154
1.7579275 0.2540130 -0.2722196 -0.000510 0.000113 0.000780
1.7262020 0.2235441 -0.3154619 -0.000609 -0.000234 0.000370
1.6970919 0.1816694 -0.3541865 -0.000564 0.000043 0.000518
1.6597521 0.1378433 -0.3875658 -0.000652 -0.000010 0.000420
1.6106011 0.0962942 -0.4159704 -0.000546 0.000121 0.000460
1.5497750 0.0613649 -0.4394025 -0.000324 -0.000136 0.000450
1.4839241 0.0310274 -0.4578021 -0.000375 -0.000186 0.000420
1.4173284 0.0003541 -0.4716349 -0.000162 -0.000094 0.000454
1.3515754 -0.0322885 -0.4810741 -0.000181 -0.000126 0.000443
1.8364683 0.3267640 -0.0572296 -0.001328 -0.000033 -0.000179
1.8505047 0.2982841 -0.1179188 -0.001161 0.000077 0.000487
1.8512524 0.2646906 -0.1775507 -0.001176 0.000045 0.000274
1.8358892 0.2289041 -0.2349124 -0.001524 0.000407 0.000254
1.8066433 0.1934966 -0.2861266 -0.000428 -0.000383 0.000470
1.7713599 0.1555865 -0.3292315 -0.000675 -0.000108 0.000431
1.7303962 0.1138531 -0.3658348 -0.000912 0.000105 0.000358
1.6803907 0.0725627 -0.3966401 -0.000622 0.000140 0.000454
1.6210349 0.0353344 -0.4219097 -0.000393 0.000128 0.000488
1.5548219 0.0028193 -0.4421086 0.000004 0.000102 0.000554
1.4859029 -0.0281715 -0.4573327 -0.000301 -0.000055 0.000453
1.4180824 -0.0610082 -0.4673685 -0.000293 -0.000011 0.000436
1.9024255 0.2732208 -0.0626452 -0.000962 -0.000206 0.000287
1.9106552 0.2393793 -0.1267870 -0.001470 0.000109 -0.000205
1.9024124 0.2021456 -0.1891333 -0.000690 -0.000154 0.000631
1.8786208 0.1636751 -0.2464510 -0.000785 0.000108 0.000598
1.8430880 0.1244742 -0.2962242 -0.000683 0.000213 0.000616
1.7992446 0.0840888 -0.3378302 -0.000644 -0.000129 0.000462
1.7476581 0.0436446 -0.3720365 -0.000543 0.000135 0.000512
1.6885049 0.0061622 -0.3996518 -0.000707 -0.000138 0.000393
1.6231885 -0.0265777 -0.4215974 -0.000412 -0.000292 0.000494
1.5537008 -0.0559191 -0.4386235 -0.000425 0.000157 0.000425
1.4832385 -0.0871653 -0.4502229 -0.000292 -0.000022 0.000463
1.9581108 0.2090024 -0.0676071 -0.001048 -0.000145 0.000227
1.9580296 0.1710291 -0.1342157 -0.001038 0.000104 0.000512
1.9405231 0.1310887 -0.1972754 -0.001162 0.000064 0.000172
1.9079378 0.0906375 -0.2536486 -0.000754 -0.000199 0.000482
1.8636543 0.0501941 -0.3015933 -0.000803 -0.000004 0.000434
1.8104537 0.0101438 -0.3408285 -0.001107 0.000304 0.000220
1.7503998 -0.0276269 -0.3718857 -0.000767 -0.000090 0.000398
1.6852631 -0.0606246 -0.3961216 -0.000461 0.000332 0.000444
1.6169761 -0.0880005 -0.4149704 -0.000587 -0.000423 0.000515
1.5465462 -0.1124050 -0.4292686 -0.000202 0.000146 0.000473
1.9994486 0.1349825 -0.0710493 -0.001135 0.000010 0.000213
1.9897655 0.0944281 -0.1387699 -0.001026 -0.000174 0.000270
1.9624531 0.0534961 -0.2013082 -0.000697 -0.000044 0.000753
1.9204460 0.0133119 -0.2559684 -0.001061 0.000235 0.000248
1.8669665 -0.0259484 -0.3015753 -0.000459 0.000002 0.000702
1.8051818 -0.0643202 -0.3377801 -0.000645 0.000360 0.000428
1.7386684 -0.0989807 -0.3652101 -0.000920 -0.000366 0.000424
1.6694862 -0.1268018 -0.3863505 -0.000697 -0.000216 0.000483
1.6001153 -0.1481839 -0.4029206 -0.000848 -0.000070 0.000378
2.0227242 0.0536323 -0.0723615 -0.001076 -0.000148 0.000296
2.0029038 0.0126939 -0.1398489 -0.001103 0.000083 0.000212
1.9659881 -0.0267368 -0.2007741 -0.001154 -0.000336 0.000169
1.9152204 -0.0640969 -0.2530650 -0.000764 -0.000253 0.000611
1.8533893 -0.1002376 -0.2960713 -0.000974 0.000561 0.000126
1.7830031 -0.1382979 -0.3284993 -0.000704 0.000448 0.000287
1.7115093 -0.1687217 -0.3521435 -0.000680 0.000044 0.000432
1.6357590 -0.1899855 -0.3728816 -0.000426 0.000025 0.000513
2.0253901 -0.0308403 -0.0714801 -0.001156 -0.000041 0.000079
1.9959958 -0.0696228 -0.1373996 -0.001158 -0.000364 0.000282
1.9509744 -0.1050828 -0.1957293 -0.000958 0.000237 0.000291
1.8938584 -0.1370654 -0.2449808 -0.001413 -0.000595 0.000243
1.8252207 -0.1683553 -0.2856117 -0.000164 0.000172 0.000843
1.7457300 -0.2106181 -0.3120872 0.001168 0.000775 0.001060
1.6649556 -0.2304164 -0.3375980 -0.000661 0.000305 0.000273
2.0070482 -0.1133800 -0.0688391 -0.001193 -0.000032 0.000008
1.9696198 -0.1480289 -0.1320607 -0.001456 -0.000255 -0.000214
1.9188813 -0.1780736 -0.1868216 -0.001574 -0.000566 0.000131
1.8599568 -0.2031863 -0.2316626 -0.001524 -0.000200 0.000021
1.7967920 -0.2223636 -0.2668349 -0.003292 -0.001452 -0.000187
1.6800488 -0.2709947 -0.2989516 -0.001213 0.000784 -0.000462
1.9694899 -0.1895087 -0.0654680 -0.001189 0.000066 -0.000080
1.9254105 -0.2193225 -0.1256588 -0.001147 -0.000056 0.000333
1.8694886 -0.2443079 -0.1773052 -0.001356 0.000308 -0.000433
1.8065773 -0.2634599 -0.2208752 -0.001332 -0.000340 0.000484
1.7444889 -0.2664255 -0.2659166 -0.002225 -0.000982 0.000529
1.9161101 -0.2561316 -0.0627465 -0.001169 0.000067 0.000094
1.8658368 -0.2811783 -0.1205208 -0.001220 -0.000018 0.000242
1.8038509 -0.3014440 -0.1708324 -0.001127 -0.000163 0.000624
1.7372848 -0.3139422 -0.2147928 -0.001096 -0.000057 0.000441
1.8513357 -0.3117577 -0.0615233 -0.001126 0.000118 0.000140
1.7948749 -0.3325300 -0.1173593 -0.000504 0.000277 0.000756
1.7256264 -0.3485130 -0.1672636 -0.000820 0.000070 0.000601
1.7801190 -0.3564391 -0.0606991 -0.001538 -0.000186 0.000679
1.7185877 -0.3740425 -0.1119946 -0.001190 -0.000066 0.000737
1.7053146 -0.3925173 -0.0565345 -0.001264 0.000057 0.000426
1.4733407 0.4691995 0.0341475 -0.001303 -0.000167 0.000131
1.4031000 0.4797452 0.0638255 -0.001509 -0.000154 0.000123
1.3317326 0.4864932 0.0927920 -0.001102 -0.000269 0.000287
1.2610119 0.4896419 0.1214621 -0.001199 -0.000298 0.000348
1.1129672 0.5028902 0.1256799 -0.000799 -0.000123 -0.000607
1.0587074 0.4911729 0.1827064 0.000337 -0.000125 -0.000624
0.9860382 0.4901002 0.1911922 0.000037 -0.000460 0.000383
0.9244682 0.4816691 0.2214381 0.000016 -0.000522 0.000460
0.7989326 0.4905752 0.2120422 -0.000371 -0.000404 0.000250
0.7347679 0.4795426 0.2395693 -0.000572 0.000034 -0.000672
0.6054181 0.4745699 0.2545532 -0.000603 -0.000194 -0.000206
0.4830775 0.4829459 0.2407735 -0.001379 -0.000088 -0.000416
0.3392864 0.4507550 0.2993541 -0.000386 -0.000355 0.000053
0.2159406 0.4288443 0.3317500 0.000296 -0.000296 -0.000048
0.1410029 0.4356214 0.3235960 0.002391 -0.000168 -0.000190
1.1703926 0.0735206 0.5119574 -0.000247 -0.000204 -0.000238
1.1065738 0.1081376 0.5111241 -0.000219 -0.000134 -0.000238
1.0429756 0.1415986 0.5073067 -0.000038 -0.000338 -0.000183
0.9783117 0.1734486 0.5010348 -0.000413 -0.000477 -0.000092
0.9134387 0.2046589 0.4921931 -0.000237 -0.000079 -0.000238
0.8490315 0.2354798 0.4806452 -0.000161 -0.000460 -0.000053
0.7881538 0.2756623 0.4610088 -0.000404 -0.000016 -0.000278
0.7337273 0.3182767 0.4347465 -0.000113 0.000217 -0.000480
0.6587303 0.3379891 0.4202380 -0.000083 0.000023 -0.000348
0.5869080 0.3558046 0.4064589 0.000202 0.000191 -0.000516
0.5219330 0.3697633 0.3934182 -0.000518 -0.000876 0.000489
0.4277566 0.4034340 0.3604950 -0.000888 -0.000003 -0.000382
0.3521368 0.4011559 0.3635572 0.000174 0.000023 -0.000418
0.2866840 0.4056190 0.3588643 0.000594 -0.000231 -0.000138
1.2348294 0.1067143 0.4996836 -0.000398 -0.000157 -0.000228
1.1712966 0.1418154 0.4973866 -0.000147 -0.000020 -0.000279
1.1092754 0.1767817 0.4914427 -0.000288 -0.000122 -0.000229
1.0465603 0.2078370 0.4836269 -0.000499 -0.000407 -0.000087
0.9803544 0.2369123 0.4740306 -0.000322 -0.000415 -0.000071
0.9156093 0.2684617 0.4604212 -0.000451 -0.000253 -0.000135
0.8566915 0.2914889 0.4477465 -0.000745 -0.000288 -0.000094
0.8204909 0.3316158 0.4206103 -0.000668 -0.000104 -0.000226
0.7830961 0.3662549 0.3915212 -0.000782 0.000289 -0.000608
0.7163936 0.3757859 0.3853141 -0.000363 0.000149 -0.000505
0.6413375 0.3910244 0.3711757 -0.000601 0.000292 -0.000683
0.4945868 0.4101889 0.3522566 -0.000867 -0.000710 0.000434
0.3960172 0.4407077 0.3122265 0.000086 0.000550 -0.001240
1.2998377 0.1376600 0.4841409 -0.000290 -0.000263 -0.000213
1.2359891 0.1717957 0.4810262 -0.000264 -0.000325 -0.000172
1.1745410 0.2086101 0.4729356 -0.000306 -0.000232 -0.000184
1.1146644 0.2440137 0.4612699 -0.000357 -0.000263 -0.000149
1.0502895 0.2680231 0.4523623 -0.000482 -0.000527 0.000029
0.9751350 0.2954258 0.4398494 -0.000044 -0.000297 -0.000123
0.9042928 0.3315777 0.4178030 -0.000490 -0.000817 0.000332
0.8579767 0.3838983 0.3725604 -0.000285 -0.000612 0.000259
0.7834578 0.4124859 0.3430610 -0.000465 0.000115 -0.000551
0.6960615 0.4202941 0.3353201 -0.000209 0.000131 -0.000598
0.5678022 0.4082573 0.3533009 -0.000822 -0.000374 0.000044
0.4597898 0.4492440 0.3000633 0.000037 -0.000334 0.000022
1.3639905 0.1685884 0.4647640 -0.000506 0.000189 -0.000341
1.3016746 0.1983060 0.4622109 -0.000325 -0.000102 -0.000255
1.2401513 0.2337330 0.4536130 -0.000117 -0.000236 -0.000206
1.1827538 0.2716689 0.4386046 -0.000350 -0.000406 -0.000058
1.1196809 0.3077147 0.4212453 -0.000003 -0.000375 -0.000079
1.0439619 0.3144003 0.4207886 -0.000437 -0.000515 0.000076
0.9854230 0.3448939 0.4010245 -0.000392 -0.000276 -0.000098
0.9320734 0.3734373 0.3772355 -0.001264 -0.000377 0.000073
0.8598756 0.4306898 0.3152003 -0.000526 -0.000384 0.000095
0.6172104 0.4369603 0.3152361 -0.000656 -0.000228 -0.000124
0.5385711 0.4521091 0.2954430 -0.000549 -0.000479 0.000259
1.4248664 0.1978215 0.4420439 -0.000422 -0.000079 -0.000272
1.3652412 0.2322066 0.4363284 -0.000618 -0.000068 -0.000237
1.3066337 0.2532039 0.4330269 -0.000849 0.000149 -0.000328
1.2626988 0.2895382 0.4165814 -0.000211 -0.000073 -0.000298
1.2017500 0.3240200 0.3986297 -0.000731 -0.000336 -0.000022
1.0681206 0.3549680 0.3857876 -0.001008 -0.000516 0.000181
1.0057239 0.3907647 0.3547550 -0.000727 -0.000563 0.000259
0.9326350 0.4130619 0.3333937 -0.000620 -0.000422 0.000125
0.7395639 0.4454499 0.2982522 -0.000694 0.000257 -0.000869
0.6730580 0.4613886 0.2761625 -0.000641 -0.000189 -0.000195
1.4872500 0.2190275 0.4178394 -0.000532 -0.000006 -0.000303
1.4250672 0.2573845 0.4099042 -0.000764 -0.000252 -0.000104
1.3527304 0.2933217 0.4003548 -0.000020 -0.000038 -0.000386
1.2890392 0.3340544 0.3775126 -0.000682 -0.000169 -0.000167
1.1441830 0.3600960 0.3734758 -0.000654 -0.000425 0.000079
1.0819015 0.3982216 0.3389398 -0.000723 -0.000433 0.000139
1.0140419 0.4315692 0.3029024 -0.000179 -0.000506 0.000248
0.9330816 0.4495099 0.2815220 -0.000619 -0.000489 0.000308
0.7998935 0.4560671 0.2803160 -0.000258 -0.000296 -0.000030
1.5015286 0.2668281 0.3850812 -0.000473 0.000167 -0.000470
1.4344702 0.3056420 0.3727853 -0.000615 -0.000144 -0.000211
1.3709004 0.3416589 0.3551154 -0.000801 0.000061 -0.000371
1.2257161 0.3694055 0.3530397 -0.000746 -0.000086 -0.000250
1.1641785 0.4024436 0.3236156 -0.000807 -0.000498 0.000253
1.1022623 0.4323867 0.2904594 -0.000897 -0.000356 0.000120
1.0570028 0.4596442 0.2503080 -0.000995 -0.000237 -0.000055
0.8630099 0.4697569 0.2517892 -0.000095 -0.000286 -0.000057
1.5183284 0.3092620 0.3465983 -0.000709 0.000029 -0.000354
1.4532603 0.3483567 0.3275818 -0.000572 -0.000184 -0.000198
1.3080980 0.3771165 0.3302610 -0.000767 -0.000412 0.000123
1.2448045 0.4088850 0.3021548 -0.001055 -0.000148 -0.000146
1.1824890 0.4372938 0.2705148 -0.000588 -0.000307 0.000007
1.1205969 0.4642013 0.2320039 -0.000764 -0.000562 0.000575
0.9975434 0.4681209 0.2422116 -0.000346 -0.000449 0.000277
1.5351882 0.3485453 0.3003992 -0.001149 0.000083 -0.000317
1.3891616 0.3830772 0.3044040 -0.001031 0.000020 -0.000336
1.3244500 0.4144942 0.2769883 -0.000730 -0.000176 -0.000176
1.2596655 0.4421479 0.2463225 -0.001103 -0.000291 0.000106
1.1965785 0.4656783 0.2134160 -0.000938 -0.000125 -0.000297
1.1322362 0.4842639 0.1801822 -0.001732 -0.000247 0.000184
1.4705224 0.3855132 0.2762217 -0.000490 -0.000284 -0.000109
1.4029624 0.4175494 0.2494378 -0.001127 -0.000258 0.000085
1.3346127 0.4456325 0.2188249 -0.000608 -0.000280 -0.000034
1.2658783 0.4694974 0.1852608 -0.001300 -0.000297 0.000246
1.1943755 0.4890972 0.1504607 -0.000831 -0.000342 0.000265
1.5536196 0.3823524 0.2464588 -0.001001 0.000004 -0.000350
1.4820513 0.4163496 0.2206917 -0.000456 -0.000192 -0.000307
1.4093107 0.4455571 0.1905508 -0.001155 -0.000232 0.000086
1.3363228 0.4699659 0.1568960 -0.000700 -0.000287 0.000035
1.5619113 0.4097480 0.1910687 -0.000723 -0.000512 0.000498
1.4840214 0.4413297 0.1617937 -0.000784 -0.000247 -0.000050
1.4080497 0.4666667 0.1284198 -0.001059 -0.000256 0.000166
1.5561641 0.4333013 0.1312807 -0.001432 -0.000154 0.000224
1.4789625 0.4596230 0.0992823 -0.001036 -0.000214 0.000022
1.5470900 0.4488229 0.0687165 -0.001310 -0.000139 0.000061
1.6101564 0.4339623 -0.0262856 -0.001525 -0.000074 -0.000293
1.6233447 0.4213759 -0.0843809 -0.001258 -0.000168 -0.000104
1.6348239 0.4013974 -0.1401824 -0.001404 -0.000084 0.000058
1.6424795 0.3742507 -0.1942517 -0.001382 0.000005 0.000243
1.6479800 0.3381268 -0.2473989 -0.001456 0.000189 0.000403
1.5833280 0.3366451 -0.2812113 -0.001313 -0.000567 -0.000398
1.5833834 0.2950462 -0.3232623 -0.000340 -0.000030 0.000577
1.5669541 0.2531003 -0.3615363 -0.000651 0.000141 0.000540
1.5458929 0.2103438 -0.3931234 -0.000825 0.000065 0.000399
1.5233583 0.1682875 -0.4175093 -0.000926 -0.000043 0.000310
1.4679022 0.1480497 -0.4385834 -0.000502 -0.000327 0.000310
1.4087755 0.1232103 -0.4575460 -0.000413 -0.000111 0.000388
1.3467000 0.0948466 -0.4740724 -0.000226 -0.000257 0.000381
1.2829310 0.0643461 -0.4875519 -0.000038 -0.000149 0.000419
1.2192055 0.0317915 -0.4977318 -0.000289 -0.000012 0.000397
1.0915239 0.0305652 -0.5087595 -0.000234 0.000258 0.000405
1.0274969 0.0640885 -0.5099303 -0.000234 0.000050 0.000393
0.9632578 0.0960897 -0.5084759 -0.000421 -0.000202 0.000340
0.8985125 0.1264874 -0.5047882 -0.000469 -0.000339 0.000295
0.8333793 0.1560304 -0.4989606 -0.000473 -0.000331 0.000281
0.7693366 0.1879311 -0.4899817 -0.000238 -0.000176 0.000328
0.7099942 0.2230258 -0.4768607 -0.000041 -0.000174 0.000327
0.6548172 0.2580617 -0.4603233 -0.000349 -0.000791 -0.000022
0.6022339 0.2947058 -0.4392593 -0.000132 -0.000552 0.000071
0.5443995 0.3304049 -0.4145190 0.000169 0.000738 0.001021
0.4858448 0.3542894 -0.3954735 -0.000824 -0.000048 0.000421
0.3597036 0.3415477 -0.4066921 -0.000227 -0.001025 -0.000387
0.2322433 0.3455283 -0.4037196 -0.000036 0.000738 0.001065
0.1561045 0.3679251 -0.3848379 -0.001223 -0.000223 0.000265
0.0491759 0.4243806 -0.3237282 -0.000203 0.000280 0.000932
1.5457611 0.4483283 -0.0602189 -0.001505 -0.000119 -0.000126
1.4767574 0.4580340 -0.0949319 -0.001340 -0.000161 0.000055
1.4049937 0.4630580 -0.1294300 -0.001251 -0.000224 -0.000019
1.3317137 0.4636120 -0.1635338 -0.001029 -0.000204 0.000198
1.1764091 0.4791943 -0.1720288 -0.000742 -0.000198 0.000334
1.0993983 0.4710130 -0.2090522 -0.000775 -0.000047 0.000627
1.0060182 0.4676430 -0.2291792 -0.000196 -0.000129 0.000504
0.8664107 0.4732556 -0.2310510 -0.000871 -0.000130 0.000438
0.7930667 0.4604922 -0.2587589 0.000053 -0.000664 -0.000449
0.6657332 0.4658886 -0.2545858 -0.000114 0.000073 0.000801
0.5396147 0.4370667 -0.3031581 0.000044 -0.000253 0.000236
0.4120598 0.4340699 -0.3097318 -0.000405 -0.000775 -0.000470
0.3676113 0.3913832 -0.3590725 -0.001266 -0.000878 -0.000441
0.2278843 0.3978239 -0.3535747 -0.000426 -0.000093 0.000417
1.5550923 0.4326219 -0.1202903 -0.001372 -0.000114 0.000103
1.4843849 0.4386180 -0.1550479 -0.001085 -0.000237 0.000022
1.4120592 0.4398547 -0.1887855 -0.001100 -0.000184 0.000181
1.2583744 0.4597037 -0.1975563 -0.001077 -0.000282 0.000022
1.1869776 0.4514587 -0.2310951 -0.000766 -0.000329 0.000038
1.0635681 0.4449543 -0.2616382 -0.001071 -0.000144 0.000329
0.9374882 0.4438129 -0.2780291 -0.000214 -0.000734 -0.000503
0.8627810 0.4412393 -0.2845209 -0.000019 -0.000181 0.000357
0.7361343 0.4447188 -0.2880777 -0.000537 -0.000504 -0.000145
0.6680966 0.4328738 -0.3046464 -0.000583 -0.000040 0.000513
0.6028948 0.4334587 -0.3070317 -0.000015 -0.000326 0.000137
0.4814254 0.4087659 -0.3398899 -0.000652 -0.000358 0.000108
0.2968800 0.3786743 -0.3744397 0.000397 0.000238 0.000737
1.5643003 0.4089570 -0.1771831 -0.001025 -0.000299 -0.000085
1.4927036 0.4112925 -0.2115256 -0.001291 -0.000097 0.000227
1.3391211 0.4363748 -0.2220953 -0.000989 -0.000212 0.000182
1.2685385 0.4277475 -0.2556410 -0.001130 -0.000236 0.000127
1.2046374 0.4140757 -0.2885123 -0.000885 -0.000388 -0.000018
1.1272621 0.4348121 -0.2701710 -0.000992 0.000075 0.000664
1.0056797 0.4316834 -0.2883051 -0.001287 -0.000052 0.000441
0.8905947 0.4078593 -0.3288210 -0.000366 -0.000388 0.000071
0.8100375 0.4193750 -0.3190606 -0.000485 -0.000293 0.000175
0.7006988 0.4078828 -0.3359227 -0.001019 -0.000270 0.000195
0.6282534 0.3953132 -0.3525798 -0.000274 -0.000453 0.000015
0.4246151 0.3771454 -0.3749528 -0.000685 -0.000532 -0.000035
1.5725443 0.3773005 -0.2312889 -0.001292 -0.000277 -0.000115
1.4195239 0.4092078 -0.2439420 -0.000879 -0.000391 -0.000084
1.3454784 0.4017944 -0.2766678 -0.000642 0.000033 0.000617
1.2748538 0.3860732 -0.3125709 -0.001425 -0.000225 0.000103
1.1427225 0.3968446 -0.3186714 -0.002196 -0.000015 0.000295
1.0658822 0.4034862 -0.3215973 -0.000709 0.000025 0.000552
0.9767956 0.3982388 -0.3355771 -0.000184 -0.000946 -0.000544
0.9088335 0.3698130 -0.3684960 -0.001659 -0.000484 -0.000058
0.7594627 0.3937223 -0.3514656 -0.000864 0.000171 0.000690
0.6880532 0.3666332 -0.3802575 -0.000001 -0.000637 -0.000115
0.5532433 0.3891879 -0.3617803 0.000010 -0.000157 0.000344
1.5009113 0.3768832 -0.2633955 -0.000639 -0.000277 0.000205
1.4250848 0.3729740 -0.2932912 -0.001083 -0.000309 0.000031
1.3468984 0.3617988 -0.3254562 -0.000510 0.000094 0.000628
1.2055825 0.3686261 -0.3431754 -0.001057 0.000136 0.000576
1.1214340 0.3595443 -0.3627345 -0.000517 -0.000303 0.000189
1.0442187 0.3597420 -0.3699087 -0.000772 -0.000323 0.000150
0.9657036 0.3468119 -0.3873959 -0.000184 -0.000275 0.000244
0.8302007 0.3691209 -0.3747431 -0.000261 -0.000321 0.000182
0.7517216 0.3436126 -0.3993952 -0.000642 0.000018 0.000467
0.6114552 0.3510807 -0.3961677 0.000051 -0.000451 0.000084
1.5056689 0.3377384 -0.3090516 -0.000383 -0.000348 0.000229
1.4284416 0.3329372 -0.3360323 -0.000924 -0.000290 0.000130
1.3542559 0.3214778 -0.3620744 -0.001759 0.000014 0.000240
1.2747185 0.3359152 -0.3654872 -0.000296 0.000035 0.000546
1.1849386 0.3233000 -0.3875120 -0.000788 0.000021 0.000440
1.0247393 0.3154776 -0.4078557 0.000005 -0.000580 0.000037
0.8873222 0.3228118 -0.4117531 -0.000098 -0.000668 -0.000046
0.8056053 0.3148367 -0.4203903 -0.000294 -0.000061 0.000397
0.6732846 0.3175723 -0.4218505 -0.000066 -0.000939 -0.000245
1.5000257 0.2961445 -0.3496126 -0.001235 -0.000373 -0.000016
1.4174379 0.2890654 -0.3757948 -0.000802 0.000328 0.000652
1.3304441 0.2830410 -0.3977695 -0.000426 -0.000580 0.000061
1.2437533 0.2877837 -0.4068647 -0.000343 0.000260 0.000631
1.0998144 0.3080112 -0.4093529 0.000066 -0.000458 0.000153
0.9594544 0.2918318 -0.4295637 0.000206 -0.000222 0.000320
0.8446538 0.2770541 -0.4436655 -0.000197 -0.000263 0.000268
0.7287473 0.2866621 -0.4419275 0.000329 -0.000065 0.000401
1.4846892 0.2528977 -0.3849910 -0.000804 -0.000128 0.000305
1.4059535 0.2435708 -0.4083765 -0.000915 -0.000084 0.000307
1.2855822 0.2460890 -0.4264877 -0.001236 -0.000022 0.000306
1.1644534 0.2703794 -0.4277258 -0.000155 -0.000176 0.000351
1.0337361 0.2661461 -0.4410513 -0.000385 -0.000475 0.000143
0.9027918 0.2589164 -0.4528177 -0.000155 -0.000319 0.000246