# TIME = 150.400000
VARIABLES = X, Y, Z, U, V, W
ZONE N=2562 E=5120 F=FEPOINT ET=TRIANGLE
1.5889910 0.4536831 -0.0031747 -0.001779 -0.000038 0.000056
-1.5881963 0.4497636 0.0029423 0.002057 -0.000052 0.000188
1.6109135 -0.4429526 0.0040737 -0.001856 0.000040 0.000008
-1.5981983 -0.4416535 -0.0004448 0.002176 0.000051 0.000112
1.2041302 0.0013439 0.5082562 -0.000111 -0.000080 -0.000275
1.1902938 0.0006920 -0.4983327 -0.000142 0.000123 0.000399
-1.1834556 0.0027349 0.5070694 0.000486 0.000017 -0.000290
-1.1836224 0.0040418 -0.4963799 0.000469 0.000001 0.000419
-0.0353164 0.3891659 0.3346511 0.000366 -0.001142 0.000936
-0.0337313 -0.4145888 0.2944468 -0.000403 0.001056 0.001000
-0.0131246 0.4212889 -0.2821753 -0.000275 -0.001585 -0.001697
-0.0430954 -0.3939185 -0.3114942 0.000084 0.000894 -0.000519
1.6600922 0.4343760 0.0283565 -0.001668 -0.000022 0.000186
1.6749239 0.4229598 0.0861928 -0.000930 -0.000282 0.000279
1.6873430 0.4041193 0.1426928 -0.001079 -0.000089 -0.000263
1.6952191 0.3779704 0.1980246 -0.001045 -0.000305 0.000218
1.6994862 0.3439722 0.2510574 -0.001289 -0.000100 -0.000003
1.6241652 0.3473307 0.2831433 -0.000649 -0.000517 0.000202
1.6244522 0.3068279 0.3267854 0.000080 -0.000530 -0.000136
1.6162799 0.2644924 0.3644576 -0.000685 -0.000511 0.000053
1.6000055 0.2213431 0.3964816 -0.000755 -0.000276 -0.000116
1.5797149 0.1787583 0.4217692 -0.000971 0.000066 -0.000226
1.5242680 0.1564761 0.4436407 -0.000614 -0.000215 -0.000196
1.4644056 0.1296153 0.4631308 -0.000365 -0.000296 -0.000218
1.4007731 0.0996857 0.4797540 -0.000269 0.000049 -0.000306
1.3349963 0.0683033 0.4928673 0.000042 -0.000118 -0.000298
1.2692117 0.0356606 0.5023430 -0.000157 -0.000005 -0.000280
1.7591233 -0.3922391 0.0544497 -0.001575 0.000003 -0.000022
1.7740415 -0.3754497 0.1092721 -0.001274 0.000107 -0.000030
1.7812174 -0.3522262 0.1652034 -0.001020 0.000145 -0.000189
1.7793487 -0.3234525 0.2194857 -0.001037 0.000182 -0.000072
1.7689867 -0.2899657 0.2700035 -0.000886 0.000146 -0.000206
1.7513012 -0.2526453 0.3154297 -0.000899 0.000080 -0.000232
1.7271315 -0.2126664 0.3550312 -0.000939 -0.000032 -0.000263
1.6971622 -0.1714254 0.3885022 -0.001025 0.000071 -0.000158
1.6603964 -0.1301040 0.4165273 -0.000814 -0.000227 -0.000319
1.6052262 -0.0959066 0.4410361 -0.000294 -0.000152 -0.000401
1.5400843 -0.0728958 0.4604892 -0.000146 0.000314 -0.000312
1.4730996 -0.0495317 0.4760998 -0.000108 -0.000034 -0.000344
1.4048827 -0.0237580 0.4883099 -0.000105 0.000174 -0.000307
1.3366346 0.0046101 0.4970946 -0.000295 -0.000029 -0.000278
1.8352425 -0.3560693 0.0613133 -0.001602 -0.000130 -0.000293
1.8500508 -0.3335232 0.1201583 -0.000971 0.000213 -0.000121
1.8541641 -0.3051056 0.1783865 -0.000948 0.000062 -0.000386
1.8476642 -0.2714395 0.2337451 -0.000784 0.000152 -0.000319
1.8312764 -0.2335992 0.2843260 -0.000697 -0.000072 -0.000519
1.8060407 -0.1928911 0.3289014 -0.000818 -0.000009 -0.000319
1.7727190 -0.1507880 0.3670140 -0.000479 -0.000171 -0.000503
1.7308753 -0.1089575 0.3990289 -0.000759 -0.000301 -0.000357
1.6773215 -0.0708640 0.4260533 -0.000543 -0.000262 -0.000366
1.6125325 -0.0404972 0.4483628 -0.000369 -0.000051 -0.000343
1.5429999 -0.0152404 0.4658610 -0.000246 0.000072 -0.000334
1.4726794 0.0102866 0.4789915 -0.000154 0.000066 -0.000329
1.4031161 0.0380925 0.4879647 -0.000155 -0.000054 -0.000303
1.9064718 -0.3113934 0.0657786 -0.001443 -0.000095 -0.000095
1.9192907 -0.2826539 0.1282354 -0.001184 0.000044 -0.000123
1.9187374 -0.2486060 0.1888995 -0.000850 0.000132 -0.000372
1.9055232 -0.2101015 0.2453947 -0.001017 0.000027 -0.000223
1.8807783 -0.1685481 0.2958743 -0.000785 0.000050 -0.000343
1.8457691 -0.1256046 0.3393534 -0.000976 -0.000213 -0.000282
1.8012791 -0.0831848 0.3757644 -0.000997 -0.000083 -0.000193
1.7471015 -0.0438733 0.4058144 -0.000536 -0.000175 -0.000371
1.6837401 -0.0104398 0.4303346 -0.000340 -0.000257 -0.000386
1.6138206 0.0170861 0.4499758 0.000138 -0.000006 -0.000463
1.5412240 0.0425183 0.4648531 -0.000205 -0.000003 -0.000343
1.4695654 0.0698317 0.4747841 -0.000161 -0.000001 -0.000327
1.9710127 -0.2561489 0.0691210 -0.001109 0.000044 -0.000448
1.9790387 -0.2214300 0.1345114 -0.001082 0.000106 -0.000133
1.9714060 -0.1822435 0.1970627 -0.000790 0.000154 -0.000447
1.9492600 -0.1399413 0.2540977 -0.000860 -0.000004 -0.000372
1.9143209 -0.0962565 0.3038454 -0.000878 -0.000124 -0.000325
1.8684407 -0.0530941 0.3456014 -0.000742 -0.000043 -0.000336
1.8132341 -0.0127667 0.3796133 -0.000618 -0.000233 -0.000361
1.7502639 0.0221936 0.4068599 -0.000791 0.000045 -0.000248
1.6814300 0.0505947 0.4285905 -0.000302 0.000085 -0.000398
1.6086040 0.0744213 0.4456725 -0.000393 -0.000312 -0.000278
1.5345220 0.0996117 0.4575776 -0.000110 0.000004 -0.000367
2.0249269 -0.1897512 0.0712687 -0.001110 0.000119 -0.000096
2.0254335 -0.1499304 0.1388643 -0.001032 0.000000 -0.000352
2.0084519 -0.1071139 0.2023960 -0.001027 0.000108 -0.000171
1.9757729 -0.0630420 0.2590406 -0.000983 0.000018 -0.000219
1.9298997 -0.0194538 0.3072294 -0.000914 -0.000199 -0.000259
1.8735942 0.0219476 0.3465185 -0.001095 -0.000305 -0.000088
1.8098761 0.0586606 0.3774238 -0.000655 0.000091 -0.000345
1.7413674 0.0883298 0.4016480 -0.000365 -0.000312 -0.000347
1.6701931 0.1106792 0.4208948 -0.000607 0.000395 -0.000398
1.5969968 0.1290604 0.4359546 -0.000061 -0.000116 -0.000382
2.0636300 -0.1132565 0.0719798 -0.001090 0.000083 -0.000274
2.0544465 -0.0701834 0.1407974 -0.001076 0.000175 -0.000116
2.0267593 -0.0262014 0.2041704 -0.000879 -0.000003 -0.000431
1.9831712 0.0170052 0.2594409 -0.001020 -0.000111 -0.000169
1.9267778 0.0583708 0.3053790 -0.000636 -0.000086 -0.000448
1.8611722 0.0970952 0.3415730 -0.000602 -0.000347 -0.000314
1.7910165 0.1297244 0.3689677 -0.001038 0.000166 -0.000210
1.7190555 0.1531446 0.3906409 -0.000671 0.000183 -0.000372
1.6475835 0.1686416 0.4083969 -0.000593 -0.000234 -0.000209
2.0830283 -0.0298231 0.0711348 -0.001129 0.000086 -0.000117
2.0631290 0.0137923 0.1398851 -0.001100 0.000010 -0.000134
2.0248608 0.0559936 0.2018910 -0.001168 0.000148 -0.000036
1.9713950 0.0957527 0.2549586 -0.000860 0.000008 -0.000351
1.9056413 0.1333399 0.2983150 -0.000674 -0.000502 -0.000212
1.8303745 0.1711528 0.3306041 -0.000515 -0.000550 -0.000187
1.7554575 0.1983706 0.3545450 -0.000720 -0.000009 -0.000309
1.6779505 0.2133462 0.3769778 -0.000492 0.000238 -0.000507
2.0808333 0.0556186 0.0688099 -0.001185 0.000080 0.000076
2.0507196 0.0968544 0.1360685 -0.001175 0.000220 -0.000123
2.0035641 0.1346472 0.1955832 -0.000963 -0.000110 -0.000240
1.9428991 0.1686059 0.2456944 -0.001395 0.000517 -0.000170
1.8691987 0.2011790 0.2866487 -0.000232 -0.000122 -0.000695
1.7825124 0.2429913 0.3127620 0.001453 -0.001141 -0.000702
1.6997348 0.2568410 0.3401944 -0.000349 -0.000118 -0.000391
2.0573798 0.1376660 0.0653633 -0.001208 0.000076 0.000041
2.0187678 0.1743672 0.1298453 -0.001400 0.000190 0.000254
1.9653476 0.2063087 0.1857589 -0.001334 0.000145 0.000022
1.9022346 0.2331317 0.2314780 -0.001635 0.000312 0.000059
1.8334336 0.2539970 0.2670172 -0.003290 0.001416 0.000109
1.7048330 0.3005976 0.2997496 -0.001109 -0.000489 0.000302
2.0152670 0.2120191 0.0615448 -0.001143 -0.000106 0.000133
1.9698252 0.2434454 0.1226929 -0.001240 0.000159 -0.000268
1.9110373 0.2698992 0.1752780 -0.001197 -0.000387 0.000531
1.8425815 0.2909897 0.2198933 -0.000849 0.000288 -0.000806
1.7718621 0.2983444 0.2650922 -0.001850 0.000569 -0.000357
1.9583903 0.2761400 0.0582560 -0.001198 -0.000078 0.000210
1.9071846 0.3023131 0.1162803 -0.001059 -0.000059 -0.000277
1.8431326 0.3235428 0.1668866 -0.001278 0.000202 -0.000466
1.7718443 0.3374487 0.2118942 -0.001153 0.000304 -0.000707
1.8911542 0.3292042 0.0558021 -0.001352 0.000018 0.000086
1.8349513 0.3507402 0.1103862 -0.000702 -0.000225 -0.000466
1.7674896 0.3673638 0.1575391 -0.001197 0.000103 -0.000517
1.8176196 0.3718247 0.0532867 -0.001525 0.000123 -0.000484
1.7566315 0.3902205 0.1021560 -0.001388 0.000019 -0.000237
1.7397773 0.4060804 0.0480880 -0.001471 0.000016 -0.000415
1.7186597 0.4149635 -0.0023467 -0.002781 0.000421 -0.000048
1.7897143 0.3877912 -0.0027894 -0.001693 0.000099 0.000006
1.8620226 0.3509269 -0.0038955 -0.001470 0.000068 0.000074
1.9315954 0.3036957 -0.0052488 -0.001344 0.000044 -0.000231
1.9937193 0.2453437 -0.0061065 -0.001417 0.000219 -0.000004
2.0438603 0.1759320 -0.0059578 -0.001270 0.000159 0.000245
2.0774871 0.0970783 -0.0047780 -0.001182 0.000053 0.000140
2.0909047 0.0123765 -0.0028524 -0.001168 0.000076 0.000067
2.0824279 -0.0729907 -0.0005574 -0.001201 -0.000107 0.000031
2.0530990 -0.1536006 0.0016566 -0.001237 -0.000069 -0.000127
2.0063210 -0.2252957 0.0032861 -0.001414 -0.000214 0.000072
1.9467687 -0.2858988 0.0039974 -0.001299 0.000003 0.000297
1.8793035 -0.3350651 0.0038809 -0.001479 -0.000055 0.000140
1.8087800 -0.3735241 0.0034127 -0.001742 -0.000109 0.000190
1.7390976 -0.4020211 0.0031344 -0.003067 -0.000541 0.000230
1.6808208 -0.4219261 -0.0279164 -0.001781 -0.000005 0.000148
1.6938141 -0.4091064 -0.0863599 -0.000981 0.000289 -0.000056
1.7035815 -0.3888611 -0.1433380 -0.001096 0.000108 0.000390
1.7080342 -0.3614003 -0.1988473 -0.001084 0.000295 -0.000016
1.7082817 -0.3262525 -0.2516669 -0.001454 0.000059 0.000135
1.6318840 -0.3307990 -0.2824253 -0.000739 0.000551 -0.000081
1.6281253 -0.2897793 -0.3252848 0.000037 0.000595 0.000240
1.6162586 -0.2473146 -0.3619310 -0.000801 0.000431 0.000135
1.5966936 -0.2044169 -0.3927913 -0.000815 0.000247 0.000267
1.5735647 -0.1623400 -0.4169444 -0.000969 -0.000069 0.000366
1.5166228 -0.1418765 -0.4374853 -0.000687 0.000168 0.000340
1.4552586 -0.1172016 -0.4556954 -0.000346 0.000288 0.000363
1.3902148 -0.0897784 -0.4712218 -0.000263 -0.000049 0.000439
1.3231997 -0.0610831 -0.4835241 0.000038 0.000188 0.000419
1.2563347 -0.0311114 -0.4925323 -0.000178 0.000148 0.000398
1.7383828 0.4046890 -0.0525490 -0.001473 -0.000037 0.000029
1.7541265 0.3874207 -0.1054495 -0.001251 -0.000140 -0.000023
1.7639850 0.3635725 -0.1587858 -0.000959 -0.000317 -0.000083
1.7657040 0.3340941 -0.2110629 -0.001125 -0.000164 0.000107
1.7438896 0.3051612 -0.2631650 -0.000805 0.000128 0.000651
1.7174815 0.2760698 -0.3060553 -0.000581 -0.000230 0.000352
1.6964607 0.2361801 -0.3454363 -0.000916 -0.000116 0.000287
1.6697944 0.1937376 -0.3793453 -0.000846 -0.000168 0.000285
1.6361622 0.1507830 -0.4078370 -0.000651 0.000153 0.000464
1.5835733 0.1142595 -0.4324870 -0.000340 0.000096 0.000492
1.5202226 0.0885818 -0.4518390 -0.000100 -0.000324 0.000427
1.4549147 0.0624490 -0.4673360 -0.000116 0.000028 0.000461
1.3884034 0.0338632 -0.4793561 -0.000091 -0.000108 0.000433
1.3219241 0.0026967 -0.4878101 -0.000258 0.000023 0.000408
1.8162431 0.3699290 -0.0592679 -0.001536 0.000103 0.000324
1.8319539 0.3468951 -0.1163497 -0.001160 -0.000016 0.000397
1.8370707 0.3179865 -0.1733803 -0.001385 0.000174 0.000383
1.8276883 0.2856025 -0.2290487 -0.001242 0.000024 0.000231
1.8051614 0.2521247 -0.2794674 -0.000524 -0.000158 0.000514
1.7777586 0.2153584 -0.3226902 -0.000650 -0.000081 0.000452
1.7464159 0.1740431 -0.3600291 -0.000392 0.000197 0.000661
1.7073675 0.1314163 -0.3918405 -0.000804 0.000209 0.000439
1.6565284 0.0915792 -0.4187070 -0.000484 0.000151 0.000485
1.5939422 0.0588130 -0.4407389 -0.000293 -0.000033 0.000470
1.5261963 0.0308530 -0.4579036 -0.000298 -0.000096 0.000442
1.4575435 0.0025178 -0.4706766 -0.000100 -0.000073 0.000460
1.3896437 -0.0281023 -0.4792118 -0.000155 0.000049 0.000432
1.8891292 0.3269188 -0.0646574 -0.001349 0.000028 0.000113
1.9019531 0.2979013 -0.1261361 -0.001303 -0.000018 0.000035
1.9001292 0.2643287 -0.1865755 -0.000770 -0.000066 0.000612
1.8839540 0.2279529 -0.2429427 -0.000944 0.000086 0.000486
1.8567828 0.1894344 -0.2927031 -0.000526 -0.000004 0.000643
1.8218821 0.1486349 -0.3350870 -0.000798 -0.000001 0.000414
1.7793307 0.1065591 -0.3706824 -0.000862 0.000122 0.000391
1.7275686 0.0662830 -0.4001604 -0.000389 0.000171 0.000546
1.6664503 0.0309771 -0.4241534 -0.000351 0.000224 0.000507
1.5984015 0.0010172 -0.4432359 0.000150 -0.000015 0.000583
1.5274530 -0.0271255 -0.4575510 -0.000175 -0.000010 0.000475
1.4574046 -0.0572127 -0.4669090 -0.000210 -0.000004 0.000449
1.9552826 0.2738264 -0.0697224 -0.001179 0.000066 0.000558
1.9623630 0.2393377 -0.1346483 -0.001305 0.000128 0.000178
1.9531108 0.2012138 -0.1968746 -0.000933 0.000004 0.000479
1.9293221 0.1608060 -0.2533357 -0.000770 -0.000062 0.000508
1.8938850 0.1190267 -0.3021411 -0.000795 0.000082 0.000484
1.8490218 0.0768379 -0.3428742 -0.000661 0.000080 0.000505
1.7957172 0.0362362 -0.3760080 -0.000635 0.000177 0.000475
1.7347827 -0.0000233 -0.4024772 -0.000753 -0.000051 0.000386
1.6677231 -0.0304315 -0.4234318 -0.000248 -0.000143 0.000538
1.5963865 -0.0567112 -0.4397207 -0.000426 0.000283 0.000411
1.5237784 -0.0845779 -0.4508707 -0.000135 -0.000032 0.000497
2.0113442 0.2099754 -0.0737621 -0.001083 -0.000120 0.000207
2.0106511 0.1707284 -0.1409514 -0.000973 0.000005 0.000538
1.9925003 0.1289934 -0.2038974 -0.000907 -0.000026 0.000474
1.9592526 0.0862086 -0.2596785 -0.000845 -0.000040 0.000456
1.9138323 0.0435153 -0.3068265 -0.000774 0.000107 0.000480
1.8588922 0.0021607 -0.3450846 -0.001069 0.000226 0.000252
1.7969224 -0.0354313 -0.3750397 -0.000581 -0.000044 0.000493
1.7300244 -0.0667047 -0.3983248 -0.000438 0.000276 0.000462
1.6600997 -0.0911355 -0.4165913 -0.000586 -0.000434 0.000530
1.5879059 -0.1119197 -0.4306495 -0.000085 0.000112 0.000510
2.0532840 0.1359157 -0.0760626 -0.001158 0.000114 0.000345
2.0430574 0.0934133 -0.1443808 -0.001084 -0.000070 0.000244
2.0147139 0.0501508 -0.2069644 -0.000838 0.000012 0.000582
1.9711607 0.0074986 -0.2612193 -0.000963 0.000126 0.000357
1.9155830 -0.0338407 -0.3060507 -0.000584 0.000172 0.000594
1.8513915 -0.0732652 -0.3411763 -0.000640 0.000383 0.000427
1.7827335 -0.1072533 -0.3675387 -0.001041 -0.000226 0.000354
1.7118752 -0.1324841 -0.3881105 -0.000613 -0.000146 0.000506
1.6410631 -0.1500506 -0.4047080 -0.000698 0.000135 0.000361
2.0770329 0.0541542 -0.0762615 -0.001075 -0.000110 0.000387
2.0562950 0.0108426 -0.1444289 -0.001045 -0.000007 0.000366
2.0176479 -0.0311441 -0.2055456 -0.001059 -0.000154 0.000310
1.9643960 -0.0710118 -0.2575311 -0.000844 -0.000114 0.000517
1.8994577 -0.1092420 -0.2997316 -0.000676 0.000502 0.000373
1.8256389 -0.1483617 -0.3309109 -0.000587 0.000600 0.000288
1.7518318 -0.1772473 -0.3536956 -0.000782 -0.000046 0.000446
1.6746815 -0.1941839 -0.3747657 -0.000519 -0.000229 0.000619
2.0798293 -0.0308541 -0.0743044 -0.001177 0.000017 0.000048
2.0489580 -0.0721156 -0.1409694 -0.001157 -0.000226 0.000269
2.0014484 -0.1101178 -0.1996006 -0.000961 0.000189 0.000340
1.9408742 -0.1446310 -0.2486415 -0.001300 -0.000466 0.000336
1.8677675 -0.1782726 -0.2883970 -0.000244 0.000259 0.000728
1.7828750 -0.2219104 -0.3133896 0.001393 0.001126 0.000866
1.7000913 -0.2375672 -0.3393077 -0.000378 0.000176 0.000485
2.0613138 -0.1137593 -0.0705272 -0.001195 -0.000068 0.000157
2.0219377 -0.1506951 -0.1345003 -0.001418 -0.000253 -0.000065
1.9680795 -0.1830740 -0.1896370 -0.001373 -0.000231 0.000153
1.9048352 -0.2106268 -0.2344014 -0.001671 -0.000371 0.000095
1.8360692 -0.2325583 -0.2688223 -0.003206 -0.001349 -0.000038
1.7091961 -0.2818487 -0.2998061 -0.001138 0.000494 -0.000130
2.0235370 -0.1898907 -0.0657948 -0.001180 0.000127 -0.000094
1.9773568 -0.2215919 -0.1266110 -0.001224 -0.000117 0.000352
1.9180720 -0.2485506 -0.1785809 -0.001272 0.000440 -0.000458
1.8492363 -0.2704250 -0.2223186 -0.000794 -0.000192 0.000843
1.7773314 -0.2785797 -0.2663686 -0.001897 -0.000659 0.000531
1.9702005 -0.2561663 -0.0612630 -0.001274 0.000024 -0.000016
1.9183460 -0.2825604 -0.1191890 -0.001143 0.000006 0.000414
1.8537252 -0.3042758 -0.1693378 -0.001365 -0.000262 0.000596
1.7816664 -0.3188747 -0.2135502 -0.001035 -0.000261 0.000851
1.9058092 -0.3113358 -0.0575665 -0.001420 -0.000026 -0.000042
1.8490835 -0.3330537 -0.1122628 -0.000581 0.000313 0.000624
1.7810426 -0.3501404 -0.1590757 -0.001187 -0.000064 0.000585
1.8345990 -0.3558374 -0.0540744 -0.001701 -0.000228 0.000678
1.7732701 -0.3744784 -0.1031283 -0.001433 -0.000032 0.000399
1.7587106 -0.3918156 -0.0482172 -0.001367 0.000055 0.000403
1.5195351 0.4679457 0.0278457 -0.001233 -0.000195 0.000263
1.4488295 0.4774651 0.0589506 -0.001337 -0.000170 -0.000091
1.3776068 0.4827424 0.0896955 -0.001054 -0.000300 0.000388
1.3072489 0.4841794 0.1197777 -0.001162 -0.000309 0.000333
1.1562697 0.4943377 0.1245298 -0.000774 -0.000128 -0.000595
1.1015749 0.4814808 0.1802516 0.000308 -0.000104 -0.000609
1.0262985 0.4791264 0.1875909 -0.000045 -0.000427 0.000336
0.9623691 0.4697397 0.2162033 0.000098 -0.000459 0.000341
0.8317893 0.4760441 0.2056332 -0.000281 -0.000451 0.000364
0.7650182 0.4641016 0.2313961 -0.000411 -0.000076 -0.000454
0.6304533 0.4569344 0.2442803 -0.000379 -0.000212 -0.000179
0.5032589 0.4628658 0.2298946 -0.001179 -0.000111 -0.000414
0.3533373 0.4301129 0.2844080 -0.000237 -0.000399 0.000115
0.2247739 0.4080315 0.3142915 0.000383 -0.000288 -0.000056
0.1467511 0.4139865 0.3061761 0.002224 -0.000028 -0.000367
1.2030493 0.0691581 0.5039186 -0.000176 -0.000110 -0.000257
1.1382800 0.1037917 0.5018434 -0.000067 -0.000051 -0.000263
1.0741384 0.1372615 0.4966599 0.000120 -0.000312 -0.000192
1.0090471 0.1688430 0.4889697 -0.000239 -0.000471 -0.000104
0.9436216 0.1993924 0.4787919 -0.000142 -0.000101 -0.000231
0.8784168 0.2291846 0.4660670 -0.000083 -0.000449 -0.000057
0.8167441 0.2677955 0.4457006 -0.000346 -0.000023 -0.000278
0.7614576 0.3084853 0.4192155 -0.000199 0.000059 -0.000358
0.6842052 0.3264875 0.4039055 -0.000109 -0.000089 -0.000253
0.6099550 0.3426301 0.3895137 0.000225 0.000172 -0.000488
0.5426829 0.3551444 0.3760659 -0.000397 -0.000797 0.000404
0.4450648 0.3860797 0.3434395 -0.000736 -0.000073 -0.000320
0.3664029 0.3830110 0.3455542 0.000236 -0.000103 -0.000269
0.2983165 0.3865776 0.3405177 0.000699 -0.000274 -0.000078
1.2683617 0.1011074 0.4936849 -0.000285 -0.000198 -0.000233
1.2038434 0.1363048 0.4902442 0.000053 0.000098 -0.000321
1.1415776 0.1715889 0.4829432 -0.000079 0.000003 -0.000284
1.0789193 0.2027215 0.4736482 -0.000379 -0.000399 -0.000102
1.0125653 0.2313521 0.4626059 -0.000247 -0.000445 -0.000060
0.9473793 0.2619411 0.4478108 -0.000360 -0.000312 -0.000106
0.8876458 0.2839061 0.4342003 -0.000712 -0.000365 -0.000058
0.8514331 0.3225272 0.4071076 -0.000649 -0.000185 -0.000173
0.8135758 0.3555682 0.3783112 -0.000664 0.000154 -0.000494
0.7445415 0.3637451 0.3712533 -0.000323 -0.000034 -0.000326
0.6668651 0.3772287 0.3565139 -0.000482 0.000159 -0.000550
0.5146043 0.3934622 0.3363714 -0.000617 -0.000579 0.000267
0.4123355 0.4212494 0.2971597 0.000243 0.000385 -0.000996
1.3342510 0.1308204 0.4803394 -0.000300 -0.000240 -0.000220
1.2691438 0.1649226 0.4762543 -0.000118 -0.000190 -0.000233
1.2076297 0.2023930 0.4667936 -0.000241 -0.000198 -0.000203
1.1486476 0.2384073 0.4535003 -0.000165 -0.000134 -0.000229
1.0846946 0.2623265 0.4429728 -0.000335 -0.000584 0.000052
1.0091870 0.2888512 0.4289992 0.000075 -0.000322 -0.000102
0.9377574 0.3234989 0.4060277 -0.000387 -0.000853 0.000353
0.8915566 0.3737520 0.3612789 -0.000173 -0.000691 0.000341
0.8148301 0.4002152 0.3316077 -0.000288 -0.000028 -0.000377
0.7241194 0.4062633 0.3229041 -0.000044 -0.000013 -0.000404
0.5906748 0.3926548 0.3383460 -0.000628 -0.000319 -0.000035
0.4787592 0.4302666 0.2862119 0.000181 -0.000351 0.000059
1.3993928 0.1607967 0.4632349 -0.000354 0.000105 -0.000331
1.3353379 0.1898569 0.4601164 -0.000184 -0.000230 -0.000216
1.2734612 0.2261623 0.4501760 0.000051 -0.000104 -0.000283
1.2177760 0.2653834 0.4332978 -0.000070 -0.000272 -0.000164
1.1571900 0.3019939 0.4138900 0.000016 -0.000337 -0.000097
1.0805714 0.3081075 0.4117185 -0.000410 -0.000508 0.000067
1.0221513 0.3374625 0.3911558 -0.000419 -0.000323 -0.000056
0.9682154 0.3646249 0.3670480 -0.001245 -0.000397 0.000063
0.8946850 0.4191001 0.3058796 -0.000410 -0.000390 0.000097
0.6423526 0.4209811 0.3025672 -0.000454 -0.000232 -0.000130
0.5607215 0.4342237 0.2826520 -0.000344 -0.000414 0.000151
1.4611668 0.1901650 0.4424678 -0.000287 -0.000058 -0.000303
1.3993855 0.2220143 0.4374758 -0.000522 -0.000182 -0.000196
1.3394354 0.2433614 0.4331258 -0.000933 0.000189 -0.000345
1.2968842 0.2814009 0.4151227 -0.000089 0.000071 -0.000398
1.2412425 0.3181073 0.3938058 -0.000695 -0.000275 -0.000085
1.1081699 0.3482295 0.3778000 -0.000898 -0.000569 0.000205
1.0455108 0.3824403 0.3464789 -0.000703 -0.000583 0.000268
0.9702425 0.4031291 0.3245488 -0.000569 -0.000391 0.000078
0.7696596 0.4312781 0.2878924 -0.000502 0.000042 -0.000549
0.7006552 0.4454469 0.2657967 -0.000454 -0.000262 -0.000083
1.5240171 0.2135495 0.4193121 -0.000527 -0.000157 -0.000228
1.4595513 0.2478526 0.4131691 -0.000785 -0.000182 -0.000153
1.3849856 0.2810085 0.4047421 0.000025 -0.000263 -0.000215
1.3279266 0.3271299 0.3765457 -0.000494 0.000107 -0.000438
1.1879800 0.3539632 0.3670379 -0.000548 -0.000317 -0.000043
1.1258329 0.3905030 0.3324223 -0.000864 -0.000473 0.000187
1.0557957 0.4222485 0.2963880 -0.000168 -0.000525 0.000285
0.9713686 0.4385276 0.2744573 -0.000651 -0.000472 0.000274
0.8325185 0.4426157 0.2714294 -0.000163 -0.000338 0.000046
1.5353528 0.2616980 0.3884273 -0.000416 0.000130 -0.000449
1.4654964 0.2954479 0.3794125 -0.000599 -0.000114 -0.000237
1.4005376 0.3258837 0.3655266 -0.001745 0.000159 -0.000279
1.2767665 0.3632979 0.3482247 -0.000843 -0.000004 -0.000329
1.2136879 0.3951252 0.3189420 -0.000743 -0.000372 0.000076
1.1487310 0.4239812 0.2857974 -0.000837 -0.000403 0.000170
1.1008078 0.4502619 0.2460791 -0.001130 -0.000199 -0.000133
0.8983799 0.4570114 0.2447619 0.000047 -0.000293 -0.000028
1.5430895 0.3062339 0.3524302 -0.000989 -0.000199 -0.000076
1.4634906 0.3421751 0.3381165 -0.000444 -0.000449 0.000046
1.3718408 0.3691716 0.3286319 -0.000232 -0.000012 -0.000437
1.3015258 0.4010214 0.3000366 -0.000821 -0.000301 0.000011
1.2333633 0.4293908 0.2678745 -0.000675 -0.000202 -0.000155
1.1672816 0.4555063 0.2293330 -0.000734 -0.000639 0.000709
1.0385478 0.4577299 0.2372829 -0.000190 -0.000468 0.000312
1.5436274 0.3476490 0.3112705 -0.001000 -0.000107 -0.000166
1.4586040 0.3803484 0.2955530 -0.000710 -0.000245 -0.000086
1.3831663 0.4081709 0.2749305 -0.000763 0.000051 -0.000518
1.3130055 0.4352588 0.2447803 -0.001105 -0.000273 0.000053
1.2456188 0.4581523 0.2118400 -0.001044 -0.000104 -0.000334
1.1778325 0.4758549 0.1784991 -0.001743 -0.000256 0.000138
1.5420424 0.3843712 0.2647470 -0.000733 -0.000521 0.000323
1.4626454 0.4146580 0.2432684 -0.000674 -0.000170 -0.000222
1.3880833 0.4408438 0.2161091 -0.000764 -0.000311 0.000075
1.3154526 0.4635369 0.1836987 -0.001125 -0.000279 0.000117
1.2406366 0.4820076 0.1492781 -0.000945 -0.000359 0.000331
1.6203361 0.3832910 0.2332258 -0.001066 -0.000057 -0.000241
1.5400096 0.4160336 0.2114996 -0.000872 -0.000346 0.000185
1.4617424 0.4433026 0.1850727 -0.000926 -0.000205 -0.000094
1.3852941 0.4659684 0.1539019 -0.000809 -0.000249 -0.000040
1.6148720 0.4125898 0.1784758 -0.000918 -0.000266 0.000070
1.5347118 0.4413533 0.1532779 -0.000796 -0.000316 0.000156
1.4561067 0.4646323 0.1230863 -0.001076 -0.000219 0.000009
1.6061107 0.4346833 0.1205542 -0.001390 -0.000117 0.000020
1.5266570 0.4590589 0.0917279 -0.001024 -0.000262 0.000238
1.5953548 0.4489823 0.0599779 -0.001405 -0.000108 -0.000082
1.6589173 0.4336048 -0.0331229 -0.001594 -0.000069 -0.000279
1.6718978 0.4208870 -0.0896140 -0.000882 -0.000289 -0.000070
1.6831087 0.4012754 -0.1435537 -0.001182 -0.000106 0.000231
1.6901094 0.3757895 -0.1943956 -0.001301 -0.000022 0.000271
1.6917611 0.3451421 -0.2407907 -0.002431 0.000483 0.000304
1.6454741 0.3314152 -0.2836340 0.000409 -0.000916 -0.000038
1.6332087 0.2907729 -0.3275229 -0.000790 -0.000328 0.000155
1.6144927 0.2484449 -0.3653892 -0.000656 -0.000205 0.000308
1.5920188 0.2062964 -0.3958934 -0.001074 0.000136 0.000373
1.5683490 0.1650740 -0.4192395 -0.001137 -0.000176 0.000218
1.5113918 0.1463026 -0.4388538 -0.000558 -0.000183 0.000348
1.4505420 0.1229657 -0.4563855 -0.000325 -0.000137 0.000395
1.3865650 0.0960506 -0.4715515 -0.000321 -0.000201 0.000375
1.3208183 0.0667956 -0.4837530 0.000062 -0.000019 0.000438
1.2551979 0.0351771 -0.4927283 -0.000229 -0.000014 0.000400
1.1249821 0.0335798 -0.5009289 -0.000152 0.000178 0.000403
1.0599956 0.0660475 -0.5005197 -0.000100 0.000012 0.000391
0.9946538 0.0969200 -0.4975497 -0.000371 -0.000234 0.000337
0.9286442 0.1260994 -0.4924107 -0.000374 -0.000321 0.000304
0.8620915 0.1543099 -0.4852184 -0.000310 -0.000301 0.000295
0.7965336 0.1846773 -0.4750358 -0.000105 -0.000093 0.000359
0.7357046 0.2180320 -0.4610041 0.000143 -0.000164 0.000325
0.6790567 0.2512100 -0.4438655 -0.000206 -0.000784 -0.000020
0.6249780 0.2857932 -0.4225312 -0.000069 -0.000602 0.000032
0.5653977 0.3192755 -0.3977184 0.000243 0.000623 0.000925
0.5049500 0.3413250 -0.3785715 -0.000670 -0.000134 0.000359
0.3742911 0.3275609 -0.3878772 -0.000023 -0.001000 -0.000369
0.2420986 0.3300803 -0.3839567 0.000222 0.000577 0.000935
0.1630523 0.3507354 -0.3655457 -0.000783 -0.000190 0.000310
0.0519415 0.4036726 -0.3072526 0.000067 0.000272 0.000928
1.5924800 0.4473267 -0.0655688 -0.001564 -0.000104 -0.000032
1.5218291 0.4561764 -0.0990064 -0.001167 -0.000192 0.000115
1.4491140 0.4600953 -0.1324532 -0.001156 -0.000228 0.000051
1.3752183 0.4595007 -0.1653341 -0.001025 -0.000232 0.000141
1.2170481 0.4728847 -0.1711217 -0.000763 -0.000217 0.000281
1.1382503 0.4637013 -0.2063276 -0.000728 -0.000025 0.000688
1.0423626 0.4589292 -0.2246186 -0.000166 -0.000114 0.000515
0.8988163 0.4618489 -0.2245915 -0.000860 -0.000131 0.000455
0.8230923 0.4481600 -0.2506106 0.000133 -0.000673 -0.000494
0.6917544 0.4509594 -0.2450456 -0.000137 0.000054 0.000757
0.5610257 0.4211855 -0.2904644 0.000170 -0.000217 0.000273
0.4288533 0.4163119 -0.2956035 -0.000128 -0.000761 -0.000456
0.3826356 0.3751122 -0.3423966 -0.001105 -0.000875 -0.000419
0.2376500 0.3796831 -0.3361480 -0.000172 -0.000076 0.000440
1.6014238 0.4316938 -0.1242328 -0.001548 -0.000119 -0.000025
1.5296618 0.4366818 -0.1584020 -0.000989 -0.000309 -0.000096
1.4572541 0.4365815 -0.1915396 -0.001150 -0.000063 0.000447
1.3009467 0.4546179 -0.1977623 -0.001065 -0.000223 0.000175
1.2280747 0.4456244 -0.2295121 -0.000703 -0.000334 0.000042
1.1012903 0.4376971 -0.2573006 -0.001019 -0.000209 0.000249
0.9715929 0.4346345 -0.2713535 -0.000181 -0.000733 -0.000521
0.8947181 0.4308489 -0.2765834 0.000202 -0.000136 0.000405
0.7641481 0.4319698 -0.2783118 -0.000433 -0.000476 -0.000104
0.6938615 0.4193765 -0.2933962 -0.000640 -0.000053 0.000503
0.6264579 0.4188417 -0.2948860 0.000056 -0.000316 0.000136
0.5006228 0.3932437 -0.3251585 -0.000394 -0.000334 0.000141
0.3092145 0.3621990 -0.3565024 0.000592 0.000104 0.000593
1.6102160 0.4084703 -0.1797151 -0.001163 -0.000133 0.000210
1.5394324 0.4088774 -0.2147159 -0.001311 -0.000342 -0.000216
1.3839957 0.4321273 -0.2234531 -0.000906 -0.000331 -0.000007
1.3120090 0.4229781 -0.2551381 -0.000965 -0.000209 0.000218
1.2462882 0.4090293 -0.2861665 -0.000990 -0.000419 -0.000066
1.1666980 0.4285997 -0.2667562 -0.000892 0.000165 0.000828
1.0416703 0.4239301 -0.2824667 -0.001131 -0.000096 0.000416
0.9230043 0.3990480 -0.3201084 -0.000275 -0.000412 0.000036
0.8401071 0.4088378 -0.3093974 -0.000385 -0.000294 0.000174
0.7272777 0.3959630 -0.3240936 -0.001006 -0.000234 0.000258
0.6523903 0.3827018 -0.3391620 -0.000183 -0.000465 -0.000004
0.4416320 0.3622909 -0.3581640 -0.000489 -0.000465 0.000037
1.6195426 0.3764884 -0.2339236 -0.001390 -0.000068 0.000182
1.4673585 0.4053711 -0.2463646 -0.000726 -0.000255 0.000190
1.3917629 0.3976759 -0.2771438 -0.000826 0.000025 0.000561
1.3186953 0.3819873 -0.3110035 -0.001107 -0.000212 0.000193
1.1824279 0.3916214 -0.3145668 -0.001903 -0.000015 0.000381
1.1033167 0.3972906 -0.3160456 -0.000752 0.000043 0.000578
1.0115999 0.3910035 -0.3281723 -0.000098 -0.000970 -0.000588
0.9414136 0.3624880 -0.3590901 -0.001636 -0.000516 -0.000052
0.7877375 0.3832885 -0.3400507 -0.000842 0.000208 0.000747
0.7139181 0.3560990 -0.3668037 0.000035 -0.000577 -0.000072
0.5748156 0.3756812 -0.3470388 0.000084 -0.000187 0.000302
1.5541278 0.3723570 -0.2667045 -0.001028 -0.000402 -0.000104
1.4750498 0.3690859 -0.2946615 -0.000506 -0.000473 -0.000007
1.3933708 0.3582743 -0.3248353 -0.000707 0.000203 0.000703
1.2469745 0.3645367 -0.3397089 -0.001086 0.000223 0.000679
1.1600802 0.3550253 -0.3573281 -0.000443 -0.000300 0.000195
1.0805592 0.3544314 -0.3629480 -0.000629 -0.000204 0.000276
0.9996370 0.3409382 -0.3785669 -0.000167 -0.000372 0.000148
0.8604006 0.3606821 -0.3638270 -0.000223 -0.000269 0.000226
0.7793953 0.3349113 -0.3864125 -0.000598 0.000058 0.000510
0.6347683 0.3400264 -0.3810355 0.000099 -0.000487 0.000040
1.5599949 0.3337850 -0.3105432 -0.000631 -0.000046 0.000463
1.4774239 0.3297613 -0.3364636 -0.000863 -0.000502 -0.000049
1.3998950 0.3187127 -0.3608737 -0.001694 0.000242 0.000478
1.3178611 0.3328646 -0.3628354 -0.000198 -0.000177 0.000360
1.2250528 0.3201434 -0.3827779 -0.000833 0.000199 0.000587
1.0600176 0.3111613 -0.3997137 0.000113 -0.000494 0.000089
0.9187544 0.3166596 -0.4009306 -0.000035 -0.000643 -0.000039
0.8346505 0.3078914 -0.4078022 -0.000340 -0.000024 0.000421
0.6983841 0.3087189 -0.4068668 -0.000065 -0.000866 -0.000202
1.5488654 0.2928592 -0.3514182 -0.001119 0.000043 0.000368
1.4636437 0.2865357 -0.3756571 -0.000981 0.000045 0.000406
1.3738658 0.2809869 -0.3956919 -0.000469 -0.000421 0.000161
1.2848794 0.2856637 -0.4029152 -0.000441 0.000265 0.000620
1.1370713 0.3046411 -0.4026104 0.000029 -0.000539 0.000072
0.9925912 0.2874709 -0.4197289 0.000333 -0.000198 0.000320
0.8745063 0.2718232 -0.4312738 -0.000107 -0.000158 0.000326
0.7553433 0.2796866 -0.4273454 0.000363 0.000012 0.000433
1.5309424 0.2498678 -0.3864081 -0.000883 0.000060 0.000409
1.4501736 0.2416187 -0.4077490 -0.000777 -0.000126 0.000316
1.3269034 0.2448121 -0.4231058 -0.001037 -0.000059 0.000324
1.2029486 0.2683691 -0.4219150 -0.000154 -0.000076 0.000403
1.0686160 0.2632759 -0.4324332 -0.000336 -0.000441 0.000160
0.9340394 0.2548921 -0.4413771 -0.000058 -0.000320 0.000238