# TIME = 6.700000
variables = x, y, z
zone N=5762 E=11520 F=FEPOINT ET=TRIANGLE
 5.6141007E+00 1.4910781E+00 1.7942825E+00
 5.6141007E+00 1.4910782E+00 2.0571718E-01
 5.6141006E+00 5.0892187E-01 1.7942827E+00
 5.6141009E+00 5.0892165E-01 2.0571672E-01
 3.8957038E+00 1.0000000E+00 1.7912865E+00
 7.3158468E+00 1.0000000E+00 1.7551792E+00
 3.8957041E+00 1.0000001E+00 2.0871361E-01
 7.3158468E+00 1.0000000E+00 2.4482073E-01
 4.6594987E+00 1.9477737E+00 9.9999989E-01
 4.6594987E+00 5.2226325E-02 9.9999988E-01
 6.5574054E+00 1.9279256E+00 9.9999988E-01
 6.5574055E+00 7.2074178E-02 9.9999989E-01
 5.5539495E+00 1.4809582E+00 1.7980216E+00
 5.4875577E+00 1.4698449E+00 1.8022585E+00
 5.4182359E+00 1.4584026E+00 1.8068809E+00
 5.3462740E+00 1.4466346E+00 1.8120334E+00
 5.2719456E+00 1.4345638E+00 1.8178192E+00
 5.1955195E+00 1.4221689E+00 1.8243493E+00
 5.1172141E+00 1.4094149E+00 1.8317207E+00
 5.0372364E+00 1.3962464E+00 1.8400212E+00
 4.9557860E+00 1.3825842E+00 1.8493172E+00
 4.8731020E+00 1.3683157E+00 1.8596275E+00
 4.7895417E+00 1.3532777E+00 1.8708683E+00
 4.7056720E+00 1.3372329E+00 1.8827678E+00
 4.6222886E+00 1.3198541E+00 1.8947709E+00
 4.5402655E+00 1.3007396E+00 1.9059936E+00
 4.4603017E+00 1.2794759E+00 1.9152801E+00
 4.3827875E+00 1.2557305E+00 1.9213599E+00
 4.3079117E+00 1.2293408E+00 1.9230490E+00
 4.2359042E+00 1.2003690E+00 1.9194498E+00
 4.1672043E+00 1.1691058E+00 1.9100978E+00
 4.1024225E+00 1.1360244E+00 1.8950035E+00
 4.0422066E+00 1.1017276E+00 1.8746045E+00
 3.9870878E+00 1.0668840E+00 1.8496351E+00
 3.9375457E+00 1.0323053E+00 1.8210985E+00
 5.5470977E+00 5.5327047E-01 1.8174074E+00
 5.4785199E+00 5.6634114E-01 1.8220808E+00
 5.4075610E+00 5.7925966E-01 1.8268834E+00
 5.3344815E+00 5.9231073E-01 1.8320921E+00
 5.2593330E+00 6.0569593E-01 1.8379164E+00
 5.1823115E+00 6.1949399E-01 1.8444775E+00
 5.1036109E+00 6.3377084E-01 1.8518702E+00
 5.0234268E+00 6.4859171E-01 1.8601659E+00
 4.9419684E+00 6.6404426E-01 1.8694087E+00
 4.8595039E+00 6.8024960E-01 1.8795862E+00
 4.7764375E+00 6.9737809E-01 1.8905691E+00
 4.6933816E+00 7.1566367E-01 1.9020258E+00
 4.6111447E+00 7.3540572E-01 1.9133379E+00
 4.5305586E+00 7.5693965E-01 1.9235781E+00
 4.4522452E+00 7.8057553E-01 1.9315900E+00
 4.3765316E+00 8.0652181E-01 1.9361547E+00
 4.3035784E+00 8.3482324E-01 1.9361821E+00
 4.2335983E+00 8.6532814E-01 1.9308874E+00
 4.1669706E+00 8.9768900E-01 1.9198998E+00
 4.1041385E+00 9.3138971E-01 1.9032505E+00
 4.0453729E+00 9.6577957E-01 1.8812280E+00
 3.9905281E+00 1.0000000E+00 1.8541365E+00
 5.5445981E+00 5.8842045E-01 1.8355567E+00
 5.4733692E+00 6.0344408E-01 1.8404473E+00
 5.4006715E+00 6.1786627E-01 1.8452601E+00
 5.3262149E+00 6.3234377E-01 1.8504301E+00
 5.2500485E+00 6.4716078E-01 1.8561777E+00
 5.1722513E+00 6.6247407E-01 1.8626406E+00
 5.0929839E+00 6.7836834E-01 1.8699026E+00
 5.0124281E+00 6.9492361E-01 1.8780214E+00
 4.9308040E+00 7.1223632E-01 1.8870194E+00
 4.8484093E+00 7.3043573E-01 1.8968530E+00
 4.7656890E+00 7.4969479E-01 1.9073487E+00
 4.6832919E+00 7.7023596E-01 1.9181190E+00
 4.6020300E+00 7.9232074E-01 1.9284908E+00
 4.5226903E+00 8.1621465E-01 1.9375054E+00
 4.4458258E+00 8.4213180E-01 1.9440181E+00
 4.3717015E+00 8.7017758E-01 1.9468658E+00
 4.3004277E+00 9.0030591E-01 1.9450438E+00
 4.2321251E+00 9.3229421E-01 1.9378458E+00
 4.1669422E+00 9.6573031E-01 1.9249059E+00
 4.1048719E+00 1.0000000E+00 1.9060981E+00
 4.0453729E+00 1.0342205E+00 1.8812280E+00
 5.5429561E+00 6.2526961E-01 1.8526644E+00
 5.4700155E+00 6.4181951E-01 1.8574080E+00
 5.3957742E+00 6.5773563E-01 1.8620733E+00
 5.3200808E+00 6.7366473E-01 1.8670560E+00
 5.2429000E+00 6.8998055E-01 1.8725884E+00
 5.1643087E+00 7.0686446E-01 1.8787965E+00
 5.0844423E+00 7.2442390E-01 1.8857547E+00
 5.0034865E+00 7.4274867E-01 1.8935040E+00
 4.9216765E+00 7.6194416E-01 1.9020453E+00
 4.8393387E+00 7.8214423E-01 1.9113034E+00
 4.7569528E+00 8.0351840E-01 1.9210624E+00
 4.6751930E+00 8.2626938E-01 1.9308855E+00
 4.5948638E+00 8.5061541E-01 1.9400571E+00
 4.5167039E+00 8.7675516E-01 1.9476027E+00
 4.4411964E+00 9.0482065E-01 1.9524017E+00
 4.3685284E+00 9.3483385E-01 1.9533489E+00
 4.2986962E+00 9.6666700E-01 1.9495042E+00
 4.2315947E+00 1.0000000E+00 1.9401812E+00
 4.1669422E+00 1.0342698E+00 1.9249059E+00
 4.1041385E+00 1.0686104E+00 1.9032505E+00
 5.5416768E+00 6.6388772E-01 1.8685768E+00
 5.4673907E+00 6.8177657E-01 1.8729573E+00
 5.3918961E+00 6.9908650E-01 1.8772901E+00
 5.3151184E+00 7.1645956E-01 1.8819302E+00
 5.2370474E+00 7.3427783E-01 1.8870848E+00
 5.1577576E+00 7.5273964E-01 1.8928647E+00
 5.0773910E+00 7.7196039E-01 1.8993282E+00
 4.9961419E+00 7.9203825E-01 1.9064990E+00
 4.9142644E+00 8.1308321E-01 1.9143548E+00
 4.8321094E+00 8.3522929E-01 1.9227896E+00
 4.7501821E+00 8.5863639E-01 1.9315493E+00
 4.6691684E+00 8.8348256E-01 1.9401577E+00
 4.5898503E+00 9.0994371E-01 1.9478729E+00
 4.5129087E+00 9.3816025E-01 1.9537230E+00
 4.4387406E+00 9.6819743E-01 1.9566224E+00
 4.3674104E+00 1.0000000E+00 1.9555186E+00
 4.2986962E+00 1.0333331E+00 1.9495043E+00
 4.2321251E+00 1.0677059E+00 1.9378458E+00
 4.1669706E+00 1.1023111E+00 1.9198999E+00
 5.5405599E+00 7.0430499E-01 1.8831242E+00
 5.4651190E+00 7.2339535E-01 1.8869674E+00
 5.3885714E+00 7.4201908E-01 1.8908028E+00
 5.3108935E+00 7.6079082E-01 1.8949368E+00
 5.2321053E+00 7.8007941E-01 1.8995432E+00
 5.1522946E+00 8.0008078E-01 1.9047107E+00
 5.0716142E+00 8.2091277E-01 1.9104793E+00
 4.9902716E+00 8.4267620E-01 1.9168536E+00
 4.9085371E+00 8.6548205E-01 1.9237881E+00
 4.8267800E+00 8.8945990E-01 1.9311486E+00
 4.7455184E+00 9.1475677E-01 1.9386492E+00
 4.6654309E+00 9.4152659E-01 1.9457878E+00
 4.5872590E+00 9.6990962E-01 1.9518139E+00
 4.5116047E+00 1.0000001E+00 1.9557736E+00
 4.4387407E+00 1.0318027E+00 1.9566225E+00
 4.3685284E+00 1.0651662E+00 1.9533490E+00
 4.3004277E+00 1.0996942E+00 1.9450440E+00
 4.2335983E+00 1.1346719E+00 1.9308875E+00
 5.5395422E+00 7.4644913E-01 1.8961069E+00
 5.4630995E+00 7.6663133E-01 1.8992633E+00
 5.3856803E+00 7.8649092E-01 1.9024479E+00
 5.3073010E+00 8.0659613E-01 1.9059137E+00
 5.2280051E+00 8.2728939E-01 1.9097988E+00
 5.1478954E+00 8.4875398E-01 1.9141672E+00
 5.0671360E+00 8.7110405E-01 1.9190397E+00
 4.9859462E+00 8.9443933E-01 1.9244017E+00
 4.9046079E+00 9.1886834E-01 1.9301854E+00
 4.8234989E+00 9.4451449E-01 1.9362326E+00
 4.7431340E+00 9.7151309E-01 1.9422346E+00
 4.6641625E+00 1.0000002E+00 1.9476763E+00
 4.5872591E+00 1.0300907E+00 1.9518141E+00
 4.5129088E+00 1.0618400E+00 1.9537233E+00
 4.4411965E+00 1.0951795E+00 1.9524021E+00
 4.3717016E+00 1.1298225E+00 1.9468662E+00
 4.3035784E+00 1.1651769E+00 1.9361824E+00
 5.5386335E+00 7.9017071E-01 1.9073169E+00
 5.4613490E+00 8.1134557E-01 1.9096546E+00
 5.3832517E+00 8.3235200E-01 1.9120432E+00
 5.3043859E+00 8.5370337E-01 1.9146838E+00
 5.2248132E+00 8.7570464E-01 1.9176781E+00
 5.1446483E+00 8.9852026E-01 1.9210662E+00
 5.0640642E+00 9.2225647E-01 1.9248502E+00
 4.9832878E+00 9.4700937E-01 1.9289969E+00
 4.9026051E+00 9.7288426E-01 1.9334192E+00
 4.8223899E+00 1.0000003E+00 1.9379394E+00
 4.7431341E+00 1.0284875E+00 1.9422348E+00
 4.6654312E+00 1.0584739E+00 1.9457882E+00
 4.5898506E+00 1.0900566E+00 1.9478735E+00
 4.5167042E+00 1.1232451E+00 1.9476033E+00
 4.4458260E+00 1.1578684E+00 1.9440187E+00
 4.3765316E+00 1.1934784E+00 1.9361552E+00
 5.5378630E+00 8.3526771E-01 1.9165580E+00
 5.4599195E+00 8.5732617E-01 1.9179579E+00
 5.3813544E+00 8.7937265E-01 1.9194153E+00
 5.3022309E+00 9.0185688E-01 1.9210822E+00
 5.2226232E+00 9.2503900E-01 1.9230268E+00
 5.1426536E+00 9.4906009E-01 1.9252674E+00
 5.0625001E+00 9.7401642E-01 1.9277884E+00
 4.9823903E+00 1.0000003E+00 1.9305403E+00
 4.9026051E+00 1.0271164E+00 1.9334194E+00
 4.8234990E+00 1.0554862E+00 1.9362329E+00
 4.7455188E+00 1.0852439E+00 1.9386499E+00
 4.6691689E+00 1.1165180E+00 1.9401585E+00
 4.5948644E+00 1.1493850E+00 1.9400579E+00
 4.5226908E+00 1.1837857E+00 1.9375063E+00
 4.4522455E+00 1.2194247E+00 1.9315908E+00
 5.5372595E+00 8.8149100E-01 1.9236567E+00
 5.4588613E+00 9.0430620E-01 1.9240138E+00
 5.3800522E+00 9.2726362E-01 1.9244182E+00
 5.3009076E+00 9.5074090E-01 1.9249776E+00
 5.2215087E+00 9.7494794E-01 1.9257313E+00
 5.1419806E+00 1.0000002E+00 1.9266784E+00
 5.0624999E+00 1.0259841E+00 1.9277884E+00
 4.9832876E+00 1.0529913E+00 1.9289970E+00
 4.9046078E+00 1.0811324E+00 1.9301859E+00
 4.8267803E+00 1.1105408E+00 1.9311493E+00
 4.7501827E+00 1.1413643E+00 1.9315503E+00
 4.6751938E+00 1.1737312E+00 1.9308867E+00
 4.6020307E+00 1.2076797E+00 1.9284919E+00
 4.5305591E+00 1.2430607E+00 1.9235791E+00
 5.5368451E+00 9.2855072E-01 1.9284724E+00
 5.4582117E+00 9.5197676E-01 1.9276991E+00
 5.3793899E+00 9.7569371E-01 1.9269470E+00
 5.3004613E+00 1.0000001E+00 1.9262857E+00
 5.2215086E+00 1.0250523E+00 1.9257313E+00
 5.1426534E+00 1.0509402E+00 1.9252674E+00
 5.0640638E+00 1.0777440E+00 1.9248503E+00
 4.9859458E+00 1.1055613E+00 1.9244020E+00
 4.9085370E+00 1.1345187E+00 1.9237888E+00
 4.8321097E+00 1.1647715E+00 1.9227906E+00
 4.7569536E+00 1.1964823E+00 1.9210638E+00
 4.6832929E+00 1.2297647E+00 1.9181204E+00
 4.6111457E+00 1.2645948E+00 1.9133393E+00
 5.5366343E+00 9.7612558E-01 1.9309058E+00
 5.4579927E+00 1.0000000E+00 1.9289364E+00
 5.3793898E+00 1.0243063E+00 1.9269469E+00
 5.3009075E+00 1.0492592E+00 1.9249776E+00
 5.2226229E+00 1.0749612E+00 1.9230268E+00
 5.1446478E+00 1.1014800E+00 1.9210663E+00
 5.0671354E+00 1.1288964E+00 1.9190399E+00
 4.9902710E+00 1.1573244E+00 1.9168541E+00
 4.9142642E+00 1.1869175E+00 1.9143556E+00
 4.8393391E+00 1.2178565E+00 1.9113047E+00
 4.7656900E+00 1.2503060E+00 1.9073502E+00
 4.6933828E+00 1.2843370E+00 1.9020275E+00
 5.5366343E+00 1.0238744E+00 1.9309058E+00
 5.4582116E+00 1.0480233E+00 1.9276991E+00
 5.3800521E+00 1.0727364E+00 1.9244181E+00
 5.3022306E+00 1.0981432E+00 1.9210821E+00
 5.2248128E+00 1.1242955E+00 1.9176780E+00
 5.1478947E+00 1.1512463E+00 1.9141673E+00
 5.0716134E+00 1.1790876E+00 1.9104795E+00
 4.9961411E+00 1.2079623E+00 1.9064996E+00
 4.9216762E+00 1.2380565E+00 1.9020463E+00
 4.8484097E+00 1.2695650E+00 1.8968545E+00
 4.7764384E+00 1.3026227E+00 1.8905708E+00
 5.5368451E+00 1.0714493E+00 1.9284723E+00
 5.4588613E+00 1.0956938E+00 1.9240137E+00
 5.3813542E+00 1.1206274E+00 1.9194152E+00
 5.3043856E+00 1.1462967E+00 1.9146837E+00
 5.2280045E+00 1.1727108E+00 1.9097988E+00
 5.1522939E+00 1.1999195E+00 1.9047108E+00
 5.0773900E+00 1.2280399E+00 1.8993285E+00
 5.0034855E+00 1.2572518E+00 1.8935046E+00
 4.9308035E+00 1.2877643E+00 1.8870206E+00
 4.8595043E+00 1.3197511E+00 1.8795877E+00
 5.5372594E+00 1.1185090E+00 1.9236566E+00
 5.4599194E+00 1.1426738E+00 1.9179578E+00
 5.3832515E+00 1.1676481E+00 1.9120431E+00
 5.3073005E+00 1.1934040E+00 1.9059137E+00
 5.2321047E+00 1.2199207E+00 1.8995432E+00
 5.1577568E+00 1.2472606E+00 1.8928648E+00
 5.0844413E+00 1.2755764E+00 1.8857550E+00
 5.0124269E+00 1.3050768E+00 1.8780221E+00
 4.9419677E+00 1.3359563E+00 1.8694099E+00
 5.5378630E+00 1.1647323E+00 1.9165578E+00
 5.4613488E+00 1.1886544E+00 1.9096545E+00
 5.3856800E+00 1.2135091E+00 1.9024477E+00
 5.3108930E+00 1.2392093E+00 1.8949366E+00
 5.2370468E+00 1.2657223E+00 1.8870847E+00
 5.1643080E+00 1.2931357E+00 1.8787966E+00
 5.0929830E+00 1.3216319E+00 1.8699030E+00
 5.0234257E+00 1.3514086E+00 1.8601665E+00
 5.5386335E+00 1.2098293E+00 1.9073167E+00
 5.4630993E+00 1.2333687E+00 1.8992632E+00
 5.3885711E+00 1.2579809E+00 1.8908027E+00
 5.3151179E+00 1.2835405E+00 1.8819300E+00
 5.2428993E+00 1.3100195E+00 1.8725884E+00
 5.1722506E+00 1.3375261E+00 1.8626407E+00
 5.1036100E+00 1.3662294E+00 1.8518706E+00
 5.5395422E+00 1.2535509E+00 1.8961067E+00
 5.4651188E+00 1.2766047E+00 1.8869673E+00
 5.3918958E+00 1.3009135E+00 1.8772900E+00
 5.3200803E+00 1.3263353E+00 1.8670559E+00
 5.2500479E+00 1.3528393E+00 1.8561776E+00
 5.1823108E+00 1.3805061E+00 1.8444776E+00
 5.5405599E+00 1.2956950E+00 1.8831240E+00
 5.4673905E+00 1.3182234E+00 1.8729571E+00
 5.3957739E+00 1.3422644E+00 1.8620731E+00
 5.3262144E+00 1.3676562E+00 1.8504299E+00
 5.2593324E+00 1.3943041E+00 1.8379163E+00
 5.5416767E+00 1.3361123E+00 1.8685766E+00
 5.4700153E+00 1.3581805E+00 1.8574078E+00
 5.4006712E+00 1.3821337E+00 1.8452599E+00
 5.3344810E+00 1.4076893E+00 1.8320919E+00
 5.5429561E+00 1.3747304E+00 1.8526642E+00
 5.4733690E+00 1.3965559E+00 1.8404471E+00
 5.4075607E+00 1.4207403E+00 1.8268832E+00
 5.5445981E+00 1.4115795E+00 1.8355565E+00
 5.4785198E+00 1.4336588E+00 1.8220806E+00
 5.5470977E+00 1.4467295E+00 1.8174071E+00
 5.6143000E+00 1.4616930E+00 1.8117334E+00
 5.6145277E+00 1.4283230E+00 1.8298523E+00
 5.6146794E+00 1.3929084E+00 1.8472208E+00
 5.6147932E+00 1.3554441E+00 1.8636244E+00
 5.6148828E+00 1.3160166E+00 1.8788315E+00
 5.6149581E+00 1.2747609E+00 1.8926022E+00
 5.6150231E+00 1.2318251E+00 1.9047139E+00
 5.6150783E+00 1.1873982E+00 1.9149573E+00
 5.6151231E+00 1.1417131E+00 1.9231436E+00
 5.6151560E+00 1.0950426E+00 1.9291135E+00
 5.6151762E+00 1.0476941E+00 1.9327461E+00
 5.6151830E+00 1.0000000E+00 1.9339656E+00
 5.6151762E+00 9.5230592E-01 1.9327462E+00
 5.6151560E+00 9.0495742E-01 1.9291136E+00
 5.6151230E+00 8.5828692E-01 1.9231436E+00
 5.6150783E+00 8.1260179E-01 1.9149574E+00
 5.6150230E+00 7.6817494E-01 1.9047141E+00
 5.6149581E+00 7.2523915E-01 1.8926024E+00
 5.6148827E+00 6.8398341E-01 1.8788316E+00
 5.6147931E+00 6.4455588E-01 1.8636246E+00
 5.6146793E+00 6.0709157E-01 1.8472210E+00
 5.6145275E+00 5.7167702E-01 1.8298525E+00
 5.6142999E+00 5.3830698E-01 1.8117336E+00
 5.6744156E+00 5.1672239E-01 1.8018339E+00
 5.7409118E+00 5.2547525E-01 1.8101711E+00
 5.8102437E+00 5.3480372E-01 1.8187405E+00
 5.8820587E+00 5.4487095E-01 1.8273818E+00
 5.9560403E+00 5.5581735E-01 1.8358485E+00
 6.0318461E+00 5.6780816E-01 1.8438746E+00
 6.1091839E+00 5.8099140E-01 1.8511899E+00
 6.1877691E+00 5.9548273E-01 1.8575552E+00
 6.2673432E+00 6.1135325E-01 1.8627914E+00
 6.3476521E+00 6.2862763E-01 1.8667932E+00
 6.4284132E+00 6.4729432E-01 1.8695200E+00
 6.5092745E+00 6.6732257E-01 1.8709680E+00
 6.5897898E+00 6.8868020E-01 1.8711317E+00
 6.6694312E+00 7.1134568E-01 1.8699686E+00
 6.7476350E+00 7.3531100E-01 1.8673780E+00
 6.8238616E+00 7.6057466E-01 1.8632012E+00
 6.8976390E+00 7.8712903E-01 1.8572405E+00
 6.9685754E+00 8.1494657E-01 1.8492906E+00
 7.0363455E+00 8.4396958E-01 1.8391699E+00
 7.1006718E+00 8.7410949E-01 1.8267482E+00
 7.1612784E+00 9.0522685E-01 1.8119738E+00
 7.2179097E+00 9.3712338E-01 1.7948689E+00
 7.2701632E+00 9.6935366E-01 1.7756111E+00
 5.6816421E+00 1.4491946E+00 1.8217425E+00
 5.7502378E+00 1.4383566E+00 1.8307131E+00
 5.8211280E+00 1.4273492E+00 1.8395821E+00
 5.8939864E+00 1.4157519E+00 1.8482947E+00
 5.9686999E+00 1.4032375E+00 1.8567058E+00
 6.0450040E+00 1.3896119E+00 1.8645586E+00
 6.1226279E+00 1.3747333E+00 1.8715835E+00
 6.2013080E+00 1.3585144E+00 1.8775408E+00
 6.2807880E+00 1.3409147E+00 1.8822566E+00
 6.3608062E+00 1.3219349E+00 1.8856342E+00
 6.4410610E+00 1.3016048E+00 1.8876406E+00
 6.5211764E+00 1.2799667E+00 1.8882753E+00
 6.6006876E+00 1.2570612E+00 1.8875310E+00
 6.6790621E+00 1.2329189E+00 1.8853611E+00
 6.7557493E+00 1.2075596E+00 1.8816632E+00
 6.8302368E+00 1.1809989E+00 1.8762845E+00
 6.9020875E+00 1.1532571E+00 1.8690423E+00
 6.9709534E+00 1.1243721E+00 1.8597516E+00
 7.0365787E+00 1.0944148E+00 1.8482466E+00
 7.0988384E+00 1.0635141E+00 1.8343799E+00
 7.1578303E+00 1.0318819E+00 1.8179867E+00
 7.2140535E+00 1.0000000E+00 1.7987938E+00
 5.6845228E+00 1.4139815E+00 1.8401565E+00
 5.7557078E+00 1.4010676E+00 1.8495901E+00
 5.8282555E+00 1.3883690E+00 1.8586062E+00
 5.9024080E+00 1.3751311E+00 1.8673249E+00
 5.9780524E+00 1.3609695E+00 1.8755989E+00
 6.0550355E+00 1.3456475E+00 1.8831869E+00
 6.1331238E+00 1.3290385E+00 1.8898138E+00
 6.2120728E+00 1.3110780E+00 1.8952413E+00
 6.2916289E+00 1.2917514E+00 1.8993015E+00
 6.3715200E+00 1.2710806E+00 1.9019072E+00
 6.4514254E+00 1.2491108E+00 1.9030334E+00
 6.5309475E+00 1.2258946E+00 1.9026838E+00
 6.6096067E+00 1.2014809E+00 1.9008513E+00
 6.6868713E+00 1.1759078E+00 1.8974880E+00
 6.7622095E+00 1.1492028E+00 1.8924927E+00
 6.8351472E+00 1.1213863E+00 1.8857184E+00
 6.9053093E+00 1.0924805E+00 1.8769901E+00
 6.9724637E+00 1.0625279E+00 1.8661186E+00
 7.0365977E+00 1.0316283E+00 1.8528898E+00
 7.0980550E+00 1.0000000E+00 1.8370152E+00
 7.1578303E+00 9.6811816E-01 1.8179868E+00
 5.6864517E+00 1.3769869E+00 1.8574847E+00
 5.7593130E+00 1.3623801E+00 1.8669600E+00
 5.8333511E+00 1.3479944E+00 1.8759599E+00
 5.9086757E+00 1.3330997E+00 1.8845380E+00
 5.9852593E+00 1.3172487E+00 1.8925506E+00
 6.0629528E+00 1.3002110E+00 1.8997396E+00
 6.1415507E+00 1.2818718E+00 1.9058261E+00
 6.2208119E+00 1.2621910E+00 1.9105725E+00
 6.3004799E+00 1.2411762E+00 1.9138187E+00
 6.3802698E+00 1.2188684E+00 1.9154875E+00
 6.4598432E+00 1.1953258E+00 1.9155630E+00
 6.5387859E+00 1.1706103E+00 1.9140545E+00
 6.6166115E+00 1.1447763E+00 1.9109569E+00
 6.6927988E+00 1.1178656E+00 1.9062232E+00
 6.7668497E+00 1.0899055E+00 1.8997538E+00
 6.8383556E+00 1.0609140E+00 1.8914022E+00
 6.9070689E+00 1.0309183E+00 1.8809816E+00
 6.9730041E+00 1.0000000E+00 1.8682554E+00
 7.0365977E+00 9.6837174E-01 1.8528899E+00
 7.0988384E+00 9.3648597E-01 1.8343800E+00
 5.6879398E+00 1.3381807E+00 1.8735917E+00
 5.7621252E+00 1.3220331E+00 1.8828696E+00
 5.8373793E+00 1.3060429E+00 1.8916505E+00
 5.9137385E+00 1.2894983E+00 1.8999260E+00
 5.9911511E+00 1.2719681E+00 1.9075153E+00
 6.0694737E+00 1.2532344E+00 1.9141428E+00
 6.1484980E+00 1.2332073E+00 1.9195218E+00
 6.2279819E+00 1.2118700E+00 1.9234177E+00
 6.3076607E+00 1.1892519E+00 1.9256798E+00
 6.3872379E+00 1.1654105E+00 1.9262427E+00
 6.4663620E+00 1.1404149E+00 1.9251006E+00
 6.5446108E+00 1.1143327E+00 1.9222695E+00
 6.6215035E+00 1.0872194E+00 1.9177477E+00
 6.6965461E+00 1.0591124E+00 1.9114893E+00
 6.7693016E+00 1.0300324E+00 1.9033928E+00
 6.8394818E+00 1.0000000E+00 1.8932990E+00
 6.9070689E+00 9.6908177E-01 1.8809816E+00
 6.9724637E+00 9.3747223E-01 1.8661186E+00
 7.0365787E+00 9.0558533E-01 1.8482466E+00
 5.6892208E+00 1.2975462E+00 1.8883172E+00
 5.7645418E+00 1.2799694E+00 1.8972057E+00
 5.8408192E+00 1.2624381E+00 1.9055853E+00
 5.9180373E+00 1.2442853E+00 1.9133818E+00
 5.9961168E+00 1.2251171E+00 1.9203727E+00
 6.0749034E+00 1.2047473E+00 1.9262619E+00
 6.1541830E+00 1.1831143E+00 1.9307576E+00
 6.2337074E+00 1.1602268E+00 1.9336311E+00
 6.3132050E+00 1.1361343E+00 1.9347434E+00
 6.3923711E+00 1.1109080E+00 1.9340422E+00
 6.4708490E+00 1.0846240E+00 1.9315326E+00
 6.5482208E+00 1.0573496E+00 1.9272378E+00
 6.6240283E+00 1.0291329E+00 1.9211589E+00
 6.6978313E+00 1.0000000E+00 1.9132484E+00
 6.7693016E+00 9.6996766E-01 1.9033928E+00
 6.8383557E+00 9.3908613E-01 1.8914022E+00
 6.9053093E+00 9.0751960E-01 1.8769902E+00
 6.9709534E+00 8.7562793E-01 1.8597517E+00
 5.6903760E+00 1.2551617E+00 1.9014628E+00
 5.7666801E+00 1.2362448E+00 1.9097936E+00
 5.8438018E+00 1.2172373E+00 1.9175992E+00
 5.9216857E+00 1.1975386E+00 1.9247401E+00
 6.0002309E+00 1.1768061E+00 1.9309545E+00
 6.0792713E+00 1.1548949E+00 1.9359291E+00
 6.1585862E+00 1.1317754E+00 1.9393713E+00
 6.2379230E+00 1.1074814E+00 1.9410615E+00
 6.3170061E+00 1.0820801E+00 1.9408750E+00
 6.3955296E+00 1.0556516E+00 1.9387733E+00
 6.4731419E+00 1.0282723E+00 1.9347723E+00
 6.5494452E+00 1.0000000E+00 1.9289006E+00
 6.6240283E+00 9.7086719E-01 1.9211590E+00
 6.6965461E+00 9.4088774E-01 1.9114893E+00
 6.7668497E+00 9.1009462E-01 1.8997538E+00
 6.8351472E+00 8.7861383E-01 1.8857185E+00
 6.9020876E+00 8.4674294E-01 1.8690424E+00
 5.6914022E+00 1.2111794E+00 1.9128174E+00
 5.7685293E+00 1.1910049E+00 1.9204371E+00
 5.8463037E+00 1.1706004E+00 1.9275029E+00
 5.9246430E+00 1.1494419E+00 1.9338165E+00
 6.0034309E+00 1.1272499E+00 1.9390826E+00
 6.0824929E+00 1.1039255E+00 1.9429770E+00
 6.1616047E+00 1.0794722E+00 1.9452113E+00
 6.2405124E+00 1.0539465E+00 1.9455786E+00
 6.3189427E+00 1.0274285E+00 1.9439695E+00
 6.3965968E+00 1.0000001E+00 1.9403594E+00
 6.4731419E+00 9.7172781E-01 1.9347723E+00
 6.5482208E+00 9.4265050E-01 1.9272378E+00
 6.6215035E+00 9.1278074E-01 1.9177477E+00
 6.6927988E+00 8.8213446E-01 1.9062232E+00
 6.7622095E+00 8.5079728E-01 1.8924927E+00
 6.8302369E+00 8.1900118E-01 1.8762846E+00
 5.6922703E+00 1.1658035E+00 1.9221805E+00
 5.7700378E+00 1.1444670E+00 1.9289455E+00
 5.8482569E+00 1.1227655E+00 1.9351146E+00
 5.9268281E+00 1.1002617E+00 1.9404392E+00
 6.0056255E+00 1.0767457E+00 1.9445994E+00
 6.0844709E+00 1.0521668E+00 1.9472667E+00
 6.1631410E+00 1.0265601E+00 1.9481623E+00
 6.2413863E+00 1.0000001E+00 1.9470945E+00
 6.3189427E+00 9.7257166E-01 1.9439695E+00
 6.3955296E+00 9.4434847E-01 1.9387733E+00
 6.4708490E+00 9.1537608E-01 1.9315326E+00
 6.5446108E+00 8.8566741E-01 1.9222696E+00
 6.6166115E+00 8.5522376E-01 1.9109570E+00
 6.6868713E+00 8.2409227E-01 1.8974880E+00
 6.7557493E+00 7.9244043E-01 1.8816633E+00
 5.6929496E+00 1.1192860E+00 1.9293747E+00
 5.7711539E+00 1.0969043E+00 1.9351528E+00
 5.8495970E+00 1.0740314E+00 1.9402812E+00
 5.9281695E+00 1.0503251E+00 1.9444715E+00
 6.0067420E+00 1.0256491E+00 1.9473884E+00
 6.0851381E+00 1.0000000E+00 1.9487072E+00
 6.1631410E+00 9.7344001E-01 1.9481623E+00
 6.2405124E+00 9.4605361E-01 1.9455786E+00
 6.3170061E+00 9.1792005E-01 1.9408750E+00
 6.3923711E+00 8.8909210E-01 1.9340422E+00
 6.4663620E+00 8.5958523E-01 1.9251007E+00
 6.5387859E+00 8.2938982E-01 1.9140546E+00
 6.6096068E+00 7.9851921E-01 1.9008513E+00
 6.6790622E+00 7.6708120E-01 1.8853611E+00
 5.6934157E+00 1.0719204E+00 1.9342558E+00
 5.7718390E+00 1.0486331E+00 1.9389311E+00
 5.8502785E+00 1.0247400E+00 1.9428932E+00
 5.9286217E+00 1.0000000E+00 1.9458257E+00
 6.0067419E+00 9.7435102E-01 1.9473884E+00
 6.0844709E+00 9.4783330E-01 1.9472667E+00
 6.1616046E+00 9.2052795E-01 1.9452113E+00
 6.2379230E+00 8.9251871E-01 1.9410615E+00
 6.3132050E+00 8.6386581E-01 1.9347434E+00
 6.3872379E+00 8.3458964E-01 1.9262427E+00
 6.4598432E+00 8.0467425E-01 1.9155630E+00
 6.5309475E+00 7.7410544E-01 1.9026838E+00
 6.6006876E+00 7.4293887E-01 1.8875311E+00
 5.6936527E+00 1.0240323E+00 1.9367226E+00
 5.7720699E+00 1.0000000E+00 1.9401997E+00
 5.8502785E+00 9.7526001E-01 1.9428932E+00
 5.9281695E+00 9.4967499E-01 1.9444715E+00
 6.0056255E+00 9.2325438E-01 1.9445994E+00
 6.0824928E+00 8.9607464E-01 1.9429770E+00
 6.1585862E+00 8.6822469E-01 1.9393713E+00
 6.2337074E+00 8.3977332E-01 1.9336311E+00
 6.3076607E+00 8.1074817E-01 1.9256798E+00
 6.3802698E+00 7.8113167E-01 1.9154875E+00
 6.4514254E+00 7.5088930E-01 1.9030334E+00
 6.5211764E+00 7.2003336E-01 1.8882754E+00
 5.6936527E+00 9.7596772E-01 1.9367226E+00
 5.7718390E+00 9.5136691E-01 1.9389311E+00
 5.8495969E+00 9.2596868E-01 1.9402812E+00
 5.9268281E+00 8.9973839E-01 1.9404392E+00
 6.0034309E+00 8.7275015E-01 1.9390826E+00
 6.0792712E+00 8.4510524E-01 1.9359291E+00
 6.1541830E+00 8.1688578E-01 1.9307576E+00
 6.2279819E+00 7.8813012E-01 1.9234177E+00
 6.3004799E+00 7.5882386E-01 1.9138187E+00
 6.3715200E+00 7.2891948E-01 1.9019072E+00
 6.4410610E+00 6.9839528E-01 1.8876406E+00
 5.6934157E+00 9.2807963E-01 1.9342559E+00
 5.7711538E+00 9.0309575E-01 1.9351528E+00
 5.8482567E+00 8.7723455E-01 1.9351146E+00
 5.9246429E+00 8.5055817E-01 1.9338165E+00
 6.0002308E+00 8.2319400E-01 1.9309545E+00
 6.0749034E+00 7.9525279E-01 1.9262619E+00
 6.1484980E+00 7.6679278E-01 1.9195218E+00
 6.2208119E+00 7.3780911E-01 1.9105725E+00
 6.2916289E+00 7.0824874E-01 1.8993015E+00
 6.3608062E+00 6.7806521E-01 1.8856342E+00
 5.6929495E+00 8.8071404E-01 1.9293747E+00
 5.7700377E+00 8.5553303E-01 1.9289455E+00
 5.8463035E+00 8.2939968E-01 1.9275029E+00
 5.9216856E+00 8.0246152E-01 1.9247402E+00
 5.9961167E+00 7.7488300E-01 1.9203728E+00
 6.0694737E+00 7.4676572E-01 1.9141428E+00
 6.1415506E+00 7.1812830E-01 1.9058261E+00
 6.2120728E+00 6.8892207E-01 1.8952413E+00
 6.2807881E+00 6.5908545E-01 1.8822566E+00
 5.6922702E+00 8.3419656E-01 1.9221806E+00
 5.7685291E+00 8.0899516E-01 1.9204372E+00
 5.8438017E+00 7.8276274E-01 1.9175992E+00
 5.9180371E+00 7.5571479E-01 1.9133819E+00
 5.9911510E+00 7.2803202E-01 1.9075154E+00
 6.0629527E+00 6.9978910E-01 1.8997396E+00
 6.1331238E+00 6.7096157E-01 1.8898138E+00
 6.2013080E+00 6.4148566E-01 1.8775408E+00
 5.6914021E+00 7.8882068E-01 1.9128175E+00
 5.7666799E+00 7.6375525E-01 1.9097937E+00
 5.8408190E+00 7.3756201E-01 1.9055853E+00
 5.9137383E+00 7.1050183E-01 1.8999261E+00
 5.9852592E+00 6.8275137E-01 1.8925506E+00
 6.0550355E+00 6.5435264E-01 1.8831869E+00
 6.1226279E+00 6.2526678E-01 1.8715835E+00
 5.6903758E+00 7.4483831E-01 1.9014629E+00
 5.7645416E+00 7.2003066E-01 1.8972058E+00
 5.8373791E+00 6.9395719E-01 1.8916506E+00
 5.9086755E+00 6.6690041E-01 1.8845380E+00
 5.9780523E+00 6.3903058E-01 1.8755989E+00
 6.0450039E+00 6.1038821E-01 1.8645587E+00
 5.6892206E+00 7.0245384E-01 1.8883173E+00
 5.7621250E+00 6.7796699E-01 1.8828697E+00
 5.8333509E+00 6.5200565E-01 1.8759600E+00
 5.9024078E+00 6.2486899E-01 1.8673249E+00
 5.9686998E+00 5.9676264E-01 1.8567059E+00
 5.6879396E+00 6.6181929E-01 1.8735918E+00
 5.7593128E+00 6.3761992E-01 1.8669601E+00
 5.8282553E+00 6.1163107E-01 1.8586063E+00
 5.8939862E+00 5.8424822E-01 1.8482947E+00
 5.6864515E+00 6.2301316E-01 1.8574849E+00
 5.7557076E+00 5.9893246E-01 1.8495903E+00
 5.8211278E+00 5.7265091E-01 1.8395822E+00
 5.6845226E+00 5.8601857E-01 1.8401567E+00
 5.7502376E+00 5.6164349E-01 1.8307133E+00
 5.6816419E+00 5.5080542E-01 1.8217426E+00
 5.5771128E+00 1.5135077E+00 1.7783942E+00
 5.5360647E+00 1.5379520E+00 1.7600241E+00
 5.4932837E+00 1.5629031E+00 1.7401099E+00
 5.4490304E+00 1.5881994E+00 1.7186564E+00
 5.4034595E+00 1.6137475E+00 1.6956273E+00
 5.3568382E+00 1.6394413E+00 1.6709890E+00
 5.3094224E+00 1.6651740E+00 1.6446998E+00
 5.2614836E+00 1.6908194E+00 1.6167272E+00
 5.2133147E+00 1.7162334E+00 1.5870500E+00
 5.1652270E+00 1.7412527E+00 1.5556645E+00
 5.1175442E+00 1.7656959E+00 1.5225891E+00
 5.0705937E+00 1.7893675E+00 1.4878683E+00
 5.0246989E+00 1.8120616E+00 1.4515753E+00
 4.9801698E+00 1.8335683E+00 1.4138138E+00
 4.9372960E+00 1.8536799E+00 1.3747185E+00
 4.8963393E+00 1.8721988E+00 1.3344534E+00
 4.8575292E+00 1.8889444E+00 1.2932096E+00
 4.8210621E+00 1.9037611E+00 1.2512019E+00
 4.7871026E+00 1.9165241E+00 1.2086639E+00
 4.7557984E+00 1.9271451E+00 1.1658408E+00
 4.7272990E+00 1.9355705E+00 1.1230109E+00
 4.7016641E+00 1.9417895E+00 1.0804534E+00
 4.6788980E+00 1.9458439E+00 1.0385878E+00
 3.9279097E+00 1.0939060E+00 1.8099763E+00
 3.9191186E+00 1.1550909E+00 1.7943915E+00
 3.9134138E+00 1.2174563E+00 1.7754984E+00
 3.9116922E+00 1.2810388E+00 1.7535475E+00
 3.9145005E+00 1.3455167E+00 1.7285751E+00
 3.9222454E+00 1.4103579E+00 1.7005798E+00
 3.9352316E+00 1.4748809E+00 1.6695712E+00
 3.9536795E+00 1.5382940E+00 1.6356114E+00
 3.9777109E+00 1.5997159E+00 1.5988403E+00
 4.0073213E+00 1.6582036E+00 1.5594936E+00
 4.0423515E+00 1.7127972E+00 1.5179119E+00
 4.0824693E+00 1.7625807E+00 1.4745428E+00
 4.1271690E+00 1.8067571E+00 1.4299347E+00
 4.1757961E+00 1.8447281E+00 1.3847170E+00
 4.2276022E+00 1.8761693E+00 1.3395687E+00
 4.2818221E+00 1.9010802E+00 1.2951738E+00
 4.3377510E+00 1.9197946E+00 1.2521698E+00
 4.3947884E+00 1.9329391E+00 1.2110966E+00
 4.4524188E+00 1.9413484E+00 1.1723512E+00
 4.5101762E+00 1.9459565E+00 1.1361383E+00
 4.5675952E+00 1.9476954E+00 1.1023824E+00
 4.6240787E+00 1.9474164E+00 1.0706495E+00
 3.9802743E+00 1.1314321E+00 1.8382483E+00
 3.9745769E+00 1.1949824E+00 1.8224767E+00
 3.9718564E+00 1.2586456E+00 1.8031259E+00
 3.9731596E+00 1.3227606E+00 1.7804833E+00
 3.9791134E+00 1.3871327E+00 1.7546209E+00
 3.9901051E+00 1.4512488E+00 1.7255430E+00
 4.0063709E+00 1.5143997E+00 1.6932711E+00
 4.0280307E+00 1.5757489E+00 1.6578971E+00
 4.0550847E+00 1.6343831E+00 1.6196129E+00
 4.0873926E+00 1.6893646E+00 1.5787258E+00
 4.1246578E+00 1.7397945E+00 1.5356616E+00
 4.1664284E+00 1.7848869E+00 1.4909595E+00
 4.2121227E+00 1.8240461E+00 1.4452534E+00
 4.2610809E+00 1.8569375E+00 1.3992391E+00
 4.3126341E+00 1.8835334E+00 1.3536300E+00
 4.3661681E+00 1.9041203E+00 1.3091024E+00
 4.4211508E+00 1.9192594E+00 1.2662383E+00
 4.4771196E+00 1.9297105E+00 1.2254646E+00
 4.5336427E+00 1.9363409E+00 1.1869712E+00
 4.5902579E+00 1.9400344E+00 1.1506215E+00
 4.6465250E+00 1.9416152E+00 1.1156515E+00
 4.0380875E+00 1.1674345E+00 1.8625635E+00
 4.0353870E+00 1.2320332E+00 1.8462329E+00
 4.0356931E+00 1.2962542E+00 1.8261682E+00
 4.0400642E+00 1.3603414E+00 1.8026061E+00
 4.0491405E+00 1.4240827E+00 1.7756163E+00
 4.0632632E+00 1.4869368E+00 1.7452159E+00
 4.0825834E+00 1.5481585E+00 1.7114598E+00
 4.1071140E+00 1.6068896E+00 1.6744958E+00
 4.1367355E+00 1.6622273E+00 1.6345934E+00
 4.1711897E+00 1.7132961E+00 1.5921521E+00
 4.2100824E+00 1.7593238E+00 1.5476977E+00
 4.2529079E+00 1.7997178E+00 1.5018630E+00
 4.2990953E+00 1.8341321E+00 1.4553556E+00
 4.3480664E+00 1.8625098E+00 1.4089108E+00
 4.3992806E+00 1.8850883E+00 1.3632354E+00
 4.4522541E+00 1.9023627E+00 1.3189457E+00
 4.5065460E+00 1.9150197E+00 1.2764987E+00
 4.5617196E+00 1.9238582E+00 1.2361103E+00
 4.6173079E+00 1.9297172E+00 1.1976115E+00
 4.6727625E+00 1.9333938E+00 1.1603401E+00
 4.1009320E+00 1.2018974E+00 1.8819882E+00
 4.1011461E+00 1.2666154E+00 1.8647732E+00
 4.1044396E+00 1.3306171E+00 1.8437206E+00
 4.1118305E+00 1.3939975E+00 1.8190041E+00
 4.1239089E+00 1.4564579E+00 1.7906823E+00
 4.1409396E+00 1.5174089E+00 1.7587991E+00
 4.1629796E+00 1.5760870E+00 1.7234659E+00
 4.1899395E+00 1.6316506E+00 1.6849113E+00
 4.2216045E+00 1.6832639E+00 1.6435011E+00
 4.2576436E+00 1.7301774E+00 1.5997383E+00
 4.2976324E+00 1.7718052E+00 1.5542447E+00
 4.3410892E+00 1.8077890E+00 1.5077280E+00
 4.3875168E+00 1.8380379E+00 1.4609337E+00
 4.4364328E+00 1.8627337E+00 1.4145871E+00
 4.4873810E+00 1.8822988E+00 1.3693305E+00
 4.5399216E+00 1.8973400E+00 1.3256542E+00
 4.5936042E+00 1.9085830E+00 1.2838049E+00
 4.6479195E+00 1.9168084E+00 1.2436744E+00
 4.7022463E+00 1.9227811E+00 1.2046876E+00
 4.1682655E+00 1.2344464E+00 1.8958373E+00
 4.1712719E+00 1.2985418E+00 1.8774535E+00
 4.1774482E+00 1.3616094E+00 1.8551786E+00