# TIME = 10.400000
variables = x, y, z
zone N=5762 E=11520 F=FEPOINT ET=TRIANGLE
 5.9272413E+00 1.4947481E+00 1.8003081E+00
 5.9272413E+00 1.4947483E+00 1.9969124E-01
 5.9272412E+00 5.0525190E-01 1.8003083E+00
 5.9272414E+00 5.0525160E-01 1.9969077E-01
 4.2076645E+00 1.0000001E+00 1.7944690E+00
 7.6339975E+00 1.0000000E+00 1.7579565E+00
 4.2076638E+00 1.0000001E+00 2.0552974E-01
 7.6339974E+00 1.0000000E+00 2.4204339E-01
 4.9606032E+00 1.9442271E+00 9.9999980E-01
 4.9606031E+00 5.5773020E-02 9.9999977E-01
 6.8709379E+00 1.9206435E+00 9.9999981E-01
 6.8709380E+00 7.9356157E-02 9.9999981E-01
 5.8661747E+00 1.4843211E+00 1.8040263E+00
 5.7988763E+00 1.4726445E+00 1.8077711E+00
 5.7287730E+00 1.4604028E+00 1.8114489E+00
 5.6562002E+00 1.4476927E+00 1.8152188E+00
 5.5813553E+00 1.4346100E+00 1.8192808E+00
 5.5043583E+00 1.4212268E+00 1.8238954E+00
 5.4252533E+00 1.4076128E+00 1.8293614E+00
 5.3440898E+00 1.3938242E+00 1.8360026E+00
 5.2609780E+00 1.3798819E+00 1.8441326E+00
 5.1762243E+00 1.3657387E+00 1.8539852E+00
 5.0905027E+00 1.3512312E+00 1.8655883E+00
 5.0049223E+00 1.3360315E+00 1.8786018E+00
 4.9207820E+00 1.3196437E+00 1.8922115E+00
 4.8391197E+00 1.3014814E+00 1.9051889E+00
 4.7604434E+00 1.2809951E+00 1.9160886E+00
 4.6847943E+00 1.2577889E+00 1.9234793E+00
 4.6120153E+00 1.2316939E+00 1.9261368E+00
 4.5420602E+00 1.2027959E+00 1.9231960E+00
 4.4751816E+00 1.1714165E+00 1.9142459E+00
 4.4118791E+00 1.1380572E+00 1.8993348E+00
 4.3527475E+00 1.1033496E+00 1.8789085E+00
 4.2983357E+00 1.0679999E+00 1.8537011E+00
 4.2492219E+00 1.0328613E+00 1.8247525E+00
 5.8594518E+00 5.5065941E-01 1.8237868E+00
 5.7898907E+00 5.6441749E-01 1.8279112E+00
 5.7182055E+00 5.7817291E-01 1.8316595E+00
 5.6445529E+00 5.9214805E-01 1.8353656E+00
 5.5689037E+00 6.0645287E-01 1.8393426E+00
 5.4912999E+00 6.2109394E-01 1.8438886E+00
 5.4117733E+00 6.3605339E-01 1.8493203E+00
 5.3303736E+00 6.5130944E-01 1.8559585E+00
 5.2472444E+00 6.6687396E-01 1.8640965E+00
 5.1627570E+00 6.8282890E-01 1.8739229E+00
 5.0776654E+00 6.9936900E-01 1.8853909E+00
 4.9931127E+00 7.1683108E-01 1.8980643E+00
 4.9103432E+00 7.3567437E-01 1.9110450E+00
 4.8302800E+00 7.5639534E-01 1.9230676E+00
 4.7533270E+00 7.7941511E-01 1.9327090E+00
 4.6794712E+00 8.0499161E-01 1.9386073E+00
 4.6085455E+00 8.3316776E-01 1.9396357E+00
 4.5404932E+00 8.6375687E-01 1.9350286E+00
 4.4755042E+00 8.9636140E-01 1.9244428E+00
 4.4139189E+00 9.3042001E-01 1.9079212E+00
 4.3560082E+00 9.6525717E-01 1.8857608E+00
 4.3017411E+00 1.0000001E+00 1.8583097E+00
 5.8569393E+00 5.8654424E-01 1.8422593E+00
 5.7847720E+00 6.0230905E-01 1.8465293E+00
 5.7112898E+00 6.1761186E-01 1.8501989E+00
 5.6362369E+00 6.3297689E-01 1.8537507E+00
 5.5595537E+00 6.4861438E-01 1.8575399E+00
 5.4811793E+00 6.6462326E-01 1.8619005E+00
 5.4011077E+00 6.8102909E-01 1.8671559E+00
 5.3193772E+00 6.9784675E-01 1.8736217E+00
 5.2361552E+00 7.1512036E-01 1.8815688E+00
 5.1518680E+00 7.3296397E-01 1.8911409E+00
 5.0673292E+00 7.5159511E-01 1.9022197E+00
 4.9836958E+00 7.7134635E-01 1.9142845E+00
 4.9021482E+00 7.9262833E-01 1.9263706E+00
 4.8235045E+00 8.1584607E-01 1.9371920E+00
 4.7480761E+00 8.4130607E-01 1.9453568E+00
 4.6757893E+00 8.6914917E-01 1.9495699E+00
 4.6064255E+00 8.9931288E-01 1.9487824E+00
 4.5398303E+00 9.3152118E-01 1.9422813E+00
 4.4759778E+00 9.6529952E-01 1.9296964E+00
 4.4148373E+00 1.0000001E+00 1.9109052E+00
 4.3560082E+00 1.0347430E+00 1.8857610E+00
 5.8553568E+00 6.2404993E-01 1.8595959E+00
 5.7814210E+00 6.4137524E-01 1.8636561E+00
 5.7063697E+00 6.5816680E-01 1.8670845E+00
 5.6300586E+00 6.7492650E-01 1.8703449E+00
 5.5523689E+00 6.9195092E-01 1.8738205E+00
 5.4732316E+00 7.0938254E-01 1.8778535E+00
 5.3926121E+00 7.2728858E-01 1.8827701E+00
 5.3105516E+00 7.4571495E-01 1.8888761E+00
 5.2272429E+00 7.6473729E-01 1.8964181E+00
 5.1431594E+00 7.8449719E-01 1.9054948E+00
 5.0591569E+00 8.0522643E-01 1.9159216E+00
 4.9763886E+00 8.2724275E-01 1.9271054E+00
 4.8959662E+00 8.5090315E-01 1.9380324E+00
 4.8186086E+00 8.7652636E-01 1.9474111E+00
 4.7445329E+00 9.0431691E-01 1.9538856E+00
 4.6735782E+00 9.3430923E-01 1.9562183E+00
 4.6054050E+00 9.6633344E-01 1.9534065E+00
 4.5396565E+00 1.0000001E+00 1.9447290E+00
 4.4759777E+00 1.0347007E+00 1.9296966E+00
 4.4139188E+00 1.0695802E+00 1.9079215E+00
 5.8541714E+00 6.6322432E-01 1.8756463E+00
 5.7788879E+00 6.8187152E-01 1.8792724E+00
 5.7025915E+00 7.0001281E-01 1.8822771E+00
 5.6252098E+00 7.1812768E-01 1.8850975E+00
 5.5466542E+00 7.3652758E-01 1.8881108E+00
 5.4668551E+00 7.5538507E-01 1.8916580E+00
 5.3857817E+00 7.7479248E-01 1.8960588E+00
 5.3034847E+00 7.9482382E-01 1.9016055E+00
 5.2201846E+00 8.1558189E-01 1.9085174E+00
 5.1363914E+00 8.3723088E-01 1.9168484E+00
 5.0529853E+00 8.6000927E-01 1.9263544E+00
 4.9710979E+00 8.8421370E-01 1.9363845E+00
 4.8917662E+00 9.1014745E-01 1.9458939E+00
 4.8156064E+00 9.3804947E-01 1.9535988E+00
 4.7427262E+00 9.6802665E-01 1.9581813E+00
 4.6728343E+00 1.0000002E+00 1.9584472E+00
 4.6054050E+00 1.0336669E+00 1.9534068E+00
 4.5398303E+00 1.0684791E+00 1.9422817E+00
 4.4755041E+00 1.1036389E+00 1.9244434E+00
 5.8531892E+00 7.0407176E-01 1.8902495E+00
 5.7768028E+00 7.2386290E-01 1.8932654E+00
 5.6994934E+00 7.4323087E-01 1.8956837E+00
 5.6212418E+00 7.6262414E-01 1.8979109E+00
 5.5419952E+00 7.8234960E-01 1.9003072E+00
 5.4617001E+00 8.0258919E-01 1.9032023E+00
 5.3803364E+00 8.2345270E-01 1.9069041E+00
 5.2979706E+00 8.4503616E-01 1.9116863E+00
 5.2148463E+00 8.6746599E-01 1.9177387E+00
 5.1314972E+00 8.9092412E-01 1.9250720E+00
 5.0488075E+00 9.1565107E-01 1.9333914E+00
 4.9678678E+00 9.4192026E-01 1.9420042E+00
 4.8896281E+00 9.6998313E-01 1.9498520E+00
 4.8145899E+00 1.0000003E+00 1.9556712E+00
 4.7427263E+00 1.0319739E+00 1.9581815E+00
 4.6735784E+00 1.0656912E+00 1.9562187E+00
 4.6064256E+00 1.1006875E+00 1.9487831E+00
 4.5404932E+00 1.1362435E+00 1.9350294E+00
 5.8523279E+00 7.4651729E-01 1.9032243E+00
 5.7750133E+00 7.6730836E-01 1.9054838E+00
 5.6968824E+00 7.8778714E-01 1.9071702E+00
 5.6179599E+00 8.0836575E-01 1.9086572E+00
 5.5382228E+00 8.2933582E-01 1.9102830E+00
 5.4576360E+00 8.5087766E-01 1.9123606E+00
 5.3761919E+00 8.7311161E-01 1.9151809E+00
 5.2939712E+00 8.9615192E-01 1.9189959E+00
 5.2112324E+00 9.2014542E-01 1.9239640E+00
 5.1285171E+00 9.4528915E-01 1.9300558E+00
 5.0466901E+00 9.7182406E-01 1.9369361E+00
 4.9667790E+00 1.0000004E+00 1.9438866E+00
 4.8896281E+00 1.0300176E+00 1.9498522E+00
 4.8156065E+00 1.0619512E+00 1.9535992E+00
 4.7445332E+00 1.0956836E+00 1.9538863E+00
 4.6757896E+00 1.1308513E+00 1.9495708E+00
 4.6085457E+00 1.1668327E+00 1.9396368E+00
 5.8515692E+00 7.9041947E-01 1.9143844E+00
 5.7734830E+00 8.1208368E-01 1.9157642E+00
 5.6947175E+00 8.3355594E-01 1.9165882E+00
 5.6153296E+00 8.5521251E-01 1.9171981E+00
 5.5353199E+00 8.7732161E-01 1.9179074E+00
 5.4546675E+00 9.0005580E-01 1.9190089E+00
 5.3733753E+00 9.2354168E-01 1.9207738E+00
 5.2915325E+00 9.4790944E-01 1.9234292E+00
 5.2094021E+00 9.7332511E-01 1.9271017E+00
 5.1275144E+00 1.0000004E+00 1.9317259E+00
 5.0466900E+00 1.0281768E+00 1.9369363E+00
 4.9678680E+00 1.0580806E+00 1.9420046E+00
 4.8917665E+00 1.0898535E+00 1.9458943E+00
 4.8186091E+00 1.1234744E+00 1.9474119E+00
 4.7480766E+00 1.1586945E+00 1.9453579E+00
 4.6794716E+00 1.1950089E+00 1.9386085E+00
 5.8509239E+00 8.3558812E-01 1.9235543E+00
 5.7722332E+00 8.5799851E-01 1.9239493E+00
 5.6930286E+00 8.8034004E-01 1.9237960E+00
 5.6133905E+00 9.0295136E-01 1.9234047E+00
 5.5333351E+00 9.2607255E-01 1.9230635E+00
 5.4528510E+00 9.4986460E-01 1.9230438E+00
 5.3719463E+00 9.7445858E-01 1.9235943E+00
 5.2907117E+00 1.0000003E+00 1.9249154E+00
 5.2094020E+00 1.0266755E+00 1.9271018E+00
 5.1285169E+00 1.0547116E+00 1.9300561E+00
 5.0488073E+00 1.0843498E+00 1.9333919E+00
 4.9710979E+00 1.1157872E+00 1.9363851E+00
 4.8959666E+00 1.1490978E+00 1.9380333E+00
 4.8235053E+00 1.1841546E+00 1.9371931E+00
 4.7533277E+00 1.2205855E+00 1.9327103E+00
 5.8504140E+00 8.8179084E-01 1.9305799E+00
 5.7713032E+00 9.0481252E-01 1.9299027E+00
 5.6918662E+00 9.2788778E-01 1.9286738E+00
 5.6121986E+00 9.5131500E-01 1.9271734E+00
 5.5323254E+00 9.7530314E-01 1.9256647E+00
 5.4522388E+00 1.0000002E+00 1.9243967E+00
 5.3719462E+00 1.0255418E+00 1.9235943E+00
 5.2915323E+00 1.0520911E+00 1.9234294E+00
 5.2112322E+00 1.0798552E+00 1.9239642E+00
 5.1314969E+00 1.1090766E+00 1.9250725E+00
 5.0529851E+00 1.1399915E+00 1.9263551E+00
 4.9763884E+00 1.1727581E+00 1.9271062E+00
 4.9021486E+00 1.2073724E+00 1.9263718E+00
 4.8302809E+00 1.2436053E+00 1.9230690E+00
 5.8500609E+00 9.2875987E-01 1.9353368E+00
 5.7707292E+00 9.5224767E-01 1.9335190E+00
 5.6912732E+00 9.7590914E-01 1.9311352E+00
 5.6117962E+00 1.0000001E+00 1.9284373E+00
 5.5323253E+00 1.0246971E+00 1.9256647E+00
 5.4528509E+00 1.0501357E+00 1.9230439E+00
 5.3733750E+00 1.0764587E+00 1.9207740E+00
 5.2939708E+00 1.1038486E+00 1.9189962E+00
 5.2148459E+00 1.1325347E+00 1.9177391E+00
 5.1363910E+00 1.1627699E+00 1.9168490E+00
 5.0591567E+00 1.1947744E+00 1.9159225E+00
 4.9836958E+00 1.2286545E+00 1.9142855E+00
 4.9103439E+00 1.2643263E+00 1.9110464E+00
 5.8498803E+00 9.7620027E-01 1.9377378E+00
 5.7705351E+00 1.0000000E+00 1.9347321E+00
 5.6912732E+00 1.0240909E+00 1.9311352E+00
 5.6121985E+00 1.0486851E+00 1.9271734E+00
 5.5333349E+00 1.0739277E+00 1.9230636E+00
 5.4546672E+00 1.0999445E+00 1.9190090E+00
 5.3761915E+00 1.1268888E+00 1.9151812E+00
 5.2979701E+00 1.1549644E+00 1.9116867E+00
 5.2201840E+00 1.1844188E+00 1.9085180E+00
 5.1431589E+00 1.2155036E+00 1.9054957E+00
 5.0673288E+00 1.2484057E+00 1.9022208E+00
 4.9931128E+00 1.2831697E+00 1.8980655E+00
 5.8498803E+00 1.0237998E+00 1.9377378E+00
 5.7707291E+00 1.0477524E+00 1.9335190E+00
 5.6918661E+00 1.0721123E+00 1.9286738E+00
 5.6133903E+00 1.0970488E+00 1.9234047E+00
 5.5353196E+00 1.1226786E+00 1.9179074E+00
 5.4576356E+00 1.1491226E+00 1.9123607E+00
 5.3803358E+00 1.1765477E+00 1.9069044E+00
 5.3034840E+00 1.2051767E+00 1.9016060E+00
 5.2272422E+00 1.2352633E+00 1.8964189E+00
 5.1518675E+00 1.2670367E+00 1.8911418E+00
 5.0776647E+00 1.3006317E+00 1.8853921E+00
 5.8500609E+00 1.0712402E+00 1.9353368E+00
 5.7713031E+00 1.0951875E+00 1.9299027E+00
 5.6930285E+00 1.1196600E+00 1.9237960E+00
 5.6153293E+00 1.1447876E+00 1.9171981E+00
 5.5382224E+00 1.1706644E+00 1.9102831E+00
 5.4616996E+00 1.1974111E+00 1.9032025E+00
 5.3857810E+00 1.2252079E+00 1.8960591E+00
 5.3105508E+00 1.2542855E+00 1.8888767E+00
 5.2361544E+00 1.2848802E+00 1.8815696E+00
 5.1627565E+00 1.3171717E+00 1.8739240E+00
 5.8504139E+00 1.1182092E+00 1.9305799E+00
 5.7722332E+00 1.1420015E+00 1.9239493E+00
 5.6947173E+00 1.1664441E+00 1.9165882E+00
 5.6179595E+00 1.1916344E+00 1.9086572E+00
 5.5419947E+00 1.2176506E+00 1.9003072E+00
 5.4668545E+00 1.2446152E+00 1.8916582E+00
 5.3926113E+00 1.2727118E+00 1.8827704E+00
 5.3193763E+00 1.3021537E+00 1.8736223E+00
 5.2472436E+00 1.3331265E+00 1.8640973E+00
 5.8509238E+00 1.1644119E+00 1.9235543E+00
 5.7734829E+00 1.1879164E+00 1.9157641E+00
 5.6968822E+00 1.2122129E+00 1.9071701E+00
 5.6212414E+00 1.2373760E+00 1.8979108E+00
 5.5466537E+00 1.2634726E+00 1.8881109E+00
 5.4732309E+00 1.2906177E+00 1.8778537E+00
 5.4011069E+00 1.3189712E+00 1.8671563E+00
 5.3303728E+00 1.3486909E+00 1.8559591E+00
 5.8515691E+00 1.2095806E+00 1.9143843E+00
 5.7750131E+00 1.2326917E+00 1.9054837E+00
 5.6994931E+00 1.2567692E+00 1.8956836E+00
 5.6252094E+00 1.2818724E+00 1.8850975E+00
 5.5523683E+00 1.3080492E+00 1.8738206E+00
 5.4811786E+00 1.3353769E+00 1.8619007E+00
 5.4117725E+00 1.3639468E+00 1.8493207E+00
 5.8523279E+00 1.2534828E+00 1.9032242E+00
 5.7768026E+00 1.2761371E+00 1.8932653E+00
 5.7025912E+00 1.2999872E+00 1.8822770E+00
 5.6300582E+00 1.3250736E+00 1.8703448E+00
 5.5595531E+00 1.3513857E+00 1.8575400E+00
 5.4912992E+00 1.3789062E+00 1.8438888E+00
 5.8531892E+00 1.2959283E+00 1.8902493E+00
 5.7788878E+00 1.3181285E+00 1.8792723E+00
 5.7063694E+00 1.3418332E+00 1.8670844E+00
 5.6362365E+00 1.3670232E+00 1.8537506E+00
 5.5689032E+00 1.3935472E+00 1.8393426E+00
 5.8541714E+00 1.3367757E+00 1.8756461E+00
 5.7814208E+00 1.3586248E+00 1.8636560E+00
 5.7112896E+00 1.3823882E+00 1.8501987E+00
 5.6445525E+00 1.4078520E+00 1.8353655E+00
 5.8553568E+00 1.3759501E+00 1.8595958E+00
 5.7847719E+00 1.3976910E+00 1.8465291E+00
 5.7182053E+00 1.4218271E+00 1.8316594E+00
 5.8569393E+00 1.4134558E+00 1.8422591E+00
 5.7898906E+00 1.4355825E+00 1.8279111E+00
 5.8594518E+00 1.4493406E+00 1.8237867E+00
 5.9275041E+00 1.4646851E+00 1.8182046E+00
 5.9278580E+00 1.4307236E+00 1.8366254E+00
 5.9281496E+00 1.3946355E+00 1.8542781E+00
 5.9283856E+00 1.3565818E+00 1.8708732E+00
 5.9285710E+00 1.3166762E+00 1.8861835E+00
 5.9287197E+00 1.2750544E+00 1.8999881E+00
 5.9288413E+00 1.2318619E+00 1.9120839E+00
 5.9289407E+00 1.1872818E+00 1.9222804E+00
 5.9290194E+00 1.1415356E+00 1.9304072E+00
 5.9290767E+00 1.0948795E+00 1.9363215E+00
 5.9291117E+00 1.0475988E+00 1.9399150E+00
 5.9291234E+00 1.0000000E+00 1.9411205E+00
 5.9291117E+00 9.5240127E-01 1.9399150E+00
 5.9290767E+00 9.0512052E-01 1.9363215E+00
 5.9290193E+00 8.5846441E-01 1.9304073E+00
 5.9289407E+00 8.1271823E-01 1.9222805E+00
 5.9288412E+00 7.6813810E-01 1.9120840E+00
 5.9287197E+00 7.2494564E-01 1.8999882E+00
 5.9285709E+00 6.8332386E-01 1.8861836E+00
 5.9283855E+00 6.4341821E-01 1.8708733E+00
 5.9281495E+00 6.0536454E-01 1.8542782E+00
 5.9278579E+00 5.6927641E-01 1.8366255E+00
 5.9275040E+00 5.3531492E-01 1.8182048E+00
 5.9885054E+00 5.1336017E-01 1.8078112E+00
 6.0559008E+00 5.2268258E-01 1.8155921E+00
 6.1258883E+00 5.3284743E-01 1.8231033E+00
 6.1979911E+00 5.4393563E-01 1.8301948E+00
 6.2718922E+00 5.5600524E-01 1.8367282E+00
 6.3473392E+00 5.6910904E-01 1.8426103E+00
 6.4241723E+00 5.8327516E-01 1.8477897E+00
 6.5022493E+00 5.9850827E-01 1.8522567E+00
 6.5814302E+00 6.1479970E-01 1.8560342E+00
 6.6615236E+00 6.3213928E-01 1.8591589E+00
 6.7422392E+00 6.5052856E-01 1.8616525E+00
 6.8231619E+00 6.6999167E-01 1.8634904E+00
 6.9037669E+00 6.9058064E-01 1.8645749E+00
 6.9834746E+00 7.1237195E-01 1.8647222E+00
 7.0617192E+00 7.3545436E-01 1.8636691E+00
 7.1379995E+00 7.5991082E-01 1.8610996E+00
 7.2118961E+00 7.8580105E-01 1.8566820E+00
 7.2830596E+00 8.1314912E-01 1.8501070E+00
 7.3511886E+00 8.4193741E-01 1.8411186E+00
 7.4160135E+00 8.7210568E-01 1.8295344E+00
 7.4772504E+00 9.0351749E-01 1.8152658E+00
 7.5346076E+00 9.3592447E-01 1.7983148E+00
 7.5876259E+00 9.6877193E-01 1.7788631E+00
 5.9957735E+00 1.4518293E+00 1.8280612E+00
 6.0653305E+00 1.4403101E+00 1.8364081E+00
 6.1367696E+00 1.4284216E+00 1.8440973E+00
 6.2098032E+00 1.4158129E+00 1.8511324E+00
 6.2843359E+00 1.4022639E+00 1.8574846E+00
 6.3602034E+00 1.3876746E+00 1.8630961E+00
 6.4372648E+00 1.3720005E+00 1.8679343E+00
 6.5153946E+00 1.3552382E+00 1.8719968E+00
 6.5944472E+00 1.3374021E+00 1.8753069E+00
 6.6742126E+00 1.3185072E+00 1.8778963E+00
 6.7543728E+00 1.2985546E+00 1.8797762E+00
 6.8344888E+00 1.2775228E+00 1.8809079E+00
 6.9140251E+00 1.2553660E+00 1.8811786E+00
 6.9924093E+00 1.2320194E+00 1.8803936E+00
 7.0690971E+00 1.2074115E+00 1.8782873E+00
 7.1436167E+00 1.1814808E+00 1.8745528E+00
 7.2155839E+00 1.1541913E+00 1.8688763E+00
 7.2847009E+00 1.1255475E+00 1.8609669E+00
 7.3507541E+00 1.0956071E+00 1.8505767E+00
 7.4136397E+00 1.0644994E+00 1.8374969E+00
 7.4734331E+00 1.0324511E+00 1.8215250E+00
 7.5305574E+00 1.0000000E+00 1.8023796E+00
 5.9989237E+00 1.4158970E+00 1.8467942E+00
 6.0709812E+00 1.4022469E+00 1.8555185E+00
 6.1440644E+00 1.3886224E+00 1.8632584E+00
 6.2183318E+00 1.3744070E+00 1.8701753E+00
 6.2937228E+00 1.3593121E+00 1.8762715E+00
 6.3701787E+00 1.3431814E+00 1.8815262E+00
 6.4476057E+00 1.3259609E+00 1.8859190E+00
 6.5259029E+00 1.3076469E+00 1.8894545E+00
 6.6049276E+00 1.2882578E+00 1.8921574E+00
 6.6844548E+00 1.2678112E+00 1.8940562E+00
 6.7641453E+00 1.2463094E+00 1.8951541E+00
 6.8435429E+00 1.2237334E+00 1.8954008E+00
 6.9221091E+00 1.2000422E+00 1.8946719E+00
 6.9992864E+00 1.1751797E+00 1.8927647E+00
 7.0745622E+00 1.1490862E+00 1.8894129E+00
 7.1475157E+00 1.1217139E+00 1.8843143E+00
 7.2178436E+00 1.0930446E+00 1.8771586E+00
 7.2853893E+00 1.0631105E+00 1.8676420E+00
 7.3501936E+00 1.0320201E+00 1.8554595E+00
 7.4125810E+00 1.0000000E+00 1.8402630E+00
 7.4734331E+00 9.6754900E-01 1.8215250E+00
 6.0010462E+00 1.3782480E+00 1.8643509E+00
 6.0747867E+00 1.3628710E+00 1.8730500E+00
 6.1493204E+00 1.3475645E+00 1.8806713E+00
 6.2247047E+00 1.3317528E+00 1.8873330E+00
 6.3009473E+00 1.3150882E+00 1.8930599E+00
 6.3780070E+00 1.2974026E+00 1.8978371E+00
 6.4558266E+00 1.2786339E+00 1.9016539E+00
 6.5343172E+00 1.2587813E+00 1.9045194E+00
 6.6133344E+00 1.2378652E+00 1.9064606E+00
 6.6926395E+00 1.2159042E+00 1.9075040E+00
 6.7718764E+00 1.1929008E+00 1.9076462E+00
 6.8505800E+00 1.1688365E+00 1.9068278E+00
 6.9282185E+00 1.1436729E+00 1.9049149E+00
 7.0042618E+00 1.1173583E+00 1.9016982E+00
 7.0782510E+00 1.0898408E+00 1.8969077E+00
 7.1498564E+00 1.0610872E+00 1.8902356E+00
 7.2189302E+00 1.0311095E+00 1.8813512E+00
 7.2855677E+00 1.0000000E+00 1.8698983E+00
 7.3501937E+00 9.6798002E-01 1.8554595E+00
 7.4136397E+00 9.3550072E-01 1.8374969E+00
 6.0026526E+00 1.3388824E+00 1.8805948E+00
 6.0776773E+00 1.3219791E+00 1.8890206E+00
 6.1533649E+00 1.3051147E+00 1.8963230E+00
 6.2297069E+00 1.2877497E+00 1.9025754E+00
 6.3066882E+00 1.2695460E+00 1.9077875E+00
 6.3842775E+00 1.2503340E+00 1.9119438E+00
 6.4624245E+00 1.2300577E+00 1.9150357E+00
 6.5410444E+00 1.2087196E+00 1.9170762E+00
 6.6199862E+00 1.1863424E+00 1.9180946E+00
 6.6989994E+00 1.1629438E+00 1.9181158E+00
 6.7777181E+00 1.1385248E+00 1.9171312E+00
 6.8556787E+00 1.1130648E+00 1.9150738E+00
 6.9323703E+00 1.0865242E+00 1.9118011E+00
 7.0073110E+00 1.0588539E+00 1.9070959E+00
 7.0801296E+00 1.0300133E+00 1.9006781E+00
 7.1506429E+00 1.0000000E+00 1.8922204E+00
 7.2189302E+00 9.6889062E-01 1.8813512E+00
 7.2853893E+00 9.3688958E-01 1.8676420E+00
 7.3507541E+00 9.0439301E-01 1.8505767E+00
 6.0039642E+00 1.2978109E+00 1.8953720E+00
 6.0800397E+00 1.2795332E+00 1.9033283E+00
 6.1566682E+00 1.2612187E+00 1.9101323E+00
 6.2337887E+00 1.2423768E+00 1.9158117E+00
 6.3113584E+00 1.2226967E+00 1.9203534E+00
 6.3893383E+00 1.2020265E+00 1.9237346E+00
 6.4676777E+00 1.1803212E+00 1.9259467E+00
 6.5462890E+00 1.1575894E+00 1.9270059E+00
 6.6250152E+00 1.1338548E+00 1.9269435E+00
 6.7035987E+00 1.1091326E+00 1.9257833E+00
 6.7816737E+00 1.0834188E+00 1.9235120E+00
 6.8587922E+00 1.0566873E+00 1.9200550E+00
 6.9344832E+00 1.0288954E+00 1.9152611E+00
 7.0083425E+00 1.0000000E+00 1.9089012E+00
 7.0801296E+00 9.6998677E-01 1.9006781E+00
 7.1498564E+00 9.3891285E-01 1.8902356E+00
 7.2178436E+00 9.0695552E-01 1.8771586E+00
 7.2847009E+00 8.7445263E-01 1.8609670E+00
 6.0050892E+00 1.2551171E+00 1.9085029E+00
 6.0820483E+00 1.2355885E+00 1.9158243E+00
 6.1594373E+00 1.2159279E+00 1.9219664E+00
 6.2371539E+00 1.1957011E+00 1.9269135E+00
 6.3151319E+00 1.1746357E+00 1.9306296E+00
 6.3933229E+00 1.1526065E+00 1.9330831E+00
 6.4716728E+00 1.1295839E+00 1.9342652E+00
 6.5500915E+00 1.1055827E+00 1.9341952E+00
 6.6284192E+00 1.0806255E+00 1.9329063E+00
 6.7063994E+00 1.0547215E+00 1.9304207E+00
 6.7836787E+00 1.0278578E+00 1.9267200E+00
 6.8598417E+00 1.0000001E+00 1.9217211E+00
 6.9344832E+00 9.7110470E-01 1.9152611E+00
 7.0073110E+00 9.4114624E-01 1.9070959E+00
 7.0782510E+00 9.1015929E-01 1.8969077E+00
 7.1475158E+00 8.7828619E-01 1.8843144E+00
 7.2155839E+00 8.4580881E-01 1.8688763E+00
 6.0060626E+00 1.2109467E+00 1.9198000E+00
 6.0837527E+00 1.1902782E+00 1.9263423E+00
 6.1617238E+00 1.1693801E+00 1.9316729E+00
 6.2398443E+00 1.1478760E+00 1.9357384E+00
 6.3180315E+00 1.1255397E+00 1.9384822E+00
 6.3962308E+00 1.1022772E+00 1.9398658E+00
 6.4743865E+00 1.0780753E+00 1.9398811E+00
 6.5524094E+00 1.0529532E+00 1.9385504E+00
 6.6301431E+00 1.0269285E+00 1.9359079E+00
 6.7073417E+00 1.0000001E+00 1.9319729E+00
 6.7836787E+00 9.7214228E-01 1.9267200E+00
 6.8587922E+00 9.4331284E-01 1.9200551E+00
 6.9323703E+00 9.1347593E-01 1.9118012E+00
 7.0042618E+00 8.8264183E-01 1.9016982E+00
 7.0745622E+00 8.5091383E-01 1.8894129E+00
 7.1436168E+00 8.1851929E-01 1.8745529E+00
 6.0068803E+00 1.1654931E+00 1.9290850E+00
 6.0851379E+00 1.1437994E+00 1.9347200E+00
 6.1635026E+00 1.1217825E+00 1.9391040E+00
 6.2418246E+00 1.0991259E+00 1.9421522E+00
 6.3200121E+00 1.0756540E+00 1.9437920E+00
 6.3980092E+00 1.0513049E+00 1.9439805E+00
 6.4757629E+00 1.0260805E+00 1.9427114E+00
 6.5531894E+00 1.0000001E+00 1.9400094E+00
 6.6301431E+00 9.7307162E-01 1.9359079E+00
 6.7063994E+00 9.4527859E-01 1.9304208E+00
 6.7816738E+00 9.1658130E-01 1.9235120E+00
 6.8556788E+00 8.8693532E-01 1.9150738E+00
 6.9282185E+00 8.5632722E-01 1.9049150E+00
 6.9992864E+00 8.2482035E-01 1.8927648E+00
 7.0690971E+00 7.9258854E-01 1.8782873E+00
 6.0075216E+00 1.1189918E+00 1.9362004E+00
 6.0861656E+00 1.0963991E+00 1.9408155E+00
 6.1647250E+00 1.0733960E+00 1.9441342E+00
 6.2430407E+00 1.0497292E+00 1.9460471E+00
 6.3210192E+00 1.0252741E+00 1.9464704E+00
 6.3986085E+00 1.0000001E+00 1.9453599E+00
 6.4757629E+00 9.7391962E-01 1.9427114E+00
 6.5524094E+00 9.4704696E-01 1.9385504E+00
 6.6284192E+00 9.1937459E-01 1.9329064E+00
 6.7035987E+00 8.9086749E-01 1.9257833E+00
 6.7777181E+00 8.6147529E-01 1.9171313E+00
 6.8505800E+00 8.3116357E-01 1.9068278E+00
 6.9221091E+00 7.9995786E-01 1.8946720E+00
 6.9924093E+00 7.6798067E-01 1.8803936E+00
 6.0079639E+00 1.0717140E+00 1.9410191E+00
 6.0867990E+00 1.0483621E+00 1.9445190E+00
 6.1653482E+00 1.0245206E+00 1.9466729E+00
 6.2434510E+00 1.0000000E+00 1.9473534E+00
 6.3210192E+00 9.7472603E-01 1.9464704E+00
 6.3980092E+00 9.4869517E-01 1.9439805E+00
 6.4743865E+00 9.2192481E-01 1.9398812E+00
 6.5500915E+00 8.9441737E-01 1.9341953E+00
 6.6250152E+00 8.6614530E-01 1.9269435E+00
 6.6989994E+00 8.3705629E-01 1.9181158E+00
 6.7718765E+00 8.0709934E-01 1.9076462E+00
 6.8435429E+00 7.7626671E-01 1.8954009E+00
 6.9140251E+00 7.4463403E-01 1.8811787E+00
 6.0081896E+00 1.0239584E+00 1.9434515E+00
 6.0870130E+00 1.0000000E+00 1.9457614E+00
 6.1653482E+00 9.7547951E-01 1.9466730E+00
 6.2430406E+00 9.5027088E-01 1.9460471E+00
 6.3200121E+00 9.2434613E-01 1.9437920E+00
 6.3962307E+00 8.9772293E-01 1.9398659E+00
 6.4716728E+00 8.7041622E-01 1.9342652E+00
 6.5462890E+00 8.4241067E-01 1.9270059E+00
 6.6199862E+00 8.1365772E-01 1.9180947E+00
 6.6926396E+00 7.8409593E-01 1.9075040E+00
 6.7641453E+00 7.5369072E-01 1.8951542E+00
 6.8344888E+00 7.2247726E-01 1.8809080E+00
 6.0081896E+00 9.7604161E-01 1.9434515E+00
 6.0867990E+00 9.5163796E-01 1.9445190E+00
 6.1647250E+00 9.2660408E-01 1.9441342E+00
 6.2418245E+00 9.0087414E-01 1.9421523E+00
 6.3180314E+00 8.7446041E-01 1.9384822E+00
 6.3933228E+00 8.4739363E-01 1.9330831E+00
 6.4676777E+00 8.1967896E-01 1.9259467E+00
 6.5410444E+00 7.9128046E-01 1.9170762E+00
 6.6133344E+00 7.6213488E-01 1.9064607E+00
 6.6844549E+00 7.3218893E-01 1.8940563E+00
 6.7543728E+00 7.0144552E-01 1.8797763E+00
 6.0079638E+00 9.2828606E-01 1.9410191E+00
 6.0861656E+00 9.0360099E-01 1.9408155E+00
 6.1635025E+00 8.7821762E-01 1.9391040E+00
 6.2398442E+00 8.5212411E-01 1.9357384E+00
 6.3151318E+00 8.2536441E-01 1.9306296E+00
 6.3893382E+00 7.9797360E-01 1.9237347E+00
 6.4624245E+00 7.6994239E-01 1.9150357E+00
 6.5343172E+00 7.4121882E-01 1.9045194E+00
 6.6049276E+00 7.1174226E-01 1.8921574E+00
 6.6742126E+00 6.8149286E-01 1.8778963E+00
 6.0075215E+00 8.8100823E-01 1.9362005E+00
 6.0851378E+00 8.5620061E-01 1.9347201E+00
 6.1617237E+00 8.3061993E-01 1.9316729E+00
 6.2371538E+00 8.0429899E-01 1.9269135E+00
 6.3113583E+00 7.7730337E-01 1.9203535E+00
 6.3842774E+00 7.4966607E-01 1.9119439E+00
 6.4558266E+00 7.2136624E-01 1.9016539E+00
 6.5259029E+00 6.9235324E-01 1.8894545E+00
 6.5944472E+00 6.6259797E-01 1.8753070E+00
 6.0068802E+00 8.3450692E-01 1.9290850E+00
 6.0837526E+00 8.0972187E-01 1.9263424E+00
 6.1594371E+00 7.8407215E-01 1.9219665E+00
 6.2337886E+00 7.5762329E-01 1.9158117E+00
 6.3066880E+00 7.3045406E-01 1.9077875E+00
 6.3780069E+00 7.0259751E-01 1.8978372E+00
 6.4476057E+00 6.7403924E-01 1.8859191E+00
 6.5153946E+00 6.4476194E-01 1.8719969E+00
 6.0060625E+00 7.8905333E-01 1.9198001E+00
 6.0820481E+00 7.6441159E-01 1.9158244E+00
 6.1566680E+00 7.3878140E-01 1.9101324E+00
 6.2297068E+00 7.1225038E-01 1.9025755E+00
 6.3009472E+00 6.8491190E-01 1.8930599E+00
 6.3701786E+00 6.5681869E-01 1.8815263E+00
 6.4372648E+00 6.2799959E-01 1.8679344E+00
 6.0050891E+00 7.4488293E-01 1.9085030E+00
 6.0800395E+00 7.2046689E-01 1.9033284E+00
 6.1533647E+00 6.9488537E-01 1.8963231E+00
 6.2247046E+00 6.6824729E-01 1.8873331E+00
 6.2937226E+00 6.4068799E-01 1.8762716E+00
 6.3602033E+00 6.1232547E-01 1.8630962E+00
 6.0039641E+00 7.0218912E-01 1.8953721E+00
 6.0776771E+00 6.7802098E-01 1.8890207E+00
 6.1493202E+00 6.5243553E-01 1.8806714E+00
 6.2183316E+00 6.2559306E-01 1.8701753E+00
 6.2843357E+00 5.9773622E-01 1.8574846E+00
 6.0026524E+00 6.6111766E-01 1.8805950E+00
 6.0747865E+00 6.3712908E-01 1.8730501E+00
 6.1440642E+00 6.1137765E-01 1.8632585E+00
 6.2098030E+00 5.8418717E-01 1.8511325E+00
 6.0010461E+00 6.2175202E-01 1.8643510E+00
 6.0709810E+00 5.9775315E-01 1.8555187E+00
 6.1367694E+00 5.7157846E-01 1.8440974E+00
 5.9989236E+00 5.8410308E-01 1.8467943E+00
 6.0653303E+00 5.5968996E-01 1.8364082E+00
 5.9957733E+00 5.4817075E-01 1.8280614E+00
 5.8897001E+00 1.5177769E+00 1.7839842E+00
 5.8482654E+00 1.5425751E+00 1.7650286E+00
 5.8051300E+00 1.5676990E+00 1.7443478E+00
 5.7606115E+00 1.5928977E+00 1.7220246E+00
 5.7148854E+00 1.6180645E+00 1.6980650E+00
 5.6681863E+00 1.6431061E+00 1.6724756E+00
 5.6207345E+00 1.6679442E+00 1.6452597E+00
 5.5727614E+00 1.6924929E+00 1.6164363E+00
 5.5245142E+00 1.7166610E+00 1.5860366E+00
 5.4762558E+00 1.7403512E+00 1.5541028E+00
 5.4282657E+00 1.7634573E+00 1.5206873E+00
 5.3808383E+00 1.7858621E+00 1.4858512E+00
 5.3342809E+00 1.8074346E+00 1.4496645E+00
 5.2889085E+00 1.8280282E+00 1.4122067E+00
 5.2450377E+00 1.8474809E+00 1.3735687E+00
 5.2029785E+00 1.8656177E+00 1.3338553E+00
 5.1630275E+00 1.8822562E+00 1.2931886E+00
 5.1254601E+00 1.8972152E+00 1.2517099E+00
 5.0905214E+00 1.9103252E+00 1.2095783E+00
 5.0584273E+00 1.9214390E+00 1.1669687E+00
 5.0293665E+00 1.9304342E+00 1.1241133E+00
 5.0033599E+00 1.9372335E+00 1.0812933E+00
 4.9803237E+00 1.9418286E+00 1.0389608E+00
 4.2397653E+00 1.0955586E+00 1.8134461E+00
 4.2312184E+00 1.1577665E+00 1.7975945E+00
 4.2257742E+00 1.2209879E+00 1.7783891E+00
 4.2242570E+00 1.2851750E+00 1.7560973E+00
 4.2271601E+00 1.3499941E+00 1.7307832E+00
 4.2348564E+00 1.4149355E+00 1.7024831E+00
 4.2476176E+00 1.4793516E+00 1.6712431E+00
 4.2656228E+00 1.5424927E+00 1.6371503E+00
 4.2889516E+00 1.6035326E+00 1.6003554E+00
 4.3175709E+00 1.6615947E+00 1.5610907E+00
 4.3513178E+00 1.7157890E+00 1.5196792E+00
 4.3898876E+00 1.7652603E+00 1.4765386E+00
 4.4328347E+00 1.8092469E+00 1.4321753E+00
 4.4795932E+00 1.8471476E+00 1.3871700E+00
 4.5295230E+00 1.8785874E+00 1.3421542E+00
 4.5819791E+00 1.9034730E+00 1.2977753E+00
 4.6363873E+00 1.9220201E+00 1.2546560E+00
 4.6922888E+00 1.9347468E+00 1.2133439E+00
 4.7493148E+00 1.9424208E+00 1.1742616E+00
 4.8071360E+00 1.9459758E+00 1.1376517E+00
 4.8653766E+00 1.9464165E+00 1.1034806E+00
 4.9233872E+00 1.9447343E+00 1.0713884E+00
 4.2916556E+00 1.1336912E+00 1.8420553E+00
 4.2861918E+00 1.1983194E+00 1.8259517E+00
 4.2837118E+00 1.2628369E+00 1.8062249E+00
 4.2851434E+00 1.3274934E+00 1.7831812E+00
 4.2910504E+00 1.3920899E+00 1.7569333E+00
 4.3017994E+00 1.4561572E+00 1.7275400E+00
 4.3176086E+00 1.5190449E+00 1.6950676E+00
 4.3385693E+00 1.5799823E+00 1.6596304E+00
 4.3646543E+00 1.6381285E+00 1.6214209E+00
 4.3957137E+00 1.6926189E+00 1.5807276E+00
 4.4314706E+00 1.7426181E+00 1.5379419E+00
 4.4715256E+00 1.7873799E+00 1.4935560E+00
 4.5153798E+00 1.8263121E+00 1.4481482E+00
 4.5624801E+00 1.8590400E+00 1.4023597E+00
 4.6122838E+00 1.8854562E+00 1.3568573E+00
 4.6643189E+00 1.9057447E+00 1.3122901E+00
 4.7182045E+00 1.9203714E+00 1.2692329E+00
 4.7736271E+00 1.9300392E+00 1.2281230E+00
 4.8302880E+00 1.9356189E+00 1.1891756E+00
 4.8878184E+00 1.9380605E+00 1.1523164E+00
 4.9458135E+00 1.9383075E+00 1.1168654E+00
 4.3486484E+00 1.1702266E+00 1.8665117E+00
 4.3461308E+00 1.2359184E+00 1.8497741E+00
 4.3466231E+00 1.3009654E+00 1.8292704E+00
 4.3510178E+00 1.3655133E+00 1.8052622E+00
 4.3598890E+00 1.4293579E+00 1.7778742E+00
 4.3735706E+00 1.4920205E+00 1.7471865E+00
 4.3922097E+00 1.5528363E+00 1.7132960E+00
 4.4158050E+00 1.6110305E+00 1.6763634E+00
 4.4442270E+00 1.6657820E+00 1.6366436E+00
 4.4772296E+00 1.7162860E+00 1.5945006E+00
 4.5144622E+00 1.7618177E+00 1.5504080E+00
 4.5554949E+00 1.8017978E+00 1.5049372E+00
 4.5998637E+00 1.8358538E+00 1.4587328E+00
 4.6471236E+00 1.8638645E+00 1.4124755E+00
 4.6968896E+00 1.8859834E+00 1.3668329E+00
 4.7488415E+00 1.9026269E+00 1.3224023E+00
 4.8026939E+00 1.9144388E+00 1.2796372E+00
 4.8581398E+00 1.9222295E+00 1.2387708E+00
 4.9148071E+00 1.9269026E+00 1.1996911E+00
 4.9721857E+00 1.9293602E+00 1.1618614E+00
 4.4102723E+00 1.2050652E+00 1.8858932E+00
 4.4105902E+00 1.2708184E+00 1.8682186E+00
 4.4139748E+00 1.3355608E+00 1.8466869E+00
 4.4212506E+00 1.3992950E+00 1.8215083E+00
 4.4329483E+00 1.4617393E+00 1.7928062E+00
 4.4493407E+00 1.5223782E+00 1.7606860E+00
 4.4704957E+00 1.5805387E+00 1.7252917E+00
 4.4963266E+00 1.6354692E+00 1.6868500E+00
 4.5266285E+00 1.6864130E+00 1.6456962E+00
 4.5611062E+00 1.7326785E+00 1.6022809E+00
 4.5994042E+00 1.7737053E+00 1.5571619E+00
 4.6411462E+00 1.8091245E+00 1.5109782E+00
 4.6859734E+00 1.8388015E+00 1.4644141E+00
 4.7335673E+00 1.8628552E+00 1.4181488E+00
 4.7836444E+00 1.8816518E+00 1.3727960E+00
 4.8359237E+00 1.8957738E+00 1.3288346E+00
 4.8900761E+00 1.9059714E+00 1.2865192E+00
 4.9456647E+00 1.9130923E+00 1.2457974E+00
 5.0020849E+00 1.9179943E+00 1.2062275E+00
 4.4759938E+00 1.2377868E+00 1.8995313E+00
 4.4789920E+00 1.3027933E+00 1.8806628E+00
 4.4851189E+00 1.3664734E+00 1.8578922E+00