# TIME = 13.300000
variables = x, y, z
zone N=5762 E=11520 F=FEPOINT ET=TRIANGLE
 6.1688726E+00 1.4964564E+00 1.8031187E+00
 6.1688726E+00 1.4964566E+00 1.9687979E-01
 6.1688725E+00 5.0354437E-01 1.8031191E+00
 6.1688725E+00 5.0354399E-01 1.9687913E-01
 4.4487992E+00 1.0000005E+00 1.7960065E+00
 7.8791721E+00 1.0000004E+00 1.7588733E+00
 4.4487985E+00 1.0000005E+00 2.0399128E-01
 7.8791716E+00 1.0000004E+00 2.4112664E-01
 5.1922229E+00 1.9421235E+00 9.9999946E-01
 5.1922230E+00 5.7876831E-02 9.9999947E-01
 7.1143664E+00 1.9181761E+00 9.9999942E-01
 7.1143665E+00 8.1823934E-02 9.9999943E-01
 6.1074984E+00 1.4861593E+00 1.8073322E+00
 6.0399130E+00 1.4744609E+00 1.8113343E+00
 5.9695546E+00 1.4620121E+00 1.8149744E+00
 5.8967459E+00 1.4489481E+00 1.8183821E+00
 5.8216088E+00 1.4354057E+00 1.8217770E+00
 5.7441362E+00 1.4215129E+00 1.8254794E+00
 5.6642253E+00 1.4074030E+00 1.8298912E+00
 5.5818047E+00 1.3932051E+00 1.8354755E+00
 5.4969584E+00 1.3790132E+00 1.8427090E+00
 5.4101652E+00 1.3648326E+00 1.8519733E+00
 5.3225421E+00 1.3504995E+00 1.8633606E+00
 5.2357547E+00 1.3356130E+00 1.8764510E+00
 5.1513985E+00 1.3195679E+00 1.8902509E+00
 5.0704117E+00 1.3016981E+00 1.9033805E+00
 4.9930094E+00 1.2814305E+00 1.9143499E+00
 4.9189442E+00 1.2583833E+00 1.9217796E+00
 4.8478421E+00 1.2324114E+00 1.9245419E+00
 4.7794959E+00 1.2036105E+00 1.9218519E+00
 4.7140235E+00 1.1722918E+00 1.9133202E+00
 4.6518181E+00 1.1389329E+00 1.8989526E+00
 4.5934218E+00 1.1041422E+00 1.8791125E+00
 4.5394003E+00 1.0686124E+00 1.8544517E+00
 4.4904079E+00 1.0331953E+00 1.8259585E+00
 6.1008139E+00 5.4924923E-01 1.8273796E+00
 6.0309834E+00 5.6310987E-01 1.8317509E+00
 5.9591053E+00 5.7711432E-01 1.8354091E+00
 5.8852549E+00 5.9145640E-01 1.8386815E+00
 5.8093208E+00 6.0618983E-01 1.8419072E+00
 5.7312125E+00 6.2127104E-01 1.8454604E+00
 5.6508241E+00 6.3662637E-01 1.8497754E+00
 5.5681038E+00 6.5217514E-01 1.8553262E+00
 5.4832021E+00 6.6787324E-01 1.8625742E+00
 5.3967057E+00 6.8377024E-01 1.8718496E+00
 5.3098335E+00 7.0008000E-01 1.8831476E+00
 5.2242437E+00 7.1721778E-01 1.8959301E+00
 5.1413999E+00 7.3573961E-01 1.9091174E+00
 5.0620873E+00 7.5620506E-01 1.9213070E+00
 4.9864201E+00 7.7905214E-01 1.9310443E+00
 4.9141150E+00 8.0452513E-01 1.9370214E+00
 4.8448009E+00 8.3264585E-01 1.9381976E+00
 4.7782651E+00 8.6321625E-01 1.9338695E+00
 4.7145698E+00 8.9584406E-01 1.9236996E+00
 4.6539690E+00 9.2998748E-01 1.9076836E+00
 4.5967120E+00 9.6499412E-01 1.8860500E+00
 4.5428072E+00 1.0000006E+00 1.8590903E+00
 6.0982987E+00 5.8557759E-01 1.8460746E+00
 6.0259551E+00 6.0147962E-01 1.8505774E+00
 5.9523035E+00 6.1706504E-01 1.8541165E+00
 5.8770648E+00 6.3279172E-01 1.8571680E+00
 5.8000806E+00 6.4881615E-01 1.8601308E+00
 5.7211694E+00 6.6518837E-01 1.8634284E+00
 5.6401963E+00 6.8188991E-01 1.8675169E+00
 5.5571146E+00 6.9889040E-01 1.8728747E+00
 5.4721246E+00 7.1619493E-01 1.8799437E+00
 5.3858988E+00 7.3390362E-01 1.8889999E+00
 5.2997221E+00 7.5226717E-01 1.8999472E+00
 5.2152193E+00 7.7169655E-01 1.9121464E+00
 5.1337275E+00 7.9268667E-01 1.9244535E+00
 5.0558985E+00 8.1569240E-01 1.9354588E+00
 4.9817574E+00 8.4103069E-01 1.9437476E+00
 4.9109716E+00 8.6882734E-01 1.9480760E+00
 4.8431251E+00 8.9899793E-01 1.9474674E+00
 4.7779157E+00 9.3125459E-01 1.9412530E+00
 4.7152132E+00 9.6513021E-01 1.9290582E+00
 4.6549411E+00 1.0000007E+00 1.9107208E+00
 4.5967119E+00 1.0350071E+00 1.8860504E+00
 6.0967782E+00 6.2349279E-01 1.8635717E+00
 6.0226910E+00 6.4097927E-01 1.8678482E+00
 5.9474952E+00 6.5805834E-01 1.8711029E+00
 5.8710006E+00 6.7515977E-01 1.8738036E+00
 5.7930010E+00 6.9251784E-01 1.8763873E+00
 5.7133086E+00 7.1023270E-01 1.8793002E+00
 5.6317703E+00 7.2833734E-01 1.8830123E+00
 5.5483547E+00 7.4684631E-01 1.8879995E+00
 5.4633075E+00 7.6581230E-01 1.8946799E+00
 5.3773699E+00 7.8537958E-01 1.9032746E+00
 5.2918649E+00 8.0582351E-01 1.9136041E+00
 5.2083671E+00 8.2753735E-01 1.9249454E+00
 5.1280944E+00 8.5094937E-01 1.9361091E+00
 5.0515774E+00 8.7641572E-01 1.9456901E+00
 4.9787488E+00 9.0414250E-01 1.9523136E+00
 4.9091968E+00 9.3414413E-01 1.9547855E+00
 4.8423968E+00 9.6622855E-01 1.9521605E+00
 4.7778725E+00 1.0000007E+00 1.9437486E+00
 4.7152131E+00 1.0348712E+00 1.9290586E+00
 4.6539688E+00 1.0700139E+00 1.9076844E+00
 6.0956689E+00 6.6301904E-01 1.8797217E+00
 6.0202677E+00 6.8182813E-01 1.8835417E+00
 5.9438553E+00 7.0024437E-01 1.8863320E+00
 5.8663061E+00 7.1866338E-01 1.8885394E+00
 5.7874431E+00 7.3733421E-01 1.8906063E+00
 5.7070841E+00 7.5639244E-01 1.8929890E+00
 5.6250860E+00 7.7590649E-01 1.8961602E+00
 5.5414384E+00 7.9593201E-01 1.9005868E+00
 5.4564302E+00 8.1656436E-01 1.9066585E+00
 5.3708526E+00 8.3798529E-01 1.9145420E+00
 5.2860422E+00 8.6048427E-01 1.9239837E+00
 5.2035102E+00 8.8442799E-01 1.9341948E+00
 5.1243591E+00 9.1017646E-01 1.9439581E+00
 5.0490015E+00 9.3799062E-01 1.9518822E+00
 4.9772646E+00 9.6796676E-01 1.9566284E+00
 4.9086220E+00 1.0000008E+00 1.9570363E+00
 4.8423968E+00 1.0337730E+00 1.9521610E+00
 4.7779157E+00 1.0687469E+00 1.9412538E+00
 4.7145696E+00 1.1041574E+00 1.9237009E+00
 6.0947758E+00 7.0413707E-01 1.8943680E+00
 6.0183239E+00 7.2407560E-01 1.8975552E+00
 5.9409412E+00 7.4368747E-01 1.8997214E+00
 5.8625479E+00 7.6333209E-01 1.9012898E+00
 5.7830033E+00 7.8325683E-01 1.9026964E+00
 5.7021459E+00 8.0361376E-01 1.9043958E+00
 5.6198504E+00 8.2449870E-01 1.9068551E+00
 5.5361312E+00 8.4600204E-01 1.9105257E+00
 5.4513119E+00 8.6825754E-01 1.9157648E+00
 5.3662137E+00 8.9147769E-01 1.9226862E+00
 5.2821622E+00 9.1595818E-01 1.9309733E+00
 5.2005918E+00 9.4203335E-01 1.9397900E+00
 5.1224878E+00 9.6999314E-01 1.9479074E+00
 5.0481427E+00 1.0000007E+00 1.9539556E+00
 4.9772646E+00 1.0320347E+00 1.9566286E+00
 4.9091967E+00 1.0658574E+00 1.9547861E+00
 4.8431251E+00 1.1010037E+00 1.9474685E+00
 4.7782650E+00 1.1367853E+00 1.9338710E+00
 6.0940137E+00 7.4676433E-01 1.9073411E+00
 6.0166993E+00 7.6767609E-01 1.9097522E+00
 5.9385445E+00 7.8835172E-01 1.9111536E+00
 5.8595074E+00 8.0911594E-01 1.9119450E+00
 5.7794793E+00 8.3020711E-01 1.9125501E+00
 5.6983220E+00 8.5178418E-01 1.9134142E+00
 5.6159289E+00 8.7396351E-01 1.9149920E+00
 5.5323366E+00 8.9686607E-01 1.9177132E+00
 5.4478910E+00 9.2065978E-01 1.9218990E+00
 5.3634210E+00 9.4558262E-01 1.9276137E+00
 5.2802151E+00 9.7193056E-01 1.9344902E+00
 5.1996160E+00 1.0000007E+00 1.9416630E+00
 5.1224878E+00 1.0300083E+00 1.9479074E+00
 5.0490014E+00 1.0620108E+00 1.9518823E+00
 4.9787487E+00 1.0958590E+00 1.9523140E+00
 4.9109714E+00 1.1311742E+00 1.9480770E+00
 4.8448008E+00 1.1673558E+00 1.9381992E+00
 6.0933551E+00 7.9076190E-01 1.9184694E+00
 6.0153365E+00 8.1251037E-01 1.9199853E+00
 5.9365920E+00 8.3412048E-01 1.9204989E+00
 5.8571095E+00 8.5588796E-01 1.9203873E+00
 5.7768068E+00 8.7803742E-01 1.9200582E+00
 5.6955650E+00 9.0072959E-01 1.9199425E+00
 5.6132940E+00 9.2409723E-01 1.9204767E+00
 5.5300450E+00 9.4828896E-01 1.9220637E+00
 5.4461719E+00 9.7350372E-01 1.9249862E+00
 5.3624868E+00 1.0000007E+00 1.9292633E+00
 5.2802152E+00 1.0280709E+00 1.9344901E+00
 5.2005918E+00 1.0579681E+00 1.9397900E+00
 5.1243591E+00 1.0898249E+00 1.9439581E+00
 5.0515772E+00 1.1235856E+00 1.9456903E+00
 4.9817571E+00 1.1589707E+00 1.9437483E+00
 4.9141148E+00 1.1954764E+00 1.9370227E+00
 6.0928001E+00 8.3594730E-01 1.9275922E+00
 6.0142349E+00 8.5839976E-01 1.9281135E+00
 5.9350837E+00 8.8081329E-01 1.9276334E+00
 5.8553581E+00 9.0345740E-01 1.9265071E+00
 5.7749953E+00 9.2654082E-01 1.9251240E+00
 5.6938908E+00 9.5022320E-01 1.9238965E+00
 5.6119657E+00 9.7465166E-01 1.9232382E+00
 5.5292773E+00 1.0000007E+00 1.9235205E+00
 5.4461719E+00 1.0264977E+00 1.9249862E+00
 5.3634210E+00 1.0544189E+00 1.9276137E+00
 5.2821622E+00 1.0840433E+00 1.9309733E+00
 5.2035103E+00 1.1155734E+00 1.9341947E+00
 5.1280944E+00 1.1490519E+00 1.9361091E+00
 5.0558982E+00 1.1843088E+00 1.9354591E+00
 4.9864197E+00 1.2209492E+00 1.9310453E+00
 6.0923626E+00 8.8209979E-01 1.9345686E+00
 6.0134181E+00 9.0512030E-01 1.9340146E+00
 5.9340500E+00 9.2820067E-01 1.9324528E+00
 5.8542864E+00 9.5158530E-01 1.9302168E+00
 5.7740776E+00 9.7546608E-01 1.9276759E+00
 5.6933284E+00 1.0000006E+00 1.9252210E+00
 5.6119656E+00 1.0253496E+00 1.9232382E+00
 5.5300449E+00 1.0517124E+00 1.9220637E+00
 5.4478909E+00 1.0793417E+00 1.9218990E+00
 5.3662136E+00 1.1085238E+00 1.9226861E+00
 5.2860423E+00 1.1395171E+00 1.9239836E+00
 5.2083674E+00 1.1724639E+00 1.9249453E+00
 5.1337277E+00 1.2073145E+00 1.9244536E+00
 5.0620870E+00 1.2437960E+00 1.9213075E+00
 6.0920594E+00 9.2896712E-01 1.9392859E+00
 6.0129143E+00 9.5241413E-01 1.9375947E+00
 5.9335233E+00 9.7601860E-01 1.9348821E+00
 5.8539251E+00 1.0000005E+00 1.9314599E+00
 5.7740775E+00 1.0245350E+00 1.9276759E+00
 5.6938907E+00 1.0497780E+00 1.9238965E+00
 5.6132938E+00 1.0759040E+00 1.9204767E+00
 5.5323363E+00 1.1031353E+00 1.9177132E+00
 5.4513117E+00 1.1317439E+00 1.9157648E+00
 5.3708525E+00 1.1620161E+00 1.9145420E+00
 5.2918651E+00 1.1941778E+00 1.9136040E+00
 5.2152196E+00 1.2283046E+00 1.9121464E+00
 5.1414003E+00 1.2642615E+00 1.9091176E+00
 6.0919040E+00 9.7627333E-01 1.9416648E+00
 6.0127439E+00 1.0000004E+00 1.9387948E+00
 5.9335233E+00 1.0239823E+00 1.9348821E+00
 5.8542862E+00 1.0484157E+00 1.9302168E+00
 5.7749951E+00 1.0734603E+00 1.9251240E+00
 5.6955647E+00 1.0992716E+00 1.9199425E+00
 5.6159286E+00 1.1260377E+00 1.9149920E+00
 5.5361308E+00 1.1539993E+00 1.9105258E+00
 5.4564300E+00 1.1834370E+00 1.9066585E+00
 5.3773698E+00 1.2146217E+00 1.9032746E+00
 5.2997223E+00 1.2477340E+00 1.8999471E+00
 5.2242440E+00 1.2827833E+00 1.8959302E+00
 6.0919040E+00 1.0237275E+00 1.9416648E+00
 6.0129143E+00 1.0475868E+00 1.9375947E+00
 5.9340498E+00 1.0718003E+00 1.9324528E+00
 5.8553579E+00 1.0965436E+00 1.9265071E+00
 5.7768065E+00 1.1219636E+00 1.9200582E+00
 5.6983215E+00 1.1482170E+00 1.9134142E+00
 5.6198499E+00 1.1755025E+00 1.9068551E+00
 5.5414379E+00 1.2040692E+00 1.9005868E+00
 5.4633072E+00 1.2341889E+00 1.8946800E+00
 5.3858987E+00 1.2660975E+00 1.8889999E+00
 5.3098338E+00 1.2999210E+00 1.8831476E+00
 6.0920593E+00 1.0710337E+00 1.9392858E+00
 6.0134180E+00 1.0948806E+00 1.9340146E+00
 5.9350835E+00 1.1191876E+00 1.9276334E+00
 5.8571092E+00 1.1441130E+00 1.9203873E+00
 5.7794789E+00 1.1697939E+00 1.9125501E+00
 5.7021454E+00 1.1963873E+00 1.9043958E+00
 5.6250854E+00 1.2240946E+00 1.8961602E+00
 5.5483541E+00 1.2531548E+00 1.8879996E+00
 5.4721242E+00 1.2838062E+00 1.8799438E+00
 5.3967056E+00 1.3162307E+00 1.8718497E+00
 6.0923626E+00 1.1179011E+00 1.9345686E+00
 6.0142347E+00 1.1416011E+00 1.9281134E+00
 5.9365918E+00 1.1658804E+00 1.9204989E+00
 5.8595070E+00 1.1908850E+00 1.9119450E+00
 5.7830027E+00 1.2167442E+00 1.9026964E+00
 5.7070834E+00 1.2436086E+00 1.8929891E+00
 5.6317696E+00 1.2716637E+00 1.8830124E+00
 5.5571140E+00 1.3011106E+00 1.8728748E+00
 5.4832017E+00 1.3321277E+00 1.8625743E+00
 6.0928000E+00 1.1640536E+00 1.9275921E+00
 6.0153363E+00 1.1874905E+00 1.9199852E+00
 5.9385442E+00 1.2116492E+00 1.9111536E+00
 5.8625475E+00 1.2366688E+00 1.9012898E+00
 5.7874425E+00 1.2626668E+00 1.8906063E+00
 5.7133079E+00 1.2897683E+00 1.8793002E+00
 5.6401956E+00 1.3181111E+00 1.8675170E+00
 5.5681032E+00 1.3478258E+00 1.8553263E+00
 6.0933550E+00 1.2092389E+00 1.9184693E+00
 6.0166991E+00 1.2323248E+00 1.9097521E+00
 5.9409408E+00 1.2563134E+00 1.8997213E+00
 5.8663056E+00 1.2813375E+00 1.8885393E+00
 5.7930003E+00 1.3074831E+00 1.8763873E+00
 5.7211687E+00 1.3348126E+00 1.8634284E+00
 5.6508234E+00 1.3633745E+00 1.8497755E+00
 6.0940136E+00 1.2532365E+00 1.9073409E+00
 6.0183237E+00 1.2759253E+00 1.8975551E+00
 5.9438549E+00 1.2997565E+00 1.8863319E+00
 5.8710001E+00 1.3248411E+00 1.8738035E+00
 5.8000800E+00 1.3511847E+00 1.8601308E+00
 5.7312118E+00 1.3787298E+00 1.8454604E+00
 6.0947757E+00 1.2958638E+00 1.8943678E+00
 6.0202674E+00 1.3181727E+00 1.8835415E+00
 5.9474948E+00 1.3419425E+00 1.8711028E+00
 5.8770643E+00 1.3672091E+00 1.8571680E+00
 5.8093202E+00 1.3938110E+00 1.8419072E+00
 6.0956688E+00 1.3369818E+00 1.8797215E+00
 6.0226908E+00 1.3590216E+00 1.8678480E+00
 5.9523031E+00 1.3829358E+00 1.8541163E+00
 5.8852545E+00 1.4085444E+00 1.8386814E+00
 6.0967781E+00 1.3765080E+00 1.8635715E+00
 6.0259549E+00 1.3985212E+00 1.8505772E+00
 5.9591050E+00 1.4228865E+00 1.8354089E+00
 6.0982986E+00 1.4144232E+00 1.8460744E+00
 6.0309833E+00 1.4368909E+00 1.8317507E+00
 6.1008138E+00 1.4507515E+00 1.8273794E+00
 6.1690810E+00 1.4659902E+00 1.8212730E+00
 6.1694171E+00 1.4316658E+00 1.8398707E+00
 6.1697410E+00 1.3951736E+00 1.8576853E+00
 6.1700211E+00 1.3567667E+00 1.8743860E+00
 6.1702472E+00 1.3165818E+00 1.8897453E+00
 6.1704269E+00 1.2747640E+00 1.9035518E+00
 6.1705697E+00 1.2314602E+00 1.9156155E+00
 6.1706829E+00 1.1868483E+00 1.9257603E+00
 6.1707700E+00 1.1411411E+00 1.9338295E+00
 6.1708325E+00 1.0945819E+00 1.9396926E+00
 6.1708703E+00 1.0474394E+00 1.9432513E+00
 6.1708830E+00 1.0000004E+00 1.9444445E+00
 6.1708703E+00 9.5256146E-01 1.9432513E+00
 6.1708325E+00 9.0541893E-01 1.9396927E+00
 6.1707701E+00 8.5885973E-01 1.9338296E+00
 6.1706829E+00 8.1315254E-01 1.9257604E+00
 6.1705697E+00 7.6854068E-01 1.9156156E+00
 6.1704269E+00 7.2523678E-01 1.9035520E+00
 6.1702472E+00 6.8341902E-01 1.8897455E+00
 6.1700211E+00 6.4323405E-01 1.8743862E+00
 6.1697409E+00 6.0482714E-01 1.8576856E+00
 6.1694171E+00 5.6833500E-01 1.8398709E+00
 6.1690809E+00 5.3401051E-01 1.8212733E+00
 6.2303664E+00 5.1214174E-01 1.8100927E+00
 6.2979512E+00 5.2209212E-01 1.8170476E+00
 6.3680619E+00 5.3296901E-01 1.8235348E+00
 6.4402173E+00 5.4476746E-01 1.8294827E+00
 6.5141359E+00 5.5747011E-01 1.8348683E+00
 6.5896328E+00 5.7106269E-01 1.8397200E+00
 6.6666008E+00 5.8552695E-01 1.8440967E+00
 6.7449154E+00 6.0084482E-01 1.8480686E+00
 6.8244102E+00 6.1701007E-01 1.8516989E+00
 6.9048339E+00 6.3403810E-01 1.8550202E+00
 6.9858255E+00 6.5197445E-01 1.8580099E+00
 7.0669163E+00 6.7089801E-01 1.8605684E+00
 7.1475667E+00 6.9091773E-01 1.8625064E+00
 7.2272225E+00 7.1216129E-01 1.8635490E+00
 7.3053684E+00 7.3475842E-01 1.8633558E+00
 7.3815575E+00 7.5882254E-01 1.8615536E+00
 7.4554131E+00 7.8443594E-01 1.8577734E+00
 7.5266130E+00 8.1164038E-01 1.8516835E+00
 7.5948685E+00 8.4043075E-01 1.8430145E+00
 7.6599097E+00 8.7074835E-01 1.8315752E+00
 7.7214385E+00 9.0243768E-01 1.8172708E+00
 7.7791346E+00 9.3520436E-01 1.8001040E+00
 7.8325037E+00 9.6843233E-01 1.7802703E+00
 6.2375357E+00 1.4525956E+00 1.8304770E+00
 6.3073127E+00 1.4404165E+00 1.8379336E+00
 6.3788323E+00 1.4278366E+00 1.8445249E+00
 6.4518785E+00 1.4145697E+00 1.8503618E+00
 6.5264056E+00 1.4004746E+00 1.8555304E+00
 6.6023170E+00 1.3855057E+00 1.8600994E+00
 6.6795153E+00 1.3696487E+00 1.8641469E+00
 6.7578789E+00 1.3529059E+00 1.8677473E+00
 6.8372263E+00 1.3352761E+00 1.8709574E+00
 6.9172851E+00 1.3167402E+00 1.8737963E+00
 6.9976726E+00 1.2972521E+00 1.8762231E+00
 7.0779060E+00 1.2767366E+00 1.8781182E+00
 7.1574456E+00 1.2550947E+00 1.8792755E+00
 7.2357504E+00 1.2322150E+00 1.8794105E+00
 7.3123273E+00 1.2079902E+00 1.8781832E+00
 7.3867576E+00 1.1823341E+00 1.8752314E+00
 7.4587002E+00 1.1551960E+00 1.8702028E+00
 7.5278881E+00 1.1265739E+00 1.8627809E+00
 7.5941236E+00 1.0965256E+00 1.8526993E+00
 7.6572993E+00 1.0651896E+00 1.8397369E+00
 7.7174660E+00 1.0328188E+00 1.8236849E+00
 7.7750066E+00 1.0000004E+00 1.8042643E+00
 6.2407027E+00 1.4162474E+00 1.8493515E+00
 6.3129041E+00 1.4019424E+00 1.8571038E+00
 6.3860497E+00 1.3876447E+00 1.8636798E+00
 6.4603092E+00 1.3728286E+00 1.8693393E+00
 6.5356891E+00 1.3572742E+00 1.8742138E+00
 6.6121859E+00 1.3408683E+00 1.8784119E+00
 6.6897393E+00 1.3235700E+00 1.8820248E+00
 6.7682436E+00 1.3053663E+00 1.8851299E+00
 6.8475157E+00 1.2862491E+00 1.8877782E+00
 6.9272717E+00 1.2661952E+00 1.8899770E+00
 7.0071151E+00 1.2451578E+00 1.8916697E+00
 7.0865582E+00 1.2230650E+00 1.8927204E+00
 7.1650689E+00 1.1998256E+00 1.8929097E+00
 7.2421286E+00 1.1753410E+00 1.8919459E+00
 7.3172809E+00 1.1495213E+00 1.8894892E+00
 7.3901624E+00 1.1223014E+00 1.8851814E+00
 7.4605192E+00 1.0936584E+00 1.8786708E+00
 7.5282274E+00 1.0636283E+00 1.8696232E+00
 7.5933339E+00 1.0323280E+00 1.8577120E+00
 7.6561357E+00 1.0000004E+00 1.8425766E+00
 7.7174660E+00 9.6718210E-01 1.8236849E+00
 6.2428305E+00 1.3782340E+00 1.8670022E+00
 6.3166838E+00 1.3622233E+00 1.8746633E+00
 6.3912447E+00 1.3462873E+00 1.8810526E+00
 6.4666041E+00 1.3299420E+00 1.8864022E+00
 6.5428225E+00 1.3129084E+00 1.8908717E+00
 6.6199082E+00 1.2950473E+00 1.8945821E+00
 6.6978282E+00 1.2762954E+00 1.8976330E+00
 6.7764833E+00 1.2566302E+00 1.9001019E+00
 6.8556886E+00 1.2360362E+00 1.9020341E+00
 6.9351507E+00 1.2144865E+00 1.9034267E+00
 7.0144660E+00 1.1919323E+00 1.9042094E+00
 7.0931497E+00 1.1683033E+00 1.9042329E+00
 7.1706876E+00 1.1435136E+00 1.9032664E+00
 7.2465983E+00 1.1174750E+00 1.9010107E+00
 7.3204876E+00 1.0901131E+00 1.8971214E+00
 7.3920910E+00 1.0613879E+00 1.8912323E+00
 7.4613110E+00 1.0313163E+00 1.8829683E+00
 7.5282600E+00 1.0000004E+00 1.8719405E+00
 7.5933339E+00 9.6767291E-01 1.8577120E+00
 7.6572994E+00 9.3481133E-01 1.8397370E+00
 6.2444411E+00 1.3385681E+00 1.8832900E+00
 6.3195299E+00 1.3210819E+00 1.8906131E+00
 6.3952021E+00 1.3036509E+00 1.8966216E+00
 6.4714878E+00 1.2858351E+00 1.9015124E+00
 6.5484222E+00 1.2673575E+00 1.9054389E+00
 6.6260147E+00 1.2480661E+00 1.9085251E+00
 6.7042324E+00 1.2278909E+00 1.9108711E+00
 6.7829767E+00 1.2068022E+00 1.9125523E+00
 6.8620570E+00 1.1847795E+00 1.9136082E+00
 6.9411736E+00 1.1617911E+00 1.9140261E+00
 7.0199227E+00 1.1377853E+00 1.9137243E+00
 7.0978325E+00 1.1126912E+00 1.9125409E+00
 7.1744214E+00 1.0864272E+00 1.9102342E+00
 7.2492669E+00 1.0589162E+00 1.9064952E+00
 7.3220713E+00 1.0301067E+00 1.9009676E+00
 7.3927162E+00 1.0000004E+00 1.8932639E+00
 7.4613110E+00 9.6868462E-01 1.8829683E+00
 7.5282274E+00 9.3637254E-01 1.8696233E+00
 7.5941237E+00 9.0347524E-01 1.8526994E+00
 6.2457328E+00 1.2972824E+00 1.8980609E+00
 6.3218062E+00 1.2784924E+00 1.9048551E+00
 6.3983645E+00 1.2596954E+00 1.9103097E+00
 6.4753906E+00 1.2404997E+00 1.9145865E+00
 6.5528878E+00 1.2206463E+00 1.9178242E+00
 6.6308512E+00 1.1999890E+00 1.9201410E+00
 6.7092414E+00 1.1784578E+00 1.9216337E+00
 6.7879545E+00 1.1560207E+00 1.9223740E+00
 6.8667955E+00 1.1326523E+00 1.9223951E+00
 6.9454633E+00 1.1083154E+00 1.9216752E+00
 7.0235634E+00 1.0829535E+00 1.9201213E+00
 7.1006503E+00 1.0564947E+00 1.9175599E+00
 7.1762936E+00 1.0288632E+00 1.9137372E+00
 7.2501569E+00 1.0000004E+00 1.9083310E+00
 7.3220713E+00 9.6989422E-01 1.9009676E+00
 7.3920910E+00 9.3861299E-01 1.8912324E+00
 7.4605192E+00 9.0634246E-01 1.8786708E+00
 7.5278882E+00 8.7342694E-01 1.8627810E+00
 6.2468095E+00 1.2544674E+00 1.9111454E+00
 6.3236907E+00 1.2345138E+00 1.9172526E+00
 6.4009520E+00 1.2144729E+00 1.9219988E+00
 6.4785383E+00 1.1940015E+00 1.9255136E+00
 6.5564251E+00 1.1728670E+00 1.9279182E+00
 6.6345915E+00 1.1509375E+00 1.9293222E+00
 6.7129900E+00 1.1281492E+00 1.9298171E+00
 6.7915125E+00 1.1044690E+00 1.9294699E+00
 6.8699630E+00 1.0798664E+00 1.9283068E+00
 6.9480473E+00 1.0542971E+00 1.9262970E+00
 7.0253917E+00 1.0276991E+00 1.9233362E+00
 7.1015930E+00 1.0000005E+00 1.9192387E+00
 7.1762936E+00 9.7113770E-01 1.9137372E+00
 7.2492669E+00 9.4108472E-01 1.9064952E+00
 7.3204876E+00 9.0988776E-01 1.8971215E+00
 7.3901625E+00 8.7769949E-01 1.8851815E+00
 7.4587002E+00 8.4480483E-01 1.8702029E+00
 6.2477168E+00 1.2102667E+00 1.9223710E+00
 6.3252557E+00 1.1892737E+00 1.9276566E+00
 6.4030492E+00 1.1681110E+00 1.9315565E+00
 6.4810136E+00 1.1464796E+00 1.9341725E+00
 6.5591034E+00 1.1241782E+00 1.9356092E+00
 6.6372858E+00 1.1010939E+00 1.9359664E+00
 6.7155078E+00 1.0771707E+00 1.9353302E+00
 6.7936610E+00 1.0523749E+00 1.9337616E+00
 6.8715551E+00 1.0266691E+00 1.9312796E+00
 6.9489119E+00 1.0000005E+00 1.9278431E+00
 7.0253917E+00 9.7230177E-01 1.9233362E+00
 7.1006503E+00 9.4350617E-01 1.9175600E+00
 7.1744214E+00 9.1357367E-01 1.9102342E+00
 7.2465983E+00 8.8252591E-01 1.9010108E+00
 7.3172809E+00 8.5047959E-01 1.8894893E+00
 7.3867576E+00 8.1766680E-01 1.8752316E+00
 6.2484661E+00 1.1648659E+00 1.9315749E+00
 6.3265112E+00 1.1429571E+00 1.9359227E+00
 6.4046629E+00 1.1207990E+00 1.9388550E+00
 6.4828179E+00 1.0981349E+00 1.9404503E+00
 6.5609170E+00 1.0747965E+00 1.9407982E+00
 6.6389212E+00 1.0506915E+00 1.9399898E+00
 6.7167769E+00 1.0257717E+00 1.9381049E+00
 6.7943808E+00 1.0000005E+00 1.9351981E+00
 6.8715551E+00 9.7333181E-01 1.9312796E+00
 6.9480473E+00 9.4570377E-01 1.9262970E+00
 7.0235634E+00 9.1704736E-01 1.9201213E+00
 7.0978326E+00 8.8730969E-01 1.9125410E+00
 7.1706876E+00 8.5648729E-01 1.9032665E+00
 7.2421286E+00 8.2465986E-01 1.8919461E+00
 7.3123274E+00 7.9201061E-01 1.8781834E+00
 6.2490488E+00 1.1184883E+00 1.9386146E+00
 6.3274372E+00 1.0957934E+00 1.9419252E+00
 6.4057662E+00 1.0727743E+00 1.9437862E+00
 6.4839207E+00 1.0492154E+00 1.9442561E+00
 6.5618352E+00 1.0249816E+00 1.9434121E+00
 6.6394703E+00 1.0000005E+00 1.9413373E+00
 6.7167769E+00 9.7422922E-01 1.9381049E+00
 6.7936610E+00 9.4762599E-01 1.9337617E+00
 6.8699630E+00 9.2013447E-01 1.9283069E+00
 6.9454633E+00 8.9168553E-01 1.9216753E+00
 7.0199227E+00 8.6221560E-01 1.9137244E+00
 7.0931497E+00 8.3169763E-01 1.9042331E+00
 7.1650690E+00 8.0017530E-01 1.8929099E+00
 7.2357505E+00 7.6778582E-01 1.8794107E+00
 6.2494493E+00 1.0713889E+00 1.9433751E+00
 6.3280066E+00 1.0480458E+00 1.9455675E+00
 6.4063275E+00 1.0243082E+00 1.9462721E+00
 6.4842921E+00 1.0000004E+00 1.9455314E+00
 6.5618352E+00 9.7501931E-01 1.9434121E+00
 6.6389212E+00 9.4930937E-01 1.9399898E+00
 6.7155078E+00 9.2283016E-01 1.9353303E+00
 6.7915125E+00 8.9553189E-01 1.9294700E+00
 6.8667955E+00 8.6734857E-01 1.9223952E+00
 6.9411736E+00 8.3820976E-01 1.9140263E+00
 7.0144660E+00 8.0806858E-01 1.9042096E+00
 7.0865582E+00 7.7693582E-01 1.8927206E+00
 7.1574457E+00 7.4490611E-01 1.8792757E+00
 6.2496536E+00 1.0238464E+00 1.9457761E+00
 6.3281990E+00 1.0000004E+00 1.9467885E+00
 6.4063275E+00 9.7569268E-01 1.9462721E+00
 6.4839206E+00 9.5078553E-01 1.9442561E+00
 6.5609170E+00 9.2520438E-01 1.9407982E+00
 6.6372858E+00 8.9890700E-01 1.9359665E+00
 6.7129900E+00 8.7185173E-01 1.9298172E+00
 6.7879545E+00 8.4398019E-01 1.9223741E+00
 6.8620570E+00 8.1522134E-01 1.9136083E+00
 6.9351507E+00 7.8551442E-01 1.9034268E+00
 7.0071151E+00 7.5484302E-01 1.8916699E+00
 7.0779061E+00 7.2326419E-01 1.8781184E+00
 6.2496536E+00 9.7615448E-01 1.9457761E+00
 6.3280066E+00 9.5195505E-01 1.9455675E+00
 6.4057662E+00 9.2722658E-01 1.9437862E+00
 6.4828179E+00 9.0186596E-01 1.9404504E+00
 6.5591034E+00 8.7582271E-01 1.9356093E+00
 6.6345915E+00 8.4906335E-01 1.9293223E+00
 6.7092414E+00 8.2154313E-01 1.9216338E+00
 6.7829766E+00 7.9319868E-01 1.9125525E+00
 6.8556886E+00 7.6396465E-01 1.9020343E+00
 6.9272717E+00 7.3380568E-01 1.8899772E+00
 6.9976726E+00 7.0274878E-01 1.8762233E+00
 6.2494493E+00 9.2861199E-01 1.9433752E+00
 6.3274371E+00 9.0420744E-01 1.9419253E+00
 6.4046629E+00 8.7920183E-01 1.9388551E+00
 6.4810136E+00 8.5352128E-01 1.9341726E+00
 6.5564250E+00 8.2713392E-01 1.9279184E+00
 6.6308512E+00 8.0001190E-01 1.9201412E+00
 6.7042324E+00 7.7211000E-01 1.9108713E+00
 6.7764833E+00 7.4337066E-01 1.9001021E+00
 6.8475157E+00 7.1375178E-01 1.8877784E+00
 6.9172852E+00 6.8326066E-01 1.8737965E+00
 6.2490488E+00 8.8151257E-01 1.9386147E+00
 6.3265111E+00 8.5704375E-01 1.9359228E+00
 6.4030491E+00 8.3188987E-01 1.9315567E+00
 6.4785382E+00 8.0599941E-01 1.9255137E+00
 6.5528877E+00 7.7935451E-01 1.9178244E+00
 6.6260146E+00 7.5193474E-01 1.9085253E+00
 6.6978281E+00 7.2370541E-01 1.8976333E+00
 6.7682435E+00 6.9463449E-01 1.8851302E+00
 6.8372263E+00 6.6472471E-01 1.8709576E+00
 6.2484661E+00 8.3513498E-01 1.9315751E+00
 6.3252557E+00 8.1072715E-01 1.9276567E+00
 6.4009519E+00 7.8552796E-01 1.9219990E+00
 6.4753905E+00 7.5950118E-01 1.9145867E+00
 6.5484221E+00 7.3264331E-01 1.9054391E+00
 6.6199081E+00 7.0495354E-01 1.8945823E+00
 6.6897393E+00 6.7643086E-01 1.8820250E+00
 6.7578789E+00 6.4709487E-01 1.8677475E+00
 6.2477168E+00 7.8973412E-01 1.9223711E+00
 6.3236906E+00 7.6548708E-01 1.9172528E+00
 6.3983644E+00 7.4030539E-01 1.9103099E+00
 6.4714877E+00 7.1416575E-01 1.9015126E+00
 6.5428223E+00 6.8709242E-01 1.8908720E+00
 6.6121858E+00 6.5913250E-01 1.8784122E+00
 6.6795152E+00 6.3035209E-01 1.8641472E+00
 6.2468094E+00 7.4553340E-01 1.9111456E+00
 6.3218061E+00 7.2150843E-01 1.9048553E+00
 6.3952019E+00 6.9634987E-01 1.8966219E+00
 6.4666040E+00 6.7005882E-01 1.8864025E+00
 6.5356890E+00 6.4272663E-01 1.8742140E+00
 6.6023169E+00 6.1449509E-01 1.8600997E+00
 6.2457327E+00 7.0271846E-01 1.8980611E+00
 6.3195297E+00 6.7891893E-01 1.8906134E+00
 6.3912445E+00 6.5371348E-01 1.8810529E+00
 6.4603091E+00 6.2717221E-01 1.8693396E+00
 6.5264055E+00 5.9952615E-01 1.8555307E+00
 6.2444411E+00 6.6143268E-01 1.8832902E+00
 6.3166837E+00 6.3777746E-01 1.8746636E+00
 6.3860495E+00 6.1235612E-01 1.8636801E+00
 6.4518784E+00 5.8543111E-01 1.8503621E+00
 6.2428304E+00 6.2176683E-01 1.8670025E+00
 6.3129040E+00 5.9805832E-01 1.8571041E+00
 6.3788321E+00 5.7216412E-01 1.8445252E+00
 6.2407026E+00 5.8375341E-01 1.8493518E+00
 6.3073125E+00 5.5958427E-01 1.8379339E+00
 6.2375356E+00 5.4740519E-01 1.8304774E+00
 6.1311078E+00 1.5200278E+00 1.7868481E+00
 6.0895671E+00 1.5452747E+00 1.7678653E+00
 6.0463921E+00 1.5707740E+00 1.7470280E+00
 6.0019035E+00 1.5962113E+00 1.7244508E+00
 5.9562667E+00 1.6214478E+00 1.7001652E+00
 5.9096788E+00 1.6463776E+00 1.6742017E+00
 5.8623210E+00 1.6709262E+00 1.6465880E+00
 5.8143840E+00 1.6950232E+00 1.6173700E+00
 5.7660745E+00 1.7186028E+00 1.5866080E+00
 5.7176176E+00 1.7416021E+00 1.5543729E+00
 5.6692609E+00 1.7639578E+00 1.5207416E+00
 5.6212790E+00 1.7856013E+00 1.4857919E+00
 5.5739762E+00 1.8064516E+00 1.4495998E+00
 5.5276850E+00 1.8264088E+00 1.4122380E+00
 5.4827615E+00 1.8453482E+00 1.3737780E+00
 5.4395777E+00 1.8631177E+00 1.3342934E+00
 5.3985094E+00 1.8795412E+00 1.2938650E+00
 5.3599163E+00 1.8944255E+00 1.2525863E+00
 5.3241141E+00 1.9075745E+00 1.2105692E+00
 5.2913601E+00 1.9188038E+00 1.1679524E+00
 5.2618438E+00 1.9279497E+00 1.1249559E+00
 5.2355268E+00 1.9348997E+00 1.0818823E+00
 5.2122382E+00 1.9396244E+00 1.0392225E+00
 4.4809406E+00 1.0965275E+00 1.8146208E+00
 4.4724233E+00 1.1593173E+00 1.7986762E+00
 4.4670498E+00 1.2230311E+00 1.7793148E+00
 4.4656146E+00 1.2875578E+00 1.7568090E+00
 4.4685762E+00 1.3525267E+00 1.7312384E+00
 4.4762742E+00 1.4174152E+00 1.7026626E+00
 4.4889485E+00 1.4815813E+00 1.6711562E+00
 4.5067452E+00 1.5442954E+00 1.6368348E+00
 4.5297093E+00 1.6047645E+00 1.5998738E+00
 4.5577769E+00 1.6621599E+00 1.5605227E+00
 4.5907652E+00 1.7156527E+00 1.5191138E+00
 4.6283685E+00 1.7644562E+00 1.4760635E+00
 4.6701635E+00 1.8078761E+00 1.4318667E+00
 4.7156312E+00 1.8453654E+00 1.3870829E+00
 4.7641989E+00 1.8765790E+00 1.3423139E+00
 4.8153029E+00 1.9014181E+00 1.2981731E+00
 4.8684559E+00 1.9200566E+00 1.2552492E+00
 4.9232922E+00 1.9329387E+00 1.2140627E+00
 4.9795475E+00 1.9407462E+00 1.1750210E+00
 5.0370069E+00 1.9443381E+00 1.1383694E+00
 5.0953982E+00 1.9446822E+00 1.1040902E+00
 5.1541009E+00 1.9427885E+00 1.0718565E+00
 4.5327354E+00 1.1348833E+00 1.8427156E+00
 4.5273238E+00 1.2000258E+00 1.8264611E+00
 4.5249136E+00 1.2649312E+00 1.8065285E+00
 4.5263861E+00 1.3297931E+00 1.7832340E+00
 4.5322577E+00 1.3943825E+00 1.7567100E+00
 4.5428621E+00 1.4582322E+00 1.7270467E+00
 4.5583934E+00 1.5207147E+00 1.6943460E+00
 4.5789201E+00 1.5810983E+00 1.6587544E+00
 4.6043937E+00 1.6385935E+00 1.6204869E+00
 4.6346504E+00 1.6923985E+00 1.5798431E+00
 4.6694151E+00 1.7417460E+00 1.5372128E+00
 4.7083119E+00 1.7859553E+00 1.4930737E+00
 4.7508882E+00 1.8244860E+00 1.4479786E+00
 4.7966560E+00 1.8569895E+00 1.4025330E+00
 4.8451491E+00 1.8833501E+00 1.3573631E+00
 4.8959773E+00 1.9037096E+00 1.3130760E+00
 4.9488496E+00 1.9184641E+00 1.2702115E+00
 5.0035563E+00 1.9282377E+00 1.2291852E+00
 5.0599192E+00 1.9338344E+00 1.1902119E+00
 5.1176876E+00 1.9361719E+00 1.1532447E+00
 5.1765350E+00 1.9362119E+00 1.1176380E+00
 4.5893094E+00 1.1715267E+00 1.8665594E+00
 4.5868182E+00 1.2376510E+00 1.8496130E+00
 4.5873384E+00 1.3029824E+00 1.8288616E+00
 4.5916944E+00 1.3676099E+00 1.8045825E+00
 4.6004054E+00 1.4313112E+00 1.7769280E+00
 4.6137761E+00 1.4936245E+00 1.7460158E+00
 4.6319400E+00 1.5539258E+00 1.7119817E+00
 4.6548862E+00 1.6114964E+00 1.6750155E+00
 4.6824808E+00 1.6655808E+00 1.6353874E+00
 4.7144840E+00 1.7154436E+00 1.5934599E+00
 4.7505694E+00 1.7604252E+00 1.5496903E+00
 4.7903519E+00 1.7999963E+00 1.5046193E+00
 4.8334290E+00 1.8338081E+00 1.4588499E+00
 4.8794289E+00 1.8617313E+00 1.4130151E+00
 4.9280481E+00 1.8838777E+00 1.3677344E+00
 4.9790583E+00 1.9006005E+00 1.3235626E+00
 5.0322818E+00 1.9124735E+00 1.2809259E+00
 5.0875355E+00 1.9202502E+00 1.2400555E+00
 5.1445763E+00 1.9248089E+00 1.2008682E+00
 5.2029891E+00 1.9270730E+00 1.1628803E+00
 4.6501290E+00 1.2063642E+00 1.8853028E+00
 4.6504134E+00 1.2724553E+00 1.8673835E+00
 4.6537509E+00 1.3373743E+00 1.8455892E+00
 4.6608809E+00 1.4010753E+00 1.8201528E+00
 4.6722772E+00 1.4632711E+00 1.7912323E+00
 4.6881929E+00 1.5234775E+00 1.7589738E+00
 4.7086955E+00 1.5810760E+00 1.7235570E+00
 4.7337053E+00 1.6353818E+00 1.6852292E+00
 4.7630310E+00 1.6857079E+00 1.6443273E+00
 4.7964029E+00 1.7314274E+00 1.6012853E+00
 4.8335073E+00 1.7720287E+00 1.5566265E+00
 4.8740255E+00 1.8071668E+00 1.5109443E+00
 4.9176698E+00 1.8367002E+00 1.4648700E+00
 4.9642058E+00 1.8607122E+00 1.4190292E+00
 5.0134477E+00 1.8795145E+00 1.3739892E+00
 5.0652270E+00 1.8936320E+00 1.3301976E+00
 5.1193412E+00 1.9037719E+00 1.2879041E+00
 5.1754820E+00 1.9107662E+00 1.2470875E+00
 5.2331381E+00 1.9154986E+00 1.2073665E+00
 4.7146658E+00 1.2389921E+00 1.8983774E+00
 4.7175495E+00 1.3042352E+00 1.8792619E+00
 4.7235319E+00 1.3679914E+00 1.8562480E+00