# TIME = 4.800000
variables = x, y, z
zone N=5762 E=11520 F=FEPOINT ET=TRIANGLE
 5.4470238E+00 1.4891373E+00 1.7911112E+00
 5.4470238E+00 1.4891373E+00 2.0888838E-01
 5.4470237E+00 5.1086279E-01 1.7911114E+00
 5.4470241E+00 5.1086263E-01 2.0888802E-01
 3.7303102E+00 1.0000001E+00 1.7881745E+00
 7.1464047E+00 1.0000001E+00 1.7542212E+00
 3.7303102E+00 1.0000001E+00 2.1182524E-01
 7.1464046E+00 1.0000001E+00 2.4577875E-01
 4.4972739E+00 1.9495283E+00 9.9999986E-01
 4.4972738E+00 5.0471684E-02 9.9999985E-01
 6.3906801E+00 1.9343540E+00 9.9999985E-01
 6.3906801E+00 6.5646070E-02 9.9999985E-01
 5.3875219E+00 1.4793992E+00 1.7952136E+00
 5.3218062E+00 1.4687722E+00 1.8000300E+00
 5.2530567E+00 1.4578765E+00 1.8054108E+00
 5.1815353E+00 1.4466756E+00 1.8114795E+00
 5.1075489E+00 1.4351669E+00 1.8182831E+00
 5.0314087E+00 1.4232890E+00 1.8258569E+00
 4.9533806E+00 1.4109579E+00 1.8342021E+00
 4.8737321E+00 1.3980657E+00 1.8432921E+00
 4.7927259E+00 1.3844866E+00 1.8530697E+00
 4.7106379E+00 1.3700755E+00 1.8634375E+00
 4.6277947E+00 1.3546616E+00 1.8742284E+00
 4.5446360E+00 1.3380363E+00 1.8851551E+00
 4.4617614E+00 1.3199433E+00 1.8957419E+00
 4.3798786E+00 1.3000836E+00 1.9052767E+00
 4.2996518E+00 1.2781528E+00 1.9128263E+00
 4.2215733E+00 1.2539063E+00 1.9173368E+00
 4.1459986E+00 1.2272322E+00 1.9177960E+00
 4.0733022E+00 1.1982029E+00 1.9134100E+00
 4.0039904E+00 1.1670854E+00 1.9037407E+00
 3.9386761E+00 1.1343087E+00 1.8887604E+00
 3.8779946E+00 1.1004241E+00 1.8688343E+00
 3.8224702E+00 1.0660451E+00 1.8446191E+00
 3.7725527E+00 1.0319181E+00 1.8170261E+00
 5.3806621E+00 5.5439681E-01 1.8144372E+00
 5.3128408E+00 5.6690264E-01 1.8197141E+00
 5.2424527E+00 5.7924578E-01 1.8253201E+00
 5.1698089E+00 5.9174690E-01 1.8314982E+00
 5.0949862E+00 6.0463012E-01 1.8383956E+00
 5.0182194E+00 6.1799302E-01 1.8460419E+00
 4.9397543E+00 6.3193676E-01 1.8544252E+00
 4.8598551E+00 6.4656876E-01 1.8634974E+00
 4.7787974E+00 6.6201420E-01 1.8731785E+00
 4.6968780E+00 6.7841584E-01 1.8833440E+00
 4.6144551E+00 6.9594004E-01 1.8937931E+00
 4.5320055E+00 7.1478257E-01 1.9041957E+00
 4.4501514E+00 7.3517000E-01 1.9140296E+00
 4.3695871E+00 7.5734273E-01 1.9225478E+00
 4.2909287E+00 7.8151586E-01 1.9288124E+00
 4.2146153E+00 8.0782479E-01 1.9318094E+00
 4.1409695E+00 8.3627469E-01 1.9306087E+00
 4.0703405E+00 8.6671387E-01 1.9245225E+00
 4.0031831E+00 8.9883424E-01 1.9132132E+00
 3.9399674E+00 9.3218703E-01 1.8966968E+00
 3.8809516E+00 9.6618477E-01 1.8752169E+00
 3.8258941E+00 1.0000001E+00 1.8489898E+00
 5.3782558E+00 5.8914222E-01 1.8324312E+00
 5.3078661E+00 6.0354126E-01 1.8379617E+00
 5.2358336E+00 6.1735464E-01 1.8436169E+00
 5.1618443E+00 6.3130615E-01 1.8498093E+00
 5.0859827E+00 6.4568073E-01 1.8566799E+00
 5.0083760E+00 6.6063804E-01 1.8642657E+00
 4.9292560E+00 6.7628566E-01 1.8725360E+00
 4.8488873E+00 6.9273692E-01 1.8814243E+00
 4.7675604E+00 7.1011636E-01 1.8908277E+00
 4.6855956E+00 7.2856417E-01 1.9005946E+00
 4.6033831E+00 7.4823844E-01 1.9104902E+00
 4.5214337E+00 7.6931598E-01 1.9201431E+00
 4.4403874E+00 7.9198519E-01 1.9289891E+00
 4.3609234E+00 8.1642315E-01 1.9362540E+00
 4.2836137E+00 8.4275974E-01 1.9410050E+00
 4.2088482E+00 8.7103734E-01 1.9422751E+00
 4.1369057E+00 9.0118124E-01 1.9392141E+00
 4.0680613E+00 9.3298647E-01 1.9312204E+00
 4.0025671E+00 9.6610543E-01 1.9179867E+00
 3.9404292E+00 1.0000001E+00 1.8994022E+00
 3.8809516E+00 1.0338154E+00 1.8752169E+00
 5.3766571E+00 6.2564567E-01 1.8494364E+00
 5.3046433E+00 6.4153482E-01 1.8548557E+00
 5.2311193E+00 6.5683934E-01 1.8604117E+00
 5.1559058E+00 6.7227769E-01 1.8664675E+00
 5.0789941E+00 6.8821492E-01 1.8731691E+00
 5.0005243E+00 7.0482224E-01 1.8805336E+00
 4.9207187E+00 7.2222084E-01 1.8885153E+00
 4.8398571E+00 7.4052470E-01 1.8970268E+00
 4.7582476E+00 7.5985719E-01 1.9059425E+00
 4.6762348E+00 7.8035190E-01 1.9150838E+00
 4.5942382E+00 8.0215283E-01 1.9241831E+00
 4.5127959E+00 8.2541031E-01 1.9328324E+00
 4.4325573E+00 8.5026823E-01 1.9404354E+00
 4.3541801E+00 8.7684100E-01 1.9462049E+00
 4.2781899E+00 9.0518444E-01 1.9492288E+00
 4.2049181E+00 9.3526997E-01 1.9485950E+00
 4.1345539E+00 9.6696450E-01 1.9435236E+00
 4.0671728E+00 1.0000001E+00 1.9334519E+00
 4.0025671E+00 1.0338947E+00 1.9179867E+00
 3.9399674E+00 1.0678131E+00 1.8966968E+00
 5.3753563E+00 6.6398936E-01 1.8652979E+00
 5.3020179E+00 6.8122669E-01 1.8704029E+00
 5.2272523E+00 6.9795530E-01 1.8756805E+00
 5.1509453E+00 7.1489306E-01 1.8814444E+00
 5.0731093E+00 7.3240564E-01 1.8878092E+00
 4.9938887E+00 7.5067445E-01 1.8947725E+00
 4.9135236E+00 7.6982096E-01 1.9022677E+00
 4.8323088E+00 7.8995850E-01 1.9101871E+00
 4.7505721E+00 8.1120411E-01 1.9183823E+00
 4.6686801E+00 8.3367977E-01 1.9266492E+00
 4.5870757E+00 8.5750915E-01 1.9346921E+00
 4.5063133E+00 8.8281049E-01 1.9420753E+00
 4.4270385E+00 9.0968250E-01 1.9481856E+00
 4.3498759E+00 9.3818460E-01 1.9522415E+00
 4.2752904E+00 9.6831702E-01 1.9533670E+00
 4.2035184E+00 1.0000001E+00 1.9507065E+00
 4.1345539E+00 1.0330356E+00 1.9435236E+00
 4.0680613E+00 1.0670137E+00 1.9312204E+00
 4.0031831E+00 1.1011659E+00 1.9132131E+00
 5.3741756E+00 7.0420863E-01 1.8798386E+00
 5.2996673E+00 7.2269621E-01 1.8844627E+00
 5.2238394E+00 7.4080294E-01 1.8892995E+00
 5.1466168E+00 7.5921570E-01 1.8946043E+00
 5.0680372E+00 7.7828330E-01 1.9004543E+00
 4.9882625E+00 7.9818113E-01 1.9068221E+00
 4.9075503E+00 8.1902703E-01 1.9136206E+00
 4.8262126E+00 8.4092770E-01 1.9207216E+00
 4.7445941E+00 8.6398950E-01 1.9279557E+00
 4.6630785E+00 8.8831760E-01 1.9350971E+00
 4.5821228E+00 9.1401139E-01 1.9418290E+00
 4.5022835E+00 9.4115634E-01 1.9477006E+00
 4.4241843E+00 9.6981246E-01 1.9520987E+00
 4.3483969E+00 1.0000001E+00 1.9542647E+00
 4.2752904E+00 1.0316831E+00 1.9533671E+00
 4.2049181E+00 1.0647302E+00 1.9485951E+00
 4.1369057E+00 1.0988189E+00 1.9392141E+00
 4.0703405E+00 1.1332863E+00 1.9245225E+00
 5.3730875E+00 7.4622722E-01 1.8928469E+00
 5.2975561E+00 7.6588642E-01 1.8968409E+00
 5.2208433E+00 7.8532031E-01 1.9010795E+00
 5.1429049E+00 8.0516049E-01 1.9057549E+00
 5.0637990E+00 8.2572761E-01 1.9109058E+00
 4.9837061E+00 8.4718297E-01 1.9164797E+00
 4.9028996E+00 8.6963518E-01 1.9223693E+00
 4.8217064E+00 8.9318013E-01 1.9284279E+00
 4.7404838E+00 9.1790929E-01 1.9344685E+00
 4.6596252E+00 9.4390823E-01 1.9402488E+00
 4.5795892E+00 9.7125216E-01 1.9454403E+00
 4.5009161E+00 1.0000001E+00 1.9495898E+00
 4.4241843E+00 1.0301877E+00 1.9520987E+00
 4.3498760E+00 1.0618156E+00 1.9522416E+00
 4.2781899E+00 1.0948157E+00 1.9492289E+00
 4.2088482E+00 1.1289628E+00 1.9422751E+00
 4.1409695E+00 1.1637254E+00 1.9306087E+00
 5.3721204E+00 7.8988923E-01 1.9041022E+00
 5.2957317E+00 8.1064240E-01 1.9073279E+00
 5.2183305E+00 8.3133291E-01 1.9108135E+00
 5.1398949E+00 8.5252512E-01 1.9146900E+00
 5.0605007E+00 8.7450121E-01 1.9189593E+00
 4.9803435E+00 8.9740307E-01 1.9235455E+00
 4.8997100E+00 9.2132581E-01 1.9283233E+00
 4.8189374E+00 9.4635111E-01 1.9331305E+00
 4.7383891E+00 9.7255364E-01 1.9377669E+00
 4.6584581E+00 1.0000002E+00 1.9419808E+00
 4.5795893E+00 1.0287482E+00 1.9454404E+00
 4.5022836E+00 1.0588439E+00 1.9477008E+00
 4.4270386E+00 1.0903177E+00 1.9481858E+00
 4.3541802E+00 1.1231592E+00 1.9462051E+00
 4.2836137E+00 1.1572404E+00 1.9410052E+00
 4.2146153E+00 1.1921754E+00 1.9318094E+00
 5.3713079E+00 8.3498470E-01 1.9133965E+00
 5.2942517E+00 8.5673586E-01 1.9157237E+00
 5.2163765E+00 8.7858684E-01 1.9183075E+00
 5.1376770E+00 9.0102342E-01 1.9212224E+00
 5.0582431E+00 9.2428200E-01 1.9244372E+00
 4.9782816E+00 9.4848059E-01 1.9278560E+00
 4.8980879E+00 9.7369795E-01 1.9313387E+00
 4.8180032E+00 1.0000003E+00 1.9347118E+00
 4.7383892E+00 1.0274469E+00 1.9377671E+00
 4.6596254E+00 1.0560922E+00 1.9402491E+00
 4.5821231E+00 1.0859890E+00 1.9418294E+00
 4.5063136E+00 1.1171898E+00 1.9420757E+00
 4.4325575E+00 1.1497320E+00 1.9404358E+00
 4.3609235E+00 1.1835770E+00 1.9362542E+00
 4.2909287E+00 1.2184843E+00 1.9288125E+00
 5.3706763E+00 8.8125391E-01 1.9205454E+00
 5.2931624E+00 9.0388258E-01 1.9218554E+00
 5.2150408E+00 9.2676908E-01 1.9234000E+00
 5.1363191E+00 9.5030988E-01 1.9252045E+00
 5.0570965E+00 9.7468985E-01 1.9272102E+00
 4.9775868E+00 1.0000002E+00 1.9293050E+00
 4.8980878E+00 1.0263026E+00 1.9313388E+00
 4.8189374E+00 1.0536495E+00 1.9331308E+00
 4.7404840E+00 1.0820913E+00 1.9344690E+00
 4.6630789E+00 1.1116829E+00 1.9350978E+00
 4.5870761E+00 1.1424913E+00 1.9346928E+00
 4.5127963E+00 1.1745900E+00 1.9328330E+00
 4.4403876E+00 1.2080151E+00 1.9289896E+00
 4.3695872E+00 1.2426575E+00 1.9225482E+00
 5.3702450E+00 9.2839438E-01 1.9253995E+00
 5.2924961E+00 9.5175593E-01 1.9255902E+00
 5.2143632E+00 9.7552506E-01 1.9259761E+00
 5.1358619E+00 1.0000001E+00 1.9265426E+00
 5.0570964E+00 1.0253105E+00 1.9272102E+00
 4.9782814E+00 1.0515199E+00 1.9278561E+00
 4.8997099E+00 1.0786748E+00 1.9283236E+00
 4.8217065E+00 1.1068205E+00 1.9284285E+00
 4.7445945E+00 1.1360111E+00 1.9279565E+00
 4.6686807E+00 1.1663208E+00 1.9266502E+00
 4.5942388E+00 1.1978476E+00 1.9241840E+00
 4.5214342E+00 1.2306844E+00 1.9201439E+00
 4.4501517E+00 1.2648303E+00 1.9140302E+00
 5.3700263E+00 9.7607112E-01 1.9278537E+00
 5.2922718E+00 1.0000000E+00 1.9268446E+00
 5.2143631E+00 1.0244751E+00 1.9259761E+00
 5.1363189E+00 1.0496903E+00 1.9252045E+00
 5.0582427E+00 1.0757183E+00 1.9244373E+00
 4.9803432E+00 1.1025974E+00 1.9235457E+00
 4.9028994E+00 1.1303654E+00 1.9223699E+00
 4.8262128E+00 1.1590729E+00 1.9207224E+00
 4.7505726E+00 1.1887965E+00 1.9183834E+00
 4.6762355E+00 1.2196487E+00 1.9150849E+00
 4.6033838E+00 1.2517621E+00 1.9104913E+00
 4.5320061E+00 1.2852179E+00 1.9041966E+00
 5.3700263E+00 1.0239289E+00 1.9278536E+00
 5.2924960E+00 1.0482441E+00 1.9255902E+00
 5.2150406E+00 1.0732310E+00 1.9234000E+00
 5.1376767E+00 1.0989768E+00 1.9212224E+00
 5.0605002E+00 1.1254991E+00 1.9189594E+00
 4.9837055E+00 1.1528175E+00 1.9164801E+00
 4.9075500E+00 1.1809736E+00 1.9136213E+00
 4.8323090E+00 1.2100421E+00 1.9101881E+00
 4.7582482E+00 1.2401435E+00 1.9059438E+00
 4.6855963E+00 1.2714365E+00 1.9005960E+00
 4.6144558E+00 1.3040605E+00 1.8937943E+00
 5.3702450E+00 1.0716057E+00 1.9253994E+00
 5.2931623E+00 1.0961175E+00 1.9218553E+00
 5.2163762E+00 1.1214133E+00 1.9183074E+00
 5.1398944E+00 1.1474751E+00 1.9146900E+00
 5.0637983E+00 1.1742727E+00 1.9109059E+00
 4.9882618E+00 1.2018193E+00 1.9068225E+00
 4.9135232E+00 1.2301796E+00 1.9022685E+00
 4.8398573E+00 1.2594760E+00 1.8970279E+00
 4.7675610E+00 1.2898843E+00 1.8908291E+00
 4.6968788E+00 1.3215848E+00 1.8833454E+00
 5.3706763E+00 1.1187461E+00 1.9205453E+00
 5.2942515E+00 1.1432642E+00 1.9157236E+00
 5.2183301E+00 1.1686672E+00 1.9108134E+00
 5.1429042E+00 1.1948397E+00 1.9057549E+00
 5.0680363E+00 1.2217170E+00 1.9004544E+00
 4.9938877E+00 1.2493260E+00 1.8947730E+00
 4.9207182E+00 1.2777797E+00 1.8885161E+00
 4.8488874E+00 1.3072637E+00 1.8814255E+00
 4.7787980E+00 1.3379865E+00 1.8731799E+00
 5.3713078E+00 1.1650154E+00 1.9133964E+00
 5.2957315E+00 1.1893577E+00 1.9073277E+00
 5.2208429E+00 1.2146798E+00 1.9010794E+00
 5.1466161E+00 1.2407845E+00 1.8946043E+00
 5.0731084E+00 1.2675946E+00 1.8878094E+00
 5.0005232E+00 1.2951781E+00 1.8805340E+00
 4.9292554E+00 1.3237149E+00 1.8725369E+00
 4.8598552E+00 1.3534318E+00 1.8634986E+00
 5.3721203E+00 1.2101108E+00 1.9041021E+00
 5.2975558E+00 1.2341137E+00 1.8968407E+00
 5.2238390E+00 1.2591972E+00 1.8892994E+00
 5.1509447E+00 1.2851071E+00 1.8814443E+00
 5.0789931E+00 1.3117853E+00 1.8731692E+00
 5.0083749E+00 1.3393623E+00 1.8642661E+00
 4.9397536E+00 1.3680637E+00 1.8544260E+00
 5.3730874E+00 1.2537729E+00 1.8928467E+00
 5.2996670E+00 1.2773039E+00 1.8844625E+00
 5.2272518E+00 1.3020448E+00 1.8756804E+00
 5.1559052E+00 1.3277224E+00 1.8664674E+00
 5.0859819E+00 1.3543195E+00 1.8566800E+00
 5.0182184E+00 1.3820073E+00 1.8460422E+00
 5.3741756E+00 1.2957914E+00 1.8798384E+00
 5.3020177E+00 1.3187734E+00 1.8704027E+00
 5.2311188E+00 1.3431608E+00 1.8604115E+00
 5.1618438E+00 1.3686940E+00 1.8498092E+00
 5.0949854E+00 1.3953701E+00 1.8383957E+00
 5.3753562E+00 1.3360107E+00 1.8652977E+00
 5.3046431E+00 1.3584652E+00 1.8548554E+00
 5.2358332E+00 1.3826454E+00 1.8436167E+00
 5.1698084E+00 1.4082532E+00 1.8314981E+00
 5.3766571E+00 1.3743544E+00 1.8494362E+00
 5.3078660E+00 1.3964588E+00 1.8379614E+00
 5.2424523E+00 1.4207543E+00 1.8253199E+00
 5.3782558E+00 1.4108578E+00 1.8324309E+00
 5.3128406E+00 1.4330974E+00 1.8197139E+00
 5.3806620E+00 1.4456032E+00 1.8144370E+00
 5.4471491E+00 1.4601143E+00 1.8083282E+00
 5.4472797E+00 1.4270697E+00 1.8262800E+00
 5.4473541E+00 1.3920049E+00 1.8435019E+00
 5.4474079E+00 1.3548379E+00 1.8598103E+00
 5.4474513E+00 1.3156499E+00 1.8749668E+00
 5.4474896E+00 1.2745789E+00 1.8887209E+00
 5.4475234E+00 1.2317743E+00 1.9008403E+00
 5.4475526E+00 1.1874273E+00 1.9111067E+00
 5.4475762E+00 1.1417769E+00 1.9193222E+00
 5.4475936E+00 1.0951054E+00 1.9253193E+00
 5.4476042E+00 1.0477317E+00 1.9289707E+00
 5.4476078E+00 1.0000000E+00 1.9301969E+00
 5.4476042E+00 9.5226838E-01 1.9289708E+00
 5.4475936E+00 9.0489461E-01 1.9253193E+00
 5.4475762E+00 8.5822318E-01 1.9193223E+00
 5.4475525E+00 8.1257280E-01 1.9111069E+00
 5.4475233E+00 7.6822576E-01 1.9008405E+00
 5.4474895E+00 7.2542121E-01 1.8887211E+00
 5.4474512E+00 6.8435019E-01 1.8749670E+00
 5.4474077E+00 6.4516214E-01 1.8598105E+00
 5.4473540E+00 6.0799521E-01 1.8435021E+00
 5.4472796E+00 5.7293040E-01 1.8262802E+00
 5.4471490E+00 5.3988580E-01 1.8083284E+00
 5.5066203E+00 5.1873880E-01 1.7982835E+00
 5.5723780E+00 5.2746418E-01 1.8064212E+00
 5.6411137E+00 5.3663104E-01 1.8150407E+00
 5.7125461E+00 5.4639931E-01 1.8240380E+00
 5.7863717E+00 5.5690294E-01 1.8331887E+00
 5.8622543E+00 5.6832780E-01 1.8422207E+00
 5.9398876E+00 5.8086676E-01 1.8508146E+00
 6.0189353E+00 5.9470147E-01 1.8586338E+00
 6.0990527E+00 6.0997848E-01 1.8653630E+00
 6.1798903E+00 6.2679290E-01 1.8707441E+00
 6.2610924E+00 6.4518475E-01 1.8745968E+00
 6.3422754E+00 6.6514711E-01 1.8768139E+00
 6.4230020E+00 6.8664185E-01 1.8773375E+00
 6.5027721E+00 7.0961528E-01 1.8761261E+00
 6.5810454E+00 7.3400877E-01 1.8731258E+00
 6.6572870E+00 7.5976131E-01 1.8682565E+00
 6.7310128E+00 7.8680573E-01 1.8614138E+00
 6.8018139E+00 8.1506128E-01 1.8524851E+00
 6.8693550E+00 8.4442557E-01 1.8413714E+00
 6.9333561E+00 8.7477157E-01 1.8280107E+00
 6.9935393E+00 9.0592776E-01 1.8124088E+00
 7.0496488E+00 9.3768638E-01 1.7946379E+00
 7.1013099E+00 9.6964818E-01 1.7749103E+00
 5.5137042E+00 1.4475726E+00 1.8179342E+00
 5.5815119E+00 1.4368646E+00 1.8266934E+00
 5.6518422E+00 1.4260939E+00 1.8356430E+00
 5.7243637E+00 1.4148324E+00 1.8447754E+00
 5.7989867E+00 1.4027519E+00 1.8539608E+00
 5.8754524E+00 1.3896502E+00 1.8629163E+00
 5.9534658E+00 1.3753454E+00 1.8713057E+00
 6.0326959E+00 1.3596878E+00 1.8787777E+00
 6.1127906E+00 1.3425669E+00 1.8850132E+00
 6.1933924E+00 1.3239238E+00 1.8897611E+00
 6.2741332E+00 1.3037500E+00 1.8928531E+00
 6.3546134E+00 1.2820774E+00 1.8941948E+00
 6.4343798E+00 1.2589636E+00 1.8937382E+00
 6.5129260E+00 1.2344787E+00 1.8914484E+00
 6.5897199E+00 1.2086972E+00 1.8872779E+00
 6.6642507E+00 1.1816956E+00 1.8811563E+00
 6.7360682E+00 1.1535532E+00 1.8729950E+00
 6.8048051E+00 1.1243556E+00 1.8627030E+00
 6.8701815E+00 1.0942024E+00 1.8502023E+00
 6.9320393E+00 1.0632337E+00 1.8354258E+00
 6.9904573E+00 1.0316703E+00 1.8182733E+00
 7.0459771E+00 1.0000001E+00 1.7985023E+00
 5.5163207E+00 1.4127699E+00 1.8361340E+00
 5.5866648E+00 1.4000711E+00 1.8453452E+00
 5.6586004E+00 1.3876812E+00 1.8544597E+00
 5.7324305E+00 1.3747996E+00 1.8636561E+00
 5.8080552E+00 1.3610533E+00 1.8727852E+00
 5.8853158E+00 1.3462034E+00 1.8815648E+00
 5.9639298E+00 1.3300876E+00 1.8896365E+00
 6.0435655E+00 1.3125817E+00 1.8966370E+00
 6.1238621E+00 1.2936089E+00 1.9022436E+00
 6.2044501E+00 1.2731426E+00 1.9062117E+00
 6.2849456E+00 1.2512033E+00 1.9083849E+00
 6.3649315E+00 1.2278463E+00 1.9086817E+00
 6.4439398E+00 1.2031481E+00 1.9070649E+00
 6.5214597E+00 1.1771946E+00 1.9035088E+00
 6.5969710E+00 1.1500734E+00 1.8979748E+00
 6.6699927E+00 1.1218688E+00 1.8904042E+00
 6.7401236E+00 1.0926597E+00 1.8807219E+00
 6.8070851E+00 1.0625229E+00 1.8688427E+00
 6.8707988E+00 1.0315644E+00 1.8546550E+00
 6.9315657E+00 1.0000001E+00 1.8379563E+00
 6.9904573E+00 9.6832984E-01 1.8182733E+00
 5.5180641E+00 1.3761483E+00 1.8533103E+00
 5.5900181E+00 1.3618245E+00 1.8625615E+00
 5.6634232E+00 1.3477877E+00 1.8716888E+00
 5.7384517E+00 1.3332522E+00 1.8807994E+00
 5.8150953E+00 1.3177840E+00 1.8897397E+00
 5.8931808E+00 1.3011548E+00 1.8981974E+00
 5.9724333E+00 1.2832164E+00 1.9057970E+00
 6.0525071E+00 1.2638744E+00 1.9121625E+00
 6.1330293E+00 1.2430833E+00 1.9169708E+00
 6.2136157E+00 1.2208480E+00 1.9199855E+00
 6.2938671E+00 1.1972160E+00 1.9210637E+00
 6.3733512E+00 1.1722649E+00 1.9201386E+00
 6.4515912E+00 1.1460881E+00 1.9171860E+00
 6.5280800E+00 1.1187837E+00 1.9121913E+00
 6.6023209E+00 1.0904446E+00 1.9051273E+00
 6.6738806E+00 1.0611515E+00 1.8959452E+00
 6.7424540E+00 1.0309735E+00 1.8845704E+00
 6.8079678E+00 1.0000001E+00 1.8708839E+00
 6.8707988E+00 9.6843580E-01 1.8546551E+00
 6.9320393E+00 9.3676641E-01 1.8354258E+00
 5.5194656E+00 1.3376550E+00 1.8693261E+00
 5.5927366E+00 1.3218207E+00 1.8783979E+00
 5.6673687E+00 1.3061882E+00 1.8873448E+00
 5.7434715E+00 1.2899822E+00 1.8962072E+00
 5.8210146E+00 1.2727855E+00 1.9047876E+00
 5.8998193E+00 1.2543831E+00 1.9127471E+00
 5.9795924E+00 1.2346540E+00 1.9196904E+00
 6.0599748E+00 1.2135338E+00 1.9252340E+00
 6.1405784E+00 1.1910100E+00 1.9290582E+00
 6.2210062E+00 1.1671176E+00 1.9309384E+00
 6.3008475E+00 1.1419296E+00 1.9307484E+00
 6.3796616E+00 1.1155427E+00 1.9284379E+00
 6.4569733E+00 1.0880627E+00 1.9239977E+00
 6.5322937E+00 1.0595912E+00 1.9174263E+00
 6.6051703E+00 1.0302143E+00 1.9087062E+00
 6.6752603E+00 1.0000001E+00 1.8977885E+00
 6.7424540E+00 9.6902661E-01 1.8845704E+00
 6.8070851E+00 9.3747722E-01 1.8688428E+00
 6.8701815E+00 9.0579778E-01 1.8502024E+00
 5.5207274E+00 1.2972643E+00 1.8840108E+00
 5.5951601E+00 1.2799976E+00 1.8927237E+00
 5.6708425E+00 1.2628011E+00 1.9013133E+00
 5.7478446E+00 1.2449434E+00 1.9097479E+00
 5.8261103E+00 1.2260427E+00 1.9177830E+00
 5.9054425E+00 1.2059141E+00 1.9250521E+00
 5.9855309E+00 1.1844676E+00 1.9311452E+00
 6.0660011E+00 1.1616726E+00 1.9356765E+00
 6.1464533E+00 1.1375496E+00 1.9383349E+00
 6.2264816E+00 1.1121624E+00 1.9389121E+00
 6.3056700E+00 1.0856060E+00 1.9373008E+00
 6.3835803E+00 1.0579904E+00 1.9334694E+00
 6.4597531E+00 1.0294244E+00 1.9274246E+00
 6.5337394E+00 1.0000001E+00 1.9191757E+00
 6.6051703E+00 9.6978583E-01 1.9087062E+00
 6.6738806E+00 9.3884866E-01 1.8959452E+00
 6.7401237E+00 9.0734045E-01 1.8807220E+00
 6.8048052E+00 8.7564456E-01 1.8627030E+00
 5.5218861E+00 1.2550562E+00 1.8971518E+00
 5.5973335E+00 1.2364191E+00 1.9053417E+00
 5.6738890E+00 1.2176983E+00 1.9134005E+00
 5.7515920E+00 1.1982322E+00 1.9212235E+00
 5.8303655E+00 1.1776874E+00 1.9285226E+00
 5.9099940E+00 1.1559173E+00 1.9349082E+00
 5.9901519E+00 1.1328678E+00 1.9399620E+00
 6.0704530E+00 1.1085434E+00 1.9433024E+00
 6.1504901E+00 1.0829963E+00 1.9446322E+00
 6.2298550E+00 1.0563158E+00 1.9437630E+00
 6.3081354E+00 1.0286126E+00 1.9406086E+00
 6.3849092E+00 1.0000001E+00 1.9351560E+00
 6.4597531E+00 9.7057576E-01 1.9274246E+00
 6.5322937E+00 9.4040899E-01 1.9174263E+00
 6.6023209E+00 9.0955556E-01 1.9051273E+00
 6.6699927E+00 8.7813132E-01 1.8904042E+00
 6.7360682E+00 8.4644691E-01 1.8729950E+00
 5.5229150E+00 1.2111878E+00 1.9085252E+00
 5.5992109E+00 1.1912442E+00 1.9160360E+00
 5.6764433E+00 1.1710607E+00 1.9233918E+00
 5.7546298E+00 1.1500593E+00 1.9304205E+00
 5.8336761E+00 1.1279660E+00 1.9367969E+00
 5.9133517E+00 1.1046779E+00 1.9421154E+00
 5.9933198E+00 1.0801787E+00 1.9459569E+00
 6.0731874E+00 1.0545076E+00 1.9479503E+00
 6.1525466E+00 1.0277453E+00 1.9478172E+00
 6.2309946E+00 1.0000001E+00 1.9453918E+00
 6.3081354E+00 9.7138757E-01 1.9406086E+00
 6.3835803E+00 9.4200974E-01 1.9334694E+00
 6.4569733E+00 9.1193747E-01 1.9239977E+00
 6.5280801E+00 8.8121645E-01 1.9121913E+00
 6.5969710E+00 8.4992678E-01 1.8979748E+00
 6.6642507E+00 8.1830456E-01 1.8811563E+00
 5.5237794E+00 1.1658708E+00 1.9179189E+00
 5.6007337E+00 1.1447049E+00 1.9246003E+00
 5.6784294E+00 1.1231485E+00 1.9310858E+00
 5.7568678E+00 1.1007193E+00 1.9371449E+00
 5.8359417E+00 1.0772099E+00 1.9424242E+00
 5.9154101E+00 1.0525643E+00 1.9465104E+00
 5.9949306E+00 1.0268042E+00 1.9489913E+00
 6.0741097E+00 1.0000001E+00 1.9495121E+00
 6.1525466E+00 9.7225483E-01 1.9478172E+00
 6.2298550E+00 9.4368438E-01 1.9437630E+00
 6.3056700E+00 9.1439420E-01 1.9373008E+00
 6.3796617E+00 8.8445746E-01 1.9284379E+00
 6.4515912E+00 8.5391205E-01 1.9171860E+00
 6.5214597E+00 8.2280555E-01 1.9035088E+00
 6.5897199E+00 7.9130294E-01 1.8872780E+00
 5.5244512E+00 1.1193672E+00 1.9251454E+00
 5.6018546E+00 1.0970908E+00 1.9308564E+00
 5.6797868E+00 1.0742828E+00 1.9363151E+00
 5.7582379E+00 1.0505676E+00 1.9412444E+00
 5.8370921E+00 1.0258096E+00 1.9452726E+00
 5.9161036E+00 1.0000001E+00 1.9479877E+00
 5.9949306E+00 9.7319596E-01 1.9489913E+00
 6.0731874E+00 9.4549262E-01 1.9479502E+00
 6.1504901E+00 9.1700388E-01 1.9446322E+00
 6.2264816E+00 8.8783777E-01 1.9389120E+00
 6.3008475E+00 8.5807056E-01 1.9307484E+00
 6.3733513E+00 8.2773529E-01 1.9201386E+00
 6.4439398E+00 7.9685206E-01 1.9070650E+00
 6.5129260E+00 7.6552142E-01 1.8914484E+00
 5.5249100E+00 1.0719824E+00 1.9300527E+00
 5.6025401E+00 1.0487348E+00 1.9346675E+00
 5.6804754E+00 1.0248275E+00 1.9389607E+00
 5.7586991E+00 1.0000001E+00 1.9426219E+00
 5.8370921E+00 9.7419059E-01 1.9452726E+00
 5.9154101E+00 9.4743586E-01 1.9465104E+00
 5.9933198E+00 9.1982147E-01 1.9459569E+00
 6.0704530E+00 8.9145681E-01 1.9433024E+00
 6.1464533E+00 8.6245056E-01 1.9383349E+00
 6.2210063E+00 8.3288259E-01 1.9309384E+00
 6.2938671E+00 8.0278415E-01 1.9210637E+00
 6.3649315E+00 7.7215388E-01 1.9086817E+00
 6.4343799E+00 7.4103652E-01 1.8937382E+00
 5.5251426E+00 1.0240552E+00 1.9325339E+00
 5.6027707E+00 1.0000000E+00 1.9359476E+00
 5.6804754E+00 9.7517266E-01 1.9389607E+00
 5.7582379E+00 9.4943250E-01 1.9412444E+00
 5.8359416E+00 9.2279026E-01 1.9424242E+00
 5.9133517E+00 8.9532230E-01 1.9421154E+00
 5.9901519E+00 8.6713235E-01 1.9399620E+00
 6.0660011E+00 8.3832754E-01 1.9356765E+00
 6.1405784E+00 8.0899021E-01 1.9290581E+00
 6.2136157E+00 7.7915220E-01 1.9199855E+00
 6.2849456E+00 7.4879690E-01 1.9083849E+00
 6.3546134E+00 7.1792274E-01 1.8941948E+00
 5.5251426E+00 9.7594485E-01 1.9325339E+00
 5.6025400E+00 9.5126533E-01 1.9346675E+00
 5.6797867E+00 9.2571734E-01 1.9363152E+00
 5.7568678E+00 8.9928085E-01 1.9371450E+00
 5.8336760E+00 8.7203418E-01 1.9367969E+00
 5.9099940E+00 8.4408285E-01 1.9349081E+00
 5.9855309E+00 8.1553262E-01 1.9311452E+00
 6.0599748E+00 7.8646638E-01 1.9252340E+00
 6.1330293E+00 7.5691692E-01 1.9169708E+00
 6.2044501E+00 7.2685756E-01 1.9062117E+00
 6.2741333E+00 6.9625017E-01 1.8928531E+00
 5.5249099E+00 9.2801764E-01 1.9300527E+00
 5.6018545E+00 9.0290929E-01 1.9308564E+00
 5.6784293E+00 8.7685162E-01 1.9310858E+00
 5.7546297E+00 8.4994085E-01 1.9304205E+00
 5.8303654E+00 8.2231280E-01 1.9285226E+00
 5.9054424E+00 7.9408610E-01 1.9250520E+00
 5.9795924E+00 7.6534617E-01 1.9196904E+00
 6.0525071E+00 7.3612583E-01 1.9121625E+00
 6.1238621E+00 7.0639129E-01 1.9022436E+00
 6.1933925E+00 6.7607636E-01 1.8897611E+00
 5.5244511E+00 8.8063290E-01 1.9251454E+00
 5.6007336E+00 8.5529516E-01 1.9246004E+00
 5.6764432E+00 8.2893947E-01 1.9233919E+00
 5.7515918E+00 8.0176794E-01 1.9212235E+00
 5.8261102E+00 7.7395747E-01 1.9177830E+00
 5.8998192E+00 7.4561706E-01 1.9127471E+00
 5.9724332E+00 7.1678381E-01 1.9057970E+00
 6.0435655E+00 6.8741846E-01 1.8966369E+00
 6.1127906E+00 6.5743326E-01 1.8850132E+00
 5.5237793E+00 8.3412926E-01 1.9179190E+00
 5.5992107E+00 8.0875595E-01 1.9160361E+00
 5.6738888E+00 7.8230179E-01 1.9134006E+00
 5.7478444E+00 7.5505677E-01 1.9097479E+00
 5.8210144E+00 7.2721463E-01 1.9047876E+00
 5.8931807E+00 6.9884538E-01 1.8981974E+00
 5.9639298E+00 6.6991261E-01 1.8896365E+00
 6.0326959E+00 6.4031241E-01 1.8787776E+00
 5.5229149E+00 7.8881225E-01 1.9085253E+00
 5.5973333E+00 7.6358098E-01 1.9053418E+00
 5.6708423E+00 7.3719901E-01 1.9013133E+00
 5.7434714E+00 7.1001800E-01 1.8962072E+00
 5.8150952E+00 6.8221620E-01 1.8897397E+00
 5.8853157E+00 6.5379678E-01 1.8815647E+00
 5.9534658E+00 6.2465478E-01 1.8713057E+00
 5.5218859E+00 7.4494388E-01 1.8971520E+00
 5.5951599E+00 7.2000251E-01 1.8927238E+00
 5.6673685E+00 6.9381190E-01 1.8873449E+00
 5.7384515E+00 6.6674795E-01 1.8807994E+00
 5.8080551E+00 6.3894689E-01 1.8727852E+00
 5.8754523E+00 6.1035003E-01 1.8629163E+00
 5.5207272E+00 7.0273578E-01 1.8840109E+00
 5.5927364E+00 6.7817942E-01 1.8783981E+00
 5.6634230E+00 6.5221247E-01 1.8716889E+00
 5.7324303E+00 6.2520060E-01 1.8636562E+00
 5.7989866E+00 5.9724831E-01 1.8539608E+00
 5.5194654E+00 6.6234509E-01 1.8693263E+00
 5.5900179E+00 6.3817565E-01 1.8625616E+00
 5.6586002E+00 6.1231897E-01 1.8544598E+00
 5.7243635E+00 5.8516773E-01 1.8447754E+00
 5.5180639E+00 6.2385176E-01 1.8533105E+00
 5.5866646E+00 5.9992903E-01 1.8453454E+00
 5.6518419E+00 5.7390622E-01 1.8356431E+00
 5.5163206E+00 5.8723017E-01 1.8361342E+00
 5.5815116E+00 5.6313553E-01 1.8266936E+00
 5.5137040E+00 5.5242746E-01 1.8179344E+00
 5.4104032E+00 1.5113971E+00 1.7756742E+00
 5.3696819E+00 1.5358075E+00 1.7578277E+00
 5.3272295E+00 1.5608389E+00 1.7384874E+00
 5.2832548E+00 1.5863595E+00 1.7176180E+00
 5.2379027E+00 1.6122636E+00 1.6951704E+00
 5.1914458E+00 1.6384298E+00 1.6710940E+00
 5.1441427E+00 1.6647359E+00 1.6453235E+00
 5.0962731E+00 1.6910350E+00 1.6178008E+00
 5.0481458E+00 1.7171555E+00 1.5884807E+00
 5.0000926E+00 1.7428993E+00 1.5573404E+00
 4.9524585E+00 1.7680472E+00 1.5243856E+00
 4.9055905E+00 1.7923645E+00 1.4896561E+00
 4.8598263E+00 1.8156092E+00 1.4532304E+00
 4.8154849E+00 1.8375413E+00 1.4152279E+00
 4.7728576E+00 1.8579313E+00 1.3758087E+00
 4.7322010E+00 1.8765709E+00 1.3351704E+00
 4.6937308E+00 1.8932811E+00 1.2935426E+00
 4.6576205E+00 1.9079195E+00 1.2511787E+00
 4.6240036E+00 1.9203852E+00 1.2083489E+00
 4.5929909E+00 1.9306205E+00 1.1653342E+00
 4.5647000E+00 1.9386074E+00 1.1224469E+00
 4.5391971E+00 1.9443721E+00 1.0799871E+00
 4.5165331E+00 1.9479896E+00 1.0383760E+00
 3.7627292E+00 1.0927340E+00 1.8061394E+00
 3.7536918E+00 1.1531787E+00 1.7908305E+00
 3.7477639E+00 1.2149438E+00 1.7722087E+00
 3.7459046E+00 1.2780835E+00 1.7505054E+00
 3.7486779E+00 1.3422418E+00 1.7257284E+00
 3.7564942E+00 1.4068487E+00 1.6978495E+00
 3.7696721E+00 1.4711919E+00 1.6668686E+00
 3.7884497E+00 1.5344485E+00 1.6328546E+00
 3.8129571E+00 1.5957067E+00 1.5959671E+00
 3.8431826E+00 1.6539996E+00 1.5564698E+00
 3.8789423E+00 1.7083581E+00 1.5147373E+00
 3.9198648E+00 1.7578794E+00 1.4712547E+00
 3.9653967E+00 1.8018058E+00 1.4266065E+00
 4.0148333E+00 1.8396030E+00 1.3814514E+00
 4.0673770E+00 1.8710252E+00 1.3364833E+00
 4.1222120E+00 1.8961471E+00 1.2923810E+00
 4.1785776E+00 1.9153535E+00 1.2497559E+00
 4.2358128E+00 1.9292806E+00 1.2091066E+00
 4.2933513E+00 1.9387227E+00 1.1707885E+00
 4.3507018E+00 1.9445320E+00 1.1349800E+00
 4.4073995E+00 1.9475353E+00 1.1015982E+00
 4.4628971E+00 1.9484775E+00 1.0701747E+00
 3.8155540E+00 1.1296481E+00 1.8334937E+00
 3.8096190E+00 1.1922801E+00 1.8180024E+00
 3.8066834E+00 1.2552193E+00 1.7989415E+00
 3.8078912E+00 1.3188373E+00 1.7765784E+00
 3.8138709E+00 1.3828925E+00 1.7509397E+00
 3.8249970E+00 1.4468161E+00 1.7219952E+00
 3.8415116E+00 1.5098531E+00 1.6897591E+00
 3.8635493E+00 1.5711289E+00 1.6543379E+00
 3.8911161E+00 1.6297009E+00 1.6159519E+00
 3.9240613E+00 1.6846160E+00 1.5749439E+00
 3.9620627E+00 1.7349796E+00 1.5317791E+00
 4.0046307E+00 1.7800325E+00 1.4870350E+00
 4.0511379E+00 1.8192269E+00 1.4413773E+00
 4.1008712E+00 1.8522879E+00 1.3955207E+00
 4.1530985E+00 1.8792447E+00 1.3501792E+00
 4.2071301E+00 1.9004213E+00 1.3060111E+00
 4.2623542E+00 1.9163829E+00 1.2635676E+00
 4.3182454E+00 1.9278534E+00 1.2232468E+00
 4.3743453E+00 1.9356269E+00 1.1852289E+00
 4.4302038E+00 1.9404959E+00 1.1493712E+00
 4.4853913E+00 1.9432009E+00 1.1148666E+00
 3.8738605E+00 1.1650717E+00 1.8570922E+00
 3.8709243E+00 1.2286443E+00 1.8410636E+00
 3.8710234E+00 1.2920769E+00 1.8213185E+00
 3.8753340E+00 1.3556546E+00 1.7980670E+00
 3.8844847E+00 1.4191133E+00 1.7713262E+00
 3.8987928E+00 1.4818457E+00 1.7410802E+00
 3.9184108E+00 1.5430529E+00 1.7073826E+00
 3.9433635E+00 1.6018360E+00 1.6704030E+00
 3.9735350E+00 1.6572668E+00 1.6304449E+00
 4.0086550E+00 1.7084622E+00 1.5879477E+00
 4.0483015E+00 1.7546621E+00 1.5434759E+00
 4.0919266E+00 1.7953039E+00 1.4976956E+00
 4.1389018E+00 1.8300816E+00 1.4513363E+00
 4.1885736E+00 1.8589767E+00 1.4051388E+00
 4.2403115E+00 1.8822496E+00 1.3597994E+00
 4.2935390E+00 1.9003921E+00 1.3159133E+00
 4.3477434E+00 1.9140551E+00 1.2739207E+00
 4.4024625E+00 1.9239706E+00 1.2340391E+00
 4.4572489E+00 1.9308961E+00 1.1961069E+00
 4.5115789E+00 1.9355634E+00 1.1593944E+00
 3.9372349E+00 1.1991034E+00 1.8760671E+00
 3.9372299E+00 1.2627903E+00 1.8591813E+00
 3.9403496E+00 1.3260168E+00 1.8384834E+00
 3.9477317E+00 1.3889251E+00 1.8141119E+00
 3.9599427E+00 1.4511676E+00 1.7860731E+00
 3.9772167E+00 1.5120905E+00 1.7543841E+00
 3.9996089E+00 1.5708761E+00 1.7191616E+00
 4.0270389E+00 1.6266448E+00 1.6806600E+00
 4.0592910E+00 1.6785392E+00 1.6392808E+00
 4.0960158E+00 1.7258059E+00 1.5955640E+00
 4.1367499E+00 1.7678699E+00 1.5501640E+00
 4.1809510E+00 1.8043930E+00 1.5038110E+00
 4.2280402E+00 1.8353034E+00 1.4572596E+00
 4.2774384E+00 1.8607910E+00 1.4112307E+00
 4.3285928E+00 1.8812665E+00 1.3663535E+00
 4.3809911E+00 1.8972980E+00 1.3231102E+00
 4.4341643E+00 1.9095472E+00 1.2817577E+00
 4.4876418E+00 1.9187214E+00 1.2422001E+00
 4.5408458E+00 1.9255363E+00 1.2037945E+00
 4.0051543E+00 1.2314129E+00 1.8898183E+00
 4.0079949E+00 1.2945531E+00 1.8718014E+00
 4.0140697E+00 1.3569233E+00 1.8499262E+00