# TIME = 1.100000
variables = x, y, z
zone N=5762 E=11520 F=FEPOINT ET=TRIANGLE
 5.1059258E+00 1.4869738E+00 1.7876687E+00
 5.1059258E+00 1.4869738E+00 2.1233110E-01
 5.1059258E+00 5.1302624E-01 1.7876689E+00
 5.1059259E+00 5.1302639E-01 2.1233127E-01
 3.3984138E+00 1.0000001E+00 1.7745036E+00
 6.8056384E+00 1.0000001E+00 1.7609886E+00
 3.3984138E+00 1.0000001E+00 2.2549642E-01
 6.8056384E+00 1.0000001E+00 2.3901128E-01
 4.1623290E+00 1.9502373E+00 9.9999994E-01
 4.1623290E+00 4.9762872E-02 9.9999994E-01
 6.0491952E+00 1.9472879E+00 9.9999994E-01
 6.0491952E+00 5.2712204E-02 9.9999994E-01
 5.0467881E+00 1.4780520E+00 1.7928891E+00
 4.9820534E+00 1.4683601E+00 1.7990450E+00
 4.9142507E+00 1.4583732E+00 1.8059255E+00
 4.8438172E+00 1.4480944E+00 1.8135492E+00
 4.7708315E+00 1.4374288E+00 1.8219205E+00
 4.6955394E+00 1.4262703E+00 1.8309762E+00
 4.6181751E+00 1.4144660E+00 1.8405948E+00
 4.5390490E+00 1.4018404E+00 1.8505769E+00
 4.4585122E+00 1.3881936E+00 1.8606525E+00
 4.3769544E+00 1.3733179E+00 1.8704901E+00
 4.2947927E+00 1.3570120E+00 1.8797144E+00
 4.2124671E+00 1.3390946E+00 1.8879226E+00
 4.1304451E+00 1.3194147E+00 1.8946901E+00
 4.0492324E+00 1.2978564E+00 1.8995667E+00
 3.9693730E+00 1.2743462E+00 1.9020721E+00
 3.8914290E+00 1.2488673E+00 1.9017170E+00
 3.8159581E+00 1.2214796E+00 1.8980540E+00
 3.7435023E+00 1.1923368E+00 1.8907466E+00
 3.6745748E+00 1.1616860E+00 1.8796253E+00
 3.6096368E+00 1.1298540E+00 1.8647122E+00
 3.5490656E+00 1.0972117E+00 1.8462126E+00
 3.4931797E+00 1.0641799E+00 1.8244954E+00
 3.4422515E+00 1.0311884E+00 1.8000641E+00
 5.0413921E+00 5.5481504E-01 1.8117859E+00
 4.9750544E+00 5.6590255E-01 1.8182135E+00
 4.9059318E+00 5.7718134E-01 1.8252896E+00
 4.8342887E+00 5.8882985E-01 1.8330947E+00
 4.7602128E+00 6.0097350E-01 1.8416315E+00
 4.6839143E+00 6.1373016E-01 1.8508171E+00
 4.6056803E+00 6.2725335E-01 1.8604985E+00
 4.5258469E+00 6.4172132E-01 1.8704462E+00
 4.4447976E+00 6.5732622E-01 1.8803573E+00
 4.3629481E+00 6.7425961E-01 1.8898713E+00
 4.2807390E+00 6.9269703E-01 1.8985889E+00
 4.1986311E+00 7.1278477E-01 1.9060900E+00
 4.1171114E+00 7.3463164E-01 1.9119386E+00
 4.0367000E+00 7.5830290E-01 1.9156795E+00
 3.9579444E+00 7.8381192E-01 1.9168394E+00
 3.8813953E+00 8.1110691E-01 1.9149544E+00
 3.8075874E+00 8.4005683E-01 1.9096255E+00
 3.7370274E+00 8.7044660E-01 1.9005832E+00
 3.6701829E+00 9.0198507E-01 1.8877337E+00
 3.6074492E+00 9.3434247E-01 1.8711679E+00
 3.5490894E+00 9.6716654E-01 1.8511232E+00
 3.4949366E+00 1.0000001E+00 1.8277992E+00
 5.0398464E+00 5.8878554E-01 1.8295038E+00
 4.9717024E+00 6.0136280E-01 1.8361056E+00
 4.9012164E+00 6.1401972E-01 1.8432514E+00
 4.8281977E+00 6.2716165E-01 1.8511338E+00
 4.7528203E+00 6.4089627E-01 1.8597178E+00
 4.6753087E+00 6.5535987E-01 1.8689053E+00
 4.5959853E+00 6.7070830E-01 1.8785128E+00
 4.5152243E+00 6.8711766E-01 1.8882774E+00
 4.4334432E+00 7.0476944E-01 1.8978621E+00
 4.3510898E+00 7.2383459E-01 1.9068754E+00
 4.2686321E+00 7.4445870E-01 1.9148931E+00
 4.1865555E+00 7.6674928E-01 1.9214779E+00
 4.1053679E+00 7.9076890E-01 1.9261839E+00
 4.0256042E+00 8.1652823E-01 1.9285554E+00
 3.9478149E+00 8.4397823E-01 1.9281326E+00
 3.8725402E+00 8.7299953E-01 1.9244859E+00
 3.8002902E+00 9.0339706E-01 1.9172732E+00
 3.7315348E+00 9.3490371E-01 1.9062984E+00
 3.6666764E+00 9.6721329E-01 1.8915406E+00
 3.6059785E+00 1.0000001E+00 1.8731335E+00
 3.5490894E+00 1.0328336E+00 1.8511232E+00
 5.0383962E+00 6.2470284E-01 1.8463687E+00
 4.9689270E+00 6.3862623E-01 1.8529127E+00
 4.8970871E+00 6.5277431E-01 1.8600346E+00
 4.8228095E+00 6.6748223E-01 1.8678582E+00
 4.7462334E+00 6.8289355E-01 1.8763460E+00
 4.6676382E+00 6.9913997E-01 1.8853694E+00
 4.5873775E+00 7.1637858E-01 1.8947164E+00
 4.5058637E+00 7.3477605E-01 1.9040904E+00
 4.4235485E+00 7.5449612E-01 1.9131222E+00
 4.3409096E+00 7.7568252E-01 1.9213936E+00
 4.2584399E+00 7.9844438E-01 1.9284620E+00
 4.1766452E+00 8.2284531E-01 1.9338805E+00
 4.0960482E+00 8.4889670E-01 1.9372038E+00
 4.0171899E+00 8.7655202E-01 1.9379878E+00
 3.9406145E+00 9.0570035E-01 1.9358013E+00
 3.8668407E+00 9.3616209E-01 1.9302633E+00
 3.7963439E+00 9.6769069E-01 1.9210985E+00
 3.7295324E+00 1.0000001E+00 1.9081825E+00
 3.6666764E+00 1.0327868E+00 1.8915406E+00
 3.6074492E+00 1.0656577E+00 1.8711679E+00
 5.0370979E+00 6.6271261E-01 1.8622317E+00
 4.9663589E+00 6.7805563E-01 1.8686027E+00
 4.8933164E+00 6.9371276E-01 1.8755433E+00
 4.8179048E+00 7.1003255E-01 1.8831504E+00
 4.7403032E+00 7.2715011E-01 1.8913599E+00
 4.6608214E+00 7.4520148E-01 1.9000194E+00
 4.5798529E+00 7.6433556E-01 1.9088857E+00
 4.4978445E+00 7.8470419E-01 1.9176314E+00
 4.4152791E+00 8.0644596E-01 1.9258601E+00
 4.3326595E+00 8.2967026E-01 1.9331334E+00
 4.2504981E+00 8.5444376E-01 1.9389989E+00
 4.1693131E+00 8.8078131E-01 1.9430109E+00
 4.0896332E+00 9.0864065E-01 1.9447365E+00
 4.0119945E+00 9.3791831E-01 1.9437578E+00
 3.9369217E+00 9.6844752E-01 1.9396870E+00
 3.8648996E+00 1.0000001E+00 1.9322031E+00
 3.7963439E+00 1.0323094E+00 1.9210985E+00
 3.7315349E+00 1.0650964E+00 1.9062984E+00
 3.6701829E+00 1.0980151E+00 1.8877337E+00
 5.0358758E+00 7.0276811E-01 1.8768551E+00
 4.9640005E+00 7.1954168E-01 1.8829072E+00
 4.8899019E+00 7.3673727E-01 1.8895111E+00
 4.8135384E+00 7.5468244E-01 1.8967254E+00
 4.7351189E+00 7.7351241E-01 1.9044633E+00
 4.6549901E+00 7.9335689E-01 1.9125457E+00
 4.5735805E+00 8.1435240E-01 1.9207013E+00
 4.4913689E+00 8.3662843E-01 1.9285760E+00
 4.4088642E+00 8.6029186E-01 1.9357525E+00
 4.3265883E+00 8.8541180E-01 1.9417814E+00
 4.2450654E+00 9.1200822E-01 1.9462107E+00
 4.1648183E+00 9.4004507E-01 1.9486073E+00
 4.0863705E+00 9.6942723E-01 1.9485634E+00
 4.0102409E+00 1.0000001E+00 1.9457012E+00
 3.9369217E+00 1.0315526E+00 1.9396870E+00
 3.8668407E+00 1.0638380E+00 1.9302633E+00
 3.8002902E+00 1.0966031E+00 1.9172731E+00
 3.7370274E+00 1.1295535E+00 1.9005832E+00
 5.0347851E+00 7.4476478E-01 1.8899944E+00
 4.9619133E+00 7.6296550E-01 1.8955743E+00
 4.8869325E+00 7.8168903E-01 1.9016705E+00
 4.8098179E+00 8.0123878E-01 1.9083045E+00
 4.7308117E+00 8.2174297E-01 1.9153659E+00
 4.6502945E+00 8.4332117E-01 1.9226510E+00
 4.5687270E+00 8.6609070E-01 1.9298638E+00
 4.4866146E+00 8.9015275E-01 1.9366296E+00
 4.4044860E+00 9.1557689E-01 1.9425189E+00
 4.3228746E+00 9.4238798E-01 1.9470810E+00
 4.2423082E+00 9.7055764E-01 1.9498755E+00
 4.1633045E+00 1.0000001E+00 1.9504933E+00
 4.0863705E+00 1.0305729E+00 1.9485634E+00
 4.0119945E+00 1.0620818E+00 1.9437578E+00
 3.9406145E+00 1.0942998E+00 1.9358013E+00
 3.8725402E+00 1.1270006E+00 1.9244858E+00
 3.8075874E+00 1.1599433E+00 1.9096255E+00
 5.0338326E+00 7.8852097E-01 1.9014005E+00
 4.9601348E+00 8.0811274E-01 1.9063479E+00
 4.8844661E+00 8.2832111E-01 1.9117600E+00
 4.8068243E+00 8.4941529E-01 1.9176223E+00
 4.7274814E+00 8.7151243E-01 1.9238020E+00
 4.6468499E+00 8.9471631E-01 1.9300738E+00
 4.5654172E+00 9.1911976E-01 1.9361223E+00
 4.4837089E+00 9.4479061E-01 1.9415602E+00
 4.4022658E+00 9.7175762E-01 1.9459553E+00
 4.3216247E+00 1.0000001E+00 1.9488665E+00
 4.2423082E+00 1.0294425E+00 1.9498755E+00
 4.1648183E+00 1.0599551E+00 1.9486073E+00
 4.0896332E+00 1.0913595E+00 1.9447364E+00
 4.0171899E+00 1.1234481E+00 1.9379878E+00
 3.9478149E+00 1.1560219E+00 1.9281325E+00
 3.8813953E+00 1.1888932E+00 1.9149544E+00
 5.0330446E+00 8.3381066E-01 1.9108437E+00
 4.9587063E+00 8.5472492E-01 1.9149981E+00
 4.8825624E+00 8.7633518E-01 1.9195505E+00
 4.8046309E+00 8.9887074E-01 1.9244537E+00
 4.7252125E+00 9.2243260E-01 1.9295553E+00
 4.6447462E+00 9.4710417E-01 1.9346127E+00
 4.5637397E+00 9.7294956E-01 1.9392982E+00
 4.4827314E+00 1.0000001E+00 1.9432206E+00
 4.4022658E+00 1.0282425E+00 1.9459553E+00
 4.3228746E+00 1.0576121E+00 1.9470810E+00
 4.2450654E+00 1.0879919E+00 1.9462107E+00
 4.1693131E+00 1.1192188E+00 1.9430109E+00
 4.0960482E+00 1.1511034E+00 1.9372038E+00
 4.0256042E+00 1.1834719E+00 1.9285554E+00
 3.9579444E+00 1.2161882E+00 1.9168394E+00
 5.0324360E+00 8.8035453E-01 1.9181213E+00
 4.9576602E+00 9.0248656E-01 1.9213285E+00
 4.8812659E+00 9.2537746E-01 1.9248549E+00
 4.8032918E+00 9.4920961E-01 1.9286254E+00
 4.7240629E+00 9.7406399E-01 1.9324719E+00
 4.6440386E+00 1.0000001E+00 1.9361402E+00
 4.5637397E+00 1.0270506E+00 1.9392982E+00
 4.4837089E+00 1.0552095E+00 1.9415603E+00
 4.4044860E+00 1.0844232E+00 1.9425189E+00
 4.3265884E+00 1.1145883E+00 1.9417815E+00
 4.2504981E+00 1.1455564E+00 1.9389990E+00
 4.1766452E+00 1.1771548E+00 1.9338805E+00
 4.1053679E+00 1.2092312E+00 1.9261839E+00
 4.0367000E+00 1.2416972E+00 1.9156795E+00
 5.0320221E+00 9.2782986E-01 1.9230696E+00
 4.9570220E+00 9.5104108E-01 1.9251896E+00
 4.8806092E+00 9.7505438E-01 1.9275413E+00
 4.8028415E+00 1.0000001E+00 1.9300284E+00
 4.7240629E+00 1.0259362E+00 1.9324720E+00
 4.6447462E+00 1.0528960E+00 1.9346128E+00
 4.5654172E+00 1.0808804E+00 1.9361225E+00
 4.4866147E+00 1.1098474E+00 1.9366298E+00
 4.4088642E+00 1.1397083E+00 1.9357527E+00
 4.3326595E+00 1.1703299E+00 1.9331335E+00
 4.2584399E+00 1.2015558E+00 1.9284620E+00
 4.1865555E+00 1.2332509E+00 1.9214779E+00
 4.1171114E+00 1.2653685E+00 1.9119385E+00
 5.0318124E+00 9.7587874E-01 1.9255735E+00
 4.9568074E+00 1.0000001E+00 1.9264872E+00
 4.8806092E+00 1.0249458E+00 1.9275414E+00
 4.8032918E+00 1.0507906E+00 1.9286255E+00
 4.7252126E+00 1.0775676E+00 1.9295555E+00
 4.6468500E+00 1.1052839E+00 1.9300740E+00
 4.5687271E+00 1.1339095E+00 1.9298640E+00
 4.4913690E+00 1.1633717E+00 1.9285763E+00
 4.4152792E+00 1.1935542E+00 1.9258603E+00
 4.3409096E+00 1.2243176E+00 1.9213937E+00
 4.2686321E+00 1.2555414E+00 1.9148931E+00
 4.1986311E+00 1.2872154E+00 1.9060900E+00
 5.0318124E+00 1.0241214E+00 1.9255735E+00
 4.9570219E+00 1.0489591E+00 1.9251896E+00
 4.8812658E+00 1.0746227E+00 1.9248550E+00
 4.8046309E+00 1.1011295E+00 1.9244539E+00
 4.7274815E+00 1.1284878E+00 1.9238024E+00
 4.6502947E+00 1.1566791E+00 1.9226513E+00
 4.5735806E+00 1.1856478E+00 1.9207017E+00
 4.4978446E+00 1.2152960E+00 1.9176317E+00
 4.4235486E+00 1.2455041E+00 1.9131224E+00
 4.3510898E+00 1.2761656E+00 1.9068755E+00
 4.2807390E+00 1.3073031E+00 1.8985890E+00
 5.0320220E+00 1.0721702E+00 1.9230696E+00
 4.9576601E+00 1.0975136E+00 1.9213285E+00
 4.8825622E+00 1.1236650E+00 1.9195507E+00
 4.8068243E+00 1.1505849E+00 1.9176226E+00
 4.7308118E+00 1.1782573E+00 1.9153663E+00
 4.6549903E+00 1.2066434E+00 1.9125462E+00
 4.5798531E+00 1.2356647E+00 1.9088861E+00
 4.5058638E+00 1.2652242E+00 1.9040907E+00
 4.4334432E+00 1.2952308E+00 1.8978624E+00
 4.3629481E+00 1.3257406E+00 1.8898714E+00
 5.0324359E+00 1.1196456E+00 1.9181212E+00
 4.9587061E+00 1.1452752E+00 1.9149981E+00
 4.8844660E+00 1.1716791E+00 1.9117602E+00
 4.8098179E+00 1.1987615E+00 1.9083049E+00
 4.7351191E+00 1.2264879E+00 1.9044638E+00
 4.6608216E+00 1.2547988E+00 1.9000199E+00
 4.5873776E+00 1.2836217E+00 1.8947169E+00
 4.5152244E+00 1.3128826E+00 1.8882778E+00
 4.4447977E+00 1.3426740E+00 1.8803575E+00
 5.0330444E+00 1.1661894E+00 1.9108435E+00
 4.9601345E+00 1.1918874E+00 1.9063479E+00
 4.8869322E+00 1.2183112E+00 1.9016707E+00
 4.8135384E+00 1.2453178E+00 1.8967259E+00
 4.7403034E+00 1.2728502E+00 1.8913605E+00
 4.6676384E+00 1.3008604E+00 1.8853700E+00
 4.5959855E+00 1.3292920E+00 1.8785133E+00
 4.5258470E+00 1.3582790E+00 1.8704466E+00
 5.0338324E+00 1.2114791E+00 1.9014003E+00
 4.9619129E+00 1.2370346E+00 1.8955743E+00
 4.8899016E+00 1.2632630E+00 1.8895114E+00
 4.8179047E+00 1.2899677E+00 1.8831508E+00
 4.7462336E+00 1.3171068E+00 1.8763466E+00
 4.6753089E+00 1.3446405E+00 1.8689059E+00
 4.6056805E+00 1.3727470E+00 1.8604991E+00
 5.0347847E+00 1.2552353E+00 1.8899942E+00
 4.9640000E+00 1.2804585E+00 1.8829072E+00
 4.8933161E+00 1.3062875E+00 1.8755435E+00
 4.8228095E+00 1.3325181E+00 1.8678586E+00
 4.7528204E+00 1.3591041E+00 1.8597184E+00
 4.6839145E+00 1.3862702E+00 1.8508177E+00
 5.0358755E+00 1.2972319E+00 1.8768548E+00
 4.9663584E+00 1.3219445E+00 1.8686027E+00
 4.8970869E+00 1.3472259E+00 1.8600348E+00
 4.8281977E+00 1.3728387E+00 1.8511342E+00
 4.7602129E+00 1.3990269E+00 1.8416321E+00
 5.0370976E+00 1.3372874E+00 1.8622314E+00
 4.9689265E+00 1.3613739E+00 1.8529126E+00
 4.9012162E+00 1.3859805E+00 1.8432516E+00
 4.8342887E+00 1.4111705E+00 1.8330951E+00
 5.0383959E+00 1.3752972E+00 1.8463684E+00
 4.9717020E+00 1.3986373E+00 1.8361056E+00
 4.9059315E+00 1.4228189E+00 1.8252898E+00
 5.0398462E+00 1.4112145E+00 1.8295036E+00
 4.9750540E+00 1.4340976E+00 1.8182135E+00
 5.0413919E+00 1.4451850E+00 1.8117857E+00
 5.1059385E+00 1.4580326E+00 1.8048074E+00
 5.1059465E+00 1.4252794E+00 1.8226007E+00
 5.1059477E+00 1.3907088E+00 1.8395866E+00
 5.1059501E+00 1.3539203E+00 1.8557530E+00
 5.1059521E+00 1.3150853E+00 1.8708069E+00
 5.1059543E+00 1.2742783E+00 1.8845142E+00
 5.1059561E+00 1.2316645E+00 1.8966234E+00
 5.1059577E+00 1.1874343E+00 1.9069051E+00
 5.1059590E+00 1.1418400E+00 1.9151473E+00
 5.1059599E+00 1.0951759E+00 1.9211720E+00
 5.1059605E+00 1.0477756E+00 1.9248436E+00
 5.1059607E+00 1.0000000E+00 1.9260771E+00
 5.1059605E+00 9.5222446E-01 1.9248437E+00
 5.1059600E+00 9.0482419E-01 1.9211722E+00
 5.1059590E+00 8.5816001E-01 1.9151475E+00
 5.1059578E+00 8.1256577E-01 1.9069054E+00
 5.1059561E+00 7.6833555E-01 1.8966237E+00
 5.1059542E+00 7.2572171E-01 1.8845145E+00
 5.1059520E+00 6.8491475E-01 1.8708073E+00
 5.1059500E+00 6.4607975E-01 1.8557533E+00
 5.1059477E+00 6.0929119E-01 1.8395869E+00
 5.1059465E+00 5.7472061E-01 1.8226010E+00
 5.1059385E+00 5.4196741E-01 1.8048076E+00
 5.1650635E+00 5.2147303E-01 1.7936785E+00
 5.2297797E+00 5.3068560E-01 1.8006832E+00
 5.2975428E+00 5.4023041E-01 1.8083961E+00
 5.3679237E+00 5.5013505E-01 1.8167837E+00
 5.4408536E+00 5.6052114E-01 1.8257953E+00
 5.5160993E+00 5.7152136E-01 1.8353046E+00
 5.5934402E+00 5.8331261E-01 1.8451221E+00
 5.6725750E+00 5.9609103E-01 1.8549743E+00
 5.7531493E+00 6.1007286E-01 1.8645104E+00
 5.8347492E+00 6.2547550E-01 1.8733124E+00
 5.9169079E+00 6.4249840E-01 1.8809233E+00
 5.9991161E+00 6.6129866E-01 1.8868871E+00
 6.0808373E+00 6.8197098E-01 1.8907952E+00
 6.1615215E+00 7.0453686E-01 1.8923210E+00
 6.2406148E+00 7.2894683E-01 1.8912310E+00
 6.3175733E+00 7.5509069E-01 1.8873779E+00
 6.3918842E+00 7.8281025E-01 1.8806850E+00
 6.4630862E+00 8.1190895E-01 1.8711354E+00
 6.5307867E+00 8.4216042E-01 1.8587682E+00
 6.5946713E+00 8.7331606E-01 1.8436776E+00
 6.6545031E+00 9.0511393E-01 1.8260135E+00
 6.7100752E+00 9.3726553E-01 1.8059914E+00
 6.7611619E+00 9.6944519E-01 1.7839089E+00
 5.1704815E+00 1.4456733E+00 1.8126651E+00
 5.2367935E+00 1.4350392E+00 1.8199772E+00
 5.3058717E+00 1.4241661E+00 1.8279122E+00
 5.3774580E+00 1.4128502E+00 1.8364956E+00
 5.4514752E+00 1.4009417E+00 1.8456709E+00
 5.5277271E+00 1.3882996E+00 1.8552894E+00
 5.6059400E+00 1.3747509E+00 1.8651271E+00
 5.6857858E+00 1.3601023E+00 1.8748777E+00
 5.7668742E+00 1.3441526E+00 1.8841559E+00
 5.8487607E+00 1.3267091E+00 1.8925150E+00
 5.9309511E+00 1.3076095E+00 1.8994788E+00
 6.0129157E+00 1.2867435E+00 1.9045875E+00
 6.0941049E+00 1.2640686E+00 1.9074439E+00
 6.1739624E+00 1.2396147E+00 1.9077446E+00
 6.2519367E+00 1.2134785E+00 1.9052865E+00
 6.3274978E+00 1.1858106E+00 1.8999557E+00
 6.4001570E+00 1.1568037E+00 1.8917108E+00
 6.4694885E+00 1.1266811E+00 1.8805728E+00
 6.5351427E+00 1.0956859E+00 1.8666194E+00
 6.5968588E+00 1.0640624E+00 1.8499814E+00
 6.6545049E+00 1.0320443E+00 1.8308184E+00
 6.7083226E+00 1.0000001E+00 1.8091926E+00
 5.1720380E+00 1.4116815E+00 1.8304216E+00
 5.2401549E+00 1.3995302E+00 1.8379493E+00
 5.3105947E+00 1.3872433E+00 1.8459834E+00
 5.3835542E+00 1.3743951E+00 1.8546637E+00
 5.4588715E+00 1.3608554E+00 1.8638914E+00
 5.5363365E+00 1.3464685E+00 1.8734983E+00
 5.6156412E+00 1.3310638E+00 1.8832268E+00
 5.6964178E+00 1.3144564E+00 1.8927347E+00
 5.7782390E+00 1.2964631E+00 1.9016010E+00
 5.8606241E+00 1.2769211E+00 1.9093487E+00
 5.9430475E+00 1.2557089E+00 1.9154829E+00
 6.0249554E+00 1.2327656E+00 1.9195413E+00
 6.1057817E+00 1.2081011E+00 1.9211404E+00
 6.1849631E+00 1.1817965E+00 1.9200036E+00
 6.2619515E+00 1.1539940E+00 1.9159618E+00
 6.3362315E+00 1.1248832E+00 1.9089391E+00
 6.4073417E+00 1.0946875E+00 1.8989347E+00
 6.4748948E+00 1.0636503E+00 1.8860113E+00
 6.5385997E+00 1.0320136E+00 1.8702849E+00
 6.5983217E+00 1.0000001E+00 1.8518961E+00
 6.6545049E+00 9.6795582E-01 1.8308184E+00
 5.1734913E+00 1.3757317E+00 1.8473269E+00
 5.2429313E+00 1.3621977E+00 1.8548318E+00
 5.3147227E+00 1.3483798E+00 1.8628711E+00
 5.3889393E+00 1.3339237E+00 1.8715101E+00
 5.4654546E+00 1.3186666E+00 1.8806443E+00
 5.5440047E+00 1.3024614E+00 1.8900720E+00
 5.6242499E+00 1.2851415E+00 1.8995042E+00
 5.7057832E+00 1.2665381E+00 1.9085636E+00
 5.7881402E+00 1.2464935E+00 1.9167972E+00
 5.8708062E+00 1.2248817E+00 1.9237043E+00
 5.9532279E+00 1.2016274E+00 1.9287798E+00
 6.0348321E+00 1.1767215E+00 1.9315684E+00
 6.1150432E+00 1.1502266E+00 1.9317094E+00
 6.1932988E+00 1.1222722E+00 1.9289601E+00
 6.2690628E+00 1.0930418E+00 1.9231917E+00
 6.3418445E+00 1.0627574E+00 1.9143709E+00
 6.4112198E+00 1.0316628E+00 1.9025404E+00
 6.4768589E+00 1.0000001E+00 1.8878025E+00
 6.5385997E+00 9.6798656E-01 1.8702849E+00
 6.5968588E+00 9.3593769E-01 1.8499814E+00
 5.1747936E+00 1.3376858E+00 1.8632270E+00
 5.2455022E+00 1.3226915E+00 1.8705923E+00
 5.3184942E+00 1.3073209E+00 1.8784759E+00
 5.3938431E+00 1.2912085E+00 1.8869131E+00
 5.4713831E+00 1.2742034E+00 1.8957692E+00
 5.5508209E+00 1.2561591E+00 1.9048161E+00
 5.6317767E+00 1.2369230E+00 1.9137325E+00
 5.7138077E+00 1.2163482E+00 1.9221105E+00
 5.7964156E+00 1.1943104E+00 1.9294717E+00
 5.8790572E+00 1.1707267E+00 1.9353003E+00
 5.9611588E+00 1.1455729E+00 1.9390923E+00
 6.0421364E+00 1.1188938E+00 1.9404096E+00
 6.1214148E+00 1.0908034E+00 1.9389235E+00
 6.1984431E+00 1.0614751E+00 1.9344321E+00
 6.2727085E+00 1.0311265E+00 1.9268513E+00
 6.3437563E+00 1.0000001E+00 1.9161930E+00
 6.4112198E+00 9.6833729E-01 1.9025404E+00
 6.4748948E+00 9.3634980E-01 1.8860113E+00
 6.5351427E+00 9.0431424E-01 1.8666193E+00
 5.1760194E+00 1.2975889E+00 1.8778858E+00
 5.2478628E+00 1.2811192E+00 1.8849622E+00
 5.3219091E+00 1.2641628E+00 1.8925314E+00
 5.3982083E+00 1.2463782E+00 1.9005869E+00
 5.4765657E+00 1.2276186E+00 1.9089687E+00
 5.5566516E+00 1.2077490E+00 1.9174207E+00
 5.6380511E+00 1.1866357E+00 1.9255937E+00
 5.7202879E+00 1.1641610E+00 1.9330547E+00
 5.8028354E+00 1.1402402E+00 1.9393085E+00
 5.8851290E+00 1.1148392E+00 1.9438356E+00
 5.9665832E+00 1.0879871E+00 1.9461440E+00
 6.0466133E+00 1.0597812E+00 1.9458238E+00
 6.1246548E+00 1.0303823E+00 1.9425859E+00
 6.2001791E+00 1.0000001E+00 1.9362741E+00
 6.2727085E+00 9.6887366E-01 1.9268513E+00
 6.3418445E+00 9.3724273E-01 1.9143709E+00
 6.4073417E+00 9.0531266E-01 1.8989347E+00
 6.4694885E+00 8.7331899E-01 1.8805728E+00
 5.1771137E+00 1.2555467E+00 1.8910570E+00
 5.2499523E+00 1.2376007E+00 1.8976877E+00
 5.3248791E+00 1.2190660E+00 1.9047672E+00
 5.4019280E+00 1.1996281E+00 1.9122499E+00
 5.4808717E+00 1.1791522E+00 1.9199502E+00
 5.5613469E+00 1.1575190E+00 1.9275873E+00
 5.6429065E+00 1.1346201E+00 1.9347889E+00
 5.7250460E+00 1.1103734E+00 1.9411050E+00
 5.8072172E+00 1.0847388E+00 1.9460336E+00
 5.8888431E+00 1.0577332E+00 1.9490633E+00
 5.9693359E+00 1.0294383E+00 1.9497255E+00
 6.0481209E+00 1.0000001E+00 1.9476477E+00
 6.1246548E+00 9.6961783E-01 1.9425859E+00
 6.1984431E+00 9.3852499E-01 1.9344321E+00
 6.2690628E+00 9.0695831E-01 1.9231917E+00
 6.3362315E+00 8.7511697E-01 1.9089391E+00
 6.4001570E+00 8.4319640E-01 1.8917108E+00
 5.1780692E+00 1.2117405E+00 1.9024913E+00
 5.2517326E+00 1.1923509E+00 1.9085115E+00
 5.3273458E+00 1.1722781E+00 1.9149206E+00
 5.4049207E+00 1.1512461E+00 1.9216351E+00
 5.4842008E+00 1.1291356E+00 1.9284469E+00
 5.5647913E+00 1.1058490E+00 1.9350542E+00
 5.6462178E+00 1.0813088E+00 1.9410686E+00
 5.7279542E+00 1.0554724E+00 1.9460323E+00
 5.8094394E+00 1.0283471E+00 1.9494481E+00
 5.8900931E+00 1.0000001E+00 1.9508241E+00
 5.9693359E+00 9.7056184E-01 1.9497255E+00
 6.0466133E+00 9.4021895E-01 1.9458238E+00
 6.1214148E+00 9.0919677E-01 1.9389235E+00
 6.1932988E+00 8.7772796E-01 1.9289601E+00
 6.2619515E+00 8.4600614E-01 1.9159618E+00
 6.3274978E+00 8.1418958E-01 1.8999557E+00
 5.1788598E+00 1.1663971E+00 1.9119581E+00
 5.2531625E+00 1.1456293E+00 1.9172022E+00
 5.3292497E+00 1.1240996E+00 1.9227605E+00
 5.4071134E+00 1.1015757E+00 1.9285159E+00
 5.4864688E+00 1.0779598E+00 1.9342410E+00
 5.5668948E+00 1.0531802E+00 1.9396195E+00
 5.6478960E+00 1.0271937E+00 1.9442547E+00
 5.7289326E+00 1.0000001E+00 1.9476914E+00
 5.8094394E+00 9.7165305E-01 1.9494481E+00
 5.8888431E+00 9.4226693E-01 1.9490633E+00
 5.9665832E+00 9.1201308E-01 1.9461440E+00
 6.0421364E+00 8.8110632E-01 1.9404096E+00
 6.1150432E+00 8.4977357E-01 1.9317094E+00
 6.1849631E+00 8.1820360E-01 1.9200036E+00
 6.2519367E+00 7.8652168E-01 1.9052865E+00
 5.1794703E+00 1.1197963E+00 1.9192540E+00
 5.2542095E+00 1.0977528E+00 1.9235624E+00
 5.3305461E+00 1.0748862E+00 1.9280986E+00
 5.4084519E+00 1.0510154E+00 1.9327176E+00
 5.4876180E+00 1.0260675E+00 1.9371782E+00
 5.5676024E+00 1.0000001E+00 1.9411558E+00
 5.6478960E+00 9.7280641E-01 1.9442547E+00
 5.7279542E+00 9.4452772E-01 1.9460323E+00
 5.8072172E+00 9.1526129E-01 1.9460336E+00
 5.8851290E+00 8.8516092E-01 1.9438355E+00
 5.9611588E+00 8.5442723E-01 1.9390923E+00
 6.0348321E+00 8.2327868E-01 1.9315684E+00
 6.1057817E+00 7.9189901E-01 1.9211404E+00
 6.1739624E+00 7.6038542E-01 1.9077446E+00
 5.1798855E+00 1.0722617E+00 1.9242149E+00
 5.2548482E+00 1.0490797E+00 1.9274417E+00
 5.3312026E+00 1.0250341E+00 1.9308020E+00
 5.4089020E+00 1.0000001E+00 1.9341307E+00
 5.4876179E+00 9.7393262E-01 1.9371782E+00
 5.5668948E+00 9.4681997E-01 1.9396195E+00
 5.6462178E+00 9.1869133E-01 1.9410686E+00
 5.7250460E+00 8.8962674E-01 1.9411050E+00
 5.8028354E+00 8.5975989E-01 1.9393085E+00
 5.8790572E+00 8.2927346E-01 1.9353003E+00
 5.9532279E+00 7.9837271E-01 1.9287798E+00
 6.0249554E+00 7.6723452E-01 1.9195413E+00
 6.0941049E+00 7.3593158E-01 1.9074439E+00
 5.1800957E+00 1.0241520E+00 1.9267252E+00
 5.2550629E+00 1.0000000E+00 1.9287455E+00
 5.3312026E+00 9.7496603E-01 1.9308021E+00
 5.4084519E+00 9.4898474E-01 1.9327176E+00
 5.4864688E+00 9.2204033E-01 1.9342410E+00
 5.5647913E+00 8.9415111E-01 1.9350542E+00
 5.6429065E+00 8.6538000E-01 1.9347889E+00
 5.7202879E+00 8.3583919E-01 1.9330547E+00
 5.7964156E+00 8.0568978E-01 1.9294716E+00
 5.8708062E+00 7.7511841E-01 1.9237043E+00
 5.9430476E+00 7.4429119E-01 1.9154829E+00
 6.0129157E+00 7.1325661E-01 1.9045875E+00
 5.1800957E+00 9.7584807E-01 1.9267252E+00
 5.2548481E+00 9.5092043E-01 1.9274418E+00
 5.3305460E+00 9.2511388E-01 1.9280987E+00
 5.4071134E+00 8.9842440E-01 1.9285159E+00
 5.4842008E+00 8.7086456E-01 1.9284469E+00
 5.5613469E+00 8.4248117E-01 1.9275874E+00
 5.6380511E+00 8.1336447E-01 1.9255937E+00
 5.7138077E+00 7.8365190E-01 1.9221105E+00
 5.7881402E+00 7.5350664E-01 1.9167972E+00
 5.8606242E+00 7.2307904E-01 1.9093487E+00
 5.9309511E+00 6.9239063E-01 1.8994788E+00
 5.1798855E+00 9.2773838E-01 1.9242150E+00
 5.2542094E+00 9.0224726E-01 1.9235625E+00
 5.3292496E+00 8.7590051E-01 1.9227606E+00
 5.4049207E+00 8.4875407E-01 1.9216352E+00
 5.4808717E+00 8.2084793E-01 1.9199503E+00
 5.5566516E+00 7.9225113E-01 1.9174207E+00
 5.6317767E+00 7.6307710E-01 1.9137325E+00
 5.7057832E+00 7.3346209E-01 1.9085636E+00
 5.7782390E+00 7.0353705E-01 1.9016010E+00
 5.8487607E+00 6.7329101E-01 1.8925150E+00
 5.1794703E+00 8.8020376E-01 1.9192542E+00
 5.2531623E+00 8.5437078E-01 1.9172024E+00
 5.3273457E+00 8.2772198E-01 1.9149208E+00
 5.4019279E+00 8.0037198E-01 1.9122500E+00
 5.4765657E+00 7.7238154E-01 1.9089688E+00
 5.5508209E+00 7.4384107E-01 1.9048161E+00
 5.6242499E+00 7.1485863E-01 1.8995042E+00
 5.6964178E+00 6.8554371E-01 1.8927347E+00
 5.7668742E+00 6.5584752E-01 1.8841559E+00
 5.1788597E+00 8.3360297E-01 1.9119583E+00
 5.2517325E+00 8.0764921E-01 1.9085117E+00
 5.3248790E+00 7.8093415E-01 1.9047674E+00
 5.3982082E+00 7.5362192E-01 1.9005870E+00
 5.4713831E+00 7.2579668E-01 1.8957693E+00
 5.5440047E+00 6.9753876E-01 1.8900720E+00
 5.6156412E+00 6.6893629E-01 1.8832267E+00
 5.6857858E+00 6.3989781E-01 1.8748777E+00
 5.1780691E+00 7.8825955E-01 1.9024916E+00
 5.2499522E+00 7.6239934E-01 1.8976880E+00
 5.3219090E+00 7.3583729E-01 1.8925315E+00
 5.3938430E+00 7.0879159E-01 1.8869132E+00
 5.4654545E+00 6.8133349E-01 1.8806444E+00
 5.5363365E+00 6.5353161E-01 1.8734983E+00
 5.6059400E+00 6.2524928E-01 1.8651271E+00
 5.1771136E+00 7.4445337E-01 1.8910573E+00
 5.2478626E+00 7.1888091E-01 1.8849624E+00
 5.3184941E+00 6.9267914E-01 1.8784761E+00
 5.3889393E+00 6.6607637E-01 1.8715102E+00
 5.4588715E+00 6.3914470E-01 1.8638914E+00
 5.5277271E+00 6.1170055E-01 1.8552894E+00
 5.1760192E+00 7.0241112E-01 1.8778861E+00
 5.2455021E+00 6.7730855E-01 1.8705926E+00
 5.3147225E+00 6.5162025E-01 1.8628713E+00
 5.3835541E+00 6.2560494E-01 1.8546639E+00
 5.4514752E+00 5.9905842E-01 1.8456709E+00
 5.1747934E+00 6.6231420E-01 1.8632273E+00
 5.2429312E+00 6.3780238E-01 1.8548321E+00
 5.3105945E+00 6.1275676E-01 1.8459836E+00
 5.3774579E+00 5.8714990E-01 1.8364957E+00
 5.1734911E+00 6.2426829E-01 1.8473272E+00
 5.2401547E+00 6.0046987E-01 1.8379495E+00
 5.3058716E+00 5.7583391E-01 1.8279124E+00
 5.1720378E+00 5.8831849E-01 1.8304219E+00
 5.2367934E+00 5.6496084E-01 1.8199774E+00
 5.1704814E+00 5.5432676E-01 1.8126654E+00
 5.0693190E+00 1.5095493E+00 1.7730174E+00
 5.0290920E+00 1.5343287E+00 1.7561264E+00
 4.9874119E+00 1.5597938E+00 1.7377944E+00
 4.9441117E+00 1.5858630E+00 1.7179387E+00
 4.8994501E+00 1.6124452E+00 1.6964654E+00
 4.8535991E+00 1.6394184E+00 1.6732801E+00
 4.8068015E+00 1.6666464E+00 1.6482781E+00
 4.7593329E+00 1.6939462E+00 1.6213753E+00
 4.7115091E+00 1.7211041E+00 1.5925013E+00
 4.6636747E+00 1.7478720E+00 1.5616148E+00
 4.6161935E+00 1.7739757E+00 1.5287096E+00
 4.5694363E+00 1.7991236E+00 1.4938256E+00
 4.5237675E+00 1.8230191E+00 1.4570545E+00
 4.4795321E+00 1.8453748E+00 1.4185442E+00
 4.4370436E+00 1.8659278E+00 1.3784977E+00
 4.3965737E+00 1.8844527E+00 1.3371679E+00
 4.3583444E+00 1.9007732E+00 1.2948484E+00
 4.3225239E+00 1.9147694E+00 1.2518606E+00
 4.2892235E+00 1.9263811E+00 1.2085386E+00
 4.2585014E+00 1.9356070E+00 1.1652136E+00
 4.2303684E+00 1.9424994E+00 1.1222031E+00
 4.2048287E+00 1.9471504E+00 1.0798249E+00
 4.1818787E+00 1.9496905E+00 1.0384046E+00
 3.4314666E+00 1.0891031E+00 1.7897420E+00
 3.4215437E+00 1.1471991E+00 1.7752566E+00
 3.4151339E+00 1.2072385E+00 1.7575657E+00
 3.4130206E+00 1.2689870E+00 1.7366340E+00
 3.4156973E+00 1.3319232E+00 1.7123315E+00
 3.4236106E+00 1.3953563E+00 1.6846149E+00
 3.4371225E+00 1.4584830E+00 1.6535371E+00
 3.4564737E+00 1.5204153E+00 1.6192596E+00
 3.4817503E+00 1.5802222E+00 1.5820581E+00
 3.5128599E+00 1.6369798E+00 1.5423238E+00
 3.5495211E+00 1.6898294E+00 1.5005554E+00
 3.5912685E+00 1.7380396E+00 1.4573395E+00
 3.6374770E+00 1.7810617E+00 1.4133208E+00
 3.6874021E+00 1.8185710E+00 1.3691636E+00
 3.7402313E+00 1.8504844E+00 1.3255090E+00
 3.7951387E+00 1.8769510E+00 1.2829350E+00
 3.8513332E+00 1.8983172E+00 1.2419241E+00
 3.9080963E+00 1.9150721E+00 1.2028428E+00
 3.9648008E+00 1.9277854E+00 1.1659386E+00
 4.0209469E+00 1.9370508E+00 1.1313405E+00
 4.0761351E+00 1.9434396E+00 1.0990620E+00
 4.1300509E+00 1.9474835E+00 1.0688370E+00
 3.4850992E+00 1.1235559E+00 1.8138318E+00
 3.4779432E+00 1.1827625E+00 1.7990530E+00
 3.4743984E+00 1.2434628E+00 1.7808995E+00
 3.4752955E+00 1.3055291E+00 1.7593216E+00
 3.4810961E+00 1.3683964E+00 1.7341924E+00
 3.4921905E+00 1.4313111E+00 1.7054863E+00
 3.5088660E+00 1.4934144E+00 1.6732908E+00
 3.5312722E+00 1.5537841E+00 1.6378165E+00
 3.5593908E+00 1.6114871E+00 1.5993995E+00
 3.5930218E+00 1.6656369E+00 1.5584978E+00
 3.6317824E+00 1.7154556E+00 1.5156761E+00
 3.6751259E+00 1.7603334E+00 1.4715781E+00
 3.7223759E+00 1.7998733E+00 1.4268884E+00
 3.7727731E+00 1.8339154E+00 1.3822886E+00
 3.8255263E+00 1.8625340E+00 1.3384130E+00
 3.8798591E+00 1.8860077E+00 1.2958108E+00
 3.9350498E+00 1.9047697E+00 1.2549195E+00
 3.9904548E+00 1.9193484E+00 1.2160544E+00
 4.0455492E+00 1.9303112E+00 1.1794045E+00
 4.0999160E+00 1.9382209E+00 1.1450248E+00
 4.1532874E+00 1.9436298E+00 1.1125412E+00
 3.5436694E+00 1.1572358E+00 1.8349550E+00
 3.5393452E+00 1.2170042E+00 1.8196503E+00
 3.5387774E+00 1.2779782E+00 1.8008378E+00
 3.5427528E+00 1.3399561E+00 1.7784277E+00
 3.5516832E+00 1.4023129E+00 1.7523088E+00
 3.5658894E+00 1.4642427E+00 1.7224872E+00
 3.5855741E+00 1.5248507E+00 1.6890983E+00
 3.6107895E+00 1.5832092E+00 1.6524125E+00
 3.6414158E+00 1.6384163E+00 1.6128340E+00
 3.6771563E+00 1.6896585E+00 1.5708899E+00
 3.7175487E+00 1.7362711E+00 1.5272060E+00
 3.7619934E+00 1.7777877E+00 1.4824704E+00
 3.8097940E+00 1.8139697E+00 1.4373899E+00
 3.8602035E+00 1.8448100E+00 1.3926415E+00
 3.9124698E+00 1.8705100E+00 1.3488313E+00
 3.9658757E+00 1.8914355E+00 1.3064612E+00
 4.0197668E+00 1.9080610E+00 1.2659131E+00
 4.0735976E+00 1.9209163E+00 1.2274397E+00
 4.1269342E+00 1.9305443E+00 1.1911446E+00
 4.1794852E+00 1.9375059E+00 1.1567289E+00
 3.6069508E+00 1.1901004E+00 1.8526153E+00
 3.6055863E+00 1.2500208E+00 1.8365743E+00
 3.6080963E+00 1.3108239E+00 1.8169126E+00
 3.6151906E+00 1.3722356E+00 1.7935148E+00
 3.6272124E+00 1.4335767E+00 1.7662973E+00
 3.6444012E+00 1.4940099E+00 1.7353116E+00
 3.6668689E+00 1.5526341E+00 1.7007522E+00
 3.6945715E+00 1.6085509E+00 1.6629562E+00
 3.7272985E+00 1.6609265E+00 1.6223969E+00
 3.7646769E+00 1.7090535E+00 1.5796633E+00
 3.8061920E+00 1.7524029E+00 1.5354273E+00
 3.8512212E+00 1.7906587E+00 1.4904002E+00
 3.8990744E+00 1.8237278E+00 1.4452850E+00
 3.9490358E+00 1.8517253E+00 1.4007300E+00
 4.0004048E+00 1.8749370E+00 1.3572921E+00
 4.0525267E+00 1.8937700E+00 1.3154150E+00
 4.1048454E+00 1.9087039E+00 1.2754126E+00
 4.1569103E+00 1.9202496E+00 1.2374536E+00
 4.2084231E+00 1.9289649E+00 1.2013099E+00
 3.6746560E+00 1.2217756E+00 1.8664988E+00
 3.6763252E+00 1.2814223E+00 1.8495328E+00
 3.6819417E+00 1.3415979E+00 1.8288667E+00