# TIME = 13.000000
VARIABLES = X, Y, Z, FX, FY, FZ
ZONE N=29232 E=58212 F=FEPOINT ET=TRIANGLE
  0.000E+00  9.502E-01  1.243E-03 3.2352351E+00 9.2329616E-02 1.8570486E+00
  0.000E+00  1.000E+00  0.000E+00 3.2337921E+00 -2.2814467E-06 1.8594173E+00
  4.318E-02  9.751E-01  3.108E-04 3.2336192E+00 4.5253418E-02 1.8223248E+00
  0.000E+00  1.050E+00  1.243E-03 3.2352346E+00 -9.2334169E-02 1.8570485E+00
  4.318E-02  1.025E+00  3.108E-04 3.2336189E+00 -4.5257956E-02 1.8223248E+00
  0.000E+00  1.100E+00  4.969E-03 3.2407633E+00 -1.8475191E-01 1.8501312E+00
  4.318E-02  1.075E+00  2.796E-03 3.2370730E+00 -1.3580804E-01 1.8177386E+00
  0.000E+00  1.149E+00  1.117E-02 3.2526527E+00 -2.7726929E-01 1.8389731E+00
  4.318E-02  1.124E+00  7.761E-03 3.2459457E+00 -2.2647861E-01 1.8088532E+00
  0.000E+00  1.198E+00  1.983E-02 3.2703131E+00 -3.6928496E-01 1.8233704E+00
  4.318E-02  1.174E+00  1.519E-02 3.2614089E+00 -3.1705839E-01 1.7958008E+00
  0.000E+00  1.247E+00  3.092E-02 3.2868711E+00 -4.5958537E-01 1.8026149E+00
  4.318E-02  1.223E+00  2.507E-02 3.2795912E+00 -4.0657642E-01 1.7780736E+00
  0.000E+00  1.295E+00  4.443E-02 3.2943414E+00 -5.4787646E-01 1.7767633E+00
  4.318E-02  1.271E+00  3.738E-02 3.2916530E+00 -4.9402175E-01 1.7551055E+00
  0.000E+00  1.342E+00  6.031E-02 3.3058384E+00 -6.3543667E-01 1.7470829E+00
  4.318E-02  1.318E+00  5.207E-02 3.2954392E+00 -5.8005079E-01 1.7277311E+00
  0.000E+00  1.388E+00  7.852E-02 3.3394483E+00 -7.2240606E-01 1.7137745E+00
  4.318E-02  1.365E+00  6.913E-02 3.3240829E+00 -6.6577965E-01 1.6969905E+00
  0.000E+00  1.434E+00  9.903E-02 3.3479978E+00 -8.0701842E-01 1.6756059E+00
  4.318E-02  1.411E+00  8.849E-02 3.3498599E+00 -7.5003900E-01 1.6620268E+00
  0.000E+00  1.478E+00  1.218E-01 3.3658959E+00 -8.8930251E-01 1.6331076E+00
  4.318E-02  1.456E+00  1.101E-01 3.3479550E+00 -8.3173528E-01 1.6223360E+00
  0.000E+00  1.521E+00  1.467E-01 3.3915508E+00 -9.6968579E-01 1.5868437E+00
  4.318E-02  1.500E+00  1.340E-01 3.3818946E+00 -9.1151163E-01 1.5788520E+00
  0.000E+00  1.563E+00  1.738E-01 3.3887585E+00 -1.0475844E+00 1.5365230E+00
  4.318E-02  1.543E+00  1.600E-01 3.3816532E+00 -9.8916110E-01 1.5315184E+00
  0.000E+00  1.604E+00  2.029E-01 3.4097071E+00 -1.1228550E+00 1.4823780E+00
  4.318E-02  1.584E+00  1.881E-01 3.4127175E+00 -1.0642358E+00 1.4802667E+00
  0.000E+00  1.643E+00  2.340E-01 3.4173405E+00 -1.1953633E+00 1.4245796E+00
  4.318E-02  1.623E+00  2.182E-01 3.4037494E+00 -1.1367104E+00 1.4253904E+00
  0.000E+00  1.680E+00  2.669E-01 3.4188061E+00 -1.2648819E+00 1.3632204E+00
  4.318E-02  1.662E+00  2.502E-01 3.4201492E+00 -1.2063468E+00 1.3669595E+00
  0.000E+00  1.716E+00  3.018E-01 3.4201110E+00 -1.3312622E+00 1.2984751E+00
  4.318E-02  1.698E+00  2.841E-01 3.4201162E+00 -1.2729841E+00 1.3051263E+00
  0.000E+00  1.750E+00  3.383E-01 3.4201434E+00 -1.3943335E+00 1.2305034E+00
  4.318E-02  1.733E+00  3.198E-01 3.4188105E+00 -1.3364580E+00 1.2400489E+00
  0.000E+00  1.782E+00  3.765E-01 3.4037430E+00 -1.4539348E+00 1.1594726E+00
  4.318E-02  1.766E+00  3.572E-01 3.4173440E+00 -1.3966126E+00 1.1718951E+00
  0.000E+00  1.812E+00  4.163E-01 3.4127105E+00 -1.5099104E+00 1.0855470E+00
  4.318E-02  1.797E+00  3.962E-01 3.4097099E+00 -1.4532766E+00 1.1008105E+00
  0.000E+00  1.840E+00  4.575E-01 3.3816453E+00 -1.5621881E+00 1.0089688E+00
  4.318E-02  1.826E+00  4.367E-01 3.3887609E+00 -1.5063589E+00 1.0270179E+00
  0.000E+00  1.866E+00  5.000E-01 3.3818857E+00 -1.6104688E+00 9.2976408E-01
  4.318E-02  1.853E+00  4.786E-01 3.3915524E+00 -1.5556909E+00 9.5064836E-01
  0.000E+00  1.890E+00  5.438E-01 3.3479454E+00 -1.6548241E+00 8.4839005E-01
  4.318E-02  1.878E+00  5.217E-01 3.3658967E+00 -1.6010465E+00 8.7184306E-01
  0.000E+00  1.912E+00  5.887E-01 3.3498501E+00 -1.6953101E+00 7.6505810E-01
  4.318E-02  1.901E+00  5.661E-01 3.3479974E+00 -1.6427111E+00 7.9117458E-01
  0.000E+00  1.931E+00  6.347E-01 3.3240726E+00 -1.7309744E+00 6.7911179E-01
  4.318E-02  1.921E+00  6.116E-01 3.3394468E+00 -1.6801306E+00 7.0822359E-01
  0.000E+00  1.948E+00  6.815E-01 3.2954278E+00 -1.7623307E+00 5.9166658E-01
  4.318E-02  1.940E+00  6.580E-01 3.3058361E+00 -1.7127855E+00 6.2296130E-01
  0.000E+00  1.963E+00  7.292E-01 3.2916406E+00 -1.7902527E+00 5.0391504E-01
  4.318E-02  1.956E+00  7.052E-01 3.2943386E+00 -1.7418824E+00 5.3711922E-01
  0.000E+00  1.975E+00  7.775E-01 3.2795778E+00 -1.8136805E+00 4.1471846E-01
  4.318E-02  1.969E+00  7.532E-01 3.2868678E+00 -1.7672254E+00 4.5056084E-01
  0.000E+00  1.985E+00  8.264E-01 3.2613949E+00 -1.8317630E+00 3.2340737E-01
  4.318E-02  1.980E+00  8.019E-01 3.2703090E+00 -1.7875733E+00 3.6203328E-01
  0.000E+00  1.992E+00  8.757E-01 3.2459312E+00 -1.8450770E+00 2.3101330E-01
  4.318E-02  1.989E+00  8.510E-01 3.2526479E+00 -1.8028702E+00 2.7182461E-01
  0.000E+00  1.997E+00  9.253E-01 3.2370582E+00 -1.8541406E+00 1.3852685E-01
  4.318E-02  1.995E+00  9.004E-01 3.2407575E+00 -1.8138096E+00 1.8112404E-01
  0.000E+00  2.000E+00  9.751E-01 3.2336036E+00 -1.8588186E+00 4.6163550E-02
  4.318E-02  1.999E+00  9.502E-01 3.2352281E+00 -1.8205914E+00 9.0520862E-02
  0.000E+00  2.000E+00  1.025E+00 3.2336032E+00 -1.8588186E+00 -4.6160173E-02
  4.318E-02  2.000E+00  1.000E+00 3.2337849E+00 -1.8229137E+00 1.6479314E-06
  0.000E+00  1.997E+00  1.075E+00 3.2370569E+00 -1.8541405E+00 -1.3852348E-01
  4.318E-02  1.999E+00  1.050E+00 3.2352272E+00 -1.8205914E+00 -9.0517562E-02
  0.000E+00  1.992E+00  1.124E+00 3.2459291E+00 -1.8450769E+00 -2.3100994E-01
  4.318E-02  1.995E+00  1.100E+00 3.2407557E+00 -1.8138095E+00 -1.8112073E-01
  0.000E+00  1.985E+00  1.174E+00 3.2613919E+00 -1.8317631E+00 -3.2340403E-01
  4.318E-02  1.989E+00  1.149E+00 3.2526452E+00 -1.8028701E+00 -2.7182130E-01
  0.000E+00  1.975E+00  1.223E+00 3.2795739E+00 -1.8136809E+00 -4.1471512E-01
  4.318E-02  1.980E+00  1.198E+00 3.2703055E+00 -1.7875736E+00 -3.6202997E-01
  0.000E+00  1.963E+00  1.271E+00 3.2916358E+00 -1.7902529E+00 -5.0391170E-01
  4.318E-02  1.969E+00  1.247E+00 3.2868634E+00 -1.7672258E+00 -4.5055752E-01
  0.000E+00  1.948E+00  1.318E+00 3.2954222E+00 -1.7623303E+00 -5.9166320E-01
  4.318E-02  1.956E+00  1.295E+00 3.2943334E+00 -1.7418823E+00 -5.3711590E-01
  0.000E+00  1.931E+00  1.365E+00 3.3240663E+00 -1.7309748E+00 -6.7910841E-01
  4.318E-02  1.940E+00  1.342E+00 3.3058302E+00 -1.7127853E+00 -6.2295798E-01
  0.000E+00  1.912E+00  1.411E+00 3.3498430E+00 -1.6953107E+00 -7.6505471E-01
  4.318E-02  1.921E+00  1.388E+00 3.3394400E+00 -1.6801313E+00 -7.0822027E-01
  0.000E+00  1.890E+00  1.456E+00 3.3479375E+00 -1.6548238E+00 -8.4838665E-01
  4.318E-02  1.901E+00  1.434E+00 3.3479899E+00 -1.6427111E+00 -7.9117125E-01
  0.000E+00  1.866E+00  1.500E+00 3.3818771E+00 -1.6104694E+00 -9.2976070E-01
  4.318E-02  1.878E+00  1.478E+00 3.3658885E+00 -1.6010465E+00 -8.7183972E-01
  0.000E+00  1.840E+00  1.543E+00 3.3816358E+00 -1.5621884E+00 -1.0089654E+00
  4.318E-02  1.853E+00  1.521E+00 3.3915435E+00 -1.5556914E+00 -9.5064502E-01
  0.000E+00  1.812E+00  1.584E+00 3.4127003E+00 -1.5099106E+00 -1.0855436E+00
  4.318E-02  1.826E+00  1.563E+00 3.3887513E+00 -1.5063590E+00 -1.0270145E+00
  0.000E+00  1.782E+00  1.623E+00 3.4037322E+00 -1.4539352E+00 -1.1594692E+00
  4.318E-02  1.797E+00  1.604E+00 3.4096998E+00 -1.4532770E+00 -1.1008071E+00
  0.000E+00  1.750E+00  1.662E+00 3.4201321E+00 -1.3943339E+00 -1.2305000E+00
  4.318E-02  1.766E+00  1.643E+00 3.4173332E+00 -1.3966129E+00 -1.1718917E+00
  0.000E+00  1.716E+00  1.698E+00 3.4200993E+00 -1.3312626E+00 -1.2984717E+00
  4.318E-02  1.733E+00  1.680E+00 3.4187990E+00 -1.3364584E+00 -1.2400455E+00
  0.000E+00  1.680E+00  1.733E+00 3.4187939E+00 -1.2648821E+00 -1.3632170E+00
  4.318E-02  1.698E+00  1.716E+00 3.4201041E+00 -1.2729844E+00 -1.3051230E+00
  0.000E+00  1.643E+00  1.766E+00 3.4173276E+00 -1.1953635E+00 -1.4245761E+00
  4.318E-02  1.662E+00  1.750E+00 3.4201367E+00 -1.2063472E+00 -1.3669562E+00
  0.000E+00  1.604E+00  1.797E+00 3.4096938E+00 -1.1228552E+00 -1.4823745E+00
  4.318E-02  1.623E+00  1.782E+00 3.4037365E+00 -1.1367108E+00 -1.4253871E+00
  0.000E+00  1.563E+00  1.826E+00 3.3887451E+00 -1.0475848E+00 -1.5365196E+00
  4.318E-02  1.584E+00  1.812E+00 3.4127041E+00 -1.0642362E+00 -1.4802633E+00
  0.000E+00  1.521E+00  1.853E+00 3.3915374E+00 -9.6968633E-01 -1.5868403E+00
  4.318E-02  1.543E+00  1.840E+00 3.3816391E+00 -9.8916135E-01 -1.5315150E+00
  0.000E+00  1.478E+00  1.878E+00 3.3658823E+00 -8.8930316E-01 -1.6331042E+00
  4.318E-02  1.500E+00  1.866E+00 3.3818799E+00 -9.1151179E-01 -1.5788485E+00
  0.000E+00  1.434E+00  1.901E+00 3.3479830E+00 -8.0701918E-01 -1.6756026E+00
  4.318E-02  1.456E+00  1.890E+00 3.3479402E+00 -8.3173523E-01 -1.6223325E+00
  0.000E+00  1.388E+00  1.921E+00 3.3394323E+00 -7.2240673E-01 -1.7137712E+00
  4.318E-02  1.411E+00  1.912E+00 3.3498454E+00 -7.5003888E-01 -1.6620233E+00
  0.000E+00  1.342E+00  1.940E+00 3.3058221E+00 -6.3543643E-01 -1.7470793E+00
  4.318E-02  1.365E+00  1.931E+00 3.3240684E+00 -6.6577990E-01 -1.6969870E+00
  0.000E+00  1.295E+00  1.956E+00 3.2943259E+00 -5.4787484E-01 -1.7767594E+00
  4.318E-02  1.318E+00  1.948E+00 3.2954240E+00 -5.8005191E-01 -1.7277278E+00
  0.000E+00  1.247E+00  1.969E+00 3.2868564E+00 -4.5958297E-01 -1.8026106E+00
  4.318E-02  1.271E+00  1.963E+00 3.2916371E+00 -4.9402364E-01 -1.7551025E+00
  0.000E+00  1.198E+00  1.980E+00 3.2702985E+00 -3.6928292E-01 -1.8233659E+00
  4.318E-02  1.223E+00  1.975E+00 3.2795748E+00 -4.0657833E-01 -1.7780707E+00
  0.000E+00  1.149E+00  1.989E+00 3.2526375E+00 -2.7726831E-01 -1.8389685E+00
  4.318E-02  1.174E+00  1.985E+00 3.2613926E+00 -3.1705967E-01 -1.7957981E+00
  0.000E+00  1.100E+00  1.995E+00 3.2407473E+00 -1.8475183E-01 -1.8501266E+00
  4.318E-02  1.124E+00  1.992E+00 3.2459297E+00 -2.2647915E-01 -1.8088505E+00
  0.000E+00  1.050E+00  1.999E+00 3.2352182E+00 -9.2334413E-02 -1.8570440E+00
  4.318E-02  1.075E+00  1.997E+00 3.2370573E+00 -1.3580817E-01 -1.8177359E+00
  0.000E+00  1.000E+00  2.000E+00 3.2337756E+00 -2.4158729E-06 -1.8594127E+00
  4.318E-02  1.025E+00  2.000E+00 3.2336033E+00 -4.5258036E-02 -1.8223220E+00
  0.000E+00  9.502E-01  1.999E+00 3.2352186E+00 9.2329588E-02 -1.8570441E+00
  4.318E-02  9.751E-01  2.000E+00 3.2336035E+00 4.5253236E-02 -1.8223221E+00
  0.000E+00  9.004E-01  1.995E+00 3.2407482E+00 1.8474703E-01 -1.8501268E+00
  4.318E-02  9.253E-01  1.997E+00 3.2370580E+00 1.3580338E-01 -1.8177361E+00
  0.000E+00  8.510E-01  1.989E+00 3.2526388E+00 2.7726355E-01 -1.8389688E+00
  4.318E-02  8.757E-01  1.992E+00 3.2459309E+00 2.2647440E-01 -1.8088507E+00
  0.000E+00  8.019E-01  1.980E+00 3.2703002E+00 3.6927822E-01 -1.8233663E+00
  4.318E-02  8.264E-01  1.985E+00 3.2613942E+00 3.1705497E-01 -1.7957984E+00
  0.000E+00  7.532E-01  1.969E+00 3.2868586E+00 4.5957834E-01 -1.8026111E+00
  4.318E-02  7.775E-01  1.975E+00 3.2795768E+00 4.0657369E-01 -1.7780712E+00
  0.000E+00  7.052E-01  1.956E+00 3.2943285E+00 5.4787030E-01 -1.7767600E+00
  4.318E-02  7.292E-01  1.963E+00 3.2916395E+00 4.9401908E-01 -1.7551030E+00
  0.000E+00  6.580E-01  1.940E+00 3.3058251E+00 6.3543199E-01 -1.7470800E+00
  4.318E-02  6.815E-01  1.948E+00 3.2954269E+00 5.8004744E-01 -1.7277284E+00
  0.000E+00  6.116E-01  1.921E+00 3.3394357E+00 7.2240239E-01 -1.7137719E+00
  4.318E-02  6.347E-01  1.931E+00 3.3240718E+00 6.6577553E-01 -1.6969877E+00
  0.000E+00  5.661E-01  1.901E+00 3.3479868E+00 8.0701498E-01 -1.6756034E+00
  4.318E-02  5.887E-01  1.912E+00 3.3498491E+00 7.5003462E-01 -1.6620240E+00
  0.000E+00  5.217E-01  1.878E+00 3.3658864E+00 8.8929907E-01 -1.6331051E+00
  4.318E-02  5.438E-01  1.890E+00 3.3479443E+00 8.3173112E-01 -1.6223333E+00
  0.000E+00  4.786E-01  1.853E+00 3.3915419E+00 9.6968239E-01 -1.5868412E+00
  4.318E-02  5.000E-01  1.866E+00 3.3818844E+00 9.1150777E-01 -1.5788494E+00
  0.000E+00  4.367E-01  1.826E+00 3.3887499E+00 1.0475810E+00 -1.5365205E+00
  4.318E-02  4.575E-01  1.840E+00 3.3816440E+00 9.8915752E-01 -1.5315159E+00
  0.000E+00  3.962E-01  1.797E+00 3.4096990E+00 1.1228515E+00 -1.4823755E+00
  4.318E-02  4.163E-01  1.812E+00 3.4127092E+00 1.0642325E+00 -1.4802642E+00
  0.000E+00  3.572E-01  1.766E+00 3.4173331E+00 1.1953600E+00 -1.4245771E+00
  4.318E-02  3.765E-01  1.782E+00 3.4037420E+00 1.1367073E+00 -1.4253881E+00
  0.000E+00  3.198E-01  1.733E+00 3.4187997E+00 1.2648788E+00 -1.3632180E+00
  4.318E-02  3.383E-01  1.750E+00 3.4201425E+00 1.2063438E+00 -1.3669571E+00
  0.000E+00  2.841E-01  1.698E+00 3.4201054E+00 1.3312594E+00 -1.2984727E+00
  4.318E-02  3.018E-01  1.716E+00 3.4201102E+00 1.2729812E+00 -1.3051240E+00
  0.000E+00  2.502E-01  1.662E+00 3.4201384E+00 1.3943309E+00 -1.2305010E+00
  4.318E-02  2.669E-01  1.680E+00 3.4188054E+00 1.3364552E+00 -1.2400465E+00
  0.000E+00  2.182E-01  1.623E+00 3.4037388E+00 1.4539322E+00 -1.1594702E+00
  4.318E-02  2.340E-01  1.643E+00 3.4173398E+00 1.3966100E+00 -1.1718927E+00
  0.000E+00  1.881E-01  1.584E+00 3.4127071E+00 1.5099080E+00 -1.0855446E+00
  4.318E-02  2.029E-01  1.604E+00 3.4097067E+00 1.4532741E+00 -1.1008081E+00
  0.000E+00  1.600E-01  1.543E+00 3.3816428E+00 1.5621859E+00 -1.0089664E+00
  4.318E-02  1.738E-01  1.563E+00 3.3887584E+00 1.5063566E+00 -1.0270155E+00
  0.000E+00  1.340E-01  1.500E+00 3.3818842E+00 1.6104667E+00 -9.2976159E-01
  4.318E-02  1.467E-01  1.521E+00 3.3915508E+00 1.5556887E+00 -9.5064593E-01
  0.000E+00  1.101E-01  1.456E+00 3.3479449E+00 1.6548221E+00 -8.4838751E-01
  4.318E-02  1.218E-01  1.478E+00 3.3658960E+00 1.6010444E+00 -8.7184059E-01
  0.000E+00  8.849E-02  1.411E+00 3.3498505E+00 1.6953082E+00 -7.6505551E-01
  4.318E-02  9.903E-02  1.434E+00 3.3479975E+00 1.6427091E+00 -7.9117206E-01
  0.000E+00  6.913E-02  1.365E+00 3.3240739E+00 1.7309726E+00 -6.7910914E-01
  4.318E-02  7.852E-02  1.388E+00 3.3394478E+00 1.6801287E+00 -7.0822103E-01
  0.000E+00  5.207E-02  1.318E+00 3.2954300E+00 1.7623290E+00 -5.9166387E-01
  4.318E-02  6.031E-02  1.342E+00 3.3058381E+00 1.7127837E+00 -6.2295868E-01
  0.000E+00  3.738E-02  1.271E+00 3.2916436E+00 1.7902510E+00 -5.0391229E-01
  4.318E-02  4.443E-02  1.295E+00 3.2943415E+00 1.7418807E+00 -5.3711652E-01
  0.000E+00  2.507E-02  1.223E+00 3.2795818E+00 1.8136789E+00 -4.1471564E-01
  4.318E-02  3.092E-02  1.247E+00 3.2868716E+00 1.7672237E+00 -4.5055807E-01
  0.000E+00  1.519E-02  1.174E+00 3.2613998E+00 1.8317614E+00 -3.2340447E-01
  4.318E-02  1.983E-02  1.198E+00 3.2703137E+00 1.7875717E+00 -3.6203044E-01
  0.000E+00  7.761E-03  1.124E+00 3.2459371E+00 1.8450755E+00 -2.3101030E-01
  4.318E-02  1.117E-02  1.149E+00 3.2526535E+00 1.8028686E+00 -2.7182169E-01
  0.000E+00  2.796E-03  1.075E+00 3.2370650E+00 1.8541391E+00 -1.3852375E-01
  4.318E-02  4.969E-03  1.100E+00 3.2407641E+00 1.8138081E+00 -1.8112103E-01
  0.000E+00  3.108E-04  1.025E+00 3.2336113E+00 1.8588171E+00 -4.6160352E-02
  4.318E-02  1.243E-03  1.050E+00 3.2352355E+00 1.8205899E+00 -9.0517780E-02
  0.000E+00  3.108E-04  9.751E-01 3.2336117E+00 1.8588170E+00 4.6163460E-02
  4.318E-02  0.000E+00  1.000E+00 3.2337933E+00 1.8229121E+00 1.5175223E-06
  0.000E+00  2.796E-03  9.253E-01 3.2370662E+00 1.8541389E+00 1.3852685E-01
  4.318E-02  1.243E-03  9.502E-01 3.2352364E+00 1.8205898E+00 9.0520819E-02
  0.000E+00  7.761E-03  8.757E-01 3.2459393E+00 1.8450752E+00 2.3101338E-01
  4.318E-02  4.969E-03  9.004E-01 3.2407659E+00 1.8138079E+00 1.8112408E-01
  0.000E+00  1.519E-02  8.264E-01 3.2614029E+00 1.8317613E+00 3.2340755E-01
  4.318E-02  1.117E-02  8.510E-01 3.2526561E+00 1.8028684E+00 2.7182474E-01
  0.000E+00  2.507E-02  7.775E-01 3.2795857E+00 1.8136791E+00 4.1471872E-01
  4.318E-02  1.983E-02  8.019E-01 3.2703173E+00 1.7875718E+00 3.6203350E-01
  0.000E+00  3.738E-02  7.292E-01 3.2916484E+00 1.7902510E+00 5.0391538E-01
  4.318E-02  3.092E-02  7.532E-01 3.2868759E+00 1.7672239E+00 4.5056114E-01
  0.000E+00  5.207E-02  6.815E-01 3.2954356E+00 1.7623283E+00 5.9166698E-01
  4.318E-02  4.443E-02  7.052E-01 3.2943467E+00 1.7418803E+00 5.3711959E-01
  0.000E+00  6.913E-02  6.347E-01 3.3240802E+00 1.7309727E+00 6.7911228E-01
  4.318E-02  6.031E-02  6.580E-01 3.3058441E+00 1.7127832E+00 6.2296174E-01
  0.000E+00  8.849E-02  5.887E-01 3.3498576E+00 1.6953085E+00 7.6505865E-01
  4.318E-02  7.852E-02  6.116E-01 3.3394546E+00 1.6801291E+00 7.0822411E-01
  0.000E+00  1.101E-01  5.438E-01 3.3479527E+00 1.6548214E+00 8.4839065E-01
  4.318E-02  9.903E-02  5.661E-01 3.3480051E+00 1.6427088E+00 7.9117515E-01
  0.000E+00  1.340E-01  5.000E-01 3.3818929E+00 1.6104669E+00 9.2976475E-01
  4.318E-02  1.218E-01  5.217E-01 3.3659043E+00 1.6010441E+00 8.7184369E-01
  0.000E+00  1.600E-01  4.575E-01 3.3816522E+00 1.5621857E+00 1.0089695E+00
  4.318E-02  1.467E-01  4.786E-01 3.3915597E+00 1.5556888E+00 9.5064904E-01
  0.000E+00  1.881E-01  4.163E-01 3.4127172E+00 1.5099078E+00 1.0855478E+00
  4.318E-02  1.738E-01  4.367E-01 3.3887680E+00 1.5063563E+00 1.0270186E+00
  0.000E+00  2.182E-01  3.765E-01 3.4037495E+00 1.4539322E+00 1.1594734E+00
  4.318E-02  2.029E-01  3.962E-01 3.4097168E+00 1.4532742E+00 1.1008112E+00
  0.000E+00  2.502E-01  3.383E-01 3.4201497E+00 1.3943307E+00 1.2305042E+00
  4.318E-02  2.340E-01  3.572E-01 3.4173507E+00 1.3966098E+00 1.1718959E+00
  0.000E+00  2.841E-01  3.018E-01 3.4201171E+00 1.3312593E+00 1.2984759E+00
  4.318E-02  2.669E-01  3.198E-01 3.4188169E+00 1.3364552E+00 1.2400497E+00
  0.000E+00  3.198E-01  2.669E-01 3.4188119E+00 1.2648787E+00 1.3632213E+00
  4.318E-02  3.018E-01  2.841E-01 3.4201223E+00 1.2729810E+00 1.3051271E+00
  0.000E+00  3.572E-01  2.340E-01 3.4173460E+00 1.1953601E+00 1.4245804E+00
  4.318E-02  3.383E-01  2.502E-01 3.4201550E+00 1.2063436E+00 1.3669603E+00
  0.000E+00  3.962E-01  2.029E-01 3.4097123E+00 1.1228516E+00 1.4823788E+00
  4.318E-02  3.765E-01  2.182E-01 3.4037549E+00 1.1367070E+00 1.4253912E+00
  0.000E+00  4.367E-01  1.738E-01 3.3887634E+00 1.0475809E+00 1.5365238E+00
  4.318E-02  4.163E-01  1.881E-01 3.4127227E+00 1.0642323E+00 1.4802675E+00
  0.000E+00  4.786E-01  1.467E-01 3.3915553E+00 9.6968210E-01 1.5868444E+00
  4.318E-02  4.575E-01  1.600E-01 3.3816581E+00 9.8915747E-01 1.5315192E+00
  0.000E+00  5.217E-01  1.218E-01 3.3659001E+00 8.8929868E-01 1.6331083E+00
  4.318E-02  5.000E-01  1.340E-01 3.3818991E+00 9.1150790E-01 1.5788527E+00
  0.000E+00  5.661E-01  9.903E-02 3.3480015E+00 8.0701445E-01 1.6756066E+00
  4.318E-02  5.438E-01  1.101E-01 3.3479591E+00 8.3173139E-01 1.6223367E+00
  0.000E+00  6.116E-01  7.852E-02 3.3394517E+00 7.2240198E-01 1.7137751E+00
  4.318E-02  5.887E-01  8.849E-02 3.3498636E+00 7.5003501E-01 1.6620274E+00
  0.000E+00  6.580E-01  6.031E-02 3.3058414E+00 6.3543248E-01 1.7470834E+00
  4.318E-02  6.347E-01  6.913E-02 3.3240862E+00 6.6577553E-01 1.6969911E+00
  0.000E+00  7.052E-01  4.443E-02 3.2943440E+00 5.4787217E-01 1.7767638E+00
  4.318E-02  6.815E-01  5.207E-02 3.2954421E+00 5.8004658E-01 1.7277316E+00
  0.000E+00  7.532E-01  3.092E-02 3.2868733E+00 4.5958101E-01 1.8026153E+00
  4.318E-02  7.292E-01  3.738E-02 3.2916555E+00 4.9401745E-01 1.7551060E+00
  0.000E+00  8.019E-01  1.983E-02 3.2703148E+00 3.6928052E-01 1.8233707E+00
  4.318E-02  7.775E-01  2.507E-02 3.2795932E+00 4.0657204E-01 1.7780739E+00
  0.000E+00  8.510E-01  1.117E-02 3.2526541E+00 2.7726480E-01 1.8389734E+00
  4.318E-02  8.264E-01  1.519E-02 3.2614105E+00 3.1705395E-01 1.7958011E+00
  0.000E+00  9.004E-01  4.969E-03 3.2407642E+00 1.8474738E-01 1.8501313E+00
  4.318E-02  8.757E-01  7.761E-03 3.2459468E+00 2.2647412E-01 1.8088534E+00
  4.318E-02  9.253E-01  2.796E-03 3.2370737E+00 1.3580352E-01 1.8177388E+00
  1.000E+01  1.050E+00  1.243E-03 3.2352346E+00 -9.2334169E-02 1.8570485E+00
  1.000E+01  1.000E+00  5.551E-16 3.2337921E+00 -2.2814467E-06 1.8594173E+00
  9.957E+00  1.025E+00  3.108E-04 3.2336284E+00 -4.7074139E-02 1.8954612E+00
  1.000E+01  9.502E-01  1.243E-03 3.2352351E+00 9.2329616E-02 1.8570486E+00
  9.957E+00  9.751E-01  3.108E-04 3.2336286E+00 4.7069560E-02 1.8954613E+00
  1.000E+01  9.004E-01  4.969E-03 3.2407642E+00 1.8474738E-01 1.8501313E+00
  9.957E+00  9.253E-01  2.796E-03 3.2370832E+00 1.4125357E-01 1.8906912E+00
  1.000E+01  8.510E-01  1.117E-02 3.2526541E+00 2.7726480E-01 1.8389734E+00
  9.957E+00  8.757E-01  7.761E-03 3.2459563E+00 2.3556305E-01 1.8814491E+00
  1.000E+01  8.019E-01  1.983E-02 3.2703148E+00 3.6928052E-01 1.8233707E+00
  9.957E+00  8.264E-01  1.519E-02 3.2614200E+00 3.2977832E-01 1.8678730E+00
  1.000E+01  7.532E-01  3.092E-02 3.2868733E+00 4.5958101E-01 1.8026153E+00
  9.957E+00  7.775E-01  2.507E-02 3.2796027E+00 4.2288949E-01 1.8494344E+00
  1.000E+01  7.052E-01  4.443E-02 3.2943440E+00 5.4787217E-01 1.7767638E+00
  9.957E+00  7.292E-01  3.738E-02 3.2916649E+00 5.1384483E-01 1.8255448E+00
  1.000E+01  6.580E-01  6.031E-02 3.3058414E+00 6.3543248E-01 1.7470834E+00
  9.957E+00  6.815E-01  5.207E-02 3.2954514E+00 6.0332671E-01 1.7970718E+00
  1.000E+01  6.116E-01  7.852E-02 3.3394517E+00 7.2240198E-01 1.7137751E+00
  9.957E+00  6.347E-01  6.913E-02 3.3240955E+00 6.9249591E-01 1.7650973E+00
  1.000E+01  5.661E-01  9.903E-02 3.3480015E+00 8.0701445E-01 1.6756066E+00
  9.957E+00  5.887E-01  8.849E-02 3.3498728E+00 7.8013662E-01 1.7287303E+00
  1.000E+01  5.217E-01  1.218E-01 3.3659001E+00 8.8929868E-01 1.6331083E+00
  9.957E+00  5.438E-01  1.101E-01 3.3479682E+00 8.6511168E-01 1.6874466E+00
  1.000E+01  4.786E-01  1.467E-01 3.3915553E+00 9.6968210E-01 1.5868444E+00
  9.957E+00  5.000E-01  1.340E-01 3.3819085E+00 9.4809021E-01 1.6422176E+00
  1.000E+01  4.367E-01  1.738E-01 3.3887634E+00 1.0475809E+00 1.5365238E+00
  9.957E+00  4.575E-01  1.600E-01 3.3816675E+00 1.0288563E+00 1.5929846E+00
  1.000E+01  3.962E-01  2.029E-01 3.4097123E+00 1.1228516E+00 1.4823788E+00
  9.957E+00  4.163E-01  1.881E-01 3.4127322E+00 1.1069440E+00 1.5396760E+00
  1.000E+01  3.572E-01  2.340E-01 3.4173460E+00 1.1953601E+00 1.4245804E+00
  9.957E+00  3.765E-01  2.182E-01 3.4037642E+00 1.1823272E+00 1.4825972E+00
  1.000E+01  3.198E-01  2.669E-01 3.4188119E+00 1.2648787E+00 1.3632213E+00
  9.957E+00  3.383E-01  2.502E-01 3.4201644E+00 1.2547586E+00 1.4218213E+00
  1.000E+01  2.841E-01  3.018E-01 3.4201171E+00 1.3312593E+00 1.2984759E+00
  9.957E+00  3.018E-01  2.841E-01 3.4201317E+00 1.3240704E+00 1.3575066E+00
  1.000E+01  2.502E-01  3.383E-01 3.4201497E+00 1.3943307E+00 1.2305042E+00
  9.957E+00  2.669E-01  3.198E-01 3.4188263E+00 1.3900921E+00 1.2898174E+00
  1.000E+01  2.182E-01  3.765E-01 3.4037495E+00 1.4539322E+00 1.1594734E+00
  9.957E+00  2.340E-01  3.572E-01 3.4173602E+00 1.4526611E+00 1.2189284E+00
  1.000E+01  1.881E-01  4.163E-01 3.4127172E+00 1.5099078E+00 1.0855478E+00
  9.957E+00  2.029E-01  3.962E-01 3.4097262E+00 1.5115994E+00 1.1449908E+00
  1.000E+01  1.600E-01  4.575E-01 3.3816522E+00 1.5621857E+00 1.0089695E+00
  9.957E+00  1.738E-01  4.367E-01 3.3887772E+00 1.5668119E+00 1.0682364E+00
  1.000E+01  1.340E-01  5.000E-01 3.3818929E+00 1.6104669E+00 9.2976475E-01
  9.957E+00  1.467E-01  4.786E-01 3.3915691E+00 1.6181244E+00 9.8880189E-01
  1.000E+01  1.101E-01  5.438E-01 3.3479527E+00 1.6548214E+00 8.4839065E-01
  9.957E+00  1.218E-01  5.217E-01 3.3659138E+00 1.6653002E+00 9.0683400E-01
  1.000E+01  8.849E-02  5.887E-01 3.3498576E+00 1.6953085E+00 7.6505865E-01
  9.957E+00  9.903E-02  5.661E-01 3.3480147E+00 1.7086372E+00 8.2292807E-01
  1.000E+01  6.913E-02  6.347E-01 3.3240802E+00 1.7309727E+00 6.7911228E-01
  9.957E+00  7.852E-02  6.116E-01 3.3394642E+00 1.7475592E+00 7.3664760E-01
  1.000E+01  5.207E-02  6.815E-01 3.2954356E+00 1.7623283E+00 5.9166698E-01
  9.957E+00  6.031E-02  6.580E-01 3.3058534E+00 1.7815237E+00 6.4796304E-01
  1.000E+01  3.738E-02  7.292E-01 3.2916484E+00 1.7902510E+00 5.0391538E-01
  9.957E+00  4.443E-02  7.052E-01 3.2943560E+00 1.8117884E+00 5.5867571E-01
  1.000E+01  2.507E-02  7.775E-01 3.2795857E+00 1.8136791E+00 4.1471872E-01
  9.957E+00  3.092E-02  7.532E-01 3.2868855E+00 1.8381493E+00 4.6864355E-01
  1.000E+01  1.519E-02  8.264E-01 3.2614029E+00 1.8317613E+00 3.2340755E-01
  9.957E+00  1.983E-02  8.019E-01 3.2703269E+00 1.8593139E+00 3.7656327E-01
  1.000E+01  7.761E-03  8.757E-01 3.2459393E+00 1.8450752E+00 2.3101338E-01
  9.957E+00  1.117E-02  8.510E-01 3.2526658E+00 1.8752246E+00 2.8273430E-01
  1.000E+01  2.796E-03  9.253E-01 3.2370662E+00 1.8541389E+00 1.3852685E-01
  9.957E+00  4.969E-03  9.004E-01 3.2407755E+00 1.8866030E+00 1.8839351E-01
  1.000E+01  3.108E-04  9.751E-01 3.2336117E+00 1.8588170E+00 4.6163460E-02
  9.957E+00  1.243E-03  9.502E-01 3.2352461E+00 1.8936571E+00 9.4153898E-02
  1.000E+01  3.108E-04  1.025E+00 3.2336113E+00 1.8588171E+00 -4.6160352E-02
  9.957E+00  0.000E+00  1.000E+00 3.2338029E+00 1.8960726E+00 1.5407784E-06
  1.000E+01  2.796E-03  1.075E+00 3.2370650E+00 1.8541391E+00 -1.3852375E-01
  9.957E+00  1.243E-03  1.050E+00 3.2352452E+00 1.8936572E+00 -9.4150809E-02
  1.000E+01  7.761E-03  1.124E+00 3.2459371E+00 1.8450755E+00 -2.3101030E-01
  9.957E+00  4.969E-03  1.100E+00 3.2407737E+00 1.8866033E+00 -1.8839040E-01
  1.000E+01  1.519E-02  1.174E+00 3.2613998E+00 1.8317614E+00 -3.2340447E-01
  9.957E+00  1.117E-02  1.149E+00 3.2526632E+00 1.8752248E+00 -2.8273118E-01
  1.000E+01  2.507E-02  1.223E+00 3.2795818E+00 1.8136789E+00 -4.1471564E-01
  9.957E+00  1.983E-02  1.198E+00 3.2703234E+00 1.8593138E+00 -3.7656014E-01
  1.000E+01  3.738E-02  1.271E+00 3.2916436E+00 1.7902510E+00 -5.0391229E-01
  9.957E+00  3.092E-02  1.247E+00 3.2868811E+00 1.8381491E+00 -4.6864042E-01
  1.000E+01  5.207E-02  1.318E+00 3.2954300E+00 1.7623290E+00 -5.9166387E-01
  9.957E+00  4.443E-02  1.295E+00 3.2943509E+00 1.8117889E+00 -5.5867258E-01
  1.000E+01  6.913E-02  1.365E+00 3.3240739E+00 1.7309726E+00 -6.7910914E-01
  9.957E+00  6.031E-02  1.342E+00 3.3058475E+00 1.7815242E+00 -6.4795992E-01
  1.000E+01  8.849E-02  1.411E+00 3.3498505E+00 1.6953082E+00 -7.6505551E-01
  9.957E+00  7.852E-02  1.388E+00 3.3394574E+00 1.7475588E+00 -7.3664446E-01
  1.000E+01  1.101E-01  1.456E+00 3.3479449E+00 1.6548221E+00 -8.4838751E-01
  9.957E+00  9.903E-02  1.434E+00 3.3480072E+00 1.7086376E+00 -8.2292492E-01
  1.000E+01  1.340E-01  1.500E+00 3.3818842E+00 1.6104667E+00 -9.2976159E-01
  9.957E+00  1.218E-01  1.478E+00 3.3659056E+00 1.6653006E+00 -9.0683082E-01
  1.000E+01  1.600E-01  1.543E+00 3.3816428E+00 1.5621859E+00 -1.0089664E+00
  9.957E+00  1.467E-01  1.521E+00 3.3915602E+00 1.6181242E+00 -9.8879869E-01
  1.000E+01  1.881E-01  1.584E+00 3.4127071E+00 1.5099080E+00 -1.0855446E+00
  9.957E+00  1.738E-01  1.563E+00 3.3887677E+00 1.5668122E+00 -1.0682332E+00
  1.000E+01  2.182E-01  1.623E+00 3.4037388E+00 1.4539322E+00 -1.1594702E+00
  9.957E+00  2.029E-01  1.604E+00 3.4097161E+00 1.5115994E+00 -1.1449876E+00
  1.000E+01  2.502E-01  1.662E+00 3.4201384E+00 1.3943309E+00 -1.2305010E+00
  9.957E+00  2.340E-01  1.643E+00 3.4173493E+00 1.4526612E+00 -1.2189252E+00
  1.000E+01  2.841E-01  1.698E+00 3.4201054E+00 1.3312594E+00 -1.2984727E+00
  9.957E+00  2.669E-01  1.680E+00 3.4188148E+00 1.3900921E+00 -1.2898142E+00
  1.000E+01  3.198E-01  1.733E+00 3.4187997E+00 1.2648788E+00 -1.3632180E+00
  9.957E+00  3.018E-01  1.716E+00 3.4201196E+00 1.3240706E+00 -1.3575034E+00
  1.000E+01  3.572E-01  1.766E+00 3.4173331E+00 1.1953600E+00 -1.4245771E+00
  9.957E+00  3.383E-01  1.750E+00 3.4201519E+00 1.2547587E+00 -1.4218181E+00
  1.000E+01  3.962E-01  1.797E+00 3.4096990E+00 1.1228515E+00 -1.4823755E+00
  9.957E+00  3.765E-01  1.782E+00 3.4037513E+00 1.1823274E+00 -1.4825940E+00
  1.000E+01  4.367E-01  1.826E+00 3.3887499E+00 1.0475810E+00 -1.5365205E+00
  9.957E+00  4.163E-01  1.812E+00 3.4127188E+00 1.1069441E+00 -1.5396727E+00
  1.000E+01  4.786E-01  1.853E+00 3.3915419E+00 9.6968239E-01 -1.5868412E+00
  9.957E+00  4.575E-01  1.840E+00 3.3816534E+00 1.0288563E+00 -1.5929813E+00
  1.000E+01  5.217E-01  1.878E+00 3.3658864E+00 8.8929907E-01 -1.6331051E+00
  9.957E+00  5.000E-01  1.866E+00 3.3818938E+00 9.4809006E-01 -1.6422142E+00
  1.000E+01  5.661E-01  1.901E+00 3.3479868E+00 8.0701498E-01 -1.6756034E+00
  9.957E+00  5.438E-01  1.890E+00 3.3479535E+00 8.6511156E-01 -1.6874431E+00
  1.000E+01  6.116E-01  1.921E+00 3.3394357E+00 7.2240239E-01 -1.7137719E+00
  9.957E+00  5.887E-01  1.912E+00 3.3498585E+00 7.8013642E-01 -1.7287267E+00
  1.000E+01  6.580E-01  1.940E+00 3.3058251E+00 6.3543199E-01 -1.7470800E+00
  9.957E+00  6.347E-01  1.931E+00 3.3240814E+00 6.9249591E-01 -1.7650939E+00
  1.000E+01  7.052E-01  1.956E+00 3.2943285E+00 5.4787030E-01 -1.7767600E+00
  9.957E+00  6.815E-01  1.948E+00 3.2954367E+00 6.0332737E-01 -1.7970686E+00
  1.000E+01  7.532E-01  1.969E+00 3.2868586E+00 4.5957834E-01 -1.8026111E+00
  9.957E+00  7.292E-01  1.963E+00 3.2916492E+00 5.1384624E-01 -1.8255418E+00
  1.000E+01  8.019E-01  1.980E+00 3.2703002E+00 3.6927822E-01 -1.8233663E+00
  9.957E+00  7.775E-01  1.975E+00 3.2795863E+00 4.2289109E-01 -1.8494316E+00
  1.000E+01  8.510E-01  1.989E+00 3.2526388E+00 2.7726355E-01 -1.8389688E+00
  9.957E+00  8.264E-01  1.985E+00 3.2614035E+00 3.2977943E-01 -1.8678702E+00
  1.000E+01  9.004E-01  1.995E+00 3.2407482E+00 1.8474703E-01 -1.8501268E+00
  9.957E+00  8.757E-01  1.992E+00 3.2459401E+00 2.3556346E-01 -1.8814463E+00
  1.000E+01  9.502E-01  1.999E+00 3.2352186E+00 9.2329588E-02 -1.8570441E+00
  9.957E+00  9.253E-01  1.997E+00 3.2370674E+00 1.4125353E-01 -1.8906884E+00
  1.000E+01  1.000E+00  2.000E+00 3.2337756E+00 -2.4158729E-06 -1.8594127E+00
  9.957E+00  9.751E-01  2.000E+00 3.2336131E+00 4.7069403E-02 -1.8954585E+00
  1.000E+01  1.050E+00  1.999E+00 3.2352182E+00 -9.2334413E-02 -1.8570440E+00
  9.957E+00  1.025E+00  2.000E+00 3.2336128E+00 -4.7074260E-02 -1.8954584E+00
  1.000E+01  1.100E+00  1.995E+00 3.2407473E+00 -1.8475183E-01 -1.8501266E+00
  9.957E+00  1.075E+00  1.997E+00 3.2370667E+00 -1.4125837E-01 -1.8906882E+00
  1.000E+01  1.149E+00  1.989E+00 3.2526375E+00 -2.7726831E-01 -1.8389685E+00
  9.957E+00  1.124E+00  1.992E+00 3.2459390E+00 -2.3556827E-01 -1.8814461E+00
  1.000E+01  1.198E+00  1.980E+00 3.2702985E+00 -3.6928292E-01 -1.8233659E+00
  9.957E+00  1.174E+00  1.985E+00 3.2614020E+00 -3.2978419E-01 -1.8678698E+00