# TIME = 6.000000
VARIABLES = X, Y, Z, FX, FY, FZ
ZONE N=29232 E=58212 F=FEPOINT ET=TRIANGLE
  0.000E+00  9.502E-01  1.243E-03 3.2447830E+00 5.6509862E-02 1.1365603E+00
  0.000E+00  1.000E+00  0.000E+00 3.2433427E+00 -1.2909483E-07 1.1380100E+00
  4.318E-02  9.751E-01  3.108E-04 3.2431735E+00 2.7371268E-02 1.1021591E+00
  0.000E+00  1.050E+00  1.243E-03 3.2447834E+00 -5.6510120E-02 1.1365603E+00
  4.318E-02  1.025E+00  3.108E-04 3.2431736E+00 -2.7371509E-02 1.1021591E+00
  0.000E+00  1.100E+00  4.969E-03 3.2503095E+00 -1.1307257E-01 1.1323269E+00
  4.318E-02  1.075E+00  2.796E-03 3.2466252E+00 -8.2137685E-02 1.0993855E+00
  0.000E+00  1.149E+00  1.117E-02 3.2622028E+00 -1.6969582E-01 1.1254980E+00
  4.318E-02  1.124E+00  7.761E-03 3.2554986E+00 -1.3697663E-01 1.0940116E+00
  0.000E+00  1.198E+00  1.983E-02 3.2798732E+00 -2.2601188E-01 1.1159487E+00
  4.318E-02  1.174E+00  1.519E-02 3.2709706E+00 -1.9176042E-01 1.0861173E+00
  0.000E+00  1.247E+00  3.092E-02 3.2964299E+00 -2.8127842E-01 1.1032461E+00
  4.318E-02  1.223E+00  2.507E-02 3.2891604E+00 -2.4590197E-01 1.0753957E+00
  0.000E+00  1.295E+00  4.443E-02 3.3038655E+00 -3.3531555E-01 1.0874248E+00
  4.318E-02  1.271E+00  3.738E-02 3.3012051E+00 -2.9879027E-01 1.0615048E+00
  0.000E+00  1.342E+00  6.031E-02 3.3153323E+00 -3.8890505E-01 1.0692599E+00
  4.318E-02  1.318E+00  5.207E-02 3.3049423E+00 -3.5082208E-01 1.0449489E+00
  0.000E+00  1.388E+00  7.852E-02 3.3489774E+00 -4.4213253E-01 1.0488743E+00
  4.318E-02  1.365E+00  6.913E-02 3.3336040E+00 -4.0267183E-01 1.0263568E+00
  0.000E+00  1.434E+00  9.903E-02 3.3574927E+00 -4.9391788E-01 1.0255146E+00
  4.318E-02  1.411E+00  8.849E-02 3.3593952E+00 -4.5363271E-01 1.0052106E+00
  0.000E+00  1.478E+00  1.218E-01 3.3753786E+00 -5.4427834E-01 9.9950487E-01
  4.318E-02  1.456E+00  1.101E-01 3.3574241E+00 -5.0304366E-01 9.8120558E-01
  0.000E+00  1.521E+00  1.467E-01 3.4010568E+00 -5.9347507E-01 9.7119045E-01
  4.318E-02  1.500E+00  1.340E-01 3.3914034E+00 -5.5129323E-01 9.5490617E-01
  0.000E+00  1.563E+00  1.738E-01 3.3982097E+00 -6.4115094E-01 9.4039308E-01
  4.318E-02  1.543E+00  1.600E-01 3.3911141E+00 -5.9825641E-01 9.2627859E-01
  0.000E+00  1.604E+00  2.029E-01 3.4191827E+00 -6.8721837E-01 9.0725518E-01
  4.318E-02  1.584E+00  1.881E-01 3.4222208E+00 -6.4366254E-01 8.9528132E-01
  0.000E+00  1.643E+00  2.340E-01 3.4268077E+00 -7.3159523E-01 8.7188121E-01
  4.318E-02  1.623E+00  2.182E-01 3.4132012E+00 -6.8749591E-01 8.6209191E-01
  0.000E+00  1.680E+00  2.669E-01 3.4282684E+00 -7.7414239E-01 8.3432810E-01
  4.318E-02  1.662E+00  2.502E-01 3.4296243E+00 -7.2961262E-01 8.2675247E-01
  0.000E+00  1.716E+00  3.018E-01 3.4295706E+00 -8.1476875E-01 7.9470240E-01
  4.318E-02  1.698E+00  2.841E-01 3.4295817E+00 -7.6991533E-01 7.8935529E-01
  0.000E+00  1.750E+00  3.383E-01 3.4296138E+00 -8.5336985E-01 7.5310207E-01
  4.318E-02  1.733E+00  3.198E-01 3.4282800E+00 -8.0830487E-01 7.4999595E-01
  0.000E+00  1.782E+00  3.765E-01 3.4131913E+00 -8.8984714E-01 7.0962947E-01
  4.318E-02  1.766E+00  3.572E-01 3.4268198E+00 -8.4468673E-01 7.0877592E-01
  0.000E+00  1.812E+00  4.163E-01 3.4222115E+00 -9.2410536E-01 6.6438513E-01
  4.318E-02  1.797E+00  3.962E-01 3.4191955E+00 -8.7895751E-01 6.6578333E-01
  0.000E+00  1.840E+00  4.575E-01 3.3911053E+00 -9.5610045E-01 6.1751721E-01
  4.318E-02  1.826E+00  4.367E-01 3.3982230E+00 -9.1106199E-01 6.2115287E-01
  0.000E+00  1.866E+00  5.000E-01 3.3913951E+00 -9.8564923E-01 5.6904188E-01
  4.318E-02  1.853E+00  4.786E-01 3.4010705E+00 -9.4089815E-01 5.7496378E-01
  0.000E+00  1.890E+00  5.438E-01 3.3574164E+00 -1.0127956E+00 5.1923871E-01
  4.318E-02  1.878E+00  5.217E-01 3.3753926E+00 -9.6832939E-01 5.2730148E-01
  0.000E+00  1.912E+00  5.887E-01 3.3593883E+00 -1.0375736E+00 4.6823710E-01
  4.318E-02  1.901E+00  5.661E-01 3.3575072E+00 -9.9352819E-01 4.7851208E-01
  0.000E+00  1.931E+00  6.347E-01 3.3335975E+00 -1.0594009E+00 4.1563573E-01
  4.318E-02  1.921E+00  6.116E-01 3.3489924E+00 -1.0161595E+00 4.2834236E-01
  0.000E+00  1.948E+00  6.815E-01 3.3049362E+00 -1.0785918E+00 3.6211693E-01
  4.318E-02  1.940E+00  6.580E-01 3.3153479E+00 -1.0359096E+00 3.7677504E-01
  0.000E+00  1.963E+00  7.292E-01 3.3011992E+00 -1.0956803E+00 3.0841011E-01
  4.318E-02  1.956E+00  7.052E-01 3.3038816E+00 -1.0535074E+00 3.2485652E-01
  0.000E+00  1.975E+00  7.775E-01 3.2891551E+00 -1.1100183E+00 2.5381894E-01
  4.318E-02  1.969E+00  7.532E-01 3.2964462E+00 -1.0688346E+00 2.7250444E-01
  0.000E+00  1.985E+00  8.264E-01 3.2709659E+00 -1.1210852E+00 1.9793401E-01
  4.318E-02  1.980E+00  8.019E-01 3.2798898E+00 -1.0811409E+00 2.1896170E-01
  0.000E+00  1.992E+00  8.757E-01 3.2554947E+00 -1.1292337E+00 1.4138624E-01
  4.318E-02  1.989E+00  8.510E-01 3.2622198E+00 -1.0903926E+00 1.6440242E-01
  0.000E+00  1.997E+00  9.253E-01 3.2466219E+00 -1.1347808E+00 8.4781728E-02
  4.318E-02  1.995E+00  9.004E-01 3.2503270E+00 -1.0970089E+00 1.0954552E-01
  0.000E+00  2.000E+00  9.751E-01 3.2431708E+00 -1.1376437E+00 2.8252464E-02
  4.318E-02  1.999E+00  9.502E-01 3.2448015E+00 -1.1011104E+00 5.4747370E-02
  0.000E+00  2.000E+00  1.025E+00 3.2431710E+00 -1.1376437E+00 -2.8252598E-02
  4.318E-02  2.000E+00  1.000E+00 3.2433613E+00 -1.1025149E+00 -4.3127615E-08
  0.000E+00  1.997E+00  1.075E+00 3.2466226E+00 -1.1347806E+00 -8.4781858E-02
  4.318E-02  1.999E+00  1.050E+00 3.2448020E+00 -1.1011104E+00 -5.4747458E-02
  0.000E+00  1.992E+00  1.124E+00 3.2554959E+00 -1.1292336E+00 -1.4138636E-01
  4.318E-02  1.995E+00  1.100E+00 3.2503280E+00 -1.0970088E+00 -1.0954561E-01
  0.000E+00  1.985E+00  1.174E+00 3.2709676E+00 -1.1210851E+00 -1.9793412E-01
  4.318E-02  1.989E+00  1.149E+00 3.2622213E+00 -1.0903926E+00 -1.6440252E-01
  0.000E+00  1.975E+00  1.223E+00 3.2891573E+00 -1.1100184E+00 -2.5381904E-01
  4.318E-02  1.980E+00  1.198E+00 3.2798918E+00 -1.0811411E+00 -2.1896180E-01
  0.000E+00  1.963E+00  1.271E+00 3.3012020E+00 -1.0956803E+00 -3.0841022E-01
  4.318E-02  1.969E+00  1.247E+00 3.2964487E+00 -1.0688348E+00 -2.7250454E-01
  0.000E+00  1.948E+00  1.318E+00 3.3049394E+00 -1.0785914E+00 -3.6211704E-01
  4.318E-02  1.956E+00  1.295E+00 3.3038845E+00 -1.0535072E+00 -3.2485662E-01
  0.000E+00  1.931E+00  1.365E+00 3.3336012E+00 -1.0594010E+00 -4.1563584E-01
  4.318E-02  1.940E+00  1.342E+00 3.3153514E+00 -1.0359093E+00 -3.7677513E-01
  0.000E+00  1.912E+00  1.411E+00 3.3593924E+00 -1.0375738E+00 -4.6823721E-01
  4.318E-02  1.921E+00  1.388E+00 3.3489963E+00 -1.0161598E+00 -4.2834245E-01
  0.000E+00  1.890E+00  1.456E+00 3.3574210E+00 -1.0127952E+00 -5.1923881E-01
  4.318E-02  1.901E+00  1.434E+00 3.3575116E+00 -9.9352807E-01 -4.7851218E-01
  0.000E+00  1.866E+00  1.500E+00 3.3914001E+00 -9.8564939E-01 -5.6904199E-01
  4.318E-02  1.878E+00  1.478E+00 3.3753974E+00 -9.6832928E-01 -5.2730158E-01
  0.000E+00  1.840E+00  1.543E+00 3.3911107E+00 -9.5610043E-01 -6.1751731E-01
  4.318E-02  1.853E+00  1.521E+00 3.4010756E+00 -9.4089835E-01 -5.7496388E-01
  0.000E+00  1.812E+00  1.584E+00 3.4222173E+00 -9.2410537E-01 -6.6438524E-01
  4.318E-02  1.826E+00  1.563E+00 3.3982286E+00 -9.1106188E-01 -6.2115296E-01
  0.000E+00  1.782E+00  1.623E+00 3.4131974E+00 -8.8984719E-01 -7.0962958E-01
  4.318E-02  1.797E+00  1.604E+00 3.4192014E+00 -8.7895762E-01 -6.6578343E-01
  0.000E+00  1.750E+00  1.662E+00 3.4296202E+00 -8.5336983E-01 -7.5310217E-01
  4.318E-02  1.766E+00  1.643E+00 3.4268261E+00 -8.4468671E-01 -7.0877600E-01
  0.000E+00  1.716E+00  1.698E+00 3.4295773E+00 -8.1476878E-01 -7.9470250E-01
  4.318E-02  1.733E+00  1.680E+00 3.4282866E+00 -8.0830494E-01 -7.4999604E-01
  0.000E+00  1.680E+00  1.733E+00 3.4282755E+00 -7.7414241E-01 -8.3432821E-01
  4.318E-02  1.698E+00  1.716E+00 3.4295886E+00 -7.6991534E-01 -7.8935538E-01
  0.000E+00  1.643E+00  1.766E+00 3.4268150E+00 -7.3159531E-01 -8.7188133E-01
  4.318E-02  1.662E+00  1.750E+00 3.4296315E+00 -7.2961263E-01 -8.2675255E-01
  0.000E+00  1.604E+00  1.797E+00 3.4191903E+00 -6.8721844E-01 -9.0725531E-01
  4.318E-02  1.623E+00  1.782E+00 3.4132087E+00 -6.8749588E-01 -8.6209197E-01
  0.000E+00  1.563E+00  1.826E+00 3.3982176E+00 -6.4115085E-01 -9.4039317E-01
  4.318E-02  1.584E+00  1.812E+00 3.4222285E+00 -6.4366259E-01 -8.9528140E-01
  0.000E+00  1.521E+00  1.853E+00 3.4010649E+00 -5.9347481E-01 -9.7119047E-01
  4.318E-02  1.543E+00  1.840E+00 3.3911220E+00 -5.9825657E-01 -9.2627871E-01
  0.000E+00  1.478E+00  1.878E+00 3.3753867E+00 -5.4427823E-01 -9.9950493E-01
  4.318E-02  1.500E+00  1.866E+00 3.3914116E+00 -5.5129345E-01 -9.5490632E-01
  0.000E+00  1.434E+00  1.901E+00 3.3575009E+00 -4.9391824E-01 -1.0255148E+00
  4.318E-02  1.456E+00  1.890E+00 3.3574326E+00 -5.0304362E-01 -9.8120567E-01
  0.000E+00  1.388E+00  1.921E+00 3.3489857E+00 -4.4213321E-01 -1.0488746E+00
  4.318E-02  1.411E+00  1.912E+00 3.3594039E+00 -4.5363239E-01 -1.0052106E+00
  0.000E+00  1.342E+00  1.940E+00 3.3153410E+00 -3.8890529E-01 -1.0692601E+00
  4.318E-02  1.365E+00  1.931E+00 3.3336126E+00 -4.0267157E-01 -1.0263568E+00
  0.000E+00  1.295E+00  1.956E+00 3.3038748E+00 -3.3531496E-01 -1.0874248E+00
  4.318E-02  1.318E+00  1.948E+00 3.3049508E+00 -3.5082230E-01 -1.0449490E+00
  0.000E+00  1.247E+00  1.969E+00 3.2964393E+00 -2.8127739E-01 -1.1032459E+00
  4.318E-02  1.271E+00  1.963E+00 3.3012135E+00 -2.9879093E-01 -1.0615050E+00
  0.000E+00  1.198E+00  1.980E+00 3.2798825E+00 -2.2601109E-01 -1.1159485E+00
  4.318E-02  1.223E+00  1.975E+00 3.2891691E+00 -2.4590264E-01 -1.0753960E+00
  0.000E+00  1.149E+00  1.989E+00 3.2622117E+00 -1.6969559E-01 -1.1254978E+00
  4.318E-02  1.174E+00  1.985E+00 3.2709796E+00 -1.9176078E-01 -1.0861176E+00
  0.000E+00  1.100E+00  1.995E+00 3.2503182E+00 -1.1307273E-01 -1.1323268E+00
  4.318E-02  1.124E+00  1.992E+00 3.2555080E+00 -1.3697668E-01 -1.0940118E+00
  0.000E+00  1.050E+00  1.999E+00 3.2447921E+00 -5.6510335E-02 -1.1365603E+00
  4.318E-02  1.075E+00  1.997E+00 3.2466346E+00 -8.2137621E-02 -1.0993857E+00
  0.000E+00  1.000E+00  2.000E+00 3.2433514E+00 -1.8667370E-07 -1.1380099E+00
  4.318E-02  1.025E+00  2.000E+00 3.2431830E+00 -2.7371504E-02 -1.1021593E+00
  0.000E+00  9.502E-01  1.999E+00 3.2447917E+00 5.6509962E-02 -1.1365603E+00
  4.318E-02  9.751E-01  2.000E+00 3.2431829E+00 2.7371147E-02 -1.1021593E+00
  0.000E+00  9.004E-01  1.995E+00 3.2503175E+00 1.1307236E-01 -1.1323268E+00
  4.318E-02  9.253E-01  1.997E+00 3.2466341E+00 8.2137264E-02 -1.0993857E+00
  0.000E+00  8.510E-01  1.989E+00 3.2622107E+00 1.6969521E-01 -1.1254978E+00
  4.318E-02  8.757E-01  1.992E+00 3.2555071E+00 1.3697632E-01 -1.0940118E+00
  0.000E+00  8.019E-01  1.980E+00 3.2798810E+00 2.2601072E-01 -1.1159485E+00
  4.318E-02  8.264E-01  1.985E+00 3.2709784E+00 1.9176043E-01 -1.0861177E+00
  0.000E+00  7.532E-01  1.969E+00 3.2964376E+00 2.8127702E-01 -1.1032459E+00
  4.318E-02  7.775E-01  1.975E+00 3.2891675E+00 2.4590229E-01 -1.0753961E+00
  0.000E+00  7.052E-01  1.956E+00 3.3038727E+00 3.3531459E-01 -1.0874249E+00
  4.318E-02  7.292E-01  1.963E+00 3.3012116E+00 2.9879058E-01 -1.0615051E+00
  0.000E+00  6.580E-01  1.940E+00 3.3153386E+00 3.8890493E-01 -1.0692601E+00
  4.318E-02  6.815E-01  1.948E+00 3.3049486E+00 3.5082194E-01 -1.0449491E+00
  0.000E+00  6.116E-01  1.921E+00 3.3489829E+00 4.4213285E-01 -1.0488747E+00
  4.318E-02  6.347E-01  1.931E+00 3.3336100E+00 4.0267122E-01 -1.0263568E+00
  0.000E+00  5.661E-01  1.901E+00 3.3574978E+00 4.9391789E-01 -1.0255149E+00
  4.318E-02  5.887E-01  1.912E+00 3.3594010E+00 4.5363204E-01 -1.0052106E+00
  0.000E+00  5.217E-01  1.878E+00 3.3753834E+00 5.4427787E-01 -9.9950497E-01
  4.318E-02  5.438E-01  1.890E+00 3.3574294E+00 5.0304328E-01 -9.8120571E-01
  0.000E+00  4.786E-01  1.853E+00 3.4010612E+00 5.9347445E-01 -9.7119053E-01
  4.318E-02  5.000E-01  1.866E+00 3.3914081E+00 5.5129309E-01 -9.5490636E-01
  0.000E+00  4.367E-01  1.826E+00 3.3982136E+00 6.4115051E-01 -9.4039322E-01
  4.318E-02  4.575E-01  1.840E+00 3.3911182E+00 5.9825624E-01 -9.2627876E-01
  0.000E+00  3.962E-01  1.797E+00 3.4191862E+00 6.8721809E-01 -9.0725536E-01
  4.318E-02  4.163E-01  1.812E+00 3.4222245E+00 6.4366224E-01 -8.9528146E-01
  0.000E+00  3.572E-01  1.766E+00 3.4268106E+00 7.3159497E-01 -8.7188139E-01
  4.318E-02  3.765E-01  1.782E+00 3.4132044E+00 6.8749556E-01 -8.6209203E-01
  0.000E+00  3.198E-01  1.733E+00 3.4282708E+00 7.7414208E-01 -8.3432827E-01
  4.318E-02  3.383E-01  1.750E+00 3.4296270E+00 7.2961229E-01 -8.2675261E-01
  0.000E+00  2.841E-01  1.698E+00 3.4295725E+00 8.1476841E-01 -7.9470257E-01
  4.318E-02  3.018E-01  1.716E+00 3.4295838E+00 7.6991503E-01 -7.8935544E-01
  0.000E+00  2.502E-01  1.662E+00 3.4296151E+00 8.5336951E-01 -7.5310224E-01
  4.318E-02  2.669E-01  1.680E+00 3.4282816E+00 8.0830458E-01 -7.4999610E-01
  0.000E+00  2.182E-01  1.623E+00 3.4131921E+00 8.8984682E-01 -7.0962964E-01
  4.318E-02  2.340E-01  1.643E+00 3.4268209E+00 8.4468643E-01 -7.0877607E-01
  0.000E+00  1.881E-01  1.584E+00 3.4222118E+00 9.2410504E-01 -6.6438530E-01
  4.318E-02  2.029E-01  1.604E+00 3.4191960E+00 8.7895720E-01 -6.6578349E-01
  0.000E+00  1.600E-01  1.543E+00 3.3911051E+00 9.5610013E-01 -6.1751738E-01
  4.318E-02  1.738E-01  1.563E+00 3.3982230E+00 9.1106170E-01 -6.2115303E-01
  0.000E+00  1.340E-01  1.500E+00 3.3913943E+00 9.8564891E-01 -5.6904206E-01
  4.318E-02  1.467E-01  1.521E+00 3.4010699E+00 9.4089786E-01 -5.7496394E-01
  0.000E+00  1.101E-01  1.456E+00 3.3574151E+00 1.0127953E+00 -5.1923889E-01
  4.318E-02  1.218E-01  1.478E+00 3.3753915E+00 9.6832911E-01 -5.2730164E-01
  0.000E+00  8.849E-02  1.411E+00 3.3593864E+00 1.0375733E+00 -4.6823728E-01
  4.318E-02  9.903E-02  1.434E+00 3.3575056E+00 9.9352792E-01 -4.7851224E-01
  0.000E+00  6.913E-02  1.365E+00 3.3335951E+00 1.0594006E+00 -4.1563591E-01
  4.318E-02  7.852E-02  1.388E+00 3.3489902E+00 1.0161592E+00 -4.2834252E-01
  0.000E+00  5.207E-02  1.318E+00 3.3049332E+00 1.0785914E+00 -3.6211711E-01
  4.318E-02  6.031E-02  1.342E+00 3.3153452E+00 1.0359093E+00 -3.7677520E-01
  0.000E+00  3.738E-02  1.271E+00 3.3011957E+00 1.0956800E+00 -3.0841028E-01
  4.318E-02  4.443E-02  1.295E+00 3.3038783E+00 1.0535072E+00 -3.2485668E-01
  0.000E+00  2.507E-02  1.223E+00 3.2891510E+00 1.1100179E+00 -2.5381911E-01
  4.318E-02  3.092E-02  1.247E+00 3.2964424E+00 1.0688343E+00 -2.7250461E-01
  0.000E+00  1.519E-02  1.174E+00 3.2709612E+00 1.1210848E+00 -1.9793418E-01
  4.318E-02  1.983E-02  1.198E+00 3.2798854E+00 1.0811407E+00 -2.1896186E-01
  0.000E+00  7.761E-03  1.124E+00 3.2554895E+00 1.1292334E+00 -1.4138642E-01
  4.318E-02  1.117E-02  1.149E+00 3.2622149E+00 1.0903924E+00 -1.6440258E-01
  0.000E+00  2.796E-03  1.075E+00 3.2466161E+00 1.1347805E+00 -8.4781919E-02
  4.318E-02  4.969E-03  1.100E+00 3.2503216E+00 1.0970086E+00 -1.0954567E-01
  0.000E+00  3.108E-04  1.025E+00 3.2431646E+00 1.1376434E+00 -2.8252656E-02
  4.318E-02  1.243E-03  1.050E+00 3.2447955E+00 1.1011102E+00 -5.4747517E-02
  0.000E+00  3.108E-04  9.751E-01 3.2431643E+00 1.1376434E+00 2.8252408E-02
  4.318E-02  0.000E+00  1.000E+00 3.2433548E+00 1.1025146E+00 -1.0013880E-07
  0.000E+00  2.796E-03  9.253E-01 3.2466154E+00 1.1347804E+00 8.4781674E-02
  4.318E-02  1.243E-03  9.502E-01 3.2447950E+00 1.1011101E+00 5.4747315E-02
  0.000E+00  7.761E-03  8.757E-01 3.2554882E+00 1.1292333E+00 1.4138619E-01
  4.318E-02  4.969E-03  9.004E-01 3.2503205E+00 1.0970085E+00 1.0954547E-01
  0.000E+00  1.519E-02  8.264E-01 3.2709595E+00 1.1210849E+00 1.9793396E-01
  4.318E-02  1.117E-02  8.510E-01 3.2622134E+00 1.0903923E+00 1.6440237E-01
  0.000E+00  2.507E-02  7.775E-01 3.2891488E+00 1.1100182E+00 2.5381889E-01
  4.318E-02  1.983E-02  8.019E-01 3.2798834E+00 1.0811408E+00 2.1896165E-01
  0.000E+00  3.738E-02  7.292E-01 3.3011929E+00 1.0956800E+00 3.0841007E-01
  4.318E-02  3.092E-02  7.532E-01 3.2964399E+00 1.0688345E+00 2.7250440E-01
  0.000E+00  5.207E-02  6.815E-01 3.3049300E+00 1.0785911E+00 3.6211689E-01
  4.318E-02  4.443E-02  7.052E-01 3.3038753E+00 1.0535070E+00 3.2485648E-01
  0.000E+00  6.913E-02  6.347E-01 3.3335914E+00 1.0594008E+00 4.1563570E-01
  4.318E-02  6.031E-02  6.580E-01 3.3153418E+00 1.0359091E+00 3.7677499E-01
  0.000E+00  8.849E-02  5.887E-01 3.3593823E+00 1.0375736E+00 4.6823707E-01
  4.318E-02  7.852E-02  6.116E-01 3.3489864E+00 1.0161596E+00 4.2834232E-01
  0.000E+00  1.101E-01  5.438E-01 3.3574105E+00 1.0127950E+00 5.1923867E-01
  4.318E-02  9.903E-02  5.661E-01 3.3575013E+00 9.9352781E-01 4.7851204E-01
  0.000E+00  1.340E-01  5.000E-01 3.3913894E+00 9.8564914E-01 5.6904186E-01
  4.318E-02  1.218E-01  5.217E-01 3.3753868E+00 9.6832902E-01 5.2730144E-01
  0.000E+00  1.600E-01  4.575E-01 3.3910997E+00 9.5610017E-01 6.1751717E-01
  4.318E-02  1.467E-01  4.786E-01 3.4010648E+00 9.4089810E-01 5.7496375E-01
  0.000E+00  1.881E-01  4.163E-01 3.4222061E+00 9.2410510E-01 6.6438510E-01
  4.318E-02  1.738E-01  4.367E-01 3.3982175E+00 9.1106163E-01 6.2115284E-01
  0.000E+00  2.182E-01  3.765E-01 3.4131860E+00 8.8984693E-01 7.0962944E-01
  4.318E-02  2.029E-01  3.962E-01 3.4191901E+00 8.7895737E-01 6.6578331E-01
  0.000E+00  2.502E-01  3.383E-01 3.4296087E+00 8.5336958E-01 7.5310204E-01
  4.318E-02  2.340E-01  3.572E-01 3.4268146E+00 8.4468646E-01 7.0877589E-01
  0.000E+00  2.841E-01  3.018E-01 3.4295657E+00 8.1476853E-01 7.9470238E-01
  4.318E-02  2.669E-01  3.198E-01 3.4282750E+00 8.0830468E-01 7.4999593E-01
  0.000E+00  3.198E-01  2.669E-01 3.4282638E+00 7.7414213E-01 8.3432808E-01
  4.318E-02  3.018E-01  2.841E-01 3.4295769E+00 7.6991508E-01 7.8935527E-01
  0.000E+00  3.572E-01  2.340E-01 3.4268032E+00 7.3159498E-01 8.7188119E-01
  4.318E-02  3.383E-01  2.502E-01 3.4296198E+00 7.2961240E-01 8.2675245E-01
  0.000E+00  3.962E-01  2.029E-01 3.4191786E+00 6.8721811E-01 9.0725516E-01
  4.318E-02  3.765E-01  2.182E-01 3.4131969E+00 6.8749567E-01 8.6209189E-01
  0.000E+00  4.367E-01  1.738E-01 3.3982058E+00 6.4115068E-01 9.4039307E-01
  4.318E-02  4.163E-01  1.881E-01 3.4222168E+00 6.4366231E-01 8.9528131E-01
  0.000E+00  4.786E-01  1.467E-01 3.4010531E+00 5.9347482E-01 9.7119043E-01
  4.318E-02  4.575E-01  1.600E-01 3.3911103E+00 5.9825617E-01 9.2627858E-01
  0.000E+00  5.217E-01  1.218E-01 3.3753752E+00 5.4427809E-01 9.9950485E-01
  4.318E-02  5.000E-01  1.340E-01 3.3913999E+00 5.5129301E-01 9.5490616E-01
  0.000E+00  5.661E-01  9.903E-02 3.3574897E+00 4.9391762E-01 1.0255146E+00
  4.318E-02  5.438E-01  1.101E-01 3.3574209E+00 5.0304341E-01 9.8120557E-01
  0.000E+00  6.116E-01  7.852E-02 3.3489746E+00 4.4213228E-01 1.0488743E+00
  4.318E-02  5.887E-01  8.849E-02 3.3593923E+00 4.5363248E-01 1.0052106E+00
  0.000E+00  6.580E-01  6.031E-02 3.3153299E+00 3.8890479E-01 1.0692599E+00
  4.318E-02  6.347E-01  6.913E-02 3.3336014E+00 4.0267159E-01 1.0263568E+00
  0.000E+00  7.052E-01  4.443E-02 3.3038634E+00 3.3531529E-01 1.0874248E+00
  4.318E-02  6.815E-01  5.207E-02 3.3049401E+00 3.5082184E-01 1.0449489E+00
  0.000E+00  7.532E-01  3.092E-02 3.2964281E+00 2.8127816E-01 1.1032461E+00
  4.318E-02  7.292E-01  3.738E-02 3.3012031E+00 2.9879003E-01 1.0615048E+00
  0.000E+00  8.019E-01  1.983E-02 3.2798718E+00 2.2601162E-01 1.1159487E+00
  4.318E-02  7.775E-01  2.507E-02 3.2891588E+00 2.4590173E-01 1.0753957E+00
  0.000E+00  8.510E-01  1.117E-02 3.2622017E+00 1.6969556E-01 1.1254979E+00
  4.318E-02  8.264E-01  1.519E-02 3.2709693E+00 1.9176017E-01 1.0861173E+00
  0.000E+00  9.004E-01  4.969E-03 3.2503088E+00 1.1307232E-01 1.1323269E+00
  4.318E-02  8.757E-01  7.761E-03 3.2554978E+00 1.3697638E-01 1.0940116E+00
  4.318E-02  9.253E-01  2.796E-03 3.2466247E+00 8.2137444E-02 1.0993855E+00
  1.000E+01  1.050E+00  1.243E-03 3.2447834E+00 -5.6510120E-02 1.1365603E+00
  1.000E+01  1.000E+00  5.551E-16 3.2433427E+00 -1.2909483E-07 1.1380100E+00
  9.957E+00  1.025E+00  3.108E-04 3.2431673E+00 -2.9136070E-02 1.1732161E+00
  1.000E+01  9.502E-01  1.243E-03 3.2447830E+00 5.6509862E-02 1.1365603E+00
  9.957E+00  9.751E-01  3.108E-04 3.2431672E+00 2.9135797E-02 1.1732161E+00
  1.000E+01  9.004E-01  4.969E-03 3.2503088E+00 1.1307232E-01 1.1323269E+00
  9.957E+00  9.253E-01  2.796E-03 3.2466184E+00 8.7432599E-02 1.1702637E+00
  1.000E+01  8.510E-01  1.117E-02 3.2622017E+00 1.6969556E-01 1.1254979E+00
  9.957E+00  8.757E-01  7.761E-03 3.2554915E+00 1.4580696E-01 1.1645432E+00
  1.000E+01  8.019E-01  1.983E-02 3.2798718E+00 2.2601162E-01 1.1159487E+00
  9.957E+00  8.264E-01  1.519E-02 3.2709630E+00 2.0412279E-01 1.1561401E+00
  1.000E+01  7.532E-01  3.092E-02 3.2964281E+00 2.8127816E-01 1.1032461E+00
  9.957E+00  7.775E-01  2.507E-02 3.2891525E+00 2.6175519E-01 1.1447273E+00
  1.000E+01  7.052E-01  4.443E-02 3.3038634E+00 3.3531529E-01 1.0874248E+00
  9.957E+00  7.292E-01  3.738E-02 3.3011968E+00 3.1805359E-01 1.1299410E+00
  1.000E+01  6.580E-01  6.031E-02 3.3153299E+00 3.8890479E-01 1.0692599E+00
  9.957E+00  6.815E-01  5.207E-02 3.3049338E+00 3.7344001E-01 1.1123177E+00
  1.000E+01  6.116E-01  7.852E-02 3.3489746E+00 4.4213228E-01 1.0488743E+00
  9.957E+00  6.347E-01  6.913E-02 3.3335950E+00 4.2863228E-01 1.0925266E+00
  1.000E+01  5.661E-01  9.903E-02 3.3574897E+00 4.9391762E-01 1.0255146E+00
  9.957E+00  5.887E-01  8.849E-02 3.3593859E+00 4.8287830E-01 1.0700169E+00
  1.000E+01  5.217E-01  1.218E-01 3.3753752E+00 5.4427809E-01 9.9950485E-01
  9.957E+00  5.438E-01  1.101E-01 3.3574145E+00 5.3547464E-01 1.0444643E+00
  1.000E+01  4.786E-01  1.467E-01 3.4010531E+00 5.9347482E-01 9.7119043E-01
  9.957E+00  5.000E-01  1.340E-01 3.3913936E+00 5.8683516E-01 1.0164695E+00
  1.000E+01  4.367E-01  1.738E-01 3.3982058E+00 6.4115068E-01 9.4039307E-01
  9.957E+00  4.575E-01  1.600E-01 3.3911041E+00 6.3682621E-01 9.8599652E-01
  1.000E+01  3.962E-01  2.029E-01 3.4191786E+00 6.8721811E-01 9.0725516E-01
  9.957E+00  4.163E-01  1.881E-01 3.4222105E+00 6.8515952E-01 9.5300074E-01
  1.000E+01  3.572E-01  2.340E-01 3.4268032E+00 7.3159498E-01 8.7188119E-01
  9.957E+00  3.765E-01  2.182E-01 3.4131906E+00 7.3181868E-01 9.1767148E-01
  1.000E+01  3.198E-01  2.669E-01 3.4282638E+00 7.7414213E-01 8.3432808E-01
  9.957E+00  3.383E-01  2.502E-01 3.4296134E+00 7.7665070E-01 8.8005367E-01
  1.000E+01  2.841E-01  3.018E-01 3.4295657E+00 8.1476853E-01 7.9470238E-01
  9.957E+00  3.018E-01  2.841E-01 3.4295706E+00 8.1955175E-01 8.4024554E-01
  1.000E+01  2.502E-01  3.383E-01 3.4296087E+00 8.5336958E-01 7.5310204E-01
  9.957E+00  2.669E-01  3.198E-01 3.4282687E+00 8.6041643E-01 7.9834873E-01
  1.000E+01  2.182E-01  3.765E-01 3.4131860E+00 8.8984693E-01 7.0962944E-01
  9.957E+00  2.340E-01  3.572E-01 3.4268083E+00 8.9914384E-01 7.5447121E-01
  1.000E+01  1.881E-01  4.163E-01 3.4222061E+00 9.2410510E-01 6.6438510E-01
  9.957E+00  2.029E-01  3.962E-01 3.4191838E+00 9.3562417E-01 7.0870683E-01
  1.000E+01  1.600E-01  4.575E-01 3.3910997E+00 9.5610017E-01 6.1751717E-01
  9.957E+00  1.738E-01  4.367E-01 3.3982111E+00 9.6979811E-01 6.6119876E-01
  1.000E+01  1.340E-01  5.000E-01 3.3913894E+00 9.8564914E-01 5.6904186E-01
  9.957E+00  1.467E-01  4.786E-01 3.4010584E+00 1.0015583E+00 6.1203185E-01
  1.000E+01  1.101E-01  5.438E-01 3.3574105E+00 1.0127950E+00 5.1923867E-01
  9.957E+00  1.218E-01  5.217E-01 3.3753805E+00 1.0307580E+00 5.6129692E-01
  1.000E+01  8.849E-02  5.887E-01 3.3593823E+00 1.0375736E+00 4.6823707E-01
  9.957E+00  9.903E-02  5.661E-01 3.3574951E+00 1.0575815E+00 5.0936219E-01
  1.000E+01  6.913E-02  6.347E-01 3.3335914E+00 1.0594008E+00 4.1563570E-01
  9.957E+00  7.852E-02  6.116E-01 3.3489800E+00 1.0816722E+00 4.5595769E-01
  1.000E+01  5.207E-02  6.815E-01 3.3049300E+00 1.0785911E+00 3.6211689E-01
  9.957E+00  6.031E-02  6.580E-01 3.3153354E+00 1.1026948E+00 4.0106545E-01
  1.000E+01  3.738E-02  7.292E-01 3.3011929E+00 1.0956800E+00 3.0841007E-01
  9.957E+00  4.443E-02  7.052E-01 3.3038689E+00 1.1214272E+00 3.4579969E-01
  1.000E+01  2.507E-02  7.775E-01 3.2891488E+00 1.1100182E+00 2.5381889E-01
  9.957E+00  3.092E-02  7.532E-01 3.2964335E+00 1.1377430E+00 2.9007268E-01
  1.000E+01  1.519E-02  8.264E-01 3.2709595E+00 1.1210849E+00 1.9793396E-01
  9.957E+00  1.983E-02  8.019E-01 3.2798771E+00 1.1508428E+00 2.3307831E-01
  1.000E+01  7.761E-03  8.757E-01 3.2554882E+00 1.1292333E+00 1.4138619E-01
  9.957E+00  1.117E-02  8.510E-01 3.2622071E+00 1.1606908E+00 1.7500176E-01
  1.000E+01  2.796E-03  9.253E-01 3.2466154E+00 1.1347804E+00 8.4781674E-02
  9.957E+00  4.969E-03  9.004E-01 3.2503143E+00 1.1677336E+00 1.1660821E-01
  1.000E+01  3.108E-04  9.751E-01 3.2431643E+00 1.1376434E+00 2.8252408E-02
  9.957E+00  1.243E-03  9.502E-01 3.2447887E+00 1.1720996E+00 5.8277079E-02
  1.000E+01  3.108E-04  1.025E+00 3.2431646E+00 1.1376434E+00 -2.8252656E-02
  9.957E+00  0.000E+00  1.000E+00 3.2433485E+00 1.1735947E+00 -1.2631897E-07
  1.000E+01  2.796E-03  1.075E+00 3.2466161E+00 1.1347805E+00 -8.4781919E-02
  9.957E+00  1.243E-03  1.050E+00 3.2447892E+00 1.1720997E+00 -5.8277332E-02
  1.000E+01  7.761E-03  1.124E+00 3.2554895E+00 1.1292334E+00 -1.4138642E-01
  9.957E+00  4.969E-03  1.100E+00 3.2503153E+00 1.1677337E+00 -1.1660847E-01
  1.000E+01  1.519E-02  1.174E+00 3.2709612E+00 1.1210848E+00 -1.9793418E-01
  9.957E+00  1.117E-02  1.149E+00 3.2622086E+00 1.1606909E+00 -1.7500202E-01
  1.000E+01  2.507E-02  1.223E+00 3.2891510E+00 1.1100179E+00 -2.5381911E-01
  9.957E+00  1.983E-02  1.198E+00 3.2798791E+00 1.1508427E+00 -2.3307857E-01
  1.000E+01  3.738E-02  1.271E+00 3.3011957E+00 1.0956800E+00 -3.0841028E-01
  9.957E+00  3.092E-02  1.247E+00 3.2964360E+00 1.1377428E+00 -2.9007295E-01
  1.000E+01  5.207E-02  1.318E+00 3.3049332E+00 1.0785914E+00 -3.6211711E-01
  9.957E+00  4.443E-02  1.295E+00 3.3038719E+00 1.1214274E+00 -3.4579995E-01
  1.000E+01  6.913E-02  1.365E+00 3.3335951E+00 1.0594006E+00 -4.1563591E-01
  9.957E+00  6.031E-02  1.342E+00 3.3153388E+00 1.1026950E+00 -4.0106571E-01
  1.000E+01  8.849E-02  1.411E+00 3.3593864E+00 1.0375733E+00 -4.6823728E-01
  9.957E+00  7.852E-02  1.388E+00 3.3489839E+00 1.0816719E+00 -4.5595795E-01
  1.000E+01  1.101E-01  1.456E+00 3.3574151E+00 1.0127953E+00 -5.1923889E-01
  9.957E+00  9.903E-02  1.434E+00 3.3574994E+00 1.0575816E+00 -5.0936244E-01
  1.000E+01  1.340E-01  1.500E+00 3.3913943E+00 9.8564891E-01 -5.6904206E-01
  9.957E+00  1.218E-01  1.478E+00 3.3753853E+00 1.0307580E+00 -5.6129716E-01
  1.000E+01  1.600E-01  1.543E+00 3.3911051E+00 9.5610013E-01 -6.1751738E-01
  9.957E+00  1.467E-01  1.521E+00 3.4010635E+00 1.0015580E+00 -6.1203210E-01
  1.000E+01  1.881E-01  1.584E+00 3.4222118E+00 9.2410504E-01 -6.6438530E-01
  9.957E+00  1.738E-01  1.563E+00 3.3982166E+00 9.6979819E-01 -6.6119900E-01
  1.000E+01  2.182E-01  1.623E+00 3.4131921E+00 8.8984682E-01 -7.0962964E-01
  9.957E+00  2.029E-01  1.604E+00 3.4191897E+00 9.3562400E-01 -7.0870706E-01
  1.000E+01  2.502E-01  1.662E+00 3.4296151E+00 8.5336951E-01 -7.5310224E-01
  9.957E+00  2.340E-01  1.643E+00 3.4268146E+00 8.9914381E-01 -7.5447144E-01
  1.000E+01  2.841E-01  1.698E+00 3.4295725E+00 8.1476841E-01 -7.9470257E-01
  9.957E+00  2.669E-01  1.680E+00 3.4282753E+00 8.6041633E-01 -7.9834896E-01
  1.000E+01  3.198E-01  1.733E+00 3.4282708E+00 7.7414208E-01 -8.3432827E-01
  9.957E+00  3.018E-01  1.716E+00 3.4295774E+00 8.1955170E-01 -8.4024577E-01
  1.000E+01  3.572E-01  1.766E+00 3.4268106E+00 7.3159497E-01 -8.7188139E-01
  9.957E+00  3.383E-01  1.750E+00 3.4296206E+00 7.7665059E-01 -8.8005388E-01
  1.000E+01  3.962E-01  1.797E+00 3.4191862E+00 6.8721809E-01 -9.0725536E-01
  9.957E+00  3.765E-01  1.782E+00 3.4131980E+00 7.3181857E-01 -9.1767167E-01
  1.000E+01  4.367E-01  1.826E+00 3.3982136E+00 6.4115051E-01 -9.4039322E-01
  9.957E+00  4.163E-01  1.812E+00 3.4222182E+00 6.8515945E-01 -9.5300095E-01
  1.000E+01  4.786E-01  1.853E+00 3.4010612E+00 5.9347445E-01 -9.7119053E-01
  9.957E+00  4.575E-01  1.840E+00 3.3911120E+00 6.3682627E-01 -9.8599676E-01
  1.000E+01  5.217E-01  1.878E+00 3.3753834E+00 5.4427787E-01 -9.9950497E-01
  9.957E+00  5.000E-01  1.866E+00 3.3914017E+00 5.8683525E-01 -1.0164698E+00
  1.000E+01  5.661E-01  1.901E+00 3.3574978E+00 4.9391789E-01 -1.0255149E+00
  9.957E+00  5.438E-01  1.890E+00 3.3574229E+00 5.3547454E-01 -1.0444645E+00
  1.000E+01  6.116E-01  1.921E+00 3.3489829E+00 4.4213285E-01 -1.0488747E+00
  9.957E+00  5.887E-01  1.912E+00 3.3593946E+00 4.8287786E-01 -1.0700170E+00
  1.000E+01  6.580E-01  1.940E+00 3.3153386E+00 3.8890493E-01 -1.0692601E+00
  9.957E+00  6.347E-01  1.931E+00 3.3336038E+00 4.2863184E-01 -1.0925267E+00
  1.000E+01  7.052E-01  1.956E+00 3.3038727E+00 3.3531459E-01 -1.0874249E+00
  9.957E+00  6.815E-01  1.948E+00 3.3049425E+00 3.7344003E-01 -1.1123179E+00
  1.000E+01  7.532E-01  1.969E+00 3.2964376E+00 2.8127702E-01 -1.1032459E+00
  9.957E+00  7.292E-01  1.963E+00 3.3012054E+00 3.1805411E-01 -1.1299413E+00
  1.000E+01  8.019E-01  1.980E+00 3.2798810E+00 2.2601072E-01 -1.1159485E+00
  9.957E+00  7.775E-01  1.975E+00 3.2891612E+00 2.6175581E-01 -1.1447277E+00
  1.000E+01  8.510E-01  1.989E+00 3.2622107E+00 1.6969521E-01 -1.1254978E+00
  9.957E+00  8.264E-01  1.985E+00 3.2709719E+00 2.0412312E-01 -1.1561404E+00
  1.000E+01  9.004E-01  1.995E+00 3.2503175E+00 1.1307236E-01 -1.1323268E+00
  9.957E+00  8.757E-01  1.992E+00 3.2555007E+00 1.4580695E-01 -1.1645436E+00
  1.000E+01  9.502E-01  1.999E+00 3.2447917E+00 5.6509962E-02 -1.1365603E+00
  9.957E+00  9.253E-01  1.997E+00 3.2466278E+00 8.7432439E-02 -1.1702640E+00
  1.000E+01  1.000E+00  2.000E+00 3.2433514E+00 -1.8667370E-07 -1.1380099E+00
  9.957E+00  9.751E-01  2.000E+00 3.2431766E+00 2.9135679E-02 -1.1732164E+00
  1.000E+01  1.050E+00  1.999E+00 3.2447921E+00 -5.6510335E-02 -1.1365603E+00
  9.957E+00  1.025E+00  2.000E+00 3.2431768E+00 -2.9136068E-02 -1.1732164E+00
  1.000E+01  1.100E+00  1.995E+00 3.2503182E+00 -1.1307273E-01 -1.1323268E+00
  9.957E+00  1.075E+00  1.997E+00 3.2466283E+00 -8.7432828E-02 -1.1702640E+00
  1.000E+01  1.149E+00  1.989E+00 3.2622117E+00 -1.6969559E-01 -1.1254978E+00
  9.957E+00  1.124E+00  1.992E+00 3.2555016E+00 -1.4580734E-01 -1.1645436E+00
  1.000E+01  1.198E+00  1.980E+00 3.2798825E+00 -2.2601109E-01 -1.1159485E+00
  9.957E+00  1.174E+00  1.985E+00 3.2709732E+00 -2.0412351E-01 -1.1561404E+00