# TIME = 9.000000
VARIABLES = X, Y, Z, FX, FY, FZ
ZONE N=29232 E=58212 F=FEPOINT ET=TRIANGLE
  0.000E+00  9.502E-01  1.243E-03 3.2368460E+00 8.4444341E-02 1.6983470E+00
  0.000E+00  1.000E+00  0.000E+00 3.2354034E+00 2.9001444E-06 1.7005134E+00
  4.318E-02  9.751E-01  3.108E-04 3.2352377E+00 4.1318824E-02 1.6636673E+00
  0.000E+00  1.050E+00  1.243E-03 3.2368457E+00 -8.4438546E-02 1.6983473E+00
  4.318E-02  1.025E+00  3.108E-04 3.2352376E+00 -4.1312989E-02 1.6636674E+00
  0.000E+00  1.100E+00  4.969E-03 3.2423743E+00 -1.6895842E-01 1.6920214E+00
  4.318E-02  1.075E+00  2.796E-03 3.2386912E+00 -1.2398017E-01 1.6594809E+00
  0.000E+00  1.149E+00  1.117E-02 3.2542649E+00 -2.5356938E-01 1.6818171E+00
  4.318E-02  1.124E+00  7.761E-03 3.2475638E+00 -2.0675732E-01 1.6513692E+00
  0.000E+00  1.198E+00  1.983E-02 3.2719271E+00 -3.3772174E-01 1.6675481E+00
  4.318E-02  1.174E+00  1.519E-02 3.2630284E+00 -2.8945138E-01 1.6394533E+00
  0.000E+00  1.247E+00  3.092E-02 3.2884848E+00 -4.2030608E-01 1.6485668E+00
  4.318E-02  1.223E+00  2.507E-02 3.2812121E+00 -3.7117582E-01 1.6232696E+00
  0.000E+00  1.295E+00  4.443E-02 3.2959486E+00 -5.0105318E-01 1.6249251E+00
  4.318E-02  1.271E+00  3.738E-02 3.2932714E+00 -4.5100794E-01 1.6023016E+00
  0.000E+00  1.342E+00  6.031E-02 3.3074402E+00 -5.8113132E-01 1.5977814E+00
  4.318E-02  1.318E+00  5.207E-02 3.2970498E+00 -5.2954714E-01 1.5773108E+00
  0.000E+00  1.388E+00  7.852E-02 3.3410564E+00 -6.6066825E-01 1.5673197E+00
  4.318E-02  1.365E+00  6.913E-02 3.3256968E+00 -6.0781235E-01 1.5492468E+00
  0.000E+00  1.434E+00  9.903E-02 3.3496008E+00 -7.3804968E-01 1.5324132E+00
  4.318E-02  1.411E+00  8.849E-02 3.3514762E+00 -6.8473623E-01 1.5173275E+00
  0.000E+00  1.478E+00  1.218E-01 3.3674973E+00 -8.1330226E-01 1.4935470E+00
  4.318E-02  1.456E+00  1.101E-01 3.3495598E+00 -7.5932024E-01 1.4810927E+00
  0.000E+00  1.521E+00  1.467E-01 3.3931563E+00 -8.8681653E-01 1.4512372E+00
  4.318E-02  1.500E+00  1.340E-01 3.3835063E+00 -8.3215116E-01 1.4413948E+00
  0.000E+00  1.563E+00  1.738E-01 3.3903547E+00 -9.5805827E-01 1.4052170E+00
  4.318E-02  1.543E+00  1.600E-01 3.3832570E+00 -9.0304026E-01 1.3981825E+00
  0.000E+00  1.604E+00  2.029E-01 3.4113075E+00 -1.0268963E+00 1.3556994E+00
  4.318E-02  1.584E+00  1.881E-01 3.4143288E+00 -9.7157896E-01 1.3513932E+00
  0.000E+00  1.643E+00  2.340E-01 3.4189395E+00 -1.0932082E+00 1.3028405E+00
  4.318E-02  1.623E+00  2.182E-01 3.4053522E+00 -1.0377439E+00 1.3012949E+00
  0.000E+00  1.680E+00  2.669E-01 3.4204046E+00 -1.1567860E+00 1.2467254E+00
  4.318E-02  1.662E+00  2.502E-01 3.4217561E+00 -1.1013176E+00 1.2479514E+00
  0.000E+00  1.716E+00  3.018E-01 3.4217091E+00 -1.2174937E+00 1.1875132E+00
  4.318E-02  1.698E+00  2.841E-01 3.4217216E+00 -1.1621533E+00 1.1915017E+00
  0.000E+00  1.750E+00  3.383E-01 3.4217435E+00 -1.2751751E+00 1.1253504E+00
  4.318E-02  1.733E+00  3.198E-01 3.4204169E+00 -1.2201010E+00 1.1320903E+00
  0.000E+00  1.782E+00  3.765E-01 3.4053396E+00 -1.3296829E+00 1.0603899E+00
  4.318E-02  1.766E+00  3.572E-01 3.4189516E+00 -1.2750183E+00 1.0698703E+00
  0.000E+00  1.812E+00  4.163E-01 3.4143162E+00 -1.3808748E+00 9.9278191E-01
  4.318E-02  1.797E+00  3.962E-01 3.4113195E+00 -1.3267490E+00 1.0049746E+00
  0.000E+00  1.840E+00  4.575E-01 3.3832443E+00 -1.4286850E+00 9.2274792E-01
  4.318E-02  1.826E+00  4.367E-01 3.3903665E+00 -1.3752098E+00 9.3760666E-01
  0.000E+00  1.866E+00  5.000E-01 3.3834933E+00 -1.4728396E+00 8.5031192E-01
  4.318E-02  1.853E+00  4.786E-01 3.3931678E+00 -1.4202468E+00 8.6788609E-01
  0.000E+00  1.890E+00  5.438E-01 3.3495467E+00 -1.5134044E+00 7.7589187E-01
  4.318E-02  1.878E+00  5.217E-01 3.3675085E+00 -1.4616535E+00 7.9594178E-01
  0.000E+00  1.912E+00  5.887E-01 3.3514631E+00 -1.5504304E+00 6.9968115E-01
  4.318E-02  1.901E+00  5.661E-01 3.3496119E+00 -1.4996907E+00 7.2229636E-01
  0.000E+00  1.931E+00  6.347E-01 3.3256835E+00 -1.5830469E+00 6.2107963E-01
  4.318E-02  1.921E+00  6.116E-01 3.3410675E+00 -1.5338522E+00 6.4656722E-01
  0.000E+00  1.948E+00  6.815E-01 3.2970361E+00 -1.6117236E+00 5.4110725E-01
  4.318E-02  1.940E+00  6.580E-01 3.3074513E+00 -1.5636642E+00 5.6872813E-01
  0.000E+00  1.963E+00  7.292E-01 3.2932577E+00 -1.6372594E+00 4.6085441E-01
  4.318E-02  1.956E+00  7.052E-01 3.2959594E+00 -1.5902279E+00 4.9035944E-01
  0.000E+00  1.975E+00  7.775E-01 3.2811984E+00 -1.6586849E+00 3.7928004E-01
  4.318E-02  1.969E+00  7.532E-01 3.2884949E+00 -1.6133642E+00 4.1133663E-01
  0.000E+00  1.985E+00  8.264E-01 3.2630147E+00 -1.6752222E+00 2.9577206E-01
  4.318E-02  1.980E+00  8.019E-01 3.2719368E+00 -1.6319406E+00 3.3051625E-01
  0.000E+00  1.992E+00  8.757E-01 3.2475500E+00 -1.6873986E+00 2.1127362E-01
  4.318E-02  1.989E+00  8.510E-01 3.2542743E+00 -1.6459058E+00 2.4816123E-01
  0.000E+00  1.997E+00  9.253E-01 3.2386773E+00 -1.6956877E+00 1.2669055E-01
  4.318E-02  1.995E+00  9.004E-01 3.2423839E+00 -1.6558929E+00 1.6535704E-01
  0.000E+00  2.000E+00  9.751E-01 3.2352236E+00 -1.6999660E+00 4.2220024E-02
  4.318E-02  1.999E+00  9.502E-01 3.2368554E+00 -1.6620843E+00 8.2641655E-02
  0.000E+00  2.000E+00  1.025E+00 3.2352236E+00 -1.6999661E+00 -4.2214316E-02
  4.318E-02  2.000E+00  1.000E+00 3.2354130E+00 -1.6642045E+00 2.8837006E-06
  0.000E+00  1.997E+00  1.075E+00 3.2386773E+00 -1.6956880E+00 -1.2668484E-01
  4.318E-02  1.999E+00  1.050E+00 3.2368554E+00 -1.6620846E+00 -8.2635899E-02
  0.000E+00  1.992E+00  1.124E+00 3.2475500E+00 -1.6873991E+00 -2.1126792E-01
  4.318E-02  1.995E+00  1.100E+00 3.2423839E+00 -1.6558934E+00 -1.6535131E-01
  0.000E+00  1.985E+00  1.174E+00 3.2630147E+00 -1.6752232E+00 -2.9576640E-01
  4.318E-02  1.989E+00  1.149E+00 3.2542743E+00 -1.6459066E+00 -2.4815554E-01
  0.000E+00  1.975E+00  1.223E+00 3.2811984E+00 -1.6586866E+00 -3.7927444E-01
  4.318E-02  1.980E+00  1.198E+00 3.2719368E+00 -1.6319420E+00 -3.3051060E-01
  0.000E+00  1.963E+00  1.271E+00 3.2932578E+00 -1.6372611E+00 -4.6084888E-01
  4.318E-02  1.969E+00  1.247E+00 3.2884949E+00 -1.6133660E+00 -4.1133103E-01
  0.000E+00  1.948E+00  1.318E+00 3.2970362E+00 -1.6117251E+00 -5.4110178E-01
  4.318E-02  1.956E+00  1.295E+00 3.2959594E+00 -1.5902294E+00 -4.9035391E-01
  0.000E+00  1.931E+00  1.365E+00 3.3256836E+00 -1.5830493E+00 -6.2107426E-01
  4.318E-02  1.940E+00  1.342E+00 3.3074513E+00 -1.5636660E+00 -5.6872268E-01
  0.000E+00  1.912E+00  1.411E+00 3.3514632E+00 -1.5504333E+00 -6.9967589E-01
  4.318E-02  1.921E+00  1.388E+00 3.3410675E+00 -1.5338551E+00 -6.4656187E-01
  0.000E+00  1.890E+00  1.456E+00 3.3495468E+00 -1.5134067E+00 -7.7588670E-01
  4.318E-02  1.901E+00  1.434E+00 3.3496119E+00 -1.4996932E+00 -7.2229112E-01
  0.000E+00  1.866E+00  1.500E+00 3.3834934E+00 -1.4728430E+00 -8.5030690E-01
  4.318E-02  1.878E+00  1.478E+00 3.3675085E+00 -1.4616563E+00 -7.9593666E-01
  0.000E+00  1.840E+00  1.543E+00 3.3832444E+00 -1.4286883E+00 -9.2274302E-01
  4.318E-02  1.853E+00  1.521E+00 3.3931678E+00 -1.4202503E+00 -8.6788111E-01
  0.000E+00  1.812E+00  1.584E+00 3.4143163E+00 -1.3808783E+00 -9.9277716E-01
  4.318E-02  1.826E+00  1.563E+00 3.3903665E+00 -1.3752132E+00 -9.3760182E-01
  0.000E+00  1.782E+00  1.623E+00 3.4053397E+00 -1.3296867E+00 -1.0603853E+00
  4.318E-02  1.797E+00  1.604E+00 3.4113195E+00 -1.3267530E+00 -1.0049699E+00
  0.000E+00  1.750E+00  1.662E+00 3.4217437E+00 -1.2751790E+00 -1.1253460E+00
  4.318E-02  1.766E+00  1.643E+00 3.4189516E+00 -1.2750223E+00 -1.0698658E+00
  0.000E+00  1.716E+00  1.698E+00 3.4217093E+00 -1.2174979E+00 -1.1875090E+00
  4.318E-02  1.733E+00  1.680E+00 3.4204168E+00 -1.2201053E+00 -1.1320860E+00
  0.000E+00  1.680E+00  1.733E+00 3.4204048E+00 -1.1567905E+00 -1.2467213E+00
  4.318E-02  1.698E+00  1.716E+00 3.4217215E+00 -1.1621576E+00 -1.1914976E+00
  0.000E+00  1.643E+00  1.766E+00 3.4189396E+00 -1.0932129E+00 -1.3028367E+00
  4.318E-02  1.662E+00  1.750E+00 3.4217561E+00 -1.1013222E+00 -1.2479475E+00
  0.000E+00  1.604E+00  1.797E+00 3.4113076E+00 -1.0269010E+00 -1.3556958E+00
  4.318E-02  1.623E+00  1.782E+00 3.4053522E+00 -1.0377486E+00 -1.3012913E+00
  0.000E+00  1.563E+00  1.826E+00 3.3903547E+00 -9.5806296E-01 -1.4052136E+00
  4.318E-02  1.584E+00  1.812E+00 3.4143288E+00 -9.7158402E-01 -1.3513897E+00
  0.000E+00  1.521E+00  1.853E+00 3.3931564E+00 -8.8682164E-01 -1.4512341E+00
  4.318E-02  1.543E+00  1.840E+00 3.3832571E+00 -9.0304543E-01 -1.3981793E+00
  0.000E+00  1.478E+00  1.878E+00 3.3674973E+00 -8.1330809E-01 -1.4935443E+00
  4.318E-02  1.500E+00  1.866E+00 3.3835064E+00 -8.3215621E-01 -1.4413918E+00
  0.000E+00  1.434E+00  1.901E+00 3.3496009E+00 -7.3805587E-01 -1.5324109E+00
  4.318E-02  1.456E+00  1.890E+00 3.3495599E+00 -7.5932502E-01 -1.4810899E+00
  0.000E+00  1.388E+00  1.921E+00 3.3410567E+00 -6.6067379E-01 -1.5673175E+00
  4.318E-02  1.411E+00  1.912E+00 3.3514761E+00 -6.8474132E-01 -1.5173249E+00
  0.000E+00  1.342E+00  1.940E+00 3.3074408E+00 -5.8113553E-01 -1.5977791E+00
  4.318E-02  1.365E+00  1.931E+00 3.3256964E+00 -6.0781834E-01 -1.5492447E+00
  0.000E+00  1.295E+00  1.956E+00 3.2959494E+00 -5.0105685E-01 -1.6249228E+00
  4.318E-02  1.318E+00  1.948E+00 3.2970493E+00 -5.2955393E-01 -1.5773092E+00
  0.000E+00  1.247E+00  1.969E+00 3.2884852E+00 -4.2031052E-01 -1.6485647E+00
  4.318E-02  1.271E+00  1.963E+00 3.2932713E+00 -4.5101473E-01 -1.6023004E+00
  0.000E+00  1.198E+00  1.980E+00 3.2719270E+00 -3.3772762E-01 -1.6675464E+00
  4.318E-02  1.223E+00  1.975E+00 3.2812123E+00 -3.7118188E-01 -1.6232687E+00
  0.000E+00  1.149E+00  1.989E+00 3.2542645E+00 -2.5357627E-01 -1.6818160E+00
  4.318E-02  1.174E+00  1.985E+00 3.2630288E+00 -2.8945669E-01 -1.6394526E+00
  0.000E+00  1.100E+00  1.995E+00 3.2423741E+00 -1.6896549E-01 -1.6920206E+00
  4.318E-02  1.124E+00  1.992E+00 3.2475642E+00 -2.0676235E-01 -1.6513687E+00
  0.000E+00  1.050E+00  1.999E+00 3.2368457E+00 -8.4445137E-02 -1.6983470E+00
  4.318E-02  1.075E+00  1.997E+00 3.2386913E+00 -1.2398537E-01 -1.6594806E+00
  0.000E+00  1.000E+00  2.000E+00 3.2354035E+00 -2.9300819E-06 -1.7005133E+00
  4.318E-02  1.025E+00  2.000E+00 3.2352375E+00 -4.1318610E-02 -1.6636675E+00
  0.000E+00  9.502E-01  1.999E+00 3.2368460E+00 8.4439282E-02 -1.6983473E+00
  4.318E-02  9.751E-01  2.000E+00 3.2352377E+00 4.1312717E-02 -1.6636676E+00
  0.000E+00  9.004E-01  1.995E+00 3.2423746E+00 1.6895965E-01 -1.6920212E+00
  4.318E-02  9.253E-01  1.997E+00 3.2386917E+00 1.2397949E-01 -1.6594811E+00
  0.000E+00  8.510E-01  1.989E+00 3.2542653E+00 2.5357047E-01 -1.6818169E+00
  4.318E-02  8.757E-01  1.992E+00 3.2475648E+00 2.0675650E-01 -1.6513695E+00
  0.000E+00  8.019E-01  1.980E+00 3.2719281E+00 3.3772186E-01 -1.6675476E+00
  4.318E-02  8.264E-01  1.985E+00 3.2630297E+00 2.8945088E-01 -1.6394537E+00
  0.000E+00  7.532E-01  1.969E+00 3.2884864E+00 4.2030482E-01 -1.6485662E+00
  4.318E-02  7.775E-01  1.975E+00 3.2812135E+00 3.7117612E-01 -1.6232701E+00
  0.000E+00  7.052E-01  1.956E+00 3.2959509E+00 5.0105121E-01 -1.6249246E+00
  4.318E-02  7.292E-01  1.963E+00 3.2932726E+00 4.5100903E-01 -1.6023021E+00
  0.000E+00  6.580E-01  1.940E+00 3.3074426E+00 5.8112998E-01 -1.5977812E+00
  4.318E-02  6.815E-01  1.948E+00 3.2970509E+00 5.2954831E-01 -1.5773112E+00
  0.000E+00  6.116E-01  1.921E+00 3.3410586E+00 6.6066832E-01 -1.5673198E+00
  4.318E-02  6.347E-01  1.931E+00 3.3256983E+00 6.0781280E-01 -1.5492469E+00
  0.000E+00  5.661E-01  1.901E+00 3.3496030E+00 7.3805053E-01 -1.5324136E+00
  4.318E-02  5.887E-01  1.912E+00 3.3514782E+00 6.8473588E-01 -1.5173274E+00
  0.000E+00  5.217E-01  1.878E+00 3.3674997E+00 8.1330285E-01 -1.4935472E+00
  4.318E-02  5.438E-01  1.890E+00 3.3495622E+00 7.5931971E-01 -1.4810927E+00
  0.000E+00  4.786E-01  1.853E+00 3.3931590E+00 8.8681653E-01 -1.4512372E+00
  4.318E-02  5.000E-01  1.866E+00 3.3835089E+00 8.3215099E-01 -1.4413948E+00
  0.000E+00  4.367E-01  1.826E+00 3.3903575E+00 9.5805802E-01 -1.4052170E+00
  4.318E-02  4.575E-01  1.840E+00 3.3832598E+00 9.0304039E-01 -1.3981826E+00
  0.000E+00  3.962E-01  1.797E+00 3.4113105E+00 1.0268962E+00 -1.3556995E+00
  4.318E-02  4.163E-01  1.812E+00 3.4143317E+00 9.7157911E-01 -1.3513933E+00
  0.000E+00  3.572E-01  1.766E+00 3.4189428E+00 1.0932082E+00 -1.3028406E+00
  4.318E-02  3.765E-01  1.782E+00 3.4053553E+00 1.0377439E+00 -1.3012950E+00
  0.000E+00  3.198E-01  1.733E+00 3.4204081E+00 1.1567860E+00 -1.2467254E+00
  4.318E-02  3.383E-01  1.750E+00 3.4217593E+00 1.1013176E+00 -1.2479515E+00
  0.000E+00  2.841E-01  1.698E+00 3.4217128E+00 1.2174937E+00 -1.1875133E+00
  4.318E-02  3.018E-01  1.716E+00 3.4217250E+00 1.1621533E+00 -1.1915018E+00
  0.000E+00  2.502E-01  1.662E+00 3.4217473E+00 1.2751750E+00 -1.1253504E+00
  4.318E-02  2.669E-01  1.680E+00 3.4204204E+00 1.2201011E+00 -1.1320904E+00
  0.000E+00  2.182E-01  1.623E+00 3.4053435E+00 1.3296828E+00 -1.0603900E+00
  4.318E-02  2.340E-01  1.643E+00 3.4189553E+00 1.2750184E+00 -1.0698704E+00
  0.000E+00  1.881E-01  1.584E+00 3.4143202E+00 1.3808748E+00 -9.9278197E-01
  4.318E-02  2.029E-01  1.604E+00 3.4113233E+00 1.3267491E+00 -1.0049747E+00
  0.000E+00  1.600E-01  1.543E+00 3.3832484E+00 1.4286850E+00 -9.2274800E-01
  4.318E-02  1.738E-01  1.563E+00 3.3903705E+00 1.3752099E+00 -9.3760675E-01
  0.000E+00  1.340E-01  1.500E+00 3.3834975E+00 1.4728396E+00 -8.5031201E-01
  4.318E-02  1.467E-01  1.521E+00 3.3931719E+00 1.4202468E+00 -8.6788618E-01
  0.000E+00  1.101E-01  1.456E+00 3.3495510E+00 1.5134044E+00 -7.7589196E-01
  4.318E-02  1.218E-01  1.478E+00 3.3675127E+00 1.4616536E+00 -7.9594187E-01
  0.000E+00  8.849E-02  1.411E+00 3.3514675E+00 1.5504304E+00 -6.9968124E-01
  4.318E-02  9.903E-02  1.434E+00 3.3496161E+00 1.4996907E+00 -7.2229645E-01
  0.000E+00  6.913E-02  1.365E+00 3.3256880E+00 1.5830469E+00 -6.2107972E-01
  4.318E-02  7.852E-02  1.388E+00 3.3410718E+00 1.5338522E+00 -6.4656731E-01
  0.000E+00  5.207E-02  1.318E+00 3.2970407E+00 1.6117236E+00 -5.4110733E-01
  4.318E-02  6.031E-02  1.342E+00 3.3074557E+00 1.5636642E+00 -5.6872823E-01
  0.000E+00  3.738E-02  1.271E+00 3.2932623E+00 1.6372593E+00 -4.6085450E-01
  4.318E-02  4.443E-02  1.295E+00 3.2959638E+00 1.5902279E+00 -4.9035954E-01
  0.000E+00  2.507E-02  1.223E+00 3.2812030E+00 1.6586849E+00 -3.7928014E-01
  4.318E-02  3.092E-02  1.247E+00 3.2884994E+00 1.6133642E+00 -4.1133673E-01
  0.000E+00  1.519E-02  1.174E+00 3.2630193E+00 1.6752221E+00 -2.9577215E-01
  4.318E-02  1.983E-02  1.198E+00 3.2719413E+00 1.6319405E+00 -3.3051635E-01
  0.000E+00  7.761E-03  1.124E+00 3.2475546E+00 1.6873985E+00 -2.1127370E-01
  4.318E-02  1.117E-02  1.149E+00 3.2542789E+00 1.6459058E+00 -2.4816134E-01
  0.000E+00  2.796E-03  1.075E+00 3.2386819E+00 1.6956876E+00 -1.2669065E-01
  4.318E-02  4.969E-03  1.100E+00 3.2423885E+00 1.6558929E+00 -1.6535715E-01
  0.000E+00  3.108E-04  1.025E+00 3.2352282E+00 1.6999660E+00 -4.2220144E-02
  4.318E-02  1.243E-03  1.050E+00 3.2368600E+00 1.6620843E+00 -8.2641756E-02
  0.000E+00  3.108E-04  9.751E-01 3.2352282E+00 1.6999661E+00 4.2214194E-02
  4.318E-02  0.000E+00  1.000E+00 3.2354177E+00 1.6642044E+00 -2.9816007E-06
  0.000E+00  2.796E-03  9.253E-01 3.2386819E+00 1.6956880E+00 1.2668473E-01
  4.318E-02  1.243E-03  9.502E-01 3.2368600E+00 1.6620845E+00 8.2635794E-02
  0.000E+00  7.761E-03  8.757E-01 3.2475546E+00 1.6873991E+00 2.1126782E-01
  4.318E-02  4.969E-03  9.004E-01 3.2423885E+00 1.6558933E+00 1.6535119E-01
  0.000E+00  1.519E-02  8.264E-01 3.2630192E+00 1.6752232E+00 2.9576630E-01
  4.318E-02  1.117E-02  8.510E-01 3.2542789E+00 1.6459066E+00 2.4815542E-01
  0.000E+00  2.507E-02  7.775E-01 3.2812029E+00 1.6586865E+00 3.7927433E-01
  4.318E-02  1.983E-02  8.019E-01 3.2719413E+00 1.6319419E+00 3.3051048E-01
  0.000E+00  3.738E-02  7.292E-01 3.2932622E+00 1.6372610E+00 4.6084876E-01
  4.318E-02  3.092E-02  7.532E-01 3.2884994E+00 1.6133660E+00 4.1133092E-01
  0.000E+00  5.207E-02  6.815E-01 3.2970406E+00 1.6117250E+00 5.4110167E-01
  4.318E-02  4.443E-02  7.052E-01 3.2959639E+00 1.5902293E+00 4.9035379E-01
  0.000E+00  6.913E-02  6.347E-01 3.3256878E+00 1.5830492E+00 6.2107415E-01
  4.318E-02  6.031E-02  6.580E-01 3.3074557E+00 1.5636659E+00 5.6872256E-01
  0.000E+00  8.849E-02  5.887E-01 3.3514674E+00 1.5504332E+00 6.9967577E-01
  4.318E-02  7.852E-02  6.116E-01 3.3410719E+00 1.5338550E+00 6.4656175E-01
  0.000E+00  1.101E-01  5.438E-01 3.3495509E+00 1.5134066E+00 7.7588658E-01
  4.318E-02  9.903E-02  5.661E-01 3.3496161E+00 1.4996931E+00 7.2229099E-01
  0.000E+00  1.340E-01  5.000E-01 3.3834974E+00 1.4728429E+00 8.5030678E-01
  4.318E-02  1.218E-01  5.217E-01 3.3675127E+00 1.4616563E+00 7.9593653E-01
  0.000E+00  1.600E-01  4.575E-01 3.3832483E+00 1.4286882E+00 9.2274290E-01
  4.318E-02  1.467E-01  4.786E-01 3.3931719E+00 1.4202502E+00 8.6788099E-01
  0.000E+00  1.881E-01  4.163E-01 3.4143201E+00 1.3808783E+00 9.9277705E-01
  4.318E-02  1.738E-01  4.367E-01 3.3903705E+00 1.3752131E+00 9.3760169E-01
  0.000E+00  2.182E-01  3.765E-01 3.4053433E+00 1.3296867E+00 1.0603852E+00
  4.318E-02  2.029E-01  3.962E-01 3.4113233E+00 1.3267528E+00 1.0049698E+00
  0.000E+00  2.502E-01  3.383E-01 3.4217472E+00 1.2751790E+00 1.1253459E+00
  4.318E-02  2.340E-01  3.572E-01 3.4189553E+00 1.2750222E+00 1.0698656E+00
  0.000E+00  2.841E-01  3.018E-01 3.4217126E+00 1.2174979E+00 1.1875089E+00
  4.318E-02  2.669E-01  3.198E-01 3.4204204E+00 1.2201052E+00 1.1320859E+00
  0.000E+00  3.198E-01  2.669E-01 3.4204079E+00 1.1567903E+00 1.2467212E+00
  4.318E-02  3.018E-01  2.841E-01 3.4217250E+00 1.1621576E+00 1.1914975E+00
  0.000E+00  3.572E-01  2.340E-01 3.4189427E+00 1.0932128E+00 1.3028366E+00
  4.318E-02  3.383E-01  2.502E-01 3.4217594E+00 1.1013222E+00 1.2479473E+00
  0.000E+00  3.962E-01  2.029E-01 3.4113105E+00 1.0269011E+00 1.3556958E+00
  4.318E-02  3.765E-01  2.182E-01 3.4053552E+00 1.0377486E+00 1.3012911E+00
  0.000E+00  4.367E-01  1.738E-01 3.3903575E+00 9.5806314E-01 1.4052136E+00
  4.318E-02  4.163E-01  1.881E-01 3.4143316E+00 9.7158382E-01 1.3513896E+00
  0.000E+00  4.786E-01  1.467E-01 3.3931589E+00 8.8682157E-01 1.4512339E+00
  4.318E-02  4.575E-01  1.600E-01 3.3832597E+00 9.0304524E-01 1.3981792E+00
  0.000E+00  5.217E-01  1.218E-01 3.3674997E+00 8.1330743E-01 1.4935440E+00
  4.318E-02  5.000E-01  1.340E-01 3.3835088E+00 8.3215632E-01 1.4413917E+00
  0.000E+00  5.661E-01  9.903E-02 3.3496030E+00 7.3805496E-01 1.5324105E+00
  4.318E-02  5.438E-01  1.101E-01 3.3495621E+00 7.5932550E-01 1.4810899E+00
  0.000E+00  6.116E-01  7.852E-02 3.3410584E+00 6.6067365E-01 1.5673172E+00
  4.318E-02  5.887E-01  8.849E-02 3.3514783E+00 6.8474162E-01 1.5173250E+00
  0.000E+00  6.580E-01  6.031E-02 3.3074419E+00 5.8113680E-01 1.5977793E+00
  4.318E-02  6.347E-01  6.913E-02 3.3256987E+00 6.0781783E-01 1.5492445E+00
  0.000E+00  7.052E-01  4.443E-02 3.2959501E+00 5.0105876E-01 1.6249233E+00
  4.318E-02  6.815E-01  5.207E-02 3.2970514E+00 5.2955271E-01 1.5773088E+00
  0.000E+00  7.532E-01  3.092E-02 3.2884860E+00 4.2031172E-01 1.6485653E+00
  4.318E-02  7.292E-01  3.738E-02 3.2932728E+00 4.5101359E-01 1.6022999E+00
  0.000E+00  8.019E-01  1.983E-02 3.2719282E+00 3.3772744E-01 1.6675468E+00
  4.318E-02  7.775E-01  2.507E-02 3.2812132E+00 3.7118153E-01 1.6232682E+00
  0.000E+00  8.510E-01  1.117E-02 3.2542656E+00 2.5357512E-01 1.6818162E+00
  4.318E-02  8.264E-01  1.519E-02 3.2630293E+00 2.8945713E-01 1.6394522E+00
  0.000E+00  9.004E-01  4.969E-03 3.2423748E+00 1.6896420E-01 1.6920207E+00
  4.318E-02  8.757E-01  7.761E-03 3.2475645E+00 2.0676312E-01 1.6513684E+00
  4.318E-02  9.253E-01  2.796E-03 3.2386916E+00 1.2398599E-01 1.6594804E+00
  1.000E+01  1.050E+00  1.243E-03 3.2368457E+00 -8.4438546E-02 1.6983473E+00
  1.000E+01  1.000E+00  5.551E-16 3.2354034E+00 2.9001444E-06 1.7005134E+00
  9.957E+00  1.025E+00  3.108E-04 3.2352292E+00 -4.3119110E-02 1.7363971E+00
  1.000E+01  9.502E-01  1.243E-03 3.2368460E+00 8.4444341E-02 1.6983470E+00
  9.957E+00  9.751E-01  3.108E-04 3.2352293E+00 4.3124869E-02 1.7363970E+00
  1.000E+01  9.004E-01  4.969E-03 3.2423748E+00 1.6896420E-01 1.6920207E+00
  9.957E+00  9.253E-01  2.796E-03 3.2386831E+00 1.2940577E-01 1.7320270E+00
  1.000E+01  8.510E-01  1.117E-02 3.2542656E+00 2.5357512E-01 1.6818162E+00
  9.957E+00  8.757E-01  7.761E-03 3.2475561E+00 2.1580153E-01 1.7235604E+00
  1.000E+01  8.019E-01  1.983E-02 3.2719282E+00 3.3772744E-01 1.6675468E+00
  9.957E+00  8.264E-01  1.519E-02 3.2630210E+00 3.0211069E-01 1.7111233E+00
  1.000E+01  7.532E-01  3.092E-02 3.2884860E+00 4.2031172E-01 1.6485653E+00
  9.957E+00  7.775E-01  2.507E-02 3.2812051E+00 3.8740804E-01 1.6942318E+00
  1.000E+01  7.052E-01  4.443E-02 3.2959501E+00 5.0105876E-01 1.6249233E+00
  9.957E+00  7.292E-01  3.738E-02 3.2932647E+00 4.7073042E-01 1.6723470E+00
  1.000E+01  6.580E-01  6.031E-02 3.3074419E+00 5.8113680E-01 1.5977793E+00
  9.957E+00  6.815E-01  5.207E-02 3.2970431E+00 5.5270312E-01 1.6462634E+00
  1.000E+01  6.116E-01  7.852E-02 3.3410584E+00 6.6067365E-01 1.5673172E+00
  9.957E+00  6.347E-01  6.913E-02 3.3256901E+00 6.3438947E-01 1.6169719E+00
  1.000E+01  5.661E-01  9.903E-02 3.3496030E+00 7.3805496E-01 1.5324105E+00
  9.957E+00  5.887E-01  8.849E-02 3.3514697E+00 7.1467574E-01 1.5836568E+00
  1.000E+01  5.217E-01  1.218E-01 3.3674997E+00 8.1330743E-01 1.4935440E+00
  9.957E+00  5.438E-01  1.101E-01 3.3495536E+00 7.9252000E-01 1.5458377E+00
  1.000E+01  4.786E-01  1.467E-01 3.3931589E+00 8.8682157E-01 1.4512339E+00
  9.957E+00  5.000E-01  1.340E-01 3.3835004E+00 8.6853495E-01 1.5044042E+00
  1.000E+01  4.367E-01  1.738E-01 3.3903575E+00 9.5806314E-01 1.4052136E+00
  9.957E+00  4.575E-01  1.600E-01 3.3832514E+00 9.4252304E-01 1.4593028E+00
  1.000E+01  3.962E-01  2.029E-01 3.4113105E+00 1.0269011E+00 1.3556958E+00
  9.957E+00  4.163E-01  1.881E-01 3.4143233E+00 1.0140577E+00 1.4104676E+00
  1.000E+01  3.572E-01  2.340E-01 3.4189427E+00 1.0932128E+00 1.3028366E+00
  9.957E+00  3.765E-01  2.182E-01 3.4053468E+00 1.0831147E+00 1.3581789E+00
  1.000E+01  3.198E-01  2.669E-01 3.4204079E+00 1.1567903E+00 1.2467212E+00
  9.957E+00  3.383E-01  2.502E-01 3.4217509E+00 1.1494676E+00 1.3025031E+00
  1.000E+01  2.841E-01  3.018E-01 3.4217126E+00 1.2174979E+00 1.1875089E+00
  9.957E+00  3.018E-01  2.841E-01 3.4217166E+00 1.2129625E+00 1.2435856E+00
  1.000E+01  2.502E-01  3.383E-01 3.4217472E+00 1.2751790E+00 1.1253459E+00
  9.957E+00  2.669E-01  3.198E-01 3.4204120E+00 1.2734435E+00 1.1815768E+00
  1.000E+01  2.182E-01  3.765E-01 3.4053433E+00 1.3296867E+00 1.0603852E+00
  9.957E+00  2.340E-01  3.572E-01 3.4189469E+00 1.3307613E+00 1.1166365E+00
  1.000E+01  1.881E-01  4.163E-01 3.4143201E+00 1.3808783E+00 9.9277705E-01
  9.957E+00  2.029E-01  3.962E-01 3.4113149E+00 1.3847535E+00 1.0489036E+00
  1.000E+01  1.600E-01  4.575E-01 3.3832483E+00 1.4286882E+00 9.2274290E-01
  9.957E+00  1.738E-01  4.367E-01 3.3903620E+00 1.4353321E+00 9.7859017E-01
  1.000E+01  1.340E-01  5.000E-01 3.3834974E+00 1.4728429E+00 8.5030678E-01
  9.957E+00  1.467E-01  4.786E-01 3.3931634E+00 1.4823382E+00 9.0582156E-01
  1.000E+01  1.101E-01  5.438E-01 3.3495509E+00 1.5134066E+00 7.7588658E-01
  9.957E+00  1.218E-01  5.217E-01 3.3675044E+00 1.5255547E+00 8.3073216E-01
  1.000E+01  8.849E-02  5.887E-01 3.3514674E+00 1.5504332E+00 6.9967577E-01
  9.957E+00  9.903E-02  5.661E-01 3.3496079E+00 1.5652546E+00 7.5386725E-01
  1.000E+01  6.913E-02  6.347E-01 3.3256878E+00 1.5830492E+00 6.2107415E-01
  9.957E+00  7.852E-02  6.116E-01 3.3410635E+00 1.6009098E+00 6.7482711E-01
  1.000E+01  5.207E-02  6.815E-01 3.2970406E+00 1.6117250E+00 5.4110167E-01
  9.957E+00  6.031E-02  6.580E-01 3.3074473E+00 1.6320237E+00 5.9358475E-01
  1.000E+01  3.738E-02  7.292E-01 3.2932622E+00 1.6372610E+00 4.6084876E-01
  9.957E+00  4.443E-02  7.052E-01 3.2959554E+00 1.6597484E+00 5.1178997E-01
  1.000E+01  2.507E-02  7.775E-01 3.2812029E+00 1.6586865E+00 3.7927433E-01
  9.957E+00  3.092E-02  7.532E-01 3.2884910E+00 1.6838965E+00 4.2931272E-01
  1.000E+01  1.519E-02  8.264E-01 3.2630192E+00 1.6752232E+00 2.9576630E-01
  9.957E+00  1.983E-02  8.019E-01 3.2719330E+00 1.7032847E+00 3.4495942E-01
  1.000E+01  7.761E-03  8.757E-01 3.2475546E+00 1.6873991E+00 2.1126782E-01
  9.957E+00  1.117E-02  8.510E-01 3.2542707E+00 1.7178599E+00 2.5900430E-01
  1.000E+01  2.796E-03  9.253E-01 3.2386819E+00 1.6956880E+00 1.2668473E-01
  9.957E+00  4.969E-03  9.004E-01 3.2423802E+00 1.7282833E+00 1.7258021E-01
  1.000E+01  3.108E-04  9.751E-01 3.2352282E+00 1.6999661E+00 4.2214194E-02
  9.957E+00  1.243E-03  9.502E-01 3.2368517E+00 1.7347451E+00 8.6248686E-02
  1.000E+01  3.108E-04  1.025E+00 3.2352282E+00 1.6999660E+00 -4.2220144E-02
  9.957E+00  0.000E+00  1.000E+00 3.2354094E+00 1.7369577E+00 -2.9416397E-06
  1.000E+01  2.796E-03  1.075E+00 3.2386819E+00 1.6956876E+00 -1.2669065E-01
  9.957E+00  1.243E-03  1.050E+00 3.2368517E+00 1.7347449E+00 -8.6254571E-02
  1.000E+01  7.761E-03  1.124E+00 3.2475546E+00 1.6873985E+00 -2.1127370E-01
  9.957E+00  4.969E-03  1.100E+00 3.2423802E+00 1.7282829E+00 -1.7258609E-01
  1.000E+01  1.519E-02  1.174E+00 3.2630193E+00 1.6752221E+00 -2.9577215E-01
  9.957E+00  1.117E-02  1.149E+00 3.2542707E+00 1.7178592E+00 -2.5901015E-01
  1.000E+01  2.507E-02  1.223E+00 3.2812030E+00 1.6586849E+00 -3.7928014E-01
  9.957E+00  1.983E-02  1.198E+00 3.2719330E+00 1.7032833E+00 -3.4496522E-01
  1.000E+01  3.738E-02  1.271E+00 3.2932623E+00 1.6372593E+00 -4.6085450E-01
  9.957E+00  3.092E-02  1.247E+00 3.2884910E+00 1.6838948E+00 -4.2931846E-01
  1.000E+01  5.207E-02  1.318E+00 3.2970407E+00 1.6117236E+00 -5.4110733E-01
  9.957E+00  4.443E-02  1.295E+00 3.2959554E+00 1.6597469E+00 -5.1179564E-01
  1.000E+01  6.913E-02  1.365E+00 3.3256880E+00 1.5830469E+00 -6.2107972E-01
  9.957E+00  6.031E-02  1.342E+00 3.3074472E+00 1.6320220E+00 -5.9359035E-01
  1.000E+01  8.849E-02  1.411E+00 3.3514675E+00 1.5504304E+00 -6.9968124E-01
  9.957E+00  7.852E-02  1.388E+00 3.3410635E+00 1.6009070E+00 -6.7483260E-01
  1.000E+01  1.101E-01  1.456E+00 3.3495510E+00 1.5134044E+00 -7.7589196E-01
  9.957E+00  9.903E-02  1.434E+00 3.3496079E+00 1.5652522E+00 -7.5387264E-01
  1.000E+01  1.340E-01  1.500E+00 3.3834975E+00 1.4728396E+00 -8.5031201E-01
  9.957E+00  1.218E-01  1.478E+00 3.3675044E+00 1.5255520E+00 -8.3073742E-01
  1.000E+01  1.600E-01  1.543E+00 3.3832484E+00 1.4286850E+00 -9.2274800E-01
  9.957E+00  1.467E-01  1.521E+00 3.3931634E+00 1.4823348E+00 -9.0582670E-01
  1.000E+01  1.881E-01  1.584E+00 3.4143202E+00 1.3808748E+00 -9.9278197E-01
  9.957E+00  1.738E-01  1.563E+00 3.3903620E+00 1.4353290E+00 -9.7859518E-01
  1.000E+01  2.182E-01  1.623E+00 3.4053435E+00 1.3296828E+00 -1.0603900E+00
  9.957E+00  2.029E-01  1.604E+00 3.4113149E+00 1.3847497E+00 -1.0489085E+00
  1.000E+01  2.502E-01  1.662E+00 3.4217473E+00 1.2751750E+00 -1.1253504E+00
  9.957E+00  2.340E-01  1.643E+00 3.4189469E+00 1.3307576E+00 -1.1166412E+00
  1.000E+01  2.841E-01  1.698E+00 3.4217128E+00 1.2174937E+00 -1.1875133E+00
  9.957E+00  2.669E-01  1.680E+00 3.4204120E+00 1.2734394E+00 -1.1815812E+00
  1.000E+01  3.198E-01  1.733E+00 3.4204081E+00 1.1567860E+00 -1.2467254E+00
  9.957E+00  3.018E-01  1.716E+00 3.4217165E+00 1.2129583E+00 -1.2435899E+00
  1.000E+01  3.572E-01  1.766E+00 3.4189428E+00 1.0932082E+00 -1.3028406E+00
  9.957E+00  3.383E-01  1.750E+00 3.4217509E+00 1.1494631E+00 -1.3025072E+00
  1.000E+01  3.962E-01  1.797E+00 3.4113105E+00 1.0268962E+00 -1.3556995E+00
  9.957E+00  3.765E-01  1.782E+00 3.4053469E+00 1.0831102E+00 -1.3581828E+00
  1.000E+01  4.367E-01  1.826E+00 3.3903575E+00 9.5805802E-01 -1.4052170E+00
  9.957E+00  4.163E-01  1.812E+00 3.4143234E+00 1.0140530E+00 -1.4104713E+00
  1.000E+01  4.786E-01  1.853E+00 3.3931590E+00 8.8681653E-01 -1.4512372E+00
  9.957E+00  4.575E-01  1.840E+00 3.3832515E+00 9.4251824E-01 -1.4593062E+00
  1.000E+01  5.217E-01  1.878E+00 3.3674997E+00 8.1330285E-01 -1.4935472E+00
  9.957E+00  5.000E-01  1.866E+00 3.3835004E+00 8.6852969E-01 -1.5044072E+00
  1.000E+01  5.661E-01  1.901E+00 3.3496030E+00 7.3805053E-01 -1.5324136E+00
  9.957E+00  5.438E-01  1.890E+00 3.3495537E+00 7.9251428E-01 -1.5458404E+00
  1.000E+01  6.116E-01  1.921E+00 3.3410586E+00 6.6066832E-01 -1.5673198E+00
  9.957E+00  5.887E-01  1.912E+00 3.3514698E+00 7.1467003E-01 -1.5836592E+00
  1.000E+01  6.580E-01  1.940E+00 3.3074426E+00 5.8112998E-01 -1.5977812E+00
  9.957E+00  6.347E-01  1.931E+00 3.3256902E+00 6.3438443E-01 -1.6169743E+00
  1.000E+01  7.052E-01  1.956E+00 3.2959509E+00 5.0105121E-01 -1.6249246E+00
  9.957E+00  6.815E-01  1.948E+00 3.2970428E+00 5.5269876E-01 -1.6462657E+00
  1.000E+01  7.532E-01  1.969E+00 3.2884864E+00 4.2030482E-01 -1.6485662E+00
  9.957E+00  7.292E-01  1.963E+00 3.2932643E+00 4.7072601E-01 -1.6723492E+00
  1.000E+01  8.019E-01  1.980E+00 3.2719281E+00 3.3772186E-01 -1.6675476E+00
  9.957E+00  7.775E-01  1.975E+00 3.2812049E+00 3.8740281E-01 -1.6942337E+00
  1.000E+01  8.510E-01  1.989E+00 3.2542653E+00 2.5357047E-01 -1.6818169E+00
  9.957E+00  8.264E-01  1.985E+00 3.2630211E+00 3.0210456E-01 -1.7111247E+00
  1.000E+01  9.004E-01  1.995E+00 3.2423746E+00 1.6895965E-01 -1.6920212E+00
  9.957E+00  8.757E-01  1.992E+00 3.2475563E+00 2.1579496E-01 -1.7235614E+00
  1.000E+01  9.502E-01  1.999E+00 3.2368460E+00 8.4439282E-02 -1.6983473E+00
  9.957E+00  9.253E-01  1.997E+00 3.2386834E+00 1.2939930E-01 -1.7320277E+00
  1.000E+01  1.000E+00  2.000E+00 3.2354035E+00 -2.9300819E-06 -1.7005133E+00
  9.957E+00  9.751E-01  2.000E+00 3.2352295E+00 4.3118816E-02 -1.7363973E+00
  1.000E+01  1.050E+00  1.999E+00 3.2368457E+00 -8.4445137E-02 -1.6983470E+00
  9.957E+00  1.025E+00  2.000E+00 3.2352294E+00 -4.3124637E-02 -1.7363972E+00
  1.000E+01  1.100E+00  1.995E+00 3.2423741E+00 -1.6896549E-01 -1.6920206E+00
  9.957E+00  1.075E+00  1.997E+00 3.2386830E+00 -1.2940511E-01 -1.7320272E+00
  1.000E+01  1.149E+00  1.989E+00 3.2542645E+00 -2.5357627E-01 -1.6818160E+00
  9.957E+00  1.124E+00  1.992E+00 3.2475557E+00 -2.1580074E-01 -1.7235606E+00
  1.000E+01  1.198E+00  1.980E+00 3.2719270E+00 -3.3772762E-01 -1.6675464E+00
  9.957E+00  1.174E+00  1.985E+00 3.2630202E+00 -3.0211030E-01 -1.7111236E+00