# TIME = 10.000000
VARIABLES = X, Y, Z, FX, FY, FZ
ZONE N=29232 E=58212 F=FEPOINT ET=TRIANGLE
  0.000E+00  9.502E-01  1.243E-03 3.2354577E+00 8.9426868E-02 1.7985996E+00
  0.000E+00  1.000E+00  0.000E+00 3.2340147E+00 4.1574361E-07 1.8008937E+00
  4.318E-02  9.751E-01  3.108E-04 3.2338488E+00 4.3804582E-02 1.7638695E+00
  0.000E+00  1.050E+00  1.243E-03 3.2354570E+00 -8.9426034E-02 1.7985996E+00
  4.318E-02  1.025E+00  3.108E-04 3.2338485E+00 -4.3803725E-02 1.7638696E+00
  0.000E+00  1.100E+00  4.969E-03 3.2409856E+00 -1.7893551E-01 1.7919001E+00
  4.318E-02  1.075E+00  2.796E-03 3.2373025E+00 -1.3144952E-01 1.7594307E+00
  0.000E+00  1.149E+00  1.117E-02 3.2528751E+00 -2.6854120E-01 1.7810933E+00
  4.318E-02  1.124E+00  7.761E-03 3.2461752E+00 -2.1921199E-01 1.7508304E+00
  0.000E+00  1.198E+00  1.983E-02 3.2705358E+00 -3.5766064E-01 1.7659816E+00
  4.318E-02  1.174E+00  1.519E-02 3.2616386E+00 -3.0688661E-01 1.7381967E+00
  0.000E+00  1.247E+00  3.092E-02 3.2870939E+00 -4.4511884E-01 1.7458795E+00
  4.318E-02  1.223E+00  2.507E-02 3.2798211E+00 -3.9353364E-01 1.7210383E+00
  0.000E+00  1.295E+00  4.443E-02 3.2945633E+00 -5.3063133E-01 1.7208419E+00
  4.318E-02  1.271E+00  3.738E-02 3.2918825E+00 -4.7817460E-01 1.6988073E+00
  0.000E+00  1.342E+00  6.031E-02 3.3060594E+00 -6.1543623E-01 1.6920959E+00
  4.318E-02  1.318E+00  5.207E-02 3.2956674E+00 -5.6144448E-01 1.6723112E+00
  0.000E+00  1.388E+00  7.852E-02 3.3396702E+00 -6.9966889E-01 1.6598361E+00
  4.318E-02  1.365E+00  6.913E-02 3.3243117E+00 -6.4442332E-01 1.6425566E+00
  0.000E+00  1.434E+00  9.903E-02 3.3482190E+00 -7.8161864E-01 1.6228691E+00
  4.318E-02  1.411E+00  8.849E-02 3.3500892E+00 -7.2597975E-01 1.6087145E+00
  0.000E+00  1.478E+00  1.218E-01 3.3661169E+00 -8.6131311E-01 1.5817084E+00
  4.318E-02  1.456E+00  1.101E-01 3.3481826E+00 -8.0505562E-01 1.5702971E+00
  0.000E+00  1.521E+00  1.467E-01 3.3917726E+00 -9.3916638E-01 1.5369008E+00
  4.318E-02  1.500E+00  1.340E-01 3.3821234E+00 -8.8227326E-01 1.5282081E+00
  0.000E+00  1.563E+00  1.738E-01 3.3889789E+00 -1.0146132E+00 1.4881640E+00
  4.318E-02  1.543E+00  1.600E-01 3.3818809E+00 -9.5743213E-01 1.4823931E+00
  0.000E+00  1.604E+00  2.029E-01 3.4099283E+00 -1.0875148E+00 1.4357234E+00
  4.318E-02  1.584E+00  1.881E-01 3.4129464E+00 -1.0300988E+00 1.4327855E+00
  0.000E+00  1.643E+00  2.340E-01 3.4175615E+00 -1.1577411E+00 1.3797442E+00
  4.318E-02  1.623E+00  2.182E-01 3.4039772E+00 -1.1002486E+00 1.3796697E+00
  0.000E+00  1.680E+00  2.669E-01 3.4190272E+00 -1.2250717E+00 1.3203164E+00
  4.318E-02  1.662E+00  2.502E-01 3.4203778E+00 -1.1676513E+00 1.3231131E+00
  0.000E+00  1.716E+00  3.018E-01 3.4203321E+00 -1.2893628E+00 1.2576089E+00
  4.318E-02  1.698E+00  2.841E-01 3.4203447E+00 -1.2321510E+00 1.2632634E+00
  0.000E+00  1.750E+00  3.383E-01 3.4203649E+00 -1.3504490E+00 1.1917766E+00
  4.318E-02  1.733E+00  3.198E-01 3.4190394E+00 -1.2935889E+00 1.2002736E+00
  0.000E+00  1.782E+00  3.765E-01 3.4039642E+00 -1.4081743E+00 1.1229814E+00
  4.318E-02  1.766E+00  3.572E-01 3.4175732E+00 -1.3518138E+00 1.1343059E+00
  0.000E+00  1.812E+00  4.163E-01 3.4129332E+00 -1.4623880E+00 1.0513825E+00
  4.318E-02  1.797E+00  3.962E-01 3.4099397E+00 -1.4066601E+00 1.0655016E+00
  0.000E+00  1.840E+00  4.575E-01 3.3818673E+00 -1.5130203E+00 9.7721445E-01
  4.318E-02  1.826E+00  4.367E-01 3.3889901E+00 -1.4580396E+00 9.9407598E-01
  0.000E+00  1.866E+00  5.000E-01 3.3821092E+00 -1.5597813E+00 9.0050256E-01
  4.318E-02  1.853E+00  4.786E-01 3.3917834E+00 -1.5057890E+00 9.2015610E-01
  0.000E+00  1.890E+00  5.438E-01 3.3481682E+00 -1.6027404E+00 8.2168951E-01
  4.318E-02  1.878E+00  5.217E-01 3.3661273E+00 -1.5496896E+00 8.4387855E-01
  0.000E+00  1.912E+00  5.887E-01 3.3500749E+00 -1.6419520E+00 7.4098013E-01
  4.318E-02  1.901E+00  5.661E-01 3.3482287E+00 -1.5900177E+00 7.6579748E-01
  0.000E+00  1.931E+00  6.347E-01 3.3242973E+00 -1.6764937E+00 6.5773879E-01
  4.318E-02  1.921E+00  6.116E-01 3.3396792E+00 -1.6262367E+00 6.8550716E-01
  0.000E+00  1.948E+00  6.815E-01 3.2956524E+00 -1.7068631E+00 5.7304567E-01
  4.318E-02  1.940E+00  6.580E-01 3.3060680E+00 -1.6578441E+00 6.0297977E-01
  0.000E+00  1.963E+00  7.292E-01 3.2918668E+00 -1.7339061E+00 4.8805562E-01
  4.318E-02  1.956E+00  7.052E-01 3.2945716E+00 -1.6860076E+00 5.1989097E-01
  0.000E+00  1.975E+00  7.775E-01 3.2798048E+00 -1.7565963E+00 4.0166602E-01
  4.318E-02  1.969E+00  7.532E-01 3.2871021E+00 -1.7105374E+00 4.3610870E-01
  0.000E+00  1.985E+00  8.264E-01 3.2616221E+00 -1.7741096E+00 3.1322864E-01
  4.318E-02  1.980E+00  8.019E-01 3.2705437E+00 -1.7302325E+00 3.5042056E-01
  0.000E+00  1.992E+00  8.757E-01 3.2461587E+00 -1.7870046E+00 2.2374232E-01
  4.318E-02  1.989E+00  8.510E-01 3.2528827E+00 -1.7450388E+00 2.6310532E-01
  0.000E+00  1.997E+00  9.253E-01 3.2372860E+00 -1.7957829E+00 1.3416644E-01
  4.318E-02  1.995E+00  9.004E-01 3.2409927E+00 -1.7556273E+00 1.7531387E-01
  0.000E+00  2.000E+00  9.751E-01 3.2338319E+00 -1.8003137E+00 4.4709767E-02
  4.318E-02  1.999E+00  9.502E-01 3.2354637E+00 -1.7621915E+00 8.7616600E-02
  0.000E+00  2.000E+00  1.025E+00 3.2338319E+00 -1.8003137E+00 -4.4708592E-02
  4.318E-02  2.000E+00  1.000E+00 3.2340211E+00 -1.7644392E+00 5.6816391E-07
  0.000E+00  1.997E+00  1.075E+00 3.2372861E+00 -1.7957829E+00 -1.3416528E-01
  4.318E-02  1.999E+00  1.050E+00 3.2354638E+00 -1.7621914E+00 -8.7615459E-02
  0.000E+00  1.992E+00  1.124E+00 3.2461588E+00 -1.7870046E+00 -2.2374119E-01
  4.318E-02  1.995E+00  1.100E+00 3.2409927E+00 -1.7556272E+00 -1.7531272E-01
  0.000E+00  1.985E+00  1.174E+00 3.2616223E+00 -1.7741099E+00 -3.1322751E-01
  4.318E-02  1.989E+00  1.149E+00 3.2528828E+00 -1.7450388E+00 -2.6310418E-01
  0.000E+00  1.975E+00  1.223E+00 3.2798050E+00 -1.7565969E+00 -4.0166491E-01
  4.318E-02  1.980E+00  1.198E+00 3.2705439E+00 -1.7302330E+00 -3.5041944E-01
  0.000E+00  1.963E+00  1.271E+00 3.2918671E+00 -1.7339066E+00 -4.8805452E-01
  4.318E-02  1.969E+00  1.247E+00 3.2871023E+00 -1.7105380E+00 -4.3610759E-01
  0.000E+00  1.948E+00  1.318E+00 3.2956527E+00 -1.7068630E+00 -5.7304457E-01
  4.318E-02  1.956E+00  1.295E+00 3.2945719E+00 -1.6860077E+00 -5.1988988E-01
  0.000E+00  1.931E+00  1.365E+00 3.3242977E+00 -1.6764944E+00 -6.5773772E-01
  4.318E-02  1.940E+00  1.342E+00 3.3060683E+00 -1.6578442E+00 -6.0297870E-01
  0.000E+00  1.912E+00  1.411E+00 3.3500753E+00 -1.6419530E+00 -7.4097910E-01
  4.318E-02  1.921E+00  1.388E+00 3.3396795E+00 -1.6262378E+00 -6.8550611E-01
  0.000E+00  1.890E+00  1.456E+00 3.3481687E+00 -1.6027406E+00 -8.2168849E-01
  4.318E-02  1.901E+00  1.434E+00 3.3482291E+00 -1.5900181E+00 -7.6579645E-01
  0.000E+00  1.866E+00  1.500E+00 3.3821097E+00 -1.5597823E+00 -9.0050158E-01
  4.318E-02  1.878E+00  1.478E+00 3.3661277E+00 -1.5496902E+00 -8.4387755E-01
  0.000E+00  1.840E+00  1.543E+00 3.3818678E+00 -1.5130210E+00 -9.7721349E-01
  4.318E-02  1.853E+00  1.521E+00 3.3917838E+00 -1.5057902E+00 -9.2015514E-01
  0.000E+00  1.812E+00  1.584E+00 3.4129337E+00 -1.4623888E+00 -1.0513816E+00
  4.318E-02  1.826E+00  1.563E+00 3.3889906E+00 -1.4580403E+00 -9.9407505E-01
  0.000E+00  1.782E+00  1.623E+00 3.4039648E+00 -1.4081753E+00 -1.1229806E+00
  4.318E-02  1.797E+00  1.604E+00 3.4099402E+00 -1.4066612E+00 -1.0655007E+00
  0.000E+00  1.750E+00  1.662E+00 3.4203656E+00 -1.3504499E+00 -1.1917757E+00
  4.318E-02  1.766E+00  1.643E+00 3.4175737E+00 -1.3518147E+00 -1.1343051E+00
  0.000E+00  1.716E+00  1.698E+00 3.4203329E+00 -1.2893638E+00 -1.2576081E+00
  4.318E-02  1.733E+00  1.680E+00 3.4190399E+00 -1.2935900E+00 -1.2002728E+00
  0.000E+00  1.680E+00  1.733E+00 3.4190279E+00 -1.2250727E+00 -1.3203156E+00
  4.318E-02  1.698E+00  1.716E+00 3.4203452E+00 -1.2321521E+00 -1.2632627E+00
  0.000E+00  1.643E+00  1.766E+00 3.4175621E+00 -1.1577421E+00 -1.3797434E+00
  4.318E-02  1.662E+00  1.750E+00 3.4203784E+00 -1.1676525E+00 -1.3231125E+00
  0.000E+00  1.604E+00  1.797E+00 3.4099289E+00 -1.0875160E+00 -1.4357227E+00
  4.318E-02  1.623E+00  1.782E+00 3.4039780E+00 -1.1002498E+00 -1.3796691E+00
  0.000E+00  1.563E+00  1.826E+00 3.3889797E+00 -1.0146146E+00 -1.4881635E+00
  4.318E-02  1.584E+00  1.812E+00 3.4129472E+00 -1.0300999E+00 -1.4327849E+00
  0.000E+00  1.521E+00  1.853E+00 3.3917737E+00 -9.3916774E-01 -1.5369004E+00
  4.318E-02  1.543E+00  1.840E+00 3.3818815E+00 -9.5743322E-01 -1.4823925E+00
  0.000E+00  1.478E+00  1.878E+00 3.3661181E+00 -8.6131427E-01 -1.5817080E+00
  4.318E-02  1.500E+00  1.866E+00 3.3821238E+00 -8.8227451E-01 -1.5282076E+00
  0.000E+00  1.434E+00  1.901E+00 3.3482196E+00 -7.8161986E-01 -1.6228688E+00
  4.318E-02  1.456E+00  1.890E+00 3.3481833E+00 -8.0505690E-01 -1.5702967E+00
  0.000E+00  1.388E+00  1.921E+00 3.3396700E+00 -6.9967060E-01 -1.6598359E+00
  4.318E-02  1.411E+00  1.912E+00 3.3500904E+00 -7.2598083E-01 -1.6087142E+00
  0.000E+00  1.342E+00  1.940E+00 3.3060591E+00 -6.1543799E-01 -1.6920958E+00
  4.318E-02  1.365E+00  1.931E+00 3.3243132E+00 -6.4442425E-01 -1.6425562E+00
  0.000E+00  1.295E+00  1.956E+00 3.2945637E+00 -5.3063226E-01 -1.7208417E+00
  4.318E-02  1.318E+00  1.948E+00 3.2956686E+00 -5.6144577E-01 -1.6723108E+00
  0.000E+00  1.247E+00  1.969E+00 3.2870952E+00 -4.4511868E-01 -1.7458790E+00
  4.318E-02  1.271E+00  1.963E+00 3.2918831E+00 -4.7817663E-01 -1.6988072E+00
  0.000E+00  1.198E+00  1.980E+00 3.2705375E+00 -3.5766004E-01 -1.7659809E+00
  4.318E-02  1.223E+00  1.975E+00 3.2798213E+00 -3.9353616E-01 -1.7210385E+00
  0.000E+00  1.149E+00  1.989E+00 3.2528765E+00 -2.6854097E-01 -1.7810924E+00
  4.318E-02  1.174E+00  1.985E+00 3.2616390E+00 -3.0688906E-01 -1.7381972E+00
  0.000E+00  1.100E+00  1.995E+00 3.2409863E+00 -1.7893597E-01 -1.7918992E+00
  4.318E-02  1.124E+00  1.992E+00 3.2461760E+00 -2.1921401E-01 -1.7508310E+00
  0.000E+00  1.050E+00  1.999E+00 3.2354574E+00 -8.9427026E-02 -1.7985988E+00
  4.318E-02  1.075E+00  1.997E+00 3.2373037E+00 -1.3145114E-01 -1.7594314E+00
  0.000E+00  1.000E+00  2.000E+00 3.2340149E+00 -8.8609106E-07 -1.8008930E+00
  4.318E-02  1.025E+00  2.000E+00 3.2338499E+00 -4.3805106E-02 -1.7638704E+00
  0.000E+00  9.502E-01  1.999E+00 3.2354580E+00 8.9425257E-02 -1.7985989E+00
  4.318E-02  9.751E-01  2.000E+00 3.2338502E+00 4.3803359E-02 -1.7638704E+00
  0.000E+00  9.004E-01  1.995E+00 3.2409876E+00 1.7893421E-01 -1.7918994E+00
  4.318E-02  9.253E-01  1.997E+00 3.2373046E+00 1.3144941E-01 -1.7594315E+00
  0.000E+00  8.510E-01  1.989E+00 3.2528784E+00 2.6853923E-01 -1.7810927E+00
  4.318E-02  8.757E-01  1.992E+00 3.2461776E+00 2.1921229E-01 -1.7508312E+00
  0.000E+00  8.019E-01  1.980E+00 3.2705400E+00 3.5765833E-01 -1.7659813E+00
  4.318E-02  8.264E-01  1.985E+00 3.2616412E+00 3.0688736E-01 -1.7381975E+00
  0.000E+00  7.532E-01  1.969E+00 3.2870983E+00 4.4511700E-01 -1.7458795E+00
  4.318E-02  7.775E-01  1.975E+00 3.2798241E+00 3.9353449E-01 -1.7210389E+00
  0.000E+00  7.052E-01  1.956E+00 3.2945673E+00 5.3063063E-01 -1.7208423E+00
  4.318E-02  7.292E-01  1.963E+00 3.2918865E+00 4.7817500E-01 -1.6988077E+00
  0.000E+00  6.580E-01  1.940E+00 3.3060633E+00 6.1543642E-01 -1.6920964E+00
  4.318E-02  6.815E-01  1.948E+00 3.2956726E+00 5.6144419E-01 -1.6723114E+00
  0.000E+00  6.116E-01  1.921E+00 3.3396748E+00 6.9966907E-01 -1.6598366E+00
  4.318E-02  6.347E-01  1.931E+00 3.3243178E+00 6.4442272E-01 -1.6425568E+00
  0.000E+00  5.661E-01  1.901E+00 3.3482249E+00 7.8161841E-01 -1.6228695E+00
  4.318E-02  5.887E-01  1.912E+00 3.3500955E+00 7.2597934E-01 -1.6087149E+00
  0.000E+00  5.217E-01  1.878E+00 3.3661240E+00 8.6131287E-01 -1.5817088E+00
  4.318E-02  5.438E-01  1.890E+00 3.3481890E+00 8.0505550E-01 -1.5702975E+00
  0.000E+00  4.786E-01  1.853E+00 3.3917801E+00 9.3916642E-01 -1.5369013E+00
  4.318E-02  5.000E-01  1.866E+00 3.3821300E+00 8.8227315E-01 -1.5282085E+00
  0.000E+00  4.367E-01  1.826E+00 3.3889866E+00 1.0146134E+00 -1.4881645E+00
  4.318E-02  4.575E-01  1.840E+00 3.3818882E+00 9.5743197E-01 -1.4823935E+00
  0.000E+00  3.962E-01  1.797E+00 3.4099362E+00 1.0875149E+00 -1.4357238E+00
  4.318E-02  4.163E-01  1.812E+00 3.4129543E+00 1.0300987E+00 -1.4327859E+00
  0.000E+00  3.572E-01  1.766E+00 3.4175698E+00 1.1577411E+00 -1.3797445E+00
  4.318E-02  3.765E-01  1.782E+00 3.4039856E+00 1.1002487E+00 -1.3796701E+00
  0.000E+00  3.198E-01  1.733E+00 3.4190361E+00 1.2250718E+00 -1.3203168E+00
  4.318E-02  3.383E-01  1.750E+00 3.4203865E+00 1.1676514E+00 -1.3231136E+00
  0.000E+00  2.841E-01  1.698E+00 3.4203414E+00 1.2893629E+00 -1.2576093E+00
  4.318E-02  3.018E-01  1.716E+00 3.4203537E+00 1.2321512E+00 -1.2632639E+00
  0.000E+00  2.502E-01  1.662E+00 3.4203746E+00 1.3504492E+00 -1.1917769E+00
  4.318E-02  2.669E-01  1.680E+00 3.4190487E+00 1.2935891E+00 -1.2002740E+00
  0.000E+00  2.182E-01  1.623E+00 3.4039741E+00 1.4081745E+00 -1.1229818E+00
  4.318E-02  2.340E-01  1.643E+00 3.4175829E+00 1.3518141E+00 -1.1343064E+00
  0.000E+00  1.881E-01  1.584E+00 3.4129433E+00 1.4623882E+00 -1.0513829E+00
  4.318E-02  2.029E-01  1.604E+00 3.4099497E+00 1.4066604E+00 -1.0655019E+00
  0.000E+00  1.600E-01  1.543E+00 3.3818777E+00 1.5130206E+00 -9.7721482E-01
  4.318E-02  1.738E-01  1.563E+00 3.3890004E+00 1.4580400E+00 -9.9407636E-01
  0.000E+00  1.340E-01  1.500E+00 3.3821198E+00 1.5597816E+00 -9.0050292E-01
  4.318E-02  1.467E-01  1.521E+00 3.3917939E+00 1.5057894E+00 -9.2015646E-01
  0.000E+00  1.101E-01  1.456E+00 3.3481791E+00 1.6027409E+00 -8.2168986E-01
  4.318E-02  1.218E-01  1.478E+00 3.3661381E+00 1.5496901E+00 -8.4387889E-01
  0.000E+00  8.849E-02  1.411E+00 3.3500859E+00 1.6419525E+00 -7.4098046E-01
  4.318E-02  9.903E-02  1.434E+00 3.3482397E+00 1.5900181E+00 -7.6579781E-01
  0.000E+00  6.913E-02  1.365E+00 3.3243085E+00 1.6764942E+00 -6.5773909E-01
  4.318E-02  7.852E-02  1.388E+00 3.3396903E+00 1.6262371E+00 -6.8550747E-01
  0.000E+00  5.207E-02  1.318E+00 3.2956637E+00 1.7068636E+00 -5.7304595E-01
  4.318E-02  6.031E-02  1.342E+00 3.3060792E+00 1.6578446E+00 -6.0298007E-01
  0.000E+00  3.738E-02  1.271E+00 3.2918782E+00 1.7339066E+00 -4.8805589E-01
  4.318E-02  4.443E-02  1.295E+00 3.2945830E+00 1.6860081E+00 -5.1989124E-01
  0.000E+00  2.507E-02  1.223E+00 3.2798163E+00 1.7565969E+00 -4.0166628E-01
  4.318E-02  3.092E-02  1.247E+00 3.2871135E+00 1.7105379E+00 -4.3610895E-01
  0.000E+00  1.519E-02  1.174E+00 3.2616336E+00 1.7741102E+00 -3.1322887E-01
  4.318E-02  1.983E-02  1.198E+00 3.2705552E+00 1.7302331E+00 -3.5042079E-01
  0.000E+00  7.761E-03  1.124E+00 3.2461702E+00 1.7870052E+00 -2.2374253E-01
  4.318E-02  1.117E-02  1.149E+00 3.2528942E+00 1.7450393E+00 -2.6310553E-01
  0.000E+00  2.796E-03  1.075E+00 3.2372975E+00 1.7957835E+00 -1.3416661E-01
  4.318E-02  4.969E-03  1.100E+00 3.2410042E+00 1.7556278E+00 -1.7531406E-01
  0.000E+00  3.108E-04  1.025E+00 3.2338434E+00 1.8003143E+00 -4.4709904E-02
  4.318E-02  1.243E-03  1.050E+00 3.2354753E+00 1.7621920E+00 -8.7616780E-02
  0.000E+00  3.108E-04  9.751E-01 3.2338433E+00 1.8003143E+00 4.4708476E-02
  4.318E-02  0.000E+00  1.000E+00 3.2340326E+00 1.7644397E+00 -7.3352137E-07
  0.000E+00  2.796E-03  9.253E-01 3.2372974E+00 1.7957835E+00 1.3416518E-01
  4.318E-02  1.243E-03  9.502E-01 3.2354753E+00 1.7621920E+00 8.7615320E-02
  0.000E+00  7.761E-03  8.757E-01 3.2461700E+00 1.7870052E+00 2.2374109E-01
  4.318E-02  4.969E-03  9.004E-01 3.2410042E+00 1.7556277E+00 1.7531262E-01
  0.000E+00  1.519E-02  8.264E-01 3.2616334E+00 1.7741104E+00 3.1322743E-01
  4.318E-02  1.117E-02  8.510E-01 3.2528941E+00 1.7450393E+00 2.6310410E-01
  0.000E+00  2.507E-02  7.775E-01 3.2798160E+00 1.7565974E+00 4.0166485E-01
  4.318E-02  1.983E-02  8.019E-01 3.2705551E+00 1.7302334E+00 3.5041937E-01
  0.000E+00  3.738E-02  7.292E-01 3.2918779E+00 1.7339070E+00 4.8805448E-01
  4.318E-02  3.092E-02  7.532E-01 3.2871133E+00 1.7105385E+00 4.3610753E-01
  0.000E+00  5.207E-02  6.815E-01 3.2956634E+00 1.7068634E+00 5.7304455E-01
  4.318E-02  4.443E-02  7.052E-01 3.2945828E+00 1.6860081E+00 5.1988983E-01
  0.000E+00  6.913E-02  6.347E-01 3.3243081E+00 1.6764948E+00 6.5773772E-01
  4.318E-02  6.031E-02  6.580E-01 3.3060790E+00 1.6578446E+00 6.0297867E-01
  0.000E+00  8.849E-02  5.887E-01 3.3500855E+00 1.6419533E+00 7.4097910E-01
  4.318E-02  7.852E-02  6.116E-01 3.3396900E+00 1.6262381E+00 6.8550609E-01
  0.000E+00  1.101E-01  5.438E-01 3.3481786E+00 1.6027409E+00 8.2168850E-01
  4.318E-02  9.903E-02  5.661E-01 3.3482393E+00 1.5900184E+00 7.6579645E-01
  0.000E+00  1.340E-01  5.000E-01 3.3821193E+00 1.5597825E+00 9.0050161E-01
  4.318E-02  1.218E-01  5.217E-01 3.3661377E+00 1.5496904E+00 8.4387756E-01
  0.000E+00  1.600E-01  4.575E-01 3.3818772E+00 1.5130213E+00 9.7721353E-01
  4.318E-02  1.467E-01  4.786E-01 3.3917935E+00 1.5057903E+00 9.2015516E-01
  0.000E+00  1.881E-01  4.163E-01 3.4129428E+00 1.4623890E+00 1.0513817E+00
  4.318E-02  1.738E-01  4.367E-01 3.3889999E+00 1.4580404E+00 9.9407506E-01
  0.000E+00  2.182E-01  3.765E-01 3.4039735E+00 1.4081754E+00 1.1229806E+00
  4.318E-02  2.029E-01  3.962E-01 3.4099492E+00 1.4066613E+00 1.0655007E+00
  0.000E+00  2.502E-01  3.383E-01 3.4203739E+00 1.3504500E+00 1.1917758E+00
  4.318E-02  2.340E-01  3.572E-01 3.4175824E+00 1.3518148E+00 1.1343051E+00
  0.000E+00  2.841E-01  3.018E-01 3.4203407E+00 1.2893639E+00 1.2576082E+00
  4.318E-02  2.669E-01  3.198E-01 3.4190482E+00 1.2935900E+00 1.2002728E+00
  0.000E+00  3.198E-01  2.669E-01 3.4190354E+00 1.2250727E+00 1.3203157E+00
  4.318E-02  3.018E-01  2.841E-01 3.4203531E+00 1.2321520E+00 1.2632627E+00
  0.000E+00  3.572E-01  2.340E-01 3.4175692E+00 1.1577421E+00 1.3797435E+00
  4.318E-02  3.383E-01  2.502E-01 3.4203858E+00 1.1676523E+00 1.3231124E+00
  0.000E+00  3.962E-01  2.029E-01 3.4099356E+00 1.0875158E+00 1.4357228E+00
  4.318E-02  3.765E-01  2.182E-01 3.4039849E+00 1.1002496E+00 1.3796690E+00
  0.000E+00  4.367E-01  1.738E-01 3.3889858E+00 1.0146142E+00 1.4881635E+00
  4.318E-02  4.163E-01  1.881E-01 3.4129536E+00 1.0300998E+00 1.4327849E+00
  0.000E+00  4.786E-01  1.467E-01 3.3917790E+00 9.3916734E-01 1.5369003E+00
  4.318E-02  4.575E-01  1.600E-01 3.3818876E+00 9.5743309E-01 1.4823926E+00
  0.000E+00  5.217E-01  1.218E-01 3.3661228E+00 8.6131405E-01 1.5817080E+00
  4.318E-02  5.000E-01  1.340E-01 3.3821296E+00 8.8227425E-01 1.5282076E+00
  0.000E+00  5.661E-01  9.903E-02 3.3482243E+00 7.8161955E-01 1.6228687E+00
  4.318E-02  5.438E-01  1.101E-01 3.3481883E+00 8.0505656E-01 1.5702967E+00
  0.000E+00  6.116E-01  7.852E-02 3.3396750E+00 6.9966980E-01 1.6598357E+00
  4.318E-02  5.887E-01  8.849E-02 3.3500943E+00 7.2598069E-01 1.6087141E+00
  0.000E+00  6.580E-01  6.031E-02 3.3060636E+00 6.1543712E-01 1.6920955E+00
  4.318E-02  6.347E-01  6.913E-02 3.3243162E+00 6.4442424E-01 1.6425563E+00
  0.000E+00  7.052E-01  4.443E-02 3.2945669E+00 5.3063221E-01 1.7208416E+00
  4.318E-02  6.815E-01  5.207E-02 3.2956714E+00 5.6144539E-01 1.6723109E+00
  0.000E+00  7.532E-01  3.092E-02 3.2870970E+00 4.4511970E-01 1.7458793E+00
  4.318E-02  7.292E-01  3.738E-02 3.2918859E+00 4.7817549E-01 1.6988070E+00
  0.000E+00  8.019E-01  1.983E-02 3.2705382E+00 3.5766149E-01 1.7659814E+00
  4.318E-02  7.775E-01  2.507E-02 3.2798239E+00 3.9353452E-01 1.7210381E+00
  0.000E+00  8.510E-01  1.117E-02 3.2528770E+00 2.6854204E-01 1.7810931E+00
  4.318E-02  8.264E-01  1.519E-02 3.2616408E+00 3.0688748E-01 1.7381966E+00
  0.000E+00  9.004E-01  4.969E-03 3.2409868E+00 1.7893635E-01 1.7919000E+00
  4.318E-02  8.757E-01  7.761E-03 3.2461768E+00 2.1921285E-01 1.7508302E+00
  4.318E-02  9.253E-01  2.796E-03 3.2373035E+00 1.3145038E-01 1.7594306E+00
  1.000E+01  1.050E+00  1.243E-03 3.2354570E+00 -8.9426034E-02 1.7985996E+00
  1.000E+01  1.000E+00  5.551E-16 3.2340147E+00 4.1574361E-07 1.8008937E+00
  9.957E+00  1.025E+00  3.108E-04 3.2338404E+00 -4.5617232E-02 1.8368984E+00
  1.000E+01  9.502E-01  1.243E-03 3.2354577E+00 8.9426868E-02 1.7985996E+00
  9.957E+00  9.751E-01  3.108E-04 3.2338407E+00 4.5618040E-02 1.8368984E+00
  1.000E+01  9.004E-01  4.969E-03 3.2409868E+00 1.7893635E-01 1.7919000E+00
  9.957E+00  9.253E-01  2.796E-03 3.2372953E+00 1.3689240E-01 1.8322756E+00
  1.000E+01  8.510E-01  1.117E-02 3.2528770E+00 2.6854204E-01 1.7810931E+00
  9.957E+00  8.757E-01  7.761E-03 3.2461685E+00 2.2828837E-01 1.8233191E+00
  1.000E+01  8.019E-01  1.983E-02 3.2705382E+00 3.5766149E-01 1.7659814E+00
  9.957E+00  8.264E-01  1.519E-02 3.2616325E+00 3.1959309E-01 1.8101624E+00
  1.000E+01  7.532E-01  3.092E-02 3.2870970E+00 4.4511970E-01 1.7458793E+00
  9.957E+00  7.775E-01  2.507E-02 3.2798155E+00 4.0982789E-01 1.7922936E+00
  1.000E+01  7.052E-01  4.443E-02 3.2945669E+00 5.3063221E-01 1.7208416E+00
  9.957E+00  7.292E-01  3.738E-02 3.2918776E+00 4.9797358E-01 1.7691422E+00
  1.000E+01  6.580E-01  6.031E-02 3.3060636E+00 6.1543712E-01 1.6920955E+00
  9.957E+00  6.815E-01  5.207E-02 3.2956631E+00 5.8469111E-01 1.7415490E+00
  1.000E+01  6.116E-01  7.852E-02 3.3396750E+00 6.9966980E-01 1.6598357E+00
  9.957E+00  6.347E-01  6.913E-02 3.3243079E+00 6.7110514E-01 1.7105622E+00
  1.000E+01  5.661E-01  9.903E-02 3.3482243E+00 7.8161955E-01 1.6228687E+00
  9.957E+00  5.887E-01  8.849E-02 3.3500859E+00 7.5603786E-01 1.6753188E+00
  1.000E+01  5.217E-01  1.218E-01 3.3661228E+00 8.6131405E-01 1.5817080E+00
  9.957E+00  5.438E-01  1.101E-01 3.3481798E+00 8.3838758E-01 1.6353108E+00
  1.000E+01  4.786E-01  1.467E-01 3.3917790E+00 9.3916734E-01 1.5369003E+00
  9.957E+00  5.000E-01  1.340E-01 3.3821212E+00 9.1880255E-01 1.5914793E+00
  1.000E+01  4.367E-01  1.738E-01 3.3889858E+00 1.0146142E+00 1.4881635E+00
  9.957E+00  4.575E-01  1.600E-01 3.3818794E+00 9.9707333E-01 1.5437675E+00
  1.000E+01  3.962E-01  2.029E-01 3.4099356E+00 1.0875158E+00 1.4357228E+00
  9.957E+00  4.163E-01  1.881E-01 3.4129453E+00 1.0727484E+00 1.4921059E+00
  1.000E+01  3.572E-01  2.340E-01 3.4175692E+00 1.1577421E+00 1.3797435E+00
  9.957E+00  3.765E-01  2.182E-01 3.4039765E+00 1.1458025E+00 1.4367908E+00
  1.000E+01  3.198E-01  2.669E-01 3.4190354E+00 1.2250727E+00 1.3203157E+00
  9.957E+00  3.383E-01  2.502E-01 3.4203774E+00 1.2159958E+00 1.3778926E+00
  1.000E+01  2.841E-01  3.018E-01 3.4203407E+00 1.2893639E+00 1.2576082E+00
  9.957E+00  3.018E-01  2.841E-01 3.4203447E+00 1.2831660E+00 1.3155651E+00
  1.000E+01  2.502E-01  3.383E-01 3.4203739E+00 1.3504500E+00 1.1917758E+00
  9.957E+00  2.669E-01  3.198E-01 3.4190398E+00 1.3471478E+00 1.2499673E+00
  1.000E+01  2.182E-01  3.765E-01 3.4039735E+00 1.4081754E+00 1.1229806E+00
  9.957E+00  2.340E-01  3.572E-01 3.4175740E+00 1.4077833E+00 1.1812684E+00
  1.000E+01  1.881E-01  4.163E-01 3.4129428E+00 1.4623890E+00 1.0513817E+00
  9.957E+00  2.029E-01  3.962E-01 3.4099408E+00 1.4649006E+00 1.1096152E+00
  1.000E+01  1.600E-01  4.575E-01 3.3818772E+00 1.5130213E+00 9.7721353E-01
  9.957E+00  1.738E-01  4.367E-01 3.3889914E+00 1.5184068E+00 1.0352321E+00
  1.000E+01  1.340E-01  5.000E-01 3.3821193E+00 1.5597825E+00 9.0050161E-01
  9.957E+00  1.467E-01  4.786E-01 3.3917850E+00 1.5681338E+00 9.5825178E-01
  1.000E+01  1.101E-01  5.438E-01 3.3481786E+00 1.6027409E+00 8.2168850E-01
  9.957E+00  1.218E-01  5.217E-01 3.3661294E+00 1.6138518E+00 8.7881629E-01
  1.000E+01  8.849E-02  5.887E-01 3.3500855E+00 1.6419533E+00 7.4097910E-01
  9.957E+00  9.903E-02  5.661E-01 3.3482311E+00 1.6558496E+00 7.9750257E-01
  1.000E+01  6.913E-02  6.347E-01 3.3243081E+00 1.6764948E+00 6.5773772E-01
  9.957E+00  7.852E-02  6.116E-01 3.3396817E+00 1.6935688E+00 7.1388770E-01
  1.000E+01  5.207E-02  6.815E-01 3.2956634E+00 1.7068634E+00 5.7304455E-01
  9.957E+00  6.031E-02  6.580E-01 3.3060705E+00 1.7264837E+00 6.2794311E-01
  1.000E+01  3.738E-02  7.292E-01 3.2918779E+00 1.7339070E+00 4.8805448E-01
  9.957E+00  4.443E-02  7.052E-01 3.2945743E+00 1.7558132E+00 5.4141416E-01
  1.000E+01  2.507E-02  7.775E-01 3.2798160E+00 1.7565974E+00 4.0166485E-01
  9.957E+00  3.092E-02  7.532E-01 3.2871049E+00 1.7813593E+00 4.5416328E-01
  1.000E+01  1.519E-02  8.264E-01 3.2616334E+00 1.7741104E+00 3.1322743E-01
  9.957E+00  1.983E-02  8.019E-01 3.2705468E+00 1.8018698E+00 3.6492771E-01
  1.000E+01  7.761E-03  8.757E-01 3.2461700E+00 1.7870052E+00 2.2374109E-01
  9.957E+00  1.117E-02  8.510E-01 3.2528859E+00 1.8172888E+00 2.7399757E-01
  1.000E+01  2.796E-03  9.253E-01 3.2372974E+00 1.7957835E+00 1.3416518E-01
  9.957E+00  4.969E-03  9.004E-01 3.2409959E+00 1.8283156E+00 1.8257133E-01
  1.000E+01  3.108E-04  9.751E-01 3.2338433E+00 1.8003143E+00 4.4708476E-02
  9.957E+00  1.243E-03  9.502E-01 3.2354670E+00 1.8351516E+00 9.1243036E-02
  1.000E+01  3.108E-04  1.025E+00 3.2338434E+00 1.8003143E+00 -4.4709904E-02
  9.957E+00  0.000E+00  1.000E+00 3.2340243E+00 1.8374924E+00 -7.3167911E-07
  1.000E+01  2.796E-03  1.075E+00 3.2372975E+00 1.7957835E+00 -1.3416661E-01
  9.957E+00  1.243E-03  1.050E+00 3.2354670E+00 1.8351516E+00 -9.1244492E-02
  1.000E+01  7.761E-03  1.124E+00 3.2461702E+00 1.7870052E+00 -2.2374253E-01
  9.957E+00  4.969E-03  1.100E+00 3.2409960E+00 1.8283157E+00 -1.8257277E-01
  1.000E+01  1.519E-02  1.174E+00 3.2616336E+00 1.7741102E+00 -3.1322887E-01
  9.957E+00  1.117E-02  1.149E+00 3.2528860E+00 1.8172888E+00 -2.7399901E-01
  1.000E+01  2.507E-02  1.223E+00 3.2798163E+00 1.7565969E+00 -4.0166628E-01
  9.957E+00  1.983E-02  1.198E+00 3.2705469E+00 1.8018694E+00 -3.6492914E-01
  1.000E+01  3.738E-02  1.271E+00 3.2918782E+00 1.7339066E+00 -4.8805589E-01
  9.957E+00  3.092E-02  1.247E+00 3.2871051E+00 1.7813587E+00 -4.5416470E-01
  1.000E+01  5.207E-02  1.318E+00 3.2956637E+00 1.7068636E+00 -5.7304595E-01
  9.957E+00  4.443E-02  1.295E+00 3.2945745E+00 1.7558132E+00 -5.4141557E-01
  1.000E+01  6.913E-02  1.365E+00 3.3243085E+00 1.6764942E+00 -6.5773909E-01
  9.957E+00  6.031E-02  1.342E+00 3.3060708E+00 1.7264837E+00 -6.2794450E-01
  1.000E+01  8.849E-02  1.411E+00 3.3500859E+00 1.6419525E+00 -7.4098046E-01
  9.957E+00  7.852E-02  1.388E+00 3.3396820E+00 1.6935678E+00 -7.1388907E-01
  1.000E+01  1.101E-01  1.456E+00 3.3481791E+00 1.6027409E+00 -8.2168986E-01
  9.957E+00  9.903E-02  1.434E+00 3.3482315E+00 1.6558494E+00 -7.9750392E-01
  1.000E+01  1.340E-01  1.500E+00 3.3821198E+00 1.5597816E+00 -9.0050292E-01
  9.957E+00  1.218E-01  1.478E+00 3.3661298E+00 1.6138514E+00 -8.7881762E-01
  1.000E+01  1.600E-01  1.543E+00 3.3818777E+00 1.5130206E+00 -9.7721482E-01
  9.957E+00  1.467E-01  1.521E+00 3.3917854E+00 1.5681329E+00 -9.5825308E-01
  1.000E+01  1.881E-01  1.584E+00 3.4129433E+00 1.4623882E+00 -1.0513829E+00
  9.957E+00  1.738E-01  1.563E+00 3.3889919E+00 1.5184064E+00 -1.0352334E+00
  1.000E+01  2.182E-01  1.623E+00 3.4039741E+00 1.4081745E+00 -1.1229818E+00
  9.957E+00  2.029E-01  1.604E+00 3.4099413E+00 1.4648997E+00 -1.1096165E+00
  1.000E+01  2.502E-01  1.662E+00 3.4203746E+00 1.3504492E+00 -1.1917769E+00
  9.957E+00  2.340E-01  1.643E+00 3.4175745E+00 1.4077826E+00 -1.1812696E+00
  1.000E+01  2.841E-01  1.698E+00 3.4203414E+00 1.2893629E+00 -1.2576093E+00
  9.957E+00  2.669E-01  1.680E+00 3.4190404E+00 1.3471469E+00 -1.2499685E+00
  1.000E+01  3.198E-01  1.733E+00 3.4190361E+00 1.2250718E+00 -1.3203168E+00
  9.957E+00  3.018E-01  1.716E+00 3.4203453E+00 1.2831652E+00 -1.3155662E+00
  1.000E+01  3.572E-01  1.766E+00 3.4175698E+00 1.1577411E+00 -1.3797445E+00
  9.957E+00  3.383E-01  1.750E+00 3.4203780E+00 1.2159950E+00 -1.3778938E+00
  1.000E+01  3.962E-01  1.797E+00 3.4099362E+00 1.0875149E+00 -1.4357238E+00
  9.957E+00  3.765E-01  1.782E+00 3.4039772E+00 1.1458016E+00 -1.4367919E+00
  1.000E+01  4.367E-01  1.826E+00 3.3889866E+00 1.0146134E+00 -1.4881645E+00
  9.957E+00  4.163E-01  1.812E+00 3.4129460E+00 1.0727473E+00 -1.4921069E+00
  1.000E+01  4.786E-01  1.853E+00 3.3917801E+00 9.3916642E-01 -1.5369013E+00
  9.957E+00  4.575E-01  1.840E+00 3.3818799E+00 9.9707216E-01 -1.5437685E+00
  1.000E+01  5.217E-01  1.878E+00 3.3661240E+00 8.6131287E-01 -1.5817088E+00
  9.957E+00  5.000E-01  1.866E+00 3.3821216E+00 9.1880145E-01 -1.5914801E+00
  1.000E+01  5.661E-01  1.901E+00 3.3482249E+00 7.8161841E-01 -1.6228695E+00
  9.957E+00  5.438E-01  1.890E+00 3.3481804E+00 8.3838664E-01 -1.6353116E+00
  1.000E+01  6.116E-01  1.921E+00 3.3396748E+00 6.9966907E-01 -1.6598366E+00
  9.957E+00  5.887E-01  1.912E+00 3.3500870E+00 7.5603668E-01 -1.6753195E+00
  1.000E+01  6.580E-01  1.940E+00 3.3060633E+00 6.1543642E-01 -1.6920964E+00
  9.957E+00  6.347E-01  1.931E+00 3.3243095E+00 6.7110366E-01 -1.7105628E+00
  1.000E+01  7.052E-01  1.956E+00 3.2945673E+00 5.3063063E-01 -1.7208423E+00
  9.957E+00  6.815E-01  1.948E+00 3.2956646E+00 5.8468976E-01 -1.7415496E+00
  1.000E+01  7.532E-01  1.969E+00 3.2870983E+00 4.4511700E-01 -1.7458795E+00
  9.957E+00  7.292E-01  1.963E+00 3.2918785E+00 4.9797289E-01 -1.7691429E+00
  1.000E+01  8.019E-01  1.980E+00 3.2705400E+00 3.5765833E-01 -1.7659813E+00
  9.957E+00  7.775E-01  1.975E+00 3.2798159E+00 4.0982778E-01 -1.7922944E+00
  1.000E+01  8.510E-01  1.989E+00 3.2528784E+00 2.6853923E-01 -1.7810927E+00
  9.957E+00  8.264E-01  1.985E+00 3.2616328E+00 3.1959303E-01 -1.8101633E+00
  1.000E+01  9.004E-01  1.995E+00 3.2409876E+00 1.7893421E-01 -1.7918994E+00
  9.957E+00  8.757E-01  1.992E+00 3.2461691E+00 2.2828795E-01 -1.8233201E+00
  1.000E+01  9.502E-01  1.999E+00 3.2354580E+00 8.9425257E-02 -1.7985989E+00
  9.957E+00  9.253E-01  1.997E+00 3.2372962E+00 1.3689153E-01 -1.8322766E+00
  1.000E+01  1.000E+00  2.000E+00 3.2340149E+00 -8.8609106E-07 -1.8008930E+00
  9.957E+00  9.751E-01  2.000E+00 3.2338419E+00 4.5616856E-02 -1.8368993E+00
  1.000E+01  1.050E+00  1.999E+00 3.2354574E+00 -8.9427026E-02 -1.7985988E+00
  9.957E+00  1.025E+00  2.000E+00 3.2338415E+00 -4.5618652E-02 -1.8368992E+00
  1.000E+01  1.100E+00  1.995E+00 3.2409863E+00 -1.7893597E-01 -1.7918992E+00
  9.957E+00  1.075E+00  1.997E+00 3.2372953E+00 -1.3689331E-01 -1.8322764E+00
  1.000E+01  1.149E+00  1.989E+00 3.2528765E+00 -2.6854097E-01 -1.7810924E+00
  9.957E+00  1.124E+00  1.992E+00 3.2461675E+00 -2.2828972E-01 -1.8233199E+00
  1.000E+01  1.198E+00  1.980E+00 3.2705375E+00 -3.5766004E-01 -1.7659809E+00
  9.957E+00  1.174E+00  1.985E+00 3.2616306E+00 -3.1959478E-01 -1.8101630E+00