# TIME = 4.000000
VARIABLES = X, Y, Z, FX, FY, FZ
ZONE N=29232 E=58212 F=FEPOINT ET=TRIANGLE
  0.000E+00  9.502E-01  1.243E-03 3.2514511E+00 3.1520807E-02 6.3396001E-01
  0.000E+00  1.000E+00  0.000E+00 3.2500115E+00 1.9991716E-08 6.3476860E-01
  4.318E-02  9.751E-01  3.108E-04 3.2498418E+00 1.4894900E-02 5.9976182E-01
  0.000E+00  1.050E+00  1.243E-03 3.2514497E+00 -3.1520766E-02 6.3396003E-01
  4.318E-02  1.025E+00  3.108E-04 3.2498411E+00 -1.4894821E-02 5.9976182E-01
  0.000E+00  1.100E+00  4.969E-03 3.2569727E+00 -6.3070693E-02 6.3159867E-01
  4.318E-02  1.075E+00  2.796E-03 3.2532898E+00 -4.4697298E-02 5.9825258E-01
  0.000E+00  1.149E+00  1.117E-02 3.2688676E+00 -9.4654367E-02 6.2778960E-01
  4.318E-02  1.124E+00  7.761E-03 3.2621626E+00 -7.4539410E-02 5.9532835E-01
  0.000E+00  1.198E+00  1.983E-02 3.2865441E+00 -1.2606673E-01 6.2246323E-01
  4.318E-02  1.174E+00  1.519E-02 3.2776392E+00 -1.0435148E-01 5.9103261E-01
  0.000E+00  1.247E+00  3.092E-02 3.3030990E+00 -1.5689408E-01 6.1537808E-01
  4.318E-02  1.223E+00  2.507E-02 3.2958328E+00 -1.3381389E-01 5.8519825E-01
  0.000E+00  1.295E+00  4.443E-02 3.3105095E+00 -1.8703620E-01 6.0655350E-01
  4.318E-02  1.271E+00  3.738E-02 3.3078639E+00 -1.6259403E-01 5.7763922E-01
  0.000E+00  1.342E+00  6.031E-02 3.3219541E+00 -2.1692870E-01 5.9642159E-01
  4.318E-02  1.318E+00  5.207E-02 3.3115659E+00 -1.9090789E-01 5.6863006E-01
  0.000E+00  1.388E+00  7.852E-02 3.3556223E+00 -2.4661868E-01 5.8505089E-01
  4.318E-02  1.365E+00  6.913E-02 3.3402391E+00 -2.1912280E-01 5.5851288E-01
  0.000E+00  1.434E+00  9.903E-02 3.3641123E+00 -2.7550362E-01 5.7202113E-01
  4.318E-02  1.411E+00  8.849E-02 3.3660394E+00 -2.4685441E-01 5.4700598E-01
  0.000E+00  1.478E+00  1.218E-01 3.3819884E+00 -3.0359368E-01 5.5751322E-01
  4.318E-02  1.456E+00  1.101E-01 3.3640213E+00 -2.7374283E-01 5.3394346E-01
  0.000E+00  1.521E+00  1.467E-01 3.4076818E+00 -3.3103494E-01 5.4171989E-01
  4.318E-02  1.500E+00  1.340E-01 3.3980271E+00 -2.9999903E-01 5.1963229E-01
  0.000E+00  1.563E+00  1.738E-01 3.4047957E+00 -3.5762819E-01 5.2454169E-01
  4.318E-02  1.543E+00  1.600E-01 3.3977031E+00 -3.2555491E-01 5.0405410E-01
  0.000E+00  1.604E+00  2.029E-01 3.4257849E+00 -3.8332423E-01 5.0605795E-01
  4.318E-02  1.584E+00  1.881E-01 3.4288383E+00 -3.5026347E-01 4.8718645E-01
  0.000E+00  1.643E+00  2.340E-01 3.4334030E+00 -4.0807712E-01 4.8632690E-01
  4.318E-02  1.623E+00  2.182E-01 3.4197817E+00 -3.7411621E-01 4.6912591E-01
  0.000E+00  1.680E+00  2.669E-01 3.4348593E+00 -4.3180931E-01 4.6538031E-01
  4.318E-02  1.662E+00  2.502E-01 3.4362202E+00 -3.9703482E-01 4.4989540E-01
  0.000E+00  1.716E+00  3.018E-01 3.4361586E+00 -4.5447010E-01 4.4327765E-01
  4.318E-02  1.698E+00  2.841E-01 3.4361699E+00 -4.1896629E-01 4.2954509E-01
  0.000E+00  1.750E+00  3.383E-01 3.4362085E+00 -4.7600123E-01 4.2007355E-01
  4.318E-02  1.733E+00  3.198E-01 3.4348701E+00 -4.3985662E-01 4.0812701E-01
  0.000E+00  1.782E+00  3.765E-01 3.4197697E+00 -4.9634773E-01 3.9582511E-01
  4.318E-02  1.766E+00  3.572E-01 3.4334135E+00 -4.5965440E-01 3.8569638E-01
  0.000E+00  1.812E+00  4.163E-01 3.4288260E+00 -5.1545644E-01 3.7058838E-01
  4.318E-02  1.797E+00  3.962E-01 3.4257950E+00 -4.7830340E-01 3.6230117E-01
  0.000E+00  1.840E+00  4.575E-01 3.3976904E+00 -5.3330279E-01 3.4444600E-01
  4.318E-02  1.826E+00  4.367E-01 3.4048055E+00 -4.9577358E-01 3.3801470E-01
  0.000E+00  1.866E+00  5.000E-01 3.3980138E+00 -5.4978462E-01 3.1740701E-01
  4.318E-02  1.853E+00  4.786E-01 3.4076910E+00 -5.1200935E-01 3.1287998E-01
  0.000E+00  1.890E+00  5.438E-01 3.3640076E+00 -5.6492640E-01 2.8962733E-01
  4.318E-02  1.878E+00  5.217E-01 3.3819971E+00 -5.2693642E-01 2.8694353E-01
  0.000E+00  1.912E+00  5.887E-01 3.3660257E+00 -5.7874715E-01 2.6117913E-01
  4.318E-02  1.901E+00  5.661E-01 3.3641206E+00 -5.4064865E-01 2.6039370E-01
  0.000E+00  1.931E+00  6.347E-01 3.3402250E+00 -5.9092204E-01 2.3183860E-01
  4.318E-02  1.921E+00  6.116E-01 3.3556301E+00 -5.5296382E-01 2.3309282E-01
  0.000E+00  1.948E+00  6.815E-01 3.3115514E+00 -6.0162636E-01 2.0198632E-01
  4.318E-02  1.940E+00  6.580E-01 3.3219614E+00 -5.6371116E-01 2.0503143E-01
  0.000E+00  1.963E+00  7.292E-01 3.3078490E+00 -6.1115800E-01 1.7202908E-01
  4.318E-02  1.956E+00  7.052E-01 3.3105162E+00 -5.7328729E-01 1.7677879E-01
  0.000E+00  1.975E+00  7.775E-01 3.2958174E+00 -6.1915543E-01 1.4157854E-01
  4.318E-02  1.969E+00  7.532E-01 3.3031050E+00 -5.8162770E-01 1.4829010E-01
  0.000E+00  1.985E+00  8.264E-01 3.2776232E+00 -6.2532834E-01 1.1040638E-01
  4.318E-02  1.980E+00  8.019E-01 3.2865497E+00 -5.8832435E-01 1.1915349E-01
  0.000E+00  1.992E+00  8.757E-01 3.2621462E+00 -6.2987347E-01 7.8864503E-02
  4.318E-02  1.989E+00  8.510E-01 3.2688730E+00 -5.9335880E-01 8.9463751E-02
  0.000E+00  1.997E+00  9.253E-01 3.2532731E+00 -6.3296751E-01 4.7290937E-02
  4.318E-02  1.995E+00  9.004E-01 3.2569780E+00 -5.9695911E-01 5.9612059E-02
  0.000E+00  2.000E+00  9.751E-01 3.2498242E+00 -6.3456443E-01 1.5759319E-02
  4.318E-02  1.999E+00  9.502E-01 3.2514548E+00 -5.9919104E-01 2.9792335E-02
  0.000E+00  2.000E+00  1.025E+00 3.2498245E+00 -6.3456444E-01 -1.5758808E-02
  4.318E-02  2.000E+00  1.000E+00 3.2500163E+00 -5.9995529E-01 2.2811581E-07
  0.000E+00  1.997E+00  1.075E+00 3.2532743E+00 -6.3296752E-01 -4.7290434E-02
  4.318E-02  1.999E+00  1.050E+00 3.2514556E+00 -5.9919103E-01 -2.9791876E-02
  0.000E+00  1.992E+00  1.124E+00 3.2621481E+00 -6.2987348E-01 -7.8864016E-02
  4.318E-02  1.995E+00  1.100E+00 3.2569796E+00 -5.9695909E-01 -5.9611595E-02
  0.000E+00  1.985E+00  1.174E+00 3.2776259E+00 -6.2532844E-01 -1.1040591E-01
  4.318E-02  1.989E+00  1.149E+00 3.2688753E+00 -5.9335882E-01 -8.9463282E-02
  0.000E+00  1.975E+00  1.223E+00 3.2958207E+00 -6.1915566E-01 -1.4157807E-01
  4.318E-02  1.980E+00  1.198E+00 3.2865527E+00 -5.8832451E-01 -1.1915302E-01
  0.000E+00  1.963E+00  1.271E+00 3.3078531E+00 -6.1115816E-01 -1.7202860E-01
  4.318E-02  1.969E+00  1.247E+00 3.3031087E+00 -5.8162793E-01 -1.4828964E-01
  0.000E+00  1.948E+00  1.318E+00 3.3115562E+00 -6.0162631E-01 -2.0198584E-01
  4.318E-02  1.956E+00  1.295E+00 3.3105206E+00 -5.7328734E-01 -1.7677834E-01
  0.000E+00  1.931E+00  1.365E+00 3.3402305E+00 -5.9092227E-01 -2.3183814E-01
  4.318E-02  1.940E+00  1.342E+00 3.3219666E+00 -5.6371123E-01 -2.0503099E-01
  0.000E+00  1.912E+00  1.411E+00 3.3660318E+00 -5.7874747E-01 -2.6117866E-01
  4.318E-02  1.921E+00  1.388E+00 3.3556360E+00 -5.5296421E-01 -2.3309239E-01
  0.000E+00  1.890E+00  1.456E+00 3.3640144E+00 -5.6492642E-01 -2.8962687E-01
  4.318E-02  1.901E+00  1.434E+00 3.3641271E+00 -5.4064882E-01 -2.6039327E-01
  0.000E+00  1.866E+00  1.500E+00 3.3980212E+00 -5.4978495E-01 -3.1740657E-01
  4.318E-02  1.878E+00  1.478E+00 3.3820042E+00 -5.2693662E-01 -2.8694311E-01
  0.000E+00  1.840E+00  1.543E+00 3.3976984E+00 -5.3330304E-01 -3.4444556E-01
  4.318E-02  1.853E+00  1.521E+00 3.4076987E+00 -5.1200975E-01 -3.1287958E-01
  0.000E+00  1.812E+00  1.584E+00 3.4288346E+00 -5.1545673E-01 -3.7058795E-01
  4.318E-02  1.826E+00  1.563E+00 3.4048138E+00 -4.9577382E-01 -3.3801431E-01
  0.000E+00  1.782E+00  1.623E+00 3.4197789E+00 -4.9634807E-01 -3.9582469E-01
  4.318E-02  1.797E+00  1.604E+00 3.4258038E+00 -4.7830378E-01 -3.6230080E-01
  0.000E+00  1.750E+00  1.662E+00 3.4362182E+00 -4.7600157E-01 -4.2007316E-01
  4.318E-02  1.766E+00  1.643E+00 3.4334228E+00 -4.5965471E-01 -3.8569601E-01
  0.000E+00  1.716E+00  1.698E+00 3.4361688E+00 -4.5447046E-01 -4.4327727E-01
  4.318E-02  1.733E+00  1.680E+00 3.4348800E+00 -4.3985698E-01 -4.0812666E-01
  0.000E+00  1.680E+00  1.733E+00 3.4348698E+00 -4.3180961E-01 -4.6537992E-01
  4.318E-02  1.698E+00  1.716E+00 3.4361803E+00 -4.1896665E-01 -4.2954475E-01
  0.000E+00  1.643E+00  1.766E+00 3.4334139E+00 -4.0807736E-01 -4.8632649E-01
  4.318E-02  1.662E+00  1.750E+00 3.4362310E+00 -3.9703525E-01 -4.4989510E-01
  0.000E+00  1.604E+00  1.797E+00 3.4257962E+00 -3.8332453E-01 -5.0605757E-01
  4.318E-02  1.623E+00  1.782E+00 3.4197930E+00 -3.7411667E-01 -4.6912564E-01
  0.000E+00  1.563E+00  1.826E+00 3.4048075E+00 -3.5762876E-01 -5.2454140E-01
  4.318E-02  1.584E+00  1.812E+00 3.4288500E+00 -3.5026385E-01 -4.8718616E-01
  0.000E+00  1.521E+00  1.853E+00 3.4076940E+00 -3.3103580E-01 -5.4171971E-01
  4.318E-02  1.543E+00  1.840E+00 3.3977150E+00 -3.2555510E-01 -5.0405376E-01
  0.000E+00  1.478E+00  1.878E+00 3.3820009E+00 -3.0359435E-01 -5.5751303E-01
  4.318E-02  1.500E+00  1.866E+00 3.3980392E+00 -2.9999915E-01 -5.1963195E-01
  0.000E+00  1.434E+00  1.901E+00 3.3641250E+00 -2.7550354E-01 -5.7202076E-01
  4.318E-02  1.456E+00  1.890E+00 3.3640336E+00 -2.7374327E-01 -5.3394323E-01
  0.000E+00  1.388E+00  1.921E+00 3.3556351E+00 -2.4661793E-01 -5.8505031E-01
  4.318E-02  1.411E+00  1.912E+00 3.3660521E+00 -2.4685538E-01 -5.4700592E-01
  0.000E+00  1.342E+00  1.940E+00 3.3219670E+00 -2.1692814E-01 -5.9642099E-01
  4.318E-02  1.365E+00  1.931E+00 3.3402522E+00 -2.1912396E-01 -5.5851294E-01
  0.000E+00  1.295E+00  1.956E+00 3.3105225E+00 -1.8703663E-01 -6.0655310E-01
  4.318E-02  1.318E+00  1.948E+00 3.3115794E+00 -1.9090864E-01 -5.6863008E-01
  0.000E+00  1.247E+00  1.969E+00 3.3031121E+00 -1.5689549E-01 -6.1537798E-01
  4.318E-02  1.271E+00  1.963E+00 3.3078777E+00 -1.6259409E-01 -5.7763909E-01
  0.000E+00  1.198E+00  1.980E+00 3.2865575E+00 -1.2606849E-01 -6.2246337E-01
  4.318E-02  1.223E+00  1.975E+00 3.2958465E+00 -1.3381351E-01 -5.8519797E-01
  0.000E+00  1.149E+00  1.989E+00 3.2688813E+00 -9.4655887E-02 -6.2778985E-01
  4.318E-02  1.174E+00  1.985E+00 3.2776528E+00 -1.0435109E-01 -5.9103225E-01
  0.000E+00  1.100E+00  1.995E+00 3.2569867E+00 -6.3071761E-02 -6.3159897E-01
  4.318E-02  1.124E+00  1.992E+00 3.2621760E+00 -7.4539262E-02 -5.9532798E-01
  0.000E+00  1.050E+00  1.999E+00 3.2514638E+00 -3.1521448E-02 -6.3396034E-01
  4.318E-02  1.075E+00  1.997E+00 3.2533032E+00 -4.4697414E-02 -5.9825223E-01
  0.000E+00  1.000E+00  2.000E+00 3.2500256E+00 -3.7431565E-07 -6.3476893E-01
  4.318E-02  1.025E+00  2.000E+00 3.2498545E+00 -1.4895134E-02 -5.9976150E-01
  0.000E+00  9.502E-01  1.999E+00 3.2514652E+00 3.1520700E-02 -6.3396037E-01
  4.318E-02  9.751E-01  2.000E+00 3.2498553E+00 1.4894424E-02 -5.9976152E-01
  0.000E+00  9.004E-01  1.995E+00 3.2569896E+00 6.3071015E-02 -6.3159902E-01
  4.318E-02  9.253E-01  1.997E+00 3.2533054E+00 4.4696705E-02 -5.9825227E-01
  0.000E+00  8.510E-01  1.989E+00 3.2688856E+00 9.4655145E-02 -6.2778993E-01
  4.318E-02  8.757E-01  1.992E+00 3.2621796E+00 7.4538556E-02 -5.9532805E-01
  0.000E+00  8.019E-01  1.980E+00 3.2865633E+00 1.2606775E-01 -6.2246348E-01
  4.318E-02  8.264E-01  1.985E+00 3.2776578E+00 1.0435039E-01 -5.9103234E-01
  0.000E+00  7.532E-01  1.969E+00 3.3031193E+00 1.5689476E-01 -6.1537812E-01
  4.318E-02  7.775E-01  1.975E+00 3.2958530E+00 1.3381281E-01 -5.8519808E-01
  0.000E+00  7.052E-01  1.956E+00 3.3105310E+00 1.8703591E-01 -6.0655326E-01
  4.318E-02  7.292E-01  1.963E+00 3.3078855E+00 1.6259340E-01 -5.7763923E-01
  0.000E+00  6.580E-01  1.940E+00 3.3219768E+00 2.1692743E-01 -5.9642118E-01
  4.318E-02  6.815E-01  1.948E+00 3.3115886E+00 1.9090796E-01 -5.6863024E-01
  0.000E+00  6.116E-01  1.921E+00 3.3556462E+00 2.4661723E-01 -5.8505052E-01
  4.318E-02  6.347E-01  1.931E+00 3.3402627E+00 2.1912329E-01 -5.5851312E-01
  0.000E+00  5.661E-01  1.901E+00 3.3641374E+00 2.7550286E-01 -5.7202099E-01
  4.318E-02  5.887E-01  1.912E+00 3.3660639E+00 2.4685472E-01 -5.4700612E-01
  0.000E+00  5.217E-01  1.878E+00 3.3820145E+00 3.0359367E-01 -5.5751328E-01
  4.318E-02  5.438E-01  1.890E+00 3.3640466E+00 2.7374262E-01 -5.3394345E-01
  0.000E+00  4.786E-01  1.853E+00 3.4077088E+00 3.3103514E-01 -5.4171998E-01
  4.318E-02  5.000E-01  1.866E+00 3.3980534E+00 2.9999851E-01 -5.1963220E-01
  0.000E+00  4.367E-01  1.826E+00 3.4048234E+00 3.5762812E-01 -5.2454169E-01
  4.318E-02  4.575E-01  1.840E+00 3.3977304E+00 3.2555448E-01 -5.0405403E-01
  0.000E+00  3.962E-01  1.797E+00 3.4258132E+00 3.8332390E-01 -5.0605787E-01
  4.318E-02  4.163E-01  1.812E+00 3.4288664E+00 3.5026324E-01 -4.8718645E-01
  0.000E+00  3.572E-01  1.766E+00 3.4334319E+00 4.0807674E-01 -4.8632681E-01
  4.318E-02  3.765E-01  1.782E+00 3.4198105E+00 3.7411609E-01 -4.6912594E-01
  0.000E+00  3.198E-01  1.733E+00 3.4348887E+00 4.3180902E-01 -4.6538026E-01
  4.318E-02  3.383E-01  1.750E+00 3.4362495E+00 3.9703468E-01 -4.4989542E-01
  0.000E+00  2.841E-01  1.698E+00 3.4361886E+00 4.5446988E-01 -4.4327762E-01
  4.318E-02  3.018E-01  1.716E+00 3.4361997E+00 4.1896611E-01 -4.2954509E-01
  0.000E+00  2.502E-01  1.662E+00 3.4362388E+00 4.7600102E-01 -4.2007352E-01
  4.318E-02  2.669E-01  1.680E+00 3.4349002E+00 4.3985642E-01 -4.0812700E-01
  0.000E+00  2.182E-01  1.623E+00 3.4198003E+00 4.9634751E-01 -3.9582507E-01
  4.318E-02  2.340E-01  1.643E+00 3.4334439E+00 4.5965421E-01 -3.8569637E-01
  0.000E+00  1.881E-01  1.584E+00 3.4288568E+00 5.1545622E-01 -3.7058833E-01
  4.318E-02  2.029E-01  1.604E+00 3.4258256E+00 4.7830323E-01 -3.6230116E-01
  0.000E+00  1.600E-01  1.543E+00 3.3977212E+00 5.3330257E-01 -3.4444595E-01
  4.318E-02  1.738E-01  1.563E+00 3.4048363E+00 4.9577342E-01 -3.3801469E-01
  0.000E+00  1.340E-01  1.500E+00 3.3980446E+00 5.4978440E-01 -3.1740696E-01
  4.318E-02  1.467E-01  1.521E+00 3.4077218E+00 5.1200920E-01 -3.1287996E-01
  0.000E+00  1.101E-01  1.456E+00 3.3640383E+00 5.6492618E-01 -2.8962727E-01
  4.318E-02  1.218E-01  1.478E+00 3.3820279E+00 5.2693626E-01 -2.8694351E-01
  0.000E+00  8.849E-02  1.411E+00 3.3660562E+00 5.7874694E-01 -2.6117907E-01
  4.318E-02  9.903E-02  1.434E+00 3.3641513E+00 5.4064849E-01 -2.6039367E-01
  0.000E+00  6.913E-02  1.365E+00 3.3402553E+00 5.9092183E-01 -2.3183854E-01
  4.318E-02  7.852E-02  1.388E+00 3.3556606E+00 5.5296366E-01 -2.3309279E-01
  0.000E+00  5.207E-02  1.318E+00 3.3115814E+00 6.0162615E-01 -2.0198625E-01
  4.318E-02  6.031E-02  1.342E+00 3.3219916E+00 5.6371100E-01 -2.0503139E-01
  0.000E+00  3.738E-02  1.271E+00 3.3078786E+00 6.1115779E-01 -1.7202901E-01
  4.318E-02  4.443E-02  1.295E+00 3.3105460E+00 5.7328712E-01 -1.7677874E-01
  0.000E+00  2.507E-02  1.223E+00 3.2958465E+00 6.1915523E-01 -1.4157848E-01
  4.318E-02  3.092E-02  1.247E+00 3.3031343E+00 5.8162753E-01 -1.4829005E-01
  0.000E+00  1.519E-02  1.174E+00 3.2776519E+00 6.2532815E-01 -1.1040632E-01
  4.318E-02  1.983E-02  1.198E+00 3.2865786E+00 5.8832417E-01 -1.1915343E-01
  0.000E+00  7.761E-03  1.124E+00 3.2621743E+00 6.2987328E-01 -7.8864420E-02
  4.318E-02  1.117E-02  1.149E+00 3.2689014E+00 5.9335861E-01 -8.9463686E-02
  0.000E+00  2.796E-03  1.075E+00 3.2533005E+00 6.3296732E-01 -4.7290835E-02
  4.318E-02  4.969E-03  1.100E+00 3.2570058E+00 5.9695891E-01 -5.9611997E-02
  0.000E+00  3.108E-04  1.025E+00 3.2498508E+00 6.3456422E-01 -1.5759205E-02
  4.318E-02  1.243E-03  1.050E+00 3.2514819E+00 5.9919084E-01 -2.9792275E-02
  0.000E+00  3.108E-04  9.751E-01 3.2498505E+00 6.3456420E-01 1.5758928E-02
  4.318E-02  0.000E+00  1.000E+00 3.2500427E+00 5.9995509E-01 -1.6576249E-07
  0.000E+00  2.796E-03  9.253E-01 3.2532994E+00 6.3296727E-01 4.7290552E-02
  4.318E-02  1.243E-03  9.502E-01 3.2514811E+00 5.9919083E-01 2.9791946E-02
  0.000E+00  7.761E-03  8.757E-01 3.2621724E+00 6.2987322E-01 7.8864125E-02
  4.318E-02  4.969E-03  9.004E-01 3.2570043E+00 5.9695889E-01 5.9611676E-02
  0.000E+00  1.519E-02  8.264E-01 3.2776492E+00 6.2532818E-01 1.1040601E-01
  4.318E-02  1.117E-02  8.510E-01 3.2688991E+00 5.9335861E-01 8.9463376E-02
  0.000E+00  2.507E-02  7.775E-01 3.2958431E+00 6.1915540E-01 1.4157818E-01
  4.318E-02  1.983E-02  8.019E-01 3.2865756E+00 5.8832429E-01 1.1915312E-01
  0.000E+00  3.738E-02  7.292E-01 3.3078745E+00 6.1115790E-01 1.7202872E-01
  4.318E-02  3.092E-02  7.532E-01 3.3031306E+00 5.8162769E-01 1.4828974E-01
  0.000E+00  5.207E-02  6.815E-01 3.3115766E+00 6.0162605E-01 2.0198597E-01
  4.318E-02  4.443E-02  7.052E-01 3.3105415E+00 5.7328709E-01 1.7677844E-01
  0.000E+00  6.913E-02  6.347E-01 3.3402499E+00 5.9092200E-01 2.3183827E-01
  4.318E-02  6.031E-02  6.580E-01 3.3219865E+00 5.6371096E-01 2.0503109E-01
  0.000E+00  8.849E-02  5.887E-01 3.3660501E+00 5.7874720E-01 2.6117880E-01
  4.318E-02  7.852E-02  6.116E-01 3.3556548E+00 5.5296394E-01 2.3309249E-01
  0.000E+00  1.101E-01  5.438E-01 3.3640315E+00 5.6492614E-01 2.8962701E-01
  4.318E-02  9.903E-02  5.661E-01 3.3641448E+00 5.4064854E-01 2.6039337E-01
  0.000E+00  1.340E-01  5.000E-01 3.3980372E+00 5.4978467E-01 3.1740671E-01
  4.318E-02  1.218E-01  5.217E-01 3.3820208E+00 5.2693633E-01 2.8694322E-01
  0.000E+00  1.600E-01  4.575E-01 3.3977132E+00 5.3330274E-01 3.4444571E-01
  4.318E-02  1.467E-01  4.786E-01 3.4077141E+00 5.1200945E-01 3.1287968E-01
  0.000E+00  1.881E-01  4.163E-01 3.4288482E+00 5.1545642E-01 3.7058810E-01
  4.318E-02  1.738E-01  4.367E-01 3.4048279E+00 4.9577351E-01 3.3801441E-01
  0.000E+00  2.182E-01  3.765E-01 3.4197911E+00 4.9634774E-01 3.9582484E-01
  4.318E-02  2.029E-01  3.962E-01 3.4258168E+00 4.7830347E-01 3.6230090E-01
  0.000E+00  2.502E-01  3.383E-01 3.4362292E+00 4.7600122E-01 4.2007330E-01
  4.318E-02  2.340E-01  3.572E-01 3.4334345E+00 4.5965440E-01 3.8569612E-01
  0.000E+00  2.841E-01  3.018E-01 3.4361784E+00 4.5447011E-01 4.4327741E-01
  4.318E-02  2.669E-01  3.198E-01 3.4348903E+00 4.3985667E-01 4.0812676E-01
  0.000E+00  3.198E-01  2.669E-01 3.4348782E+00 4.3180932E-01 4.6538009E-01
  4.318E-02  3.018E-01  2.841E-01 3.4361893E+00 4.1896632E-01 4.2954485E-01
  0.000E+00  3.572E-01  2.340E-01 3.4334210E+00 4.0807714E-01 4.8632669E-01
  4.318E-02  3.383E-01  2.502E-01 3.4362387E+00 3.9703487E-01 4.4989517E-01
  0.000E+00  3.962E-01  2.029E-01 3.4258019E+00 3.8332425E-01 5.0605775E-01
  4.318E-02  3.765E-01  2.182E-01 3.4197992E+00 3.7411625E-01 4.6912570E-01
  0.000E+00  4.367E-01  1.738E-01 3.4048116E+00 3.5762821E-01 5.2454151E-01
  4.318E-02  4.163E-01  1.881E-01 3.4288548E+00 3.5026353E-01 4.8718626E-01
  0.000E+00  4.786E-01  1.467E-01 3.4076966E+00 3.3103497E-01 5.4171972E-01
  4.318E-02  4.575E-01  1.600E-01 3.3977185E+00 3.2555497E-01 5.0405392E-01
  0.000E+00  5.217E-01  1.218E-01 3.3820020E+00 3.0359371E-01 5.5751306E-01
  4.318E-02  5.000E-01  1.340E-01 3.3980413E+00 2.9999910E-01 5.1963212E-01
  0.000E+00  5.661E-01  9.903E-02 3.3641247E+00 2.7550364E-01 5.7202099E-01
  4.318E-02  5.438E-01  1.101E-01 3.3640343E+00 2.7374289E-01 5.3394331E-01
  0.000E+00  6.116E-01  7.852E-02 3.3556334E+00 2.4661871E-01 5.8505076E-01
  4.318E-02  5.887E-01  8.849E-02 3.3660512E+00 2.4685448E-01 5.4700585E-01
  0.000E+00  6.580E-01  6.031E-02 3.3219639E+00 2.1692873E-01 5.9642148E-01
  4.318E-02  6.347E-01  6.913E-02 3.3402496E+00 2.1912287E-01 5.5851277E-01
  0.000E+00  7.052E-01  4.443E-02 3.3105181E+00 1.8703623E-01 6.0655340E-01
  4.318E-02  6.815E-01  5.207E-02 3.3115751E+00 1.9090796E-01 5.6862996E-01
  0.000E+00  7.532E-01  3.092E-02 3.3031061E+00 1.5689412E-01 6.1537800E-01
  4.318E-02  7.292E-01  3.738E-02 3.3078718E+00 1.6259411E-01 5.7763914E-01
  0.000E+00  8.019E-01  1.983E-02 3.2865498E+00 1.2606677E-01 6.2246317E-01
  4.318E-02  7.775E-01  2.507E-02 3.2958393E+00 1.3381397E-01 5.8519818E-01
  0.000E+00  8.510E-01  1.117E-02 3.2688719E+00 9.4654407E-02 6.2778955E-01
  4.318E-02  8.264E-01  1.519E-02 3.2776442E+00 1.0435156E-01 5.9103255E-01
  0.000E+00  9.004E-01  4.969E-03 3.2569756E+00 6.3070732E-02 6.3159864E-01
  4.318E-02  8.757E-01  7.761E-03 3.2621662E+00 7.4539488E-02 5.9532831E-01
  4.318E-02  9.253E-01  2.796E-03 3.2532919E+00 4.4697377E-02 5.9825255E-01
  1.000E+01  1.050E+00  1.243E-03 3.2514497E+00 -3.1520766E-02 6.3396003E-01
  1.000E+01  1.000E+00  5.551E-16 3.2500115E+00 1.9991716E-08 6.3476860E-01
  9.957E+00  1.025E+00  3.108E-04 3.2498348E+00 -1.6624577E-02 6.6941625E-01
  1.000E+01  9.502E-01  1.243E-03 3.2514511E+00 3.1520807E-02 6.3396001E-01
  9.957E+00  9.751E-01  3.108E-04 3.2498355E+00 1.6624579E-02 6.6941625E-01
  1.000E+01  9.004E-01  4.969E-03 3.2569756E+00 6.3070732E-02 6.3159864E-01
  9.957E+00  9.253E-01  2.796E-03 3.2532857E+00 4.9888008E-02 6.6773164E-01
  1.000E+01  8.510E-01  1.117E-02 3.2688719E+00 9.4654407E-02 6.2778955E-01
  9.957E+00  8.757E-01  7.761E-03 3.2621599E+00 8.3195784E-02 6.6446771E-01
  1.000E+01  8.019E-01  1.983E-02 3.2865498E+00 1.2606677E-01 6.2246317E-01
  9.957E+00  8.264E-01  1.519E-02 3.2776380E+00 1.1647021E-01 6.5967305E-01
  1.000E+01  7.532E-01  3.092E-02 3.3031061E+00 1.5689412E-01 6.1537800E-01
  9.957E+00  7.775E-01  2.507E-02 3.2958332E+00 1.4935455E-01 6.5316121E-01
  1.000E+01  7.052E-01  4.443E-02 3.3105181E+00 1.8703623E-01 6.0655340E-01
  9.957E+00  7.292E-01  3.738E-02 3.3078658E+00 1.8147743E-01 6.4472442E-01
  1.000E+01  6.580E-01  6.031E-02 3.3219639E+00 2.1692873E-01 5.9642148E-01
  9.957E+00  6.815E-01  5.207E-02 3.3115691E+00 2.1307964E-01 6.3466890E-01
  1.000E+01  6.116E-01  7.852E-02 3.3556334E+00 2.4661871E-01 5.8505076E-01
  9.957E+00  6.347E-01  6.913E-02 3.3402435E+00 2.4457109E-01 6.2337647E-01
  1.000E+01  5.661E-01  9.903E-02 3.3641247E+00 2.7550364E-01 5.7202099E-01
  9.957E+00  5.887E-01  8.849E-02 3.3660449E+00 2.7552302E-01 6.1053297E-01
  1.000E+01  5.217E-01  1.218E-01 3.3820020E+00 3.0359371E-01 5.5751306E-01
  9.957E+00  5.438E-01  1.101E-01 3.3640280E+00 3.0553397E-01 5.9595335E-01
  1.000E+01  4.786E-01  1.467E-01 3.4076966E+00 3.3103497E-01 5.4171972E-01
  9.957E+00  5.000E-01  1.340E-01 3.3980351E+00 3.3483970E-01 5.7998028E-01
  1.000E+01  4.367E-01  1.738E-01 3.4048116E+00 3.5762821E-01 5.2454151E-01
  9.957E+00  4.575E-01  1.600E-01 3.3977124E+00 3.6336369E-01 5.6259310E-01
  1.000E+01  3.962E-01  2.029E-01 3.4258019E+00 3.8332425E-01 5.0605775E-01
  9.957E+00  4.163E-01  1.881E-01 3.4288487E+00 3.9094163E-01 5.4376638E-01
  1.000E+01  3.572E-01  2.340E-01 3.4334210E+00 4.0807714E-01 4.8632669E-01
  9.957E+00  3.765E-01  2.182E-01 3.4197931E+00 4.1756437E-01 5.2360823E-01
  1.000E+01  3.198E-01  2.669E-01 3.4348782E+00 4.3180932E-01 4.6538009E-01
  9.957E+00  3.383E-01  2.502E-01 3.4362325E+00 4.4314467E-01 5.0214431E-01
  1.000E+01  2.841E-01  3.018E-01 3.4361784E+00 4.5447011E-01 4.4327741E-01
  9.957E+00  3.018E-01  2.841E-01 3.4361832E+00 4.6762318E-01 4.7943065E-01
  1.000E+01  2.502E-01  3.383E-01 3.4362292E+00 4.7600122E-01 4.2007330E-01
  9.957E+00  2.669E-01  3.198E-01 3.4348842E+00 4.9093977E-01 4.5552518E-01
  1.000E+01  2.182E-01  3.765E-01 3.4197911E+00 4.9634774E-01 3.9582484E-01
  9.957E+00  2.340E-01  3.572E-01 3.4334284E+00 5.1303681E-01 4.3048951E-01
  1.000E+01  1.881E-01  4.163E-01 3.4288482E+00 5.1545642E-01 3.7058810E-01
  9.957E+00  2.029E-01  3.962E-01 3.4258106E+00 5.3385168E-01 4.0437722E-01
  1.000E+01  1.600E-01  4.575E-01 3.3977132E+00 5.3330274E-01 3.4444571E-01
  9.957E+00  1.738E-01  4.367E-01 3.4048217E+00 5.5335054E-01 3.7726992E-01
  1.000E+01  1.340E-01  5.000E-01 3.3980372E+00 5.4978467E-01 3.1740671E-01
  9.957E+00  1.467E-01  4.786E-01 3.4077079E+00 5.7147219E-01 3.4921616E-01
  1.000E+01  1.101E-01  5.438E-01 3.3640315E+00 5.6492614E-01 2.8962701E-01
  9.957E+00  1.218E-01  5.217E-01 3.3820146E+00 5.8813290E-01 3.2026772E-01
  1.000E+01  8.849E-02  5.887E-01 3.3660501E+00 5.7874720E-01 2.6117880E-01
  9.957E+00  9.903E-02  5.661E-01 3.3641387E+00 6.0343783E-01 2.9063464E-01
  1.000E+01  6.913E-02  6.347E-01 3.3402499E+00 5.9092200E-01 2.3183827E-01
  9.957E+00  7.852E-02  6.116E-01 3.3556486E+00 6.1718336E-01 2.6016283E-01
  1.000E+01  5.207E-02  6.815E-01 3.3115766E+00 6.0162605E-01 2.0198597E-01
  9.957E+00  6.031E-02  6.580E-01 3.3219802E+00 6.2917829E-01 2.2884213E-01
  1.000E+01  3.738E-02  7.292E-01 3.3078745E+00 6.1115790E-01 1.7202872E-01
  9.957E+00  4.443E-02  7.052E-01 3.3105353E+00 6.3986652E-01 1.9730831E-01
  1.000E+01  2.507E-02  7.775E-01 3.2958431E+00 6.1915540E-01 1.4157818E-01
  9.957E+00  3.092E-02  7.532E-01 3.3031244E+00 6.4917587E-01 1.6551131E-01
  1.000E+01  1.519E-02  8.264E-01 3.2776492E+00 6.2532818E-01 1.1040601E-01
  9.957E+00  1.983E-02  8.019E-01 3.2865694E+00 6.5665033E-01 1.3299120E-01
  1.000E+01  7.761E-03  8.757E-01 3.2621724E+00 6.2987322E-01 7.8864125E-02
  9.957E+00  1.117E-02  8.510E-01 3.2688929E+00 6.6226942E-01 9.9853602E-02
  1.000E+01  2.796E-03  9.253E-01 3.2532994E+00 6.3296727E-01 4.7290552E-02
  9.957E+00  4.969E-03  9.004E-01 3.2569981E+00 6.6628784E-01 6.6535070E-02
  1.000E+01  3.108E-04  9.751E-01 3.2498505E+00 6.3456420E-01 1.5758928E-02
  9.957E+00  1.243E-03  9.502E-01 3.2514749E+00 6.6877896E-01 3.3252090E-02
  1.000E+01  3.108E-04  1.025E+00 3.2498508E+00 6.3456422E-01 -1.5759205E-02
  9.957E+00  0.000E+00  1.000E+00 3.2500364E+00 6.6963197E-01 -1.4458864E-07
  1.000E+01  2.796E-03  1.075E+00 3.2533005E+00 6.3296732E-01 -4.7290835E-02
  9.957E+00  1.243E-03  1.050E+00 3.2514757E+00 6.6877898E-01 -3.3252377E-02
  1.000E+01  7.761E-03  1.124E+00 3.2621743E+00 6.2987328E-01 -7.8864420E-02
  9.957E+00  4.969E-03  1.100E+00 3.2569996E+00 6.6628787E-01 -6.6535350E-02
  1.000E+01  1.519E-02  1.174E+00 3.2776519E+00 6.2532815E-01 -1.1040632E-01
  9.957E+00  1.117E-02  1.149E+00 3.2688952E+00 6.6226942E-01 -9.9853872E-02
  1.000E+01  2.507E-02  1.223E+00 3.2958465E+00 6.1915523E-01 -1.4157848E-01
  9.957E+00  1.983E-02  1.198E+00 3.2865724E+00 6.5665021E-01 -1.3299146E-01
  1.000E+01  3.738E-02  1.271E+00 3.3078786E+00 6.1115779E-01 -1.7202901E-01
  9.957E+00  3.092E-02  1.247E+00 3.3031281E+00 6.4917570E-01 -1.6551157E-01
  1.000E+01  5.207E-02  1.318E+00 3.3115814E+00 6.0162615E-01 -2.0198625E-01
  9.957E+00  4.443E-02  1.295E+00 3.3105397E+00 6.3986657E-01 -1.9730858E-01
  1.000E+01  6.913E-02  1.365E+00 3.3402553E+00 5.9092183E-01 -2.3183854E-01
  9.957E+00  6.031E-02  1.342E+00 3.3219854E+00 6.2917835E-01 -2.2884240E-01
  1.000E+01  8.849E-02  1.411E+00 3.3660562E+00 5.7874694E-01 -2.6117907E-01
  9.957E+00  7.852E-02  1.388E+00 3.3556544E+00 6.1718307E-01 -2.6016309E-01
  1.000E+01  1.101E-01  1.456E+00 3.3640383E+00 5.6492618E-01 -2.8962727E-01
  9.957E+00  9.903E-02  1.434E+00 3.3641452E+00 6.0343780E-01 -2.9063490E-01
  1.000E+01  1.340E-01  1.500E+00 3.3980446E+00 5.4978440E-01 -3.1740696E-01
  9.957E+00  1.218E-01  1.478E+00 3.3820218E+00 5.8813285E-01 -3.2026797E-01
  1.000E+01  1.600E-01  1.543E+00 3.3977212E+00 5.3330257E-01 -3.4444595E-01
  9.957E+00  1.467E-01  1.521E+00 3.4077156E+00 5.7147193E-01 -3.4921641E-01
  1.000E+01  1.881E-01  1.584E+00 3.4288568E+00 5.1545622E-01 -3.7058833E-01
  9.957E+00  1.738E-01  1.563E+00 3.4048301E+00 5.5335047E-01 -3.7727016E-01
  1.000E+01  2.182E-01  1.623E+00 3.4198003E+00 4.9634751E-01 -3.9582507E-01
  9.957E+00  2.029E-01  1.604E+00 3.4258195E+00 5.3385145E-01 -4.0437745E-01
  1.000E+01  2.502E-01  1.662E+00 3.4362388E+00 4.7600102E-01 -4.2007352E-01
  9.957E+00  2.340E-01  1.643E+00 3.4334377E+00 5.1303663E-01 -4.3048974E-01
  1.000E+01  2.841E-01  1.698E+00 3.4361886E+00 4.5446988E-01 -4.4327762E-01
  9.957E+00  2.669E-01  1.680E+00 3.4348941E+00 4.9093952E-01 -4.5552538E-01
  1.000E+01  3.198E-01  1.733E+00 3.4348887E+00 4.3180902E-01 -4.6538026E-01
  9.957E+00  3.018E-01  1.716E+00 3.4361935E+00 4.6762299E-01 -4.7943085E-01
  1.000E+01  3.572E-01  1.766E+00 3.4334319E+00 4.0807674E-01 -4.8632681E-01
  9.957E+00  3.383E-01  1.750E+00 3.4362433E+00 4.4314449E-01 -5.0214452E-01
  1.000E+01  3.962E-01  1.797E+00 3.4258132E+00 3.8332390E-01 -5.0605787E-01
  9.957E+00  3.765E-01  1.782E+00 3.4198043E+00 4.1756421E-01 -5.2360844E-01
  1.000E+01  4.367E-01  1.826E+00 3.4048234E+00 3.5762812E-01 -5.2454169E-01
  9.957E+00  4.163E-01  1.812E+00 3.4288602E+00 3.9094133E-01 -5.4376656E-01
  1.000E+01  4.786E-01  1.853E+00 3.4077088E+00 3.3103514E-01 -5.4171998E-01
  9.957E+00  4.575E-01  1.840E+00 3.3977242E+00 3.6336319E-01 -5.6259319E-01
  1.000E+01  5.217E-01  1.878E+00 3.3820145E+00 3.0359367E-01 -5.5751328E-01
  9.957E+00  5.000E-01  1.866E+00 3.3980473E+00 3.3483911E-01 -5.7998032E-01
  1.000E+01  5.661E-01  1.901E+00 3.3641374E+00 2.7550286E-01 -5.7202099E-01
  9.957E+00  5.438E-01  1.890E+00 3.3640405E+00 3.0553373E-01 -5.9595345E-01
  1.000E+01  6.116E-01  1.921E+00 3.3556462E+00 2.4661723E-01 -5.8505052E-01
  9.957E+00  5.887E-01  1.912E+00 3.3660578E+00 2.7552329E-01 -6.1053321E-01
  1.000E+01  6.580E-01  1.940E+00 3.3219768E+00 2.1692743E-01 -5.9642118E-01
  9.957E+00  6.347E-01  1.931E+00 3.3402565E+00 2.4457154E-01 -6.2337679E-01
  1.000E+01  7.052E-01  1.956E+00 3.3105310E+00 1.8703591E-01 -6.0655326E-01
  9.957E+00  6.815E-01  1.948E+00 3.3115823E+00 2.1307966E-01 -6.3466916E-01
  1.000E+01  7.532E-01  1.969E+00 3.3031193E+00 1.5689476E-01 -6.1537812E-01
  9.957E+00  7.292E-01  1.963E+00 3.3078792E+00 1.8147672E-01 -6.4472450E-01
  1.000E+01  8.019E-01  1.980E+00 3.2865633E+00 1.2606775E-01 -6.2246348E-01
  9.957E+00  7.775E-01  1.975E+00 3.2958467E+00 1.4935336E-01 -6.5316110E-01
  1.000E+01  8.510E-01  1.989E+00 3.2688856E+00 9.4655145E-02 -6.2778993E-01
  9.957E+00  8.264E-01  1.985E+00 3.2776516E+00 1.1646899E-01 -6.5967283E-01
  1.000E+01  9.004E-01  1.995E+00 3.2569896E+00 6.3071015E-02 -6.3159902E-01
  9.957E+00  8.757E-01  1.992E+00 3.2621735E+00 8.3194817E-02 -6.6446743E-01
  1.000E+01  9.502E-01  1.999E+00 3.2514652E+00 3.1520700E-02 -6.3396037E-01
  9.957E+00  9.253E-01  1.997E+00 3.2532993E+00 4.9887320E-02 -6.6773134E-01
  1.000E+01  1.000E+00  2.000E+00 3.2500256E+00 -3.7431565E-07 -6.3476893E-01
  9.957E+00  9.751E-01  2.000E+00 3.2498491E+00 1.6624100E-02 -6.6941592E-01
  1.000E+01  1.050E+00  1.999E+00 3.2514638E+00 -3.1521448E-02 -6.3396034E-01
  9.957E+00  1.025E+00  2.000E+00 3.2498484E+00 -1.6624886E-02 -6.6941591E-01
  1.000E+01  1.100E+00  1.995E+00 3.2569867E+00 -6.3071761E-02 -6.3159897E-01
  9.957E+00  1.075E+00  1.997E+00 3.2532971E+00 -4.9888105E-02 -6.6773129E-01
  1.000E+01  1.149E+00  1.989E+00 3.2688813E+00 -9.4655887E-02 -6.2778985E-01
  9.957E+00  1.124E+00  1.992E+00 3.2621699E+00 -8.3195599E-02 -6.6446736E-01
  1.000E+01  1.198E+00  1.980E+00 3.2865575E+00 -1.2606849E-01 -6.2246337E-01
  9.957E+00  1.174E+00  1.985E+00 3.2776466E+00 -1.1646977E-01 -6.5967273E-01