# TIME = 2.000000
VARIABLES = X, Y, Z, FX, FY, FZ
ZONE N=29232 E=58212 F=FEPOINT ET=TRIANGLE
  0.000E+00  9.502E-01  1.243E-03 3.2548582E+00 2.4285973E-02 4.8845028E-01
  0.000E+00  1.000E+00  0.000E+00 3.2534204E+00 -1.1635357E-07 4.8907327E-01
  4.318E-02  9.751E-01  3.108E-04 3.2532468E+00 1.1286218E-02 4.5446508E-01
  0.000E+00  1.050E+00  1.243E-03 3.2548587E+00 -2.4286206E-02 4.8845028E-01
  4.318E-02  1.025E+00  3.108E-04 3.2532471E+00 -1.1286438E-02 4.5446508E-01
  0.000E+00  1.100E+00  4.969E-03 3.2603815E+00 -4.8594831E-02 4.8663090E-01
  4.318E-02  1.075E+00  2.796E-03 3.2566958E+00 -3.3868731E-02 4.5332144E-01
  0.000E+00  1.149E+00  1.117E-02 3.2722783E+00 -7.2929496E-02 4.8369606E-01
  4.318E-02  1.124E+00  7.761E-03 3.2655698E+00 -5.6480999E-02 4.5110560E-01
  0.000E+00  1.198E+00  1.983E-02 3.2899591E+00 -9.7131970E-02 4.7959210E-01
  4.318E-02  1.174E+00  1.519E-02 3.2810505E+00 -7.9070524E-02 4.4785051E-01
  0.000E+00  1.247E+00  3.092E-02 3.3065144E+00 -1.2088324E-01 4.7413293E-01
  4.318E-02  1.223E+00  2.507E-02 3.2992476E+00 -1.0139530E-01 4.4342957E-01
  0.000E+00  1.295E+00  4.443E-02 3.3139136E+00 -1.4410611E-01 4.6733352E-01
  4.318E-02  1.271E+00  3.738E-02 3.3112732E+00 -1.2320345E-01 4.3770182E-01
  0.000E+00  1.342E+00  6.031E-02 3.3253481E+00 -1.6713666E-01 4.5952691E-01
  4.318E-02  1.318E+00  5.207E-02 3.3149583E+00 -1.4465852E-01 4.3087525E-01
  0.000E+00  1.388E+00  7.852E-02 3.3590292E+00 -1.9001172E-01 4.5076597E-01
  4.318E-02  1.365E+00  6.913E-02 3.3436385E+00 -1.6603846E-01 4.2320901E-01
  0.000E+00  1.434E+00  9.903E-02 3.3675074E+00 -2.1226713E-01 4.4072691E-01
  4.318E-02  1.411E+00  8.849E-02 3.3694445E+00 -1.8705179E-01 4.1448962E-01
  0.000E+00  1.478E+00  1.218E-01 3.3853796E+00 -2.3391022E-01 4.2954896E-01
  4.318E-02  1.456E+00  1.101E-01 3.3674034E+00 -2.0742595E-01 4.0459143E-01
  0.000E+00  1.521E+00  1.467E-01 3.4110819E+00 -2.5505317E-01 4.1738055E-01
  4.318E-02  1.500E+00  1.340E-01 3.4014238E+00 -2.2732112E-01 3.9374706E-01
  0.000E+00  1.563E+00  1.738E-01 3.4081768E+00 -2.7554247E-01 4.0414506E-01
  4.318E-02  1.543E+00  1.600E-01 3.4010831E+00 -2.4668588E-01 3.8194267E-01
  0.000E+00  1.604E+00  2.029E-01 3.4291750E+00 -2.9534047E-01 3.8990368E-01
  4.318E-02  1.584E+00  1.881E-01 3.4322339E+00 -2.6540874E-01 3.6916127E-01
  0.000E+00  1.643E+00  2.340E-01 3.4367903E+00 -3.1441190E-01 3.7470131E-01
  4.318E-02  1.623E+00  2.182E-01 3.4231592E+00 -2.8348309E-01 3.5547596E-01
  0.000E+00  1.680E+00  2.669E-01 3.4382450E+00 -3.3269701E-01 3.5856244E-01
  4.318E-02  1.662E+00  2.502E-01 3.4396063E+00 -3.0084954E-01 3.4090409E-01
  0.000E+00  1.716E+00  3.018E-01 3.4395437E+00 -3.5015666E-01 3.4153285E-01
  4.318E-02  1.698E+00  2.841E-01 3.4395527E+00 -3.1746797E-01 3.2548369E-01
  0.000E+00  1.750E+00  3.383E-01 3.4395975E+00 -3.6674592E-01 3.2365464E-01
  4.318E-02  1.733E+00  3.198E-01 3.4382544E+00 -3.3329750E-01 3.0925422E-01
  0.000E+00  1.782E+00  3.765E-01 3.4231509E+00 -3.8242243E-01 3.0497179E-01
  4.318E-02  1.766E+00  3.572E-01 3.4368001E+00 -3.4829919E-01 2.9225752E-01
  0.000E+00  1.812E+00  4.163E-01 3.4322260E+00 -3.9714528E-01 2.8552751E-01
  4.318E-02  1.797E+00  3.962E-01 3.4291850E+00 -3.6243042E-01 2.7452993E-01
  0.000E+00  1.840E+00  4.575E-01 3.4010756E+00 -4.1089550E-01 2.6538546E-01
  4.318E-02  1.826E+00  4.367E-01 3.4081871E+00 -3.7566842E-01 2.5612703E-01
  0.000E+00  1.866E+00  5.000E-01 3.4014164E+00 -4.2359441E-01 2.4455262E-01
  4.318E-02  1.853E+00  4.786E-01 3.4110924E+00 -3.8797103E-01 2.3708137E-01
  0.000E+00  1.890E+00  5.438E-01 3.3673963E+00 -4.3526084E-01 2.2314912E-01
  4.318E-02  1.878E+00  5.217E-01 3.3853905E+00 -3.9928197E-01 2.1742820E-01
  0.000E+00  1.912E+00  5.887E-01 3.3694380E+00 -4.4590945E-01 2.0123055E-01
  4.318E-02  1.901E+00  5.661E-01 3.3675187E+00 -4.0967237E-01 1.9731026E-01
  0.000E+00  1.931E+00  6.347E-01 3.3436324E+00 -4.5528996E-01 1.7862450E-01
  4.318E-02  1.921E+00  6.116E-01 3.3590407E+00 -4.1900420E-01 1.7662329E-01
  0.000E+00  1.948E+00  6.815E-01 3.3149525E+00 -4.6353744E-01 1.5562416E-01
  4.318E-02  1.940E+00  6.580E-01 3.3253596E+00 -4.2714803E-01 1.5536008E-01
  0.000E+00  1.963E+00  7.292E-01 3.3112676E+00 -4.7088138E-01 1.3254297E-01
  4.318E-02  1.956E+00  7.052E-01 3.3139250E+00 -4.3440434E-01 1.3395193E-01
  0.000E+00  1.975E+00  7.775E-01 3.2992422E+00 -4.7704325E-01 1.0908172E-01
  4.318E-02  1.969E+00  7.532E-01 3.3065260E+00 -4.4072427E-01 1.1236489E-01
  0.000E+00  1.985E+00  8.264E-01 3.2810453E+00 -4.8179937E-01 8.5064508E-02
  4.318E-02  1.980E+00  8.019E-01 3.2899711E+00 -4.4579864E-01 9.0286905E-02
  0.000E+00  1.992E+00  8.757E-01 3.2655650E+00 -4.8530130E-01 6.0762431E-02
  4.318E-02  1.989E+00  8.510E-01 3.2722908E+00 -4.4961347E-01 6.7789812E-02
  0.000E+00  1.997E+00  9.253E-01 3.2566915E+00 -4.8768519E-01 3.6435945E-02
  4.318E-02  1.995E+00  9.004E-01 3.2603943E+00 -4.5234160E-01 4.5170030E-02
  0.000E+00  2.000E+00  9.751E-01 3.2532431E+00 -4.8891557E-01 1.2141789E-02
  4.318E-02  1.999E+00  9.502E-01 3.2548719E+00 -4.5403284E-01 2.2574496E-02
  0.000E+00  2.000E+00  1.025E+00 3.2532431E+00 -4.8891556E-01 -1.2141968E-02
  4.318E-02  2.000E+00  1.000E+00 3.2534339E+00 -4.5461195E-01 -9.3887282E-08
  0.000E+00  1.997E+00  1.075E+00 3.2566914E+00 -4.8768515E-01 -3.6436124E-02
  4.318E-02  1.999E+00  1.050E+00 3.2548719E+00 -4.5403282E-01 -2.2574685E-02
  0.000E+00  1.992E+00  1.124E+00 3.2655649E+00 -4.8530124E-01 -6.0762608E-02
  4.318E-02  1.995E+00  1.100E+00 3.2603943E+00 -4.5234155E-01 -4.5170220E-02
  0.000E+00  1.985E+00  1.174E+00 3.2810452E+00 -4.8179936E-01 -8.5064685E-02
  4.318E-02  1.989E+00  1.149E+00 3.2722907E+00 -4.4961343E-01 -6.7790003E-02
  0.000E+00  1.975E+00  1.223E+00 3.2992420E+00 -4.7704331E-01 -1.0908190E-01
  4.318E-02  1.980E+00  1.198E+00 3.2899709E+00 -4.4579867E-01 -9.0287094E-02
  0.000E+00  1.963E+00  1.271E+00 3.3112674E+00 -4.7088137E-01 -1.3254315E-01
  4.318E-02  1.969E+00  1.247E+00 3.3065258E+00 -4.4072433E-01 -1.1236508E-01
  0.000E+00  1.948E+00  1.318E+00 3.3149523E+00 -4.6353725E-01 -1.5562434E-01
  4.318E-02  1.956E+00  1.295E+00 3.3139248E+00 -4.3440425E-01 -1.3395211E-01
  0.000E+00  1.931E+00  1.365E+00 3.3436321E+00 -4.5528997E-01 -1.7862467E-01
  4.318E-02  1.940E+00  1.342E+00 3.3253594E+00 -4.2714792E-01 -1.5536027E-01
  0.000E+00  1.912E+00  1.411E+00 3.3694377E+00 -4.4590950E-01 -2.0123072E-01
  4.318E-02  1.921E+00  1.388E+00 3.3590404E+00 -4.1900432E-01 -1.7662347E-01
  0.000E+00  1.890E+00  1.456E+00 3.3673960E+00 -4.3526064E-01 -2.2314928E-01
  4.318E-02  1.901E+00  1.434E+00 3.3675184E+00 -4.0967231E-01 -1.9731044E-01
  0.000E+00  1.866E+00  1.500E+00 3.4014161E+00 -4.2359443E-01 -2.4455279E-01
  4.318E-02  1.878E+00  1.478E+00 3.3853901E+00 -3.9928192E-01 -2.1742838E-01
  0.000E+00  1.840E+00  1.543E+00 3.4010752E+00 -4.1089544E-01 -2.6538561E-01
  4.318E-02  1.853E+00  1.521E+00 3.4110920E+00 -3.8797111E-01 -2.3708155E-01
  0.000E+00  1.812E+00  1.584E+00 3.4322256E+00 -3.9714521E-01 -2.8552765E-01
  4.318E-02  1.826E+00  1.563E+00 3.4081867E+00 -3.7566837E-01 -2.5612721E-01
  0.000E+00  1.782E+00  1.623E+00 3.4231504E+00 -3.8242238E-01 -3.0497192E-01
  4.318E-02  1.797E+00  1.604E+00 3.4291846E+00 -3.6243046E-01 -2.7453011E-01
  0.000E+00  1.750E+00  1.662E+00 3.4395970E+00 -3.6674583E-01 -3.2365477E-01
  4.318E-02  1.766E+00  1.643E+00 3.4367996E+00 -3.4829917E-01 -2.9225770E-01
  0.000E+00  1.716E+00  1.698E+00 3.4395432E+00 -3.5015661E-01 -3.4153298E-01
  4.318E-02  1.733E+00  1.680E+00 3.4382539E+00 -3.3329751E-01 -3.0925440E-01
  0.000E+00  1.680E+00  1.733E+00 3.4382445E+00 -3.3269698E-01 -3.5856257E-01
  4.318E-02  1.698E+00  1.716E+00 3.4395522E+00 -3.1746793E-01 -3.2548386E-01
  0.000E+00  1.643E+00  1.766E+00 3.4367899E+00 -3.1441187E-01 -3.7470145E-01
  4.318E-02  1.662E+00  1.750E+00 3.4396057E+00 -3.0084949E-01 -3.4090426E-01
  0.000E+00  1.604E+00  1.797E+00 3.4291744E+00 -2.9534036E-01 -3.8990379E-01
  4.318E-02  1.623E+00  1.782E+00 3.4231586E+00 -2.8348304E-01 -3.5547613E-01
  0.000E+00  1.563E+00  1.826E+00 3.4081761E+00 -2.7554227E-01 -4.0414515E-01
  4.318E-02  1.584E+00  1.812E+00 3.4322333E+00 -2.6540875E-01 -3.6916144E-01
  0.000E+00  1.521E+00  1.853E+00 3.4110813E+00 -2.5505297E-01 -4.1738063E-01
  4.318E-02  1.543E+00  1.840E+00 3.4010826E+00 -2.4668593E-01 -3.8194284E-01
  0.000E+00  1.478E+00  1.878E+00 3.3853792E+00 -2.3391025E-01 -4.2954911E-01
  4.318E-02  1.500E+00  1.866E+00 3.4014232E+00 -2.2732112E-01 -3.9374720E-01
  0.000E+00  1.434E+00  1.901E+00 3.3675071E+00 -2.1226750E-01 -4.4072714E-01
  4.318E-02  1.456E+00  1.890E+00 3.3674026E+00 -2.0742573E-01 -4.0459152E-01
  0.000E+00  1.388E+00  1.921E+00 3.3590286E+00 -1.9001229E-01 -4.5076627E-01
  4.318E-02  1.411E+00  1.912E+00 3.3694437E+00 -1.8705132E-01 -4.1448966E-01
  0.000E+00  1.342E+00  1.940E+00 3.3253472E+00 -1.6713693E-01 -4.5952716E-01
  4.318E-02  1.365E+00  1.931E+00 3.3436379E+00 -1.6603798E-01 -4.2320904E-01
  0.000E+00  1.295E+00  1.956E+00 3.3139124E+00 -1.4410562E-01 -4.6733360E-01
  4.318E-02  1.318E+00  1.948E+00 3.3149578E+00 -1.4465842E-01 -4.3087531E-01
  0.000E+00  1.247E+00  1.969E+00 3.3065135E+00 -1.2088201E-01 -4.7413279E-01
  4.318E-02  1.271E+00  1.963E+00 3.3112727E+00 -1.2320391E-01 -4.3770200E-01
  0.000E+00  1.198E+00  1.980E+00 3.2899585E+00 -9.7130446E-02 -4.7959176E-01
  4.318E-02  1.223E+00  1.975E+00 3.2992469E+00 -1.0139611E-01 -4.4342988E-01
  0.000E+00  1.149E+00  1.989E+00 3.2722778E+00 -7.2928168E-02 -4.8369559E-01
  4.318E-02  1.174E+00  1.985E+00 3.2810497E+00 -7.9071332E-02 -4.4785092E-01
  0.000E+00  1.100E+00  1.995E+00 3.2603809E+00 -4.8593939E-02 -4.8663037E-01
  4.318E-02  1.124E+00  1.992E+00 3.2655691E+00 -5.6481550E-02 -4.5110607E-01
  0.000E+00  1.050E+00  1.999E+00 3.2548580E+00 -2.4285742E-02 -4.8844971E-01
  4.318E-02  1.075E+00  1.997E+00 3.2566952E+00 -3.3868977E-02 -4.5332193E-01
  0.000E+00  1.000E+00  2.000E+00 3.2534197E+00 -5.5850410E-09 -4.8907269E-01
  4.318E-02  1.025E+00  2.000E+00 3.2532465E+00 -1.1286435E-02 -4.5446557E-01
  0.000E+00  9.502E-01  1.999E+00 3.2548575E+00 2.4285731E-02 -4.8844971E-01
  4.318E-02  9.751E-01  2.000E+00 3.2532462E+00 1.1286436E-02 -4.5446557E-01
  0.000E+00  9.004E-01  1.995E+00 3.2603798E+00 4.8593928E-02 -4.8663035E-01
  4.318E-02  9.253E-01  1.997E+00 3.2566944E+00 3.3868978E-02 -4.5332192E-01
  0.000E+00  8.510E-01  1.989E+00 3.2722762E+00 7.2928156E-02 -4.8369557E-01
  4.318E-02  8.757E-01  1.992E+00 3.2655677E+00 5.6481551E-02 -4.5110605E-01
  0.000E+00  8.019E-01  1.980E+00 3.2899563E+00 9.7130433E-02 -4.7959173E-01
  4.318E-02  8.264E-01  1.985E+00 3.2810478E+00 7.9071331E-02 -4.4785090E-01
  0.000E+00  7.532E-01  1.969E+00 3.3065108E+00 1.2088200E-01 -4.7413276E-01
  4.318E-02  7.775E-01  1.975E+00 3.2992445E+00 1.0139611E-01 -4.4342985E-01
  0.000E+00  7.052E-01  1.956E+00 3.3139092E+00 1.4410561E-01 -4.6733357E-01
  4.318E-02  7.292E-01  1.963E+00 3.3112697E+00 1.2320390E-01 -4.3770196E-01
  0.000E+00  6.580E-01  1.940E+00 3.3253434E+00 1.6713691E-01 -4.5952712E-01
  4.318E-02  6.815E-01  1.948E+00 3.3149544E+00 1.4465842E-01 -4.3087527E-01
  0.000E+00  6.116E-01  1.921E+00 3.3590245E+00 1.9001227E-01 -4.5076622E-01
  4.318E-02  6.347E-01  1.931E+00 3.3436339E+00 1.6603798E-01 -4.2320898E-01
  0.000E+00  5.661E-01  1.901E+00 3.3675024E+00 2.1226749E-01 -4.4072709E-01
  4.318E-02  5.887E-01  1.912E+00 3.3694393E+00 1.8705131E-01 -4.1448960E-01
  0.000E+00  5.217E-01  1.878E+00 3.3853741E+00 2.3391023E-01 -4.2954905E-01
  4.318E-02  5.438E-01  1.890E+00 3.3673977E+00 2.0742572E-01 -4.0459145E-01
  0.000E+00  4.786E-01  1.853E+00 3.4110757E+00 2.5505295E-01 -4.1738057E-01
  4.318E-02  5.000E-01  1.866E+00 3.4014178E+00 2.2732110E-01 -3.9374713E-01
  0.000E+00  4.367E-01  1.826E+00 3.4081701E+00 2.7554224E-01 -4.0414508E-01
  4.318E-02  4.575E-01  1.840E+00 3.4010768E+00 2.4668592E-01 -3.8194277E-01
  0.000E+00  3.962E-01  1.797E+00 3.4291680E+00 2.9534033E-01 -3.8990372E-01
  4.318E-02  4.163E-01  1.812E+00 3.4322271E+00 2.6540873E-01 -3.6916137E-01
  0.000E+00  3.572E-01  1.766E+00 3.4367831E+00 3.1441183E-01 -3.7470137E-01
  4.318E-02  3.765E-01  1.782E+00 3.4231520E+00 2.8348302E-01 -3.5547605E-01
  0.000E+00  3.198E-01  1.733E+00 3.4382374E+00 3.3269694E-01 -3.5856249E-01
  4.318E-02  3.383E-01  1.750E+00 3.4395987E+00 3.0084946E-01 -3.4090417E-01
  0.000E+00  2.841E-01  1.698E+00 3.4395357E+00 3.5015655E-01 -3.4153289E-01
  4.318E-02  3.018E-01  1.716E+00 3.4395449E+00 3.1746791E-01 -3.2548377E-01
  0.000E+00  2.502E-01  1.662E+00 3.4395893E+00 3.6674579E-01 -3.2365467E-01
  4.318E-02  2.669E-01  1.680E+00 3.4382463E+00 3.3329746E-01 -3.0925430E-01
  0.000E+00  2.182E-01  1.623E+00 3.4231424E+00 3.8242231E-01 -3.0497183E-01
  4.318E-02  2.340E-01  1.643E+00 3.4367917E+00 3.4829915E-01 -2.9225760E-01
  0.000E+00  1.881E-01  1.584E+00 3.4322173E+00 3.9714516E-01 -2.8552755E-01
  4.318E-02  2.029E-01  1.604E+00 3.4291764E+00 3.6243038E-01 -2.7453001E-01
  0.000E+00  1.600E-01  1.543E+00 3.4010666E+00 4.1089539E-01 -2.6538551E-01
  4.318E-02  1.738E-01  1.563E+00 3.4081783E+00 3.7566838E-01 -2.5612711E-01
  0.000E+00  1.340E-01  1.500E+00 3.4014073E+00 4.2359430E-01 -2.4455268E-01
  4.318E-02  1.467E-01  1.521E+00 3.4110834E+00 3.8797098E-01 -2.3708145E-01
  0.000E+00  1.101E-01  1.456E+00 3.3673870E+00 4.3526073E-01 -2.2314918E-01
  4.318E-02  1.218E-01  1.478E+00 3.3853812E+00 3.9928192E-01 -2.1742827E-01
  0.000E+00  8.849E-02  1.411E+00 3.3694286E+00 4.4590934E-01 -2.0123061E-01
  4.318E-02  9.903E-02  1.434E+00 3.3675093E+00 4.0967231E-01 -1.9731033E-01
  0.000E+00  6.913E-02  1.365E+00 3.3436228E+00 4.5528985E-01 -1.7862456E-01
  4.318E-02  7.852E-02  1.388E+00 3.3590311E+00 4.1900413E-01 -1.7662336E-01
  0.000E+00  5.207E-02  1.318E+00 3.3149428E+00 4.6353733E-01 -1.5562423E-01
  4.318E-02  6.031E-02  1.342E+00 3.3253500E+00 4.2714796E-01 -1.5536016E-01
  0.000E+00  3.738E-02  1.271E+00 3.3112578E+00 4.7088127E-01 -1.3254304E-01
  4.318E-02  4.443E-02  1.295E+00 3.3139153E+00 4.3440426E-01 -1.3395200E-01
  0.000E+00  2.507E-02  1.223E+00 3.2992323E+00 4.7704314E-01 -1.0908179E-01
  4.318E-02  3.092E-02  1.247E+00 3.3065161E+00 4.4072418E-01 -1.1236497E-01
  0.000E+00  1.519E-02  1.174E+00 3.2810354E+00 4.8179926E-01 -8.5064573E-02
  4.318E-02  1.983E-02  1.198E+00 3.2899612E+00 4.4579855E-01 -9.0286982E-02
  0.000E+00  7.761E-03  1.124E+00 3.2655551E+00 4.8530119E-01 -6.0762497E-02
  4.318E-02  1.117E-02  1.149E+00 3.2722808E+00 4.4961338E-01 -6.7789891E-02
  0.000E+00  2.796E-03  1.075E+00 3.2566815E+00 4.8768508E-01 -3.6436013E-02
  4.318E-02  4.969E-03  1.100E+00 3.2603844E+00 4.5234150E-01 -4.5170108E-02
  0.000E+00  3.108E-04  1.025E+00 3.2532332E+00 4.8891545E-01 -1.2141858E-02
  4.318E-02  1.243E-03  1.050E+00 3.2548620E+00 4.5403274E-01 -2.2574574E-02
  0.000E+00  3.108E-04  9.751E-01 3.2532332E+00 4.8891543E-01 1.2141898E-02
  4.318E-02  0.000E+00  1.000E+00 3.2534240E+00 4.5461184E-01 1.6063785E-08
  0.000E+00  2.796E-03  9.253E-01 3.2566816E+00 4.8768502E-01 3.6436054E-02
  4.318E-02  1.243E-03  9.502E-01 3.2548620E+00 4.5403270E-01 2.2574605E-02
  0.000E+00  7.761E-03  8.757E-01 3.2655552E+00 4.8530111E-01 6.0762538E-02
  4.318E-02  4.969E-03  9.004E-01 3.2603845E+00 4.5234143E-01 4.5170138E-02
  0.000E+00  1.519E-02  8.264E-01 3.2810355E+00 4.8179922E-01 8.5064614E-02
  4.318E-02  1.117E-02  8.510E-01 3.2722810E+00 4.4961331E-01 6.7789919E-02
  0.000E+00  2.507E-02  7.775E-01 3.2992325E+00 4.7704318E-01 1.0908183E-01
  4.318E-02  1.983E-02  8.019E-01 3.2899613E+00 4.4579854E-01 9.0287010E-02
  0.000E+00  3.738E-02  7.292E-01 3.3112580E+00 4.7088124E-01 1.3254307E-01
  4.318E-02  3.092E-02  7.532E-01 3.3065163E+00 4.4072420E-01 1.1236499E-01
  0.000E+00  5.207E-02  6.815E-01 3.3149430E+00 4.6353711E-01 1.5562426E-01
  4.318E-02  4.443E-02  7.052E-01 3.3139155E+00 4.3440411E-01 1.3395203E-01
  0.000E+00  6.913E-02  6.347E-01 3.3436231E+00 4.5528983E-01 1.7862459E-01
  4.318E-02  6.031E-02  6.580E-01 3.3253502E+00 4.2714778E-01 1.5536018E-01
  0.000E+00  8.849E-02  5.887E-01 3.3694288E+00 4.4590936E-01 2.0123064E-01
  4.318E-02  7.852E-02  6.116E-01 3.3590314E+00 4.1900417E-01 1.7662339E-01
  0.000E+00  1.101E-01  5.438E-01 3.3673873E+00 4.3526051E-01 2.2314921E-01
  4.318E-02  9.903E-02  5.661E-01 3.3675096E+00 4.0967215E-01 1.9731035E-01
  0.000E+00  1.340E-01  5.000E-01 3.4014076E+00 4.2359430E-01 2.4455272E-01
  4.318E-02  1.218E-01  5.217E-01 3.3853816E+00 3.9928175E-01 2.1742829E-01
  0.000E+00  1.600E-01  4.575E-01 3.4010670E+00 4.1089531E-01 2.6538554E-01
  4.318E-02  1.467E-01  4.786E-01 3.4110838E+00 3.8797094E-01 2.3708146E-01
  0.000E+00  1.881E-01  4.163E-01 3.4322177E+00 3.9714509E-01 2.8552759E-01
  4.318E-02  1.738E-01  4.367E-01 3.4081787E+00 3.7566820E-01 2.5612712E-01
  0.000E+00  2.182E-01  3.765E-01 3.4231428E+00 3.8242226E-01 3.0497186E-01
  4.318E-02  2.029E-01  3.962E-01 3.4291768E+00 3.6243029E-01 2.7453001E-01
  0.000E+00  2.502E-01  3.383E-01 3.4395898E+00 3.6674571E-01 3.2365471E-01
  4.318E-02  2.340E-01  3.572E-01 3.4367921E+00 3.4829899E-01 2.9225760E-01
  0.000E+00  2.841E-01  3.018E-01 3.4395362E+00 3.5015647E-01 3.4153292E-01
  4.318E-02  2.669E-01  3.198E-01 3.4382468E+00 3.3329733E-01 3.0925430E-01
  0.000E+00  3.198E-01  2.669E-01 3.4382379E+00 3.3269680E-01 3.5856251E-01
  4.318E-02  3.018E-01  2.841E-01 3.4395455E+00 3.1746778E-01 3.2548376E-01
  0.000E+00  3.572E-01  2.340E-01 3.4367836E+00 3.1441169E-01 3.7470138E-01
  4.318E-02  3.383E-01  2.502E-01 3.4395993E+00 3.0084935E-01 3.4090416E-01
  0.000E+00  3.962E-01  2.029E-01 3.4291686E+00 2.9534025E-01 3.8990374E-01
  4.318E-02  3.765E-01  2.182E-01 3.4231526E+00 2.8348289E-01 3.5547602E-01
  0.000E+00  4.367E-01  1.738E-01 3.4081708E+00 2.7554225E-01 4.0414512E-01
  4.318E-02  4.163E-01  1.881E-01 3.4322277E+00 2.6540855E-01 3.6916133E-01
  0.000E+00  4.786E-01  1.467E-01 3.4110764E+00 2.5505295E-01 4.1738060E-01
  4.318E-02  4.575E-01  1.600E-01 3.4010773E+00 2.4668567E-01 3.8194272E-01
  0.000E+00  5.217E-01  1.218E-01 3.3853745E+00 2.3391000E-01 4.2954901E-01
  4.318E-02  5.000E-01  1.340E-01 3.4014184E+00 2.2732092E-01 3.9374712E-01
  0.000E+00  5.661E-01  9.903E-02 3.3675027E+00 2.1226690E-01 4.4072694E-01
  4.318E-02  5.438E-01  1.101E-01 3.3673985E+00 2.0742574E-01 4.0459148E-01
  0.000E+00  6.116E-01  7.852E-02 3.3590250E+00 1.9001150E-01 4.5076600E-01
  4.318E-02  5.887E-01  8.849E-02 3.3694401E+00 1.8705158E-01 4.1448967E-01
  0.000E+00  6.580E-01  6.031E-02 3.3253444E+00 1.6713643E-01 4.5952694E-01
  4.318E-02  6.347E-01  6.913E-02 3.3436345E+00 1.6603825E-01 4.2320906E-01
  0.000E+00  7.052E-01  4.443E-02 3.3139104E+00 1.4410588E-01 4.6733355E-01
  4.318E-02  6.815E-01  5.207E-02 3.3149549E+00 1.4465831E-01 4.3087528E-01
  0.000E+00  7.532E-01  3.092E-02 3.3065117E+00 1.2088301E-01 4.7413295E-01
  4.318E-02  7.292E-01  3.738E-02 3.3112703E+00 1.2320324E-01 4.3770185E-01
  0.000E+00  8.019E-01  1.983E-02 3.2899569E+00 9.7131739E-02 4.7959212E-01
  4.318E-02  7.775E-01  2.507E-02 3.2992452E+00 1.0139508E-01 4.4342959E-01
  0.000E+00  8.510E-01  1.117E-02 3.2722767E+00 7.2929265E-02 4.8369607E-01
  4.318E-02  8.264E-01  1.519E-02 3.2810486E+00 7.9070306E-02 4.4785052E-01
  0.000E+00  9.004E-01  4.969E-03 3.2603804E+00 4.8594599E-02 4.8663091E-01
  4.318E-02  8.757E-01  7.761E-03 3.2655684E+00 5.6480780E-02 4.5110561E-01
  4.318E-02  9.253E-01  2.796E-03 3.2566950E+00 3.3868511E-02 4.5332144E-01
  1.000E+01  1.050E+00  1.243E-03 3.2548587E+00 -2.4286206E-02 4.8845028E-01
  1.000E+01  1.000E+00  5.551E-16 3.2534204E+00 -1.1635357E-07 4.8907327E-01
  9.957E+00  1.025E+00  3.108E-04 3.2532453E+00 -1.2998374E-02 5.2340334E-01
  1.000E+01  9.502E-01  1.243E-03 3.2548582E+00 2.4285973E-02 4.8845028E-01
  9.957E+00  9.751E-01  3.108E-04 3.2532450E+00 1.2998129E-02 5.2340334E-01
  1.000E+01  9.004E-01  4.969E-03 3.2603804E+00 4.8594599E-02 4.8663091E-01
  9.957E+00  9.253E-01  2.796E-03 3.2566932E+00 3.9005771E-02 5.2208617E-01
  1.000E+01  8.510E-01  1.117E-02 3.2722767E+00 7.2929265E-02 4.8369607E-01
  9.957E+00  8.757E-01  7.761E-03 3.2655666E+00 6.5048065E-02 5.1953414E-01
  1.000E+01  8.019E-01  1.983E-02 3.2899569E+00 9.7131739E-02 4.7959212E-01
  9.957E+00  8.264E-01  1.519E-02 3.2810467E+00 9.1064359E-02 5.1578528E-01
  1.000E+01  7.532E-01  3.092E-02 3.3065117E+00 1.2088301E-01 4.7413295E-01
  9.957E+00  7.775E-01  2.507E-02 3.2992432E+00 1.1677591E-01 5.1069383E-01
  1.000E+01  7.052E-01  4.443E-02 3.3139104E+00 1.4410588E-01 4.6733355E-01
  9.957E+00  7.292E-01  3.738E-02 3.3112683E+00 1.4189244E-01 5.0409737E-01
  1.000E+01  6.580E-01  6.031E-02 3.3253444E+00 1.6713643E-01 4.5952694E-01
  9.957E+00  6.815E-01  5.207E-02 3.3149529E+00 1.6660203E-01 4.9623523E-01
  1.000E+01  6.116E-01  7.852E-02 3.3590250E+00 1.9001150E-01 4.5076600E-01
  9.957E+00  6.347E-01  6.913E-02 3.3436326E+00 1.9122480E-01 4.8740585E-01
  1.000E+01  5.661E-01  9.903E-02 3.3675027E+00 2.1226690E-01 4.4072694E-01
  9.957E+00  5.887E-01  8.849E-02 3.3694382E+00 2.1542535E-01 4.7736362E-01
  1.000E+01  5.217E-01  1.218E-01 3.3853745E+00 2.3391000E-01 4.2954901E-01
  9.957E+00  5.438E-01  1.101E-01 3.3673966E+00 2.3888999E-01 4.6596392E-01
  1.000E+01  4.786E-01  1.467E-01 3.4110764E+00 2.5505295E-01 4.1738060E-01
  9.957E+00  5.000E-01  1.340E-01 3.4014165E+00 2.6180332E-01 4.5347476E-01
  1.000E+01  4.367E-01  1.738E-01 3.4081708E+00 2.7554225E-01 4.0414512E-01
  9.957E+00  4.575E-01  1.600E-01 3.4010755E+00 2.8410566E-01 4.3988000E-01
  1.000E+01  3.962E-01  2.029E-01 3.4291686E+00 2.9534025E-01 3.8990374E-01
  9.957E+00  4.163E-01  1.881E-01 3.4322258E+00 3.0566840E-01 4.2515970E-01
  1.000E+01  3.572E-01  2.340E-01 3.4367836E+00 3.1441169E-01 3.7470138E-01
  9.957E+00  3.765E-01  2.182E-01 3.4231507E+00 3.2648428E-01 4.0939836E-01
  1.000E+01  3.198E-01  2.669E-01 3.4382379E+00 3.3269680E-01 3.5856251E-01
  9.957E+00  3.383E-01  2.502E-01 3.4395974E+00 3.4648506E-01 3.9261606E-01
  1.000E+01  2.841E-01  3.018E-01 3.4395362E+00 3.5015647E-01 3.4153292E-01
  9.957E+00  3.018E-01  2.841E-01 3.4395435E+00 3.6562437E-01 3.7485662E-01
  1.000E+01  2.502E-01  3.383E-01 3.4395898E+00 3.6674571E-01 3.2365471E-01
  9.957E+00  2.669E-01  3.198E-01 3.4382449E+00 3.8385521E-01 3.5616534E-01
  1.000E+01  2.182E-01  3.765E-01 3.4231428E+00 3.8242226E-01 3.0497186E-01
  9.957E+00  2.340E-01  3.572E-01 3.4367902E+00 4.0113254E-01 3.3659041E-01
  1.000E+01  1.881E-01  4.163E-01 3.4322177E+00 3.9714509E-01 2.8552759E-01
  9.957E+00  2.029E-01  3.962E-01 3.4291749E+00 4.1740737E-01 3.1617368E-01
  1.000E+01  1.600E-01  4.575E-01 3.4010670E+00 4.1089531E-01 2.6538554E-01
  9.957E+00  1.738E-01  4.367E-01 3.4081767E+00 4.3265324E-01 2.9497898E-01
  1.000E+01  1.340E-01  5.000E-01 3.4014076E+00 4.2359430E-01 2.4455272E-01
  9.957E+00  1.467E-01  4.786E-01 3.4110818E+00 4.4682231E-01 2.7304431E-01
  1.000E+01  1.101E-01  5.438E-01 3.3673873E+00 4.3526051E-01 2.2314921E-01
  9.957E+00  1.218E-01  5.217E-01 3.3853797E+00 4.5984913E-01 2.5041013E-01
  1.000E+01  8.849E-02  5.887E-01 3.3694288E+00 4.4590936E-01 2.0123064E-01
  9.957E+00  9.903E-02  5.661E-01 3.3675077E+00 4.7181587E-01 2.2724066E-01
  1.000E+01  6.913E-02  6.347E-01 3.3436231E+00 4.5528983E-01 1.7862459E-01
  9.957E+00  7.852E-02  6.116E-01 3.3590295E+00 4.8256331E-01 2.0341537E-01
  1.000E+01  5.207E-02  6.815E-01 3.3149430E+00 4.6353711E-01 1.5562426E-01
  9.957E+00  6.031E-02  6.580E-01 3.3253483E+00 4.9194199E-01 1.7892637E-01
  1.000E+01  3.738E-02  7.292E-01 3.3112580E+00 4.7088124E-01 1.3254307E-01
  9.957E+00  4.443E-02  7.052E-01 3.3139135E+00 5.0029899E-01 1.5427079E-01
  1.000E+01  2.507E-02  7.775E-01 3.2992325E+00 4.7704318E-01 1.0908183E-01
  9.957E+00  3.092E-02  7.532E-01 3.3065144E+00 5.0757787E-01 1.2940946E-01
  1.000E+01  1.519E-02  8.264E-01 3.2810355E+00 4.8179922E-01 8.5064614E-02
  9.957E+00  1.983E-02  8.019E-01 3.2899594E+00 5.1342208E-01 1.0398278E-01
  1.000E+01  7.761E-03  8.757E-01 3.2655552E+00 4.8530111E-01 6.0762538E-02
  9.957E+00  1.117E-02  8.510E-01 3.2722791E+00 5.1781560E-01 7.8073297E-02
  1.000E+01  2.796E-03  9.253E-01 3.2566816E+00 4.8768502E-01 3.6436054E-02
  9.957E+00  4.969E-03  9.004E-01 3.2603826E+00 5.2095757E-01 5.2022330E-02
  1.000E+01  3.108E-04  9.751E-01 3.2532332E+00 4.8891543E-01 1.2141898E-02
  9.957E+00  1.243E-03  9.502E-01 3.2548601E+00 5.2290536E-01 2.5999155E-02
  1.000E+01  3.108E-04  1.025E+00 3.2532332E+00 4.8891545E-01 -1.2141858E-02
  9.957E+00  0.000E+00  1.000E+00 3.2534220E+00 5.2357232E-01 1.8717366E-08
  1.000E+01  2.796E-03  1.075E+00 3.2566815E+00 4.8768508E-01 -3.6436013E-02
  9.957E+00  1.243E-03  1.050E+00 3.2548601E+00 5.2290539E-01 -2.5999117E-02
  1.000E+01  7.761E-03  1.124E+00 3.2655551E+00 4.8530119E-01 -6.0762497E-02
  9.957E+00  4.969E-03  1.100E+00 3.2603825E+00 5.2095765E-01 -5.2022292E-02
  1.000E+01  1.519E-02  1.174E+00 3.2810354E+00 4.8179926E-01 -8.5064573E-02
  9.957E+00  1.117E-02  1.149E+00 3.2722789E+00 5.1781567E-01 -7.8073260E-02
  1.000E+01  2.507E-02  1.223E+00 3.2992323E+00 4.7704314E-01 -1.0908179E-01
  9.957E+00  1.983E-02  1.198E+00 3.2899593E+00 5.1342208E-01 -1.0398275E-01
  1.000E+01  3.738E-02  1.271E+00 3.3112578E+00 4.7088127E-01 -1.3254304E-01
  9.957E+00  3.092E-02  1.247E+00 3.3065142E+00 5.0757785E-01 -1.2940943E-01
  1.000E+01  5.207E-02  1.318E+00 3.3149428E+00 4.6353733E-01 -1.5562423E-01
  9.957E+00  4.443E-02  1.295E+00 3.3139133E+00 5.0029915E-01 -1.5427075E-01
  1.000E+01  6.913E-02  1.365E+00 3.3436228E+00 4.5528985E-01 -1.7862456E-01
  9.957E+00  6.031E-02  1.342E+00 3.3253480E+00 4.9194218E-01 -1.7892634E-01
  1.000E+01  8.849E-02  1.411E+00 3.3694286E+00 4.4590934E-01 -2.0123061E-01
  9.957E+00  7.852E-02  1.388E+00 3.3590292E+00 4.8256326E-01 -2.0341534E-01
  1.000E+01  1.101E-01  1.456E+00 3.3673870E+00 4.3526073E-01 -2.2314918E-01
  9.957E+00  9.903E-02  1.434E+00 3.3675074E+00 4.7181604E-01 -2.2724063E-01
  1.000E+01  1.340E-01  1.500E+00 3.4014073E+00 4.2359430E-01 -2.4455268E-01
  9.957E+00  1.218E-01  1.478E+00 3.3853793E+00 4.5984930E-01 -2.5041011E-01
  1.000E+01  1.600E-01  1.543E+00 3.4010666E+00 4.1089539E-01 -2.6538551E-01
  9.957E+00  1.467E-01  1.521E+00 3.4110814E+00 4.4682234E-01 -2.7304428E-01
  1.000E+01  1.881E-01  1.584E+00 3.4322173E+00 3.9714516E-01 -2.8552755E-01
  9.957E+00  1.738E-01  1.563E+00 3.4081763E+00 4.3265342E-01 -2.9497897E-01
  1.000E+01  2.182E-01  1.623E+00 3.4231424E+00 3.8242231E-01 -3.0497183E-01
  9.957E+00  2.029E-01  1.604E+00 3.4291744E+00 4.1740746E-01 -3.1617368E-01
  1.000E+01  2.502E-01  1.662E+00 3.4395893E+00 3.6674579E-01 -3.2365467E-01
  9.957E+00  2.340E-01  1.643E+00 3.4367898E+00 4.0113270E-01 -3.3659041E-01
  1.000E+01  2.841E-01  1.698E+00 3.4395357E+00 3.5015655E-01 -3.4153289E-01
  9.957E+00  2.669E-01  1.680E+00 3.4382444E+00 3.8385533E-01 -3.5616535E-01
  1.000E+01  3.198E-01  1.733E+00 3.4382374E+00 3.3269694E-01 -3.5856249E-01
  9.957E+00  3.018E-01  1.716E+00 3.4395430E+00 3.6562450E-01 -3.7485663E-01
  1.000E+01  3.572E-01  1.766E+00 3.4367831E+00 3.1441183E-01 -3.7470137E-01
  9.957E+00  3.383E-01  1.750E+00 3.4395968E+00 3.4648517E-01 -3.9261606E-01
  1.000E+01  3.962E-01  1.797E+00 3.4291680E+00 2.9534033E-01 -3.8990372E-01
  9.957E+00  3.765E-01  1.782E+00 3.4231501E+00 3.2648442E-01 -4.0939836E-01
  1.000E+01  4.367E-01  1.826E+00 3.4081701E+00 2.7554224E-01 -4.0414508E-01
  9.957E+00  4.163E-01  1.812E+00 3.4322252E+00 3.0566860E-01 -4.2515973E-01
  1.000E+01  4.786E-01  1.853E+00 3.4110757E+00 2.5505295E-01 -4.1738057E-01
  9.957E+00  4.575E-01  1.840E+00 3.4010749E+00 2.8410589E-01 -4.3988005E-01
  1.000E+01  5.217E-01  1.878E+00 3.3853741E+00 2.3391023E-01 -4.2954905E-01
  9.957E+00  5.000E-01  1.866E+00 3.4014159E+00 2.6180346E-01 -4.5347480E-01
  1.000E+01  5.661E-01  1.901E+00 3.3675024E+00 2.1226749E-01 -4.4072709E-01
  9.957E+00  5.438E-01  1.890E+00 3.3673957E+00 2.3888993E-01 -4.6596390E-01
  1.000E+01  6.116E-01  1.921E+00 3.3590245E+00 1.9001227E-01 -4.5076622E-01
  9.957E+00  5.887E-01  1.912E+00 3.3694373E+00 2.1542513E-01 -4.7736352E-01
  1.000E+01  6.580E-01  1.940E+00 3.3253434E+00 1.6713691E-01 -4.5952712E-01
  9.957E+00  6.347E-01  1.931E+00 3.3436320E+00 1.9122461E-01 -4.8740574E-01
  1.000E+01  7.052E-01  1.956E+00 3.3139092E+00 1.4410561E-01 -4.6733357E-01
  9.957E+00  6.815E-01  1.948E+00 3.3149526E+00 1.6660218E-01 -4.9623520E-01
  1.000E+01  7.532E-01  1.969E+00 3.3065108E+00 1.2088200E-01 -4.7413276E-01
  9.957E+00  7.292E-01  1.963E+00 3.3112680E+00 1.4189307E-01 -5.0409750E-01
  1.000E+01  8.019E-01  1.980E+00 3.2899563E+00 9.7130433E-02 -4.7959173E-01
  9.957E+00  7.775E-01  1.975E+00 3.2992426E+00 1.1677688E-01 -5.1069411E-01
  1.000E+01  8.510E-01  1.989E+00 3.2722762E+00 7.2928156E-02 -4.8369557E-01
  9.957E+00  8.264E-01  1.985E+00 3.2810459E+00 9.1065354E-02 -5.1578565E-01
  1.000E+01  9.004E-01  1.995E+00 3.2603798E+00 4.8593928E-02 -4.8663035E-01
  9.957E+00  8.757E-01  1.992E+00 3.2655657E+00 6.5048849E-02 -5.1953457E-01
  1.000E+01  9.502E-01  1.999E+00 3.2548575E+00 2.4285731E-02 -4.8844971E-01
  9.957E+00  9.253E-01  1.997E+00 3.2566924E+00 3.9006265E-02 -5.2208663E-01
  1.000E+01  1.000E+00  2.000E+00 3.2534197E+00 -5.5850410E-09 -4.8907269E-01
  9.957E+00  9.751E-01  2.000E+00 3.2532443E+00 1.2998359E-02 -5.2340382E-01
  1.000E+01  1.050E+00  1.999E+00 3.2548580E+00 -2.4285742E-02 -4.8844971E-01
  9.957E+00  1.025E+00  2.000E+00 3.2532445E+00 -1.2998383E-02 -5.2340383E-01
  1.000E+01  1.100E+00  1.995E+00 3.2603809E+00 -4.8593939E-02 -4.8663037E-01
  9.957E+00  1.075E+00  1.997E+00 3.2566932E+00 -3.9006289E-02 -5.2208664E-01
  1.000E+01  1.149E+00  1.989E+00 3.2722778E+00 -7.2928168E-02 -4.8369559E-01
  9.957E+00  1.124E+00  1.992E+00 3.2655671E+00 -6.5048874E-02 -5.1953459E-01
  1.000E+01  1.198E+00  1.980E+00 3.2899585E+00 -9.7130446E-02 -4.7959176E-01
  9.957E+00  1.174E+00  1.985E+00 3.2810477E+00 -9.1065380E-02 -5.1578568E-01