# TIME = 5.000000
VARIABLES = X, Y, Z, FX, FY, FZ
ZONE N=29232 E=58212 F=FEPOINT ET=TRIANGLE
  0.000E+00  9.502E-01  1.243E-03 3.2487189E+00 4.2610064E-02 8.5698980E-01
  0.000E+00  1.000E+00  0.000E+00 3.2472795E+00 2.8856148E-07 8.5808291E-01
  4.318E-02  9.751E-01  3.108E-04 3.2471094E+00 2.0432210E-02 8.2272492E-01
  0.000E+00  1.050E+00  1.243E-03 3.2487192E+00 -4.2609489E-02 8.5699002E-01
  4.318E-02  1.025E+00  3.108E-04 3.2471095E+00 -2.0431842E-02 8.2272502E-01
  0.000E+00  1.100E+00  4.969E-03 3.2542440E+00 -8.5258730E-02 8.5379810E-01
  4.318E-02  1.075E+00  2.796E-03 3.2505599E+00 -6.1313394E-02 8.2065480E-01
  0.000E+00  1.149E+00  1.117E-02 3.2661387E+00 -1.2795363E-01 8.4864908E-01
  4.318E-02  1.124E+00  7.761E-03 3.2594334E+00 -1.0224926E-01 8.1664352E-01
  0.000E+00  1.198E+00  1.983E-02 3.2838131E+00 -1.7041694E-01 8.4144887E-01
  4.318E-02  1.174E+00  1.519E-02 3.2749086E+00 -1.4314378E-01 8.1075076E-01
  0.000E+00  1.247E+00  3.092E-02 3.3003690E+00 -2.1208946E-01 8.3187115E-01
  4.318E-02  1.223E+00  2.507E-02 3.2931012E+00 -1.8355867E-01 8.0274741E-01
  0.000E+00  1.295E+00  4.443E-02 3.3077902E+00 -2.5283566E-01 8.1994218E-01
  4.318E-02  1.271E+00  3.738E-02 3.3051384E+00 -2.2303804E-01 7.9237851E-01
  0.000E+00  1.342E+00  6.031E-02 3.3192443E+00 -2.9324417E-01 8.0624580E-01
  4.318E-02  1.318E+00  5.207E-02 3.3088553E+00 -2.6187799E-01 7.8002041E-01
  0.000E+00  1.388E+00  7.852E-02 3.3529037E+00 -3.3337889E-01 7.9087462E-01
  4.318E-02  1.365E+00  6.913E-02 3.3375242E+00 -3.0058178E-01 7.6614196E-01
  0.000E+00  1.434E+00  9.903E-02 3.3614047E+00 -3.7242605E-01 7.7326114E-01
  4.318E-02  1.411E+00  8.849E-02 3.3633211E+00 -3.3862242E-01 7.5035718E-01
  0.000E+00  1.478E+00  1.218E-01 3.3792852E+00 -4.1039877E-01 7.5364938E-01
  4.318E-02  1.456E+00  1.101E-01 3.3613226E+00 -3.7550658E-01 7.3243872E-01
  0.000E+00  1.521E+00  1.467E-01 3.4049727E+00 -4.4749398E-01 7.3229977E-01
  4.318E-02  1.500E+00  1.340E-01 3.3953181E+00 -4.1152354E-01 7.1280725E-01
  0.000E+00  1.563E+00  1.738E-01 3.4021029E+00 -4.8344272E-01 7.0907814E-01
  4.318E-02  1.543E+00  1.600E-01 3.3950088E+00 -4.4658002E-01 6.9143788E-01
  0.000E+00  1.604E+00  2.029E-01 3.4230859E+00 -5.1817872E-01 6.8409168E-01
  4.318E-02  1.584E+00  1.881E-01 3.4261328E+00 -4.8047426E-01 6.6829965E-01
  0.000E+00  1.643E+00  2.340E-01 3.4307073E+00 -5.5163990E-01 6.5741913E-01
  4.318E-02  1.623E+00  2.182E-01 3.4170917E+00 -5.1319440E-01 6.4352502E-01
  0.000E+00  1.680E+00  2.669E-01 3.4321658E+00 -5.8372142E-01 6.2910346E-01
  4.318E-02  1.662E+00  2.502E-01 3.4335243E+00 -5.4463315E-01 6.1714546E-01
  0.000E+00  1.716E+00  3.018E-01 3.4334667E+00 -6.1435455E-01 5.9922496E-01
  4.318E-02  1.698E+00  2.841E-01 3.4334775E+00 -5.7471780E-01 5.8922985E-01
  0.000E+00  1.750E+00  3.383E-01 3.4335142E+00 -6.4346058E-01 5.6785755E-01
  4.318E-02  1.733E+00  3.198E-01 3.4321773E+00 -6.0337434E-01 5.5984954E-01
  0.000E+00  1.782E+00  3.765E-01 3.4170824E+00 -6.7096524E-01 5.3507837E-01
  4.318E-02  1.766E+00  3.572E-01 3.4307196E+00 -6.3053217E-01 5.2908025E-01
  0.000E+00  1.812E+00  4.163E-01 3.4261243E+00 -6.9679665E-01 5.0096327E-01
  4.318E-02  1.797E+00  3.962E-01 3.4230991E+00 -6.5611418E-01 4.9698784E-01
  0.000E+00  1.840E+00  4.575E-01 3.3950011E+00 -7.2092160E-01 4.6562387E-01
  4.318E-02  1.826E+00  4.367E-01 3.4021169E+00 -6.8007911E-01 4.6367276E-01
  0.000E+00  1.866E+00  5.000E-01 3.3953110E+00 -7.4320201E-01 4.2907254E-01
  4.318E-02  1.853E+00  4.786E-01 3.4049871E+00 -7.0235075E-01 4.2919417E-01
  0.000E+00  1.890E+00  5.438E-01 3.3613164E+00 -7.6367099E-01 3.9151990E-01
  4.318E-02  1.878E+00  5.217E-01 3.3793001E+00 -7.2282730E-01 3.9361593E-01
  0.000E+00  1.912E+00  5.887E-01 3.3633159E+00 -7.8235397E-01 3.5306341E-01
  4.318E-02  1.901E+00  5.661E-01 3.3614203E+00 -7.4163726E-01 3.5719613E-01
  0.000E+00  1.931E+00  6.347E-01 3.3375196E+00 -7.9881231E-01 3.1340098E-01
  4.318E-02  1.921E+00  6.116E-01 3.3529202E+00 -7.5853068E-01 3.1974606E-01
  0.000E+00  1.948E+00  6.815E-01 3.3088512E+00 -8.1328281E-01 2.7304678E-01
  4.318E-02  1.940E+00  6.580E-01 3.3192617E+00 -7.7327374E-01 2.8125305E-01
  0.000E+00  1.963E+00  7.292E-01 3.3051349E+00 -8.2616773E-01 2.3255036E-01
  4.318E-02  1.956E+00  7.052E-01 3.3078080E+00 -7.8640996E-01 2.4249747E-01
  0.000E+00  1.975E+00  7.775E-01 3.2930985E+00 -8.3697874E-01 1.9138719E-01
  4.318E-02  1.969E+00  7.532E-01 3.3003872E+00 -7.9785093E-01 2.0341799E-01
  0.000E+00  1.985E+00  8.264E-01 3.2749066E+00 -8.4532358E-01 1.4924880E-01
  4.318E-02  1.980E+00  8.019E-01 3.2838317E+00 -8.0703727E-01 1.6344999E-01
  0.000E+00  1.992E+00  8.757E-01 3.2594321E+00 -8.5146792E-01 1.0661058E-01
  4.318E-02  1.989E+00  8.510E-01 3.2661580E+00 -8.1394355E-01 1.2272333E-01
  0.000E+00  1.997E+00  9.253E-01 3.2505594E+00 -8.5565057E-01 6.3929423E-02
  4.318E-02  1.995E+00  9.004E-01 3.2542641E+00 -8.1888247E-01 8.1774402E-02
  0.000E+00  2.000E+00  9.751E-01 3.2471097E+00 -8.5780937E-01 2.1304941E-02
  4.318E-02  1.999E+00  9.502E-01 3.2487401E+00 -8.2194421E-01 4.0869226E-02
  0.000E+00  2.000E+00  1.025E+00 3.2471102E+00 -8.5780947E-01 -2.1301295E-02
  4.318E-02  2.000E+00  1.000E+00 3.2473011E+00 -8.2299267E-01 1.9189041E-06
  0.000E+00  1.997E+00  1.075E+00 3.2505608E+00 -8.5565088E-01 -6.3925782E-02
  4.318E-02  1.999E+00  1.050E+00 3.2487410E+00 -8.2194442E-01 -4.0865395E-02
  0.000E+00  1.992E+00  1.124E+00 3.2594345E+00 -8.5146846E-01 -1.0660696E-01
  4.318E-02  1.995E+00  1.100E+00 3.2542659E+00 -8.1888290E-01 -8.1770589E-02
  0.000E+00  1.985E+00  1.174E+00 3.2749099E+00 -8.4532446E-01 -1.4924521E-01
  4.318E-02  1.989E+00  1.149E+00 3.2661608E+00 -8.1394426E-01 -1.2271954E-01
  0.000E+00  1.975E+00  1.223E+00 3.2931026E+00 -8.3698001E-01 -1.9138364E-01
  4.318E-02  1.980E+00  1.198E+00 3.2838354E+00 -8.0703838E-01 -1.6344623E-01
  0.000E+00  1.963E+00  1.271E+00 3.3051400E+00 -8.2616913E-01 -2.3254685E-01
  4.318E-02  1.969E+00  1.247E+00 3.3003918E+00 -7.9785236E-01 -2.0341428E-01
  0.000E+00  1.948E+00  1.318E+00 3.3088572E+00 -8.1328414E-01 -2.7304332E-01
  4.318E-02  1.956E+00  1.295E+00 3.3078136E+00 -7.8641136E-01 -2.4249381E-01
  0.000E+00  1.931E+00  1.365E+00 3.3375264E+00 -7.9881423E-01 -3.1339759E-01
  4.318E-02  1.940E+00  1.342E+00 3.3192681E+00 -7.7327536E-01 -2.8124945E-01
  0.000E+00  1.912E+00  1.411E+00 3.3633235E+00 -7.8235621E-01 -3.5306010E-01
  4.318E-02  1.921E+00  1.388E+00 3.3529274E+00 -7.5853295E-01 -3.1974253E-01
  0.000E+00  1.890E+00  1.456E+00 3.3613249E+00 -7.6367304E-01 -3.9151666E-01
  4.318E-02  1.901E+00  1.434E+00 3.3614284E+00 -7.4163943E-01 -3.5719268E-01
  0.000E+00  1.866E+00  1.500E+00 3.3953203E+00 -7.4320467E-01 -4.2906940E-01
  4.318E-02  1.878E+00  1.478E+00 3.3793090E+00 -7.2282971E-01 -3.9361258E-01
  0.000E+00  1.840E+00  1.543E+00 3.3950110E+00 -7.2092433E-01 -4.6562083E-01
  4.318E-02  1.853E+00  1.521E+00 3.4049967E+00 -7.0235361E-01 -4.2919093E-01
  0.000E+00  1.812E+00  1.584E+00 3.4261350E+00 -6.9679962E-01 -5.0096035E-01
  4.318E-02  1.826E+00  1.563E+00 3.4021272E+00 -6.8008194E-01 -4.6366963E-01
  0.000E+00  1.782E+00  1.623E+00 3.4170938E+00 -6.7096844E-01 -5.3507558E-01
  4.318E-02  1.797E+00  1.604E+00 3.4231100E+00 -6.5611738E-01 -4.9698484E-01
  0.000E+00  1.750E+00  1.662E+00 3.4335262E+00 -6.4346391E-01 -5.6785489E-01
  4.318E-02  1.766E+00  1.643E+00 3.4307312E+00 -6.3053547E-01 -5.2907739E-01
  0.000E+00  1.716E+00  1.698E+00 3.4334793E+00 -6.1435806E-01 -5.9922244E-01
  4.318E-02  1.733E+00  1.680E+00 3.4321896E+00 -6.0337790E-01 -5.5984684E-01
  0.000E+00  1.680E+00  1.733E+00 3.4321789E+00 -5.8372506E-01 -6.2910110E-01
  4.318E-02  1.698E+00  1.716E+00 3.4334904E+00 -5.7472150E-01 -5.8922731E-01
  0.000E+00  1.643E+00  1.766E+00 3.4307209E+00 -5.5164376E-01 -6.5741695E-01
  4.318E-02  1.662E+00  1.750E+00 3.4335377E+00 -5.4463704E-01 -6.1714309E-01
  0.000E+00  1.604E+00  1.797E+00 3.4231001E+00 -5.1818285E-01 -6.8408973E-01
  4.318E-02  1.623E+00  1.782E+00 3.4171056E+00 -5.1319838E-01 -6.4352281E-01
  0.000E+00  1.563E+00  1.826E+00 3.4021177E+00 -4.8344708E-01 -7.0907642E-01
  4.318E-02  1.584E+00  1.812E+00 3.4261471E+00 -4.8047832E-01 -6.6829760E-01
  0.000E+00  1.521E+00  1.853E+00 3.4049877E+00 -4.4749842E-01 -7.3229824E-01
  4.318E-02  1.543E+00  1.840E+00 3.3950235E+00 -4.4658418E-01 -6.9143603E-01
  0.000E+00  1.478E+00  1.878E+00 3.3793003E+00 -4.1040309E-01 -7.5364798E-01
  4.318E-02  1.500E+00  1.866E+00 3.3953333E+00 -4.1152793E-01 -7.1280565E-01
  0.000E+00  1.434E+00  1.901E+00 3.3614200E+00 -3.7243012E-01 -7.7325982E-01
  4.318E-02  1.456E+00  1.890E+00 3.3613383E+00 -3.7551128E-01 -7.3243740E-01
  0.000E+00  1.388E+00  1.921E+00 3.3529195E+00 -3.3338277E-01 -7.9087342E-01
  4.318E-02  1.411E+00  1.912E+00 3.3633371E+00 -3.3862750E-01 -7.5035616E-01
  0.000E+00  1.342E+00  1.940E+00 3.3192609E+00 -2.9324825E-01 -8.0624482E-01
  4.318E-02  1.365E+00  1.931E+00 3.3375403E+00 -3.0058707E-01 -7.6614124E-01
  0.000E+00  1.295E+00  1.956E+00 3.3078071E+00 -2.5284051E-01 -8.1994158E-01
  4.318E-02  1.318E+00  1.948E+00 3.3088715E+00 -2.6188308E-01 -7.8001990E-01
  0.000E+00  1.247E+00  1.969E+00 3.3003859E+00 -2.1209530E-01 -8.3187104E-01
  4.318E-02  1.271E+00  1.963E+00 3.3051549E+00 -2.2304261E-01 -7.9237814E-01
  0.000E+00  1.198E+00  1.980E+00 3.2838298E+00 -1.7042345E-01 -8.4144925E-01
  4.318E-02  1.223E+00  1.975E+00 3.2931180E+00 -1.8356276E-01 -8.0274714E-01
  0.000E+00  1.149E+00  1.989E+00 3.2661553E+00 -1.2796020E-01 -8.4864990E-01
  4.318E-02  1.174E+00  1.985E+00 3.2749256E+00 -1.4314776E-01 -8.1075062E-01
  0.000E+00  1.100E+00  1.995E+00 3.2542607E+00 -8.5264912E-02 -8.5379928E-01
  4.318E-02  1.124E+00  1.992E+00 3.2594505E+00 -1.0225346E-01 -8.1664356E-01
  0.000E+00  1.050E+00  1.999E+00 3.2487361E+00 -4.2615149E-02 -8.5699151E-01
  4.318E-02  1.075E+00  1.997E+00 3.2505770E+00 -6.1317973E-02 -8.2065507E-01
  0.000E+00  1.000E+00  2.000E+00 3.2472964E+00 -4.8497190E-06 -8.5808469E-01
  4.318E-02  1.025E+00  2.000E+00 3.2471266E+00 -2.0436802E-02 -8.2272556E-01
  0.000E+00  9.502E-01  1.999E+00 3.2487358E+00 4.2605456E-02 -8.5699184E-01
  4.318E-02  9.751E-01  2.000E+00 3.2471265E+00 2.0426896E-02 -8.2272573E-01
  0.000E+00  9.004E-01  1.995E+00 3.2542602E+00 8.5255243E-02 -8.5379994E-01
  4.318E-02  9.253E-01  1.997E+00 3.2505766E+00 6.1308081E-02 -8.2065558E-01
  0.000E+00  8.510E-01  1.989E+00 3.2661545E+00 1.2795057E-01 -8.4865089E-01
  4.318E-02  8.757E-01  1.992E+00 3.2594498E+00 1.0224360E-01 -8.1664439E-01
  0.000E+00  8.019E-01  1.980E+00 3.2838287E+00 1.7041387E-01 -8.4145057E-01
  4.318E-02  8.264E-01  1.985E+00 3.2749247E+00 1.4313794E-01 -8.1075178E-01
  0.000E+00  7.532E-01  1.969E+00 3.3003846E+00 2.1208579E-01 -8.3187267E-01
  4.318E-02  7.775E-01  1.975E+00 3.2931168E+00 1.8355300E-01 -8.0274862E-01
  0.000E+00  7.052E-01  1.956E+00 3.3078056E+00 2.5283108E-01 -8.1994353E-01
  4.318E-02  7.292E-01  1.963E+00 3.3051535E+00 2.2303293E-01 -7.9237993E-01
  0.000E+00  6.580E-01  1.940E+00 3.3192591E+00 2.9323892E-01 -8.0624707E-01
  4.318E-02  6.815E-01  1.948E+00 3.3088699E+00 2.6187349E-01 -7.8002200E-01
  0.000E+00  6.116E-01  1.921E+00 3.3529176E+00 3.3337355E-01 -7.9087596E-01
  4.318E-02  6.347E-01  1.931E+00 3.3375384E+00 3.0057758E-01 -7.6614363E-01
  0.000E+00  5.661E-01  1.901E+00 3.3614178E+00 3.7242103E-01 -7.7326264E-01
  4.318E-02  5.887E-01  1.912E+00 3.3633350E+00 3.3861813E-01 -7.5035885E-01
  0.000E+00  5.217E-01  1.878E+00 3.3792979E+00 4.1039413E-01 -7.5365106E-01
  4.318E-02  5.438E-01  1.890E+00 3.3613360E+00 3.7550205E-01 -7.3244036E-01
  0.000E+00  4.786E-01  1.853E+00 3.4049851E+00 4.4748961E-01 -7.3230157E-01
  4.318E-02  5.000E-01  1.866E+00 3.3953308E+00 4.1151883E-01 -7.1280887E-01
  0.000E+00  4.367E-01  1.826E+00 3.4021148E+00 4.8343844E-01 -7.0907999E-01
  4.318E-02  4.575E-01  1.840E+00 3.3950208E+00 4.4657526E-01 -6.9143950E-01
  0.000E+00  3.962E-01  1.797E+00 3.4230971E+00 5.1817438E-01 -6.8409352E-01
  4.318E-02  4.163E-01  1.812E+00 3.4261442E+00 4.8046956E-01 -6.6830130E-01
  0.000E+00  3.572E-01  1.766E+00 3.4307177E+00 5.5163548E-01 -6.5742096E-01
  4.318E-02  3.765E-01  1.782E+00 3.4171025E+00 5.1318981E-01 -6.4352673E-01
  0.000E+00  3.198E-01  1.733E+00 3.4321755E+00 5.8371698E-01 -6.2910530E-01
  4.318E-02  3.383E-01  1.750E+00 3.4335344E+00 5.4462865E-01 -6.1714721E-01
  0.000E+00  2.841E-01  1.698E+00 3.4334757E+00 6.1435017E-01 -5.9922682E-01
  4.318E-02  3.018E-01  1.716E+00 3.4334869E+00 5.7471335E-01 -5.8923162E-01
  0.000E+00  2.502E-01  1.662E+00 3.4335225E+00 6.4345628E-01 -5.6785943E-01
  4.318E-02  2.669E-01  1.680E+00 3.4321860E+00 6.0336991E-01 -5.5985132E-01
  0.000E+00  2.182E-01  1.623E+00 3.4170900E+00 6.7096099E-01 -5.3508027E-01
  4.318E-02  2.340E-01  1.643E+00 3.4307275E+00 6.3052777E-01 -5.2908203E-01
  0.000E+00  1.881E-01  1.584E+00 3.4261311E+00 6.9679245E-01 -5.0096517E-01
  4.318E-02  2.029E-01  1.604E+00 3.4231062E+00 6.5610982E-01 -4.9698961E-01
  0.000E+00  1.600E-01  1.543E+00 3.3950070E+00 7.2091743E-01 -4.6562576E-01
  4.318E-02  1.738E-01  1.563E+00 3.4021232E+00 6.8007480E-01 -4.6367453E-01
  0.000E+00  1.340E-01  1.500E+00 3.3953161E+00 7.4319788E-01 -4.2907442E-01
  4.318E-02  1.467E-01  1.521E+00 3.4049927E+00 7.0234649E-01 -4.2919593E-01
  0.000E+00  1.101E-01  1.456E+00 3.3613206E+00 7.6366689E-01 -3.9152176E-01
  4.318E-02  1.218E-01  1.478E+00 3.3793048E+00 7.2282308E-01 -3.9361766E-01
  0.000E+00  8.849E-02  1.411E+00 3.3633192E+00 7.8234992E-01 -3.5306526E-01
  4.318E-02  9.903E-02  1.434E+00 3.3614241E+00 7.4163308E-01 -3.5719784E-01
  0.000E+00  6.913E-02  1.365E+00 3.3375220E+00 7.9880830E-01 -3.1340281E-01
  4.318E-02  7.852E-02  1.388E+00 3.3529231E+00 7.5852654E-01 -3.1974774E-01
  0.000E+00  5.207E-02  1.318E+00 3.3088527E+00 8.1327884E-01 -2.7304857E-01
  4.318E-02  6.031E-02  1.342E+00 3.3192637E+00 7.7326963E-01 -2.8125470E-01
  0.000E+00  3.738E-02  1.271E+00 3.3051355E+00 8.2616380E-01 -2.3255211E-01
  4.318E-02  4.443E-02  1.295E+00 3.3078091E+00 7.8640588E-01 -2.4249908E-01
  0.000E+00  2.507E-02  1.223E+00 3.2930980E+00 8.3697485E-01 -1.9138891E-01
  4.318E-02  3.092E-02  1.247E+00 3.3003873E+00 7.9784689E-01 -2.0341956E-01
  0.000E+00  1.519E-02  1.174E+00 3.2749052E+00 8.4531973E-01 -1.4925047E-01
  4.318E-02  1.983E-02  1.198E+00 3.2838308E+00 8.0703325E-01 -1.6345151E-01
  0.000E+00  7.761E-03  1.124E+00 3.2594299E+00 8.5146410E-01 -1.0661220E-01
  4.318E-02  1.117E-02  1.149E+00 3.2661562E+00 8.1393955E-01 -1.2272480E-01
  0.000E+00  2.796E-03  1.075E+00 3.2505561E+00 8.5564677E-01 -6.3930992E-02
  4.318E-02  4.969E-03  1.100E+00 3.2542613E+00 8.1887849E-01 -8.1775820E-02
  0.000E+00  3.108E-04  1.025E+00 3.2471055E+00 8.5780559E-01 -2.1306460E-02
  4.318E-02  1.243E-03  1.050E+00 3.2487364E+00 8.2194025E-01 -4.0870586E-02
  0.000E+00  3.108E-04  9.751E-01 3.2471050E+00 8.5780572E-01 2.1299832E-02
  4.318E-02  0.000E+00  1.000E+00 3.2472964E+00 8.2298873E-01 -3.2191184E-06
  0.000E+00  2.796E-03  9.253E-01 3.2505547E+00 8.5564714E-01 6.3924380E-02
  4.318E-02  1.243E-03  9.502E-01 3.2487355E+00 8.2194050E-01 4.0864151E-02
  0.000E+00  7.761E-03  8.757E-01 3.2594275E+00 8.5146473E-01 1.0660562E-01
  4.318E-02  4.969E-03  9.004E-01 3.2542595E+00 8.1887898E-01 8.1769401E-02
  0.000E+00  1.519E-02  8.264E-01 3.2749020E+00 8.4532074E-01 1.4924392E-01
  4.318E-02  1.117E-02  8.510E-01 3.2661534E+00 8.1394035E-01 1.2271842E-01
  0.000E+00  2.507E-02  7.775E-01 3.2930939E+00 8.3697631E-01 1.9138240E-01
  4.318E-02  1.983E-02  8.019E-01 3.2838271E+00 8.0703447E-01 1.6344516E-01
  0.000E+00  3.738E-02  7.292E-01 3.3051304E+00 8.2616543E-01 2.3254567E-01
  4.318E-02  3.092E-02  7.532E-01 3.3003826E+00 7.9784844E-01 2.0341327E-01
  0.000E+00  5.207E-02  6.815E-01 3.3088468E+00 8.1328044E-01 2.7304221E-01
  4.318E-02  4.443E-02  7.052E-01 3.3078035E+00 7.8640742E-01 2.4249285E-01
  0.000E+00  6.913E-02  6.347E-01 3.3375152E+00 7.9881052E-01 3.1339653E-01
  4.318E-02  6.031E-02  6.580E-01 3.3192573E+00 7.7327142E-01 2.8124855E-01
  0.000E+00  8.849E-02  5.887E-01 3.3633115E+00 7.8235250E-01 3.5305909E-01
  4.318E-02  7.852E-02  6.116E-01 3.3529158E+00 7.5852898E-01 3.1974168E-01
  0.000E+00  1.101E-01  5.438E-01 3.3613122E+00 7.6366930E-01 3.9151569E-01
  4.318E-02  9.903E-02  5.661E-01 3.3614160E+00 7.4163545E-01 3.5719188E-01
  0.000E+00  1.340E-01  5.000E-01 3.3953069E+00 7.4320092E-01 4.2906849E-01
  4.318E-02  1.218E-01  5.217E-01 3.3792960E+00 7.2282570E-01 3.9361182E-01
  0.000E+00  1.600E-01  4.575E-01 3.3949970E+00 7.2092055E-01 4.6561995E-01
  4.318E-02  1.467E-01  4.786E-01 3.4049831E+00 7.0234958E-01 4.2919021E-01
  0.000E+00  1.881E-01  4.163E-01 3.4261204E+00 6.9679579E-01 5.0095951E-01
  4.318E-02  1.738E-01  4.367E-01 3.4021129E+00 6.8007788E-01 4.6366894E-01
  0.000E+00  2.182E-01  3.765E-01 3.4170786E+00 6.7096458E-01 5.3507477E-01
  4.318E-02  2.029E-01  3.962E-01 3.4230952E+00 6.5611329E-01 4.9698418E-01
  0.000E+00  2.502E-01  3.383E-01 3.4335105E+00 6.4346003E-01 5.6785411E-01
  4.318E-02  2.340E-01  3.572E-01 3.4307159E+00 6.3053134E-01 5.2907675E-01
  0.000E+00  2.841E-01  3.018E-01 3.4334631E+00 6.1435417E-01 5.9922169E-01
  4.318E-02  2.669E-01  3.198E-01 3.4321737E+00 6.0337372E-01 5.5984621E-01
  0.000E+00  3.198E-01  2.669E-01 3.4321624E+00 5.8372115E-01 6.2910037E-01
  4.318E-02  3.018E-01  2.841E-01 3.4334741E+00 5.7471727E-01 5.8922669E-01
  0.000E+00  3.572E-01  2.340E-01 3.4307040E+00 5.5163976E-01 6.5741622E-01
  4.318E-02  3.383E-01  2.502E-01 3.4335210E+00 5.4463276E-01 6.1714248E-01
  0.000E+00  3.962E-01  2.029E-01 3.4230829E+00 5.1817868E-01 6.8408896E-01
  4.318E-02  3.765E-01  2.182E-01 3.4170886E+00 5.1319411E-01 6.4352223E-01
  0.000E+00  4.367E-01  1.738E-01 3.4021001E+00 4.8344278E-01 7.0907561E-01
  4.318E-02  4.163E-01  1.881E-01 3.4261299E+00 4.8047408E-01 6.6829704E-01
  0.000E+00  4.786E-01  1.467E-01 3.4049700E+00 4.4749414E-01 7.3229743E-01
  4.318E-02  4.575E-01  1.600E-01 3.3950061E+00 4.4657993E-01 6.9143546E-01
  0.000E+00  5.217E-01  1.218E-01 3.3792827E+00 4.1039900E-01 7.5364724E-01
  4.318E-02  5.000E-01  1.340E-01 3.3953156E+00 4.1152355E-01 7.1280503E-01
  0.000E+00  5.661E-01  9.903E-02 3.3614025E+00 3.7242634E-01 7.7325919E-01
  4.318E-02  5.438E-01  1.101E-01 3.3613203E+00 3.7550664E-01 7.3243670E-01
  0.000E+00  6.116E-01  7.852E-02 3.3529017E+00 3.3337925E-01 7.9087288E-01
  4.318E-02  5.887E-01  8.849E-02 3.3633190E+00 3.3862255E-01 7.5035536E-01
  0.000E+00  6.580E-01  6.031E-02 3.3192426E+00 2.9324459E-01 8.0624427E-01
  4.318E-02  6.347E-01  6.913E-02 3.3375223E+00 3.0058197E-01 7.6614035E-01
  0.000E+00  7.052E-01  4.443E-02 3.3077887E+00 2.5283612E-01 8.1994087E-01
  4.318E-02  6.815E-01  5.207E-02 3.3088537E+00 2.6187822E-01 7.8001900E-01
  0.000E+00  7.532E-01  3.092E-02 3.3003677E+00 2.1208995E-01 8.3187005E-01
  4.318E-02  7.292E-01  3.738E-02 3.3051370E+00 2.2303831E-01 7.9237732E-01
  0.000E+00  8.019E-01  1.983E-02 3.2838121E+00 1.7041747E-01 8.4144799E-01
  4.318E-02  7.775E-01  2.507E-02 3.2931000E+00 1.8355897E-01 8.0274643E-01
  0.000E+00  8.510E-01  1.117E-02 3.2661379E+00 1.2795418E-01 8.4864842E-01
  4.318E-02  8.264E-01  1.519E-02 3.2749077E+00 1.4314412E-01 8.1075000E-01
  0.000E+00  9.004E-01  4.969E-03 3.2542434E+00 8.5259294E-02 8.5379766E-01
  4.318E-02  8.757E-01  7.761E-03 3.2594327E+00 1.0224961E-01 8.1664297E-01
  4.318E-02  9.253E-01  2.796E-03 3.2505595E+00 6.1313756E-02 8.2065447E-01
  1.000E+01  1.050E+00  1.243E-03 3.2487192E+00 -4.2609489E-02 8.5699002E-01
  1.000E+01  1.000E+00  5.551E-16 3.2472795E+00 2.8856148E-07 8.5808291E-01
  9.957E+00  1.025E+00  3.108E-04 3.2471035E+00 -2.2175673E-02 8.9295600E-01
  1.000E+01  9.502E-01  1.243E-03 3.2487189E+00 4.2610064E-02 8.5698980E-01
  9.957E+00  9.751E-01  3.108E-04 3.2471034E+00 2.2176467E-02 8.9295589E-01
  1.000E+01  9.004E-01  4.969E-03 3.2542434E+00 8.5259294E-02 8.5379766E-01
  9.957E+00  9.253E-01  2.796E-03 3.2505535E+00 6.6547621E-02 8.9070865E-01
  1.000E+01  8.510E-01  1.117E-02 3.2661379E+00 1.2795418E-01 8.4864842E-01
  9.957E+00  8.757E-01  7.761E-03 3.2594267E+00 1.1097782E-01 8.8635465E-01
  1.000E+01  8.019E-01  1.983E-02 3.2838121E+00 1.7041747E-01 8.4144799E-01
  9.957E+00  8.264E-01  1.519E-02 3.2749017E+00 1.5536331E-01 8.7995865E-01
  1.000E+01  7.532E-01  3.092E-02 3.3003677E+00 2.1208995E-01 8.3187005E-01
  9.957E+00  7.775E-01  2.507E-02 3.2930942E+00 1.9922843E-01 8.7127200E-01
  1.000E+01  7.052E-01  4.443E-02 3.3077887E+00 2.5283612E-01 8.1994087E-01
  9.957E+00  7.292E-01  3.738E-02 3.3051313E+00 2.4207821E-01 8.6001787E-01
  1.000E+01  6.580E-01  6.031E-02 3.3192426E+00 2.9324459E-01 8.0624427E-01
  9.957E+00  6.815E-01  5.207E-02 3.3088480E+00 2.8423376E-01 8.4660454E-01
  1.000E+01  6.116E-01  7.852E-02 3.3529017E+00 3.3337925E-01 7.9087288E-01
  9.957E+00  6.347E-01  6.913E-02 3.3375164E+00 3.2624120E-01 8.3154090E-01
  1.000E+01  5.661E-01  9.903E-02 3.3614025E+00 3.7242634E-01 7.7325919E-01
  9.957E+00  5.887E-01  8.849E-02 3.3633130E+00 3.6752875E-01 8.1440826E-01
  1.000E+01  5.217E-01  1.218E-01 3.3792827E+00 4.1039900E-01 7.5364724E-01
  9.957E+00  5.438E-01  1.101E-01 3.3613143E+00 4.0756120E-01 7.9495996E-01
  1.000E+01  4.786E-01  1.467E-01 3.4049700E+00 4.4749414E-01 7.3229743E-01
  9.957E+00  5.000E-01  1.340E-01 3.3953096E+00 4.4665285E-01 7.7365267E-01
  1.000E+01  4.367E-01  1.738E-01 3.4021001E+00 4.8344278E-01 7.0907561E-01
  9.957E+00  4.575E-01  1.600E-01 3.3950002E+00 4.8470193E-01 7.5045913E-01
  1.000E+01  3.962E-01  2.029E-01 3.4230829E+00 5.1817868E-01 6.8408896E-01
  9.957E+00  4.163E-01  1.881E-01 3.4261239E+00 5.2148924E-01 7.2534543E-01
  1.000E+01  3.572E-01  2.340E-01 3.4307040E+00 5.5163976E-01 6.5741622E-01
  9.957E+00  3.765E-01  2.182E-01 3.4170826E+00 5.5700222E-01 6.9845565E-01
  1.000E+01  3.198E-01  2.669E-01 3.4321624E+00 5.8372115E-01 6.2910037E-01
  9.957E+00  3.383E-01  2.502E-01 3.4335150E+00 5.9112458E-01 6.6982402E-01
  1.000E+01  2.841E-01  3.018E-01 3.4334631E+00 6.1435417E-01 5.9922169E-01
  9.957E+00  3.018E-01  2.841E-01 3.4334681E+00 6.2377724E-01 6.3952532E-01
  1.000E+01  2.502E-01  3.383E-01 3.4335105E+00 6.4346003E-01 5.6785411E-01
  9.957E+00  2.669E-01  3.198E-01 3.4321678E+00 6.5488000E-01 6.0763687E-01
  1.000E+01  2.182E-01  3.765E-01 3.4170786E+00 6.7096458E-01 5.3507477E-01
  9.957E+00  2.340E-01  3.572E-01 3.4307099E+00 6.8435598E-01 5.7424081E-01
  1.000E+01  1.881E-01  4.163E-01 3.4261204E+00 6.9679579E-01 5.0095951E-01
  9.957E+00  2.029E-01  3.962E-01 3.4230892E+00 7.1212166E-01 5.3940866E-01
  1.000E+01  1.600E-01  4.575E-01 3.3949970E+00 7.2092055E-01 4.6561995E-01
  9.957E+00  1.738E-01  4.367E-01 3.4021069E+00 7.3813186E-01 5.0324926E-01
  1.000E+01  1.340E-01  5.000E-01 3.3953069E+00 7.4320092E-01 4.2906849E-01
  9.957E+00  1.467E-01  4.786E-01 3.4049770E+00 7.6230488E-01 4.6582733E-01
  1.000E+01  1.101E-01  5.438E-01 3.3613122E+00 7.6366930E-01 3.9151569E-01
  9.957E+00  1.218E-01  5.217E-01 3.3792900E+00 7.8452918E-01 4.2721202E-01
  1.000E+01  8.849E-02  5.887E-01 3.3633115E+00 7.8235250E-01 3.5305909E-01
  9.957E+00  9.903E-02  5.661E-01 3.3614102E+00 8.0494482E-01 3.8768332E-01
  1.000E+01  6.913E-02  6.347E-01 3.3375152E+00 7.9881052E-01 3.1339653E-01
  9.957E+00  7.852E-02  6.116E-01 3.3529098E+00 8.2328033E-01 3.4703594E-01
  1.000E+01  5.207E-02  6.815E-01 3.3088468E+00 8.1328044E-01 2.7304221E-01
  9.957E+00  6.031E-02  6.580E-01 3.3192512E+00 8.3928099E-01 3.0525653E-01
  1.000E+01  3.738E-02  7.292E-01 3.3051304E+00 8.2616543E-01 2.3254567E-01
  9.957E+00  4.443E-02  7.052E-01 3.3077975E+00 8.5353831E-01 2.6319250E-01
  1.000E+01  2.507E-02  7.775E-01 3.2930939E+00 8.3697631E-01 1.9138240E-01
  9.957E+00  3.092E-02  7.532E-01 3.3003766E+00 8.6595609E-01 2.2077721E-01
  1.000E+01  1.519E-02  8.264E-01 3.2749020E+00 8.4532074E-01 1.4924392E-01
  9.957E+00  1.983E-02  8.019E-01 3.2838211E+00 8.7592641E-01 1.7739760E-01
  1.000E+01  7.761E-03  8.757E-01 3.2594275E+00 8.5146473E-01 1.0660562E-01
  9.957E+00  1.117E-02  8.510E-01 3.2661474E+00 8.8342190E-01 1.3319445E-01
  1.000E+01  2.796E-03  9.253E-01 3.2505547E+00 8.5564714E-01 6.3924380E-02
  9.957E+00  4.969E-03  9.004E-01 3.2542535E+00 8.8878214E-01 8.8749902E-02
  1.000E+01  3.108E-04  9.751E-01 3.2471050E+00 8.5780572E-01 2.1299832E-02
  9.957E+00  1.243E-03  9.502E-01 3.2487295E+00 8.9210498E-01 4.4352728E-02
  1.000E+01  3.108E-04  1.025E+00 3.2471055E+00 8.5780559E-01 -2.1306460E-02
  9.957E+00  0.000E+00  1.000E+00 3.2472905E+00 8.9324268E-01 -3.4117022E-06
  1.000E+01  2.796E-03  1.075E+00 3.2505561E+00 8.5564677E-01 -6.3930992E-02
  9.957E+00  1.243E-03  1.050E+00 3.2487304E+00 8.9210473E-01 -4.4359546E-02
  1.000E+01  7.761E-03  1.124E+00 3.2594299E+00 8.5146410E-01 -1.0661220E-01
  9.957E+00  4.969E-03  1.100E+00 3.2542554E+00 8.8878164E-01 -8.8756700E-02
  1.000E+01  1.519E-02  1.174E+00 3.2749052E+00 8.4531973E-01 -1.4925047E-01
  9.957E+00  1.117E-02  1.149E+00 3.2661503E+00 8.8342109E-01 -1.3320122E-01
  1.000E+01  2.507E-02  1.223E+00 3.2930980E+00 8.3697485E-01 -1.9138891E-01
  9.957E+00  1.983E-02  1.198E+00 3.2838249E+00 8.7592516E-01 -1.7740431E-01
  1.000E+01  3.738E-02  1.271E+00 3.3051355E+00 8.2616380E-01 -2.3255211E-01
  9.957E+00  3.092E-02  1.247E+00 3.3003813E+00 8.6595449E-01 -2.2078387E-01
  1.000E+01  5.207E-02  1.318E+00 3.3088527E+00 8.1327884E-01 -2.7304857E-01
  9.957E+00  4.443E-02  1.295E+00 3.3078031E+00 8.5353674E-01 -2.6319909E-01
  1.000E+01  6.913E-02  1.365E+00 3.3375220E+00 7.9880830E-01 -3.1340281E-01
  9.957E+00  6.031E-02  1.342E+00 3.3192576E+00 8.3927918E-01 -3.0526305E-01
  1.000E+01  8.849E-02  1.411E+00 3.3633192E+00 7.8234992E-01 -3.5306526E-01
  9.957E+00  7.852E-02  1.388E+00 3.3529171E+00 8.2327781E-01 -3.4704236E-01
  1.000E+01  1.101E-01  1.456E+00 3.3613206E+00 7.6366689E-01 -3.9152176E-01
  9.957E+00  9.903E-02  1.434E+00 3.3614182E+00 8.0494241E-01 -3.8768963E-01
  1.000E+01  1.340E-01  1.500E+00 3.3953161E+00 7.4319788E-01 -4.2907442E-01
  9.957E+00  1.218E-01  1.478E+00 3.3792989E+00 7.8452650E-01 -4.2721822E-01
  1.000E+01  1.600E-01  1.543E+00 3.3950070E+00 7.2091743E-01 -4.6562576E-01
  9.957E+00  1.467E-01  1.521E+00 3.4049866E+00 7.6230171E-01 -4.6583339E-01
  1.000E+01  1.881E-01  1.584E+00 3.4261311E+00 6.9679245E-01 -5.0096517E-01
  9.957E+00  1.738E-01  1.563E+00 3.4021172E+00 7.3812872E-01 -5.0325519E-01
  1.000E+01  2.182E-01  1.623E+00 3.4170900E+00 6.7096099E-01 -5.3508027E-01
  9.957E+00  2.029E-01  1.604E+00 3.4231002E+00 7.1211811E-01 -5.3941443E-01
  1.000E+01  2.502E-01  1.662E+00 3.4335225E+00 6.4345628E-01 -5.6785943E-01
  9.957E+00  2.340E-01  1.643E+00 3.4307215E+00 6.8435234E-01 -5.7424641E-01
  1.000E+01  2.841E-01  1.698E+00 3.4334757E+00 6.1435017E-01 -5.9922682E-01
  9.957E+00  2.669E-01  1.680E+00 3.4321800E+00 6.5487612E-01 -6.0764228E-01
  1.000E+01  3.198E-01  1.733E+00 3.4321755E+00 5.8371698E-01 -6.2910530E-01
  9.957E+00  3.018E-01  1.716E+00 3.4334810E+00 6.2377325E-01 -6.3953056E-01
  1.000E+01  3.572E-01  1.766E+00 3.4307177E+00 5.5163548E-01 -6.5742096E-01
  9.957E+00  3.383E-01  1.750E+00 3.4335284E+00 5.9112040E-01 -6.6982905E-01
  1.000E+01  3.962E-01  1.797E+00 3.4230971E+00 5.1817438E-01 -6.8409352E-01
  9.957E+00  3.765E-01  1.782E+00 3.4170966E+00 5.5699783E-01 -6.9846046E-01
  1.000E+01  4.367E-01  1.826E+00 3.4021148E+00 4.8343844E-01 -7.0907999E-01
  9.957E+00  4.163E-01  1.812E+00 3.4261382E+00 5.2148462E-01 -7.2535000E-01
  1.000E+01  4.786E-01  1.853E+00 3.4049851E+00 4.4748961E-01 -7.3230157E-01
  9.957E+00  4.575E-01  1.840E+00 3.3950149E+00 4.8469720E-01 -7.5046345E-01
  1.000E+01  5.217E-01  1.878E+00 3.3792979E+00 4.1039413E-01 -7.5365106E-01
  9.957E+00  5.000E-01  1.866E+00 3.3953248E+00 4.4664811E-01 -7.7365677E-01
  1.000E+01  5.661E-01  1.901E+00 3.3614178E+00 3.7242103E-01 -7.7326264E-01
  9.957E+00  5.438E-01  1.890E+00 3.3613301E+00 4.0755657E-01 -7.9496390E-01
  1.000E+01  6.116E-01  1.921E+00 3.3529176E+00 3.3337355E-01 -7.9087596E-01
  9.957E+00  5.887E-01  1.912E+00 3.3633291E+00 3.6752423E-01 -8.1441204E-01
  1.000E+01  6.580E-01  1.940E+00 3.3192591E+00 2.9323892E-01 -8.0624707E-01
  9.957E+00  6.347E-01  1.931E+00 3.3375325E+00 3.2623668E-01 -8.3154448E-01
  1.000E+01  7.052E-01  1.956E+00 3.3078056E+00 2.5283108E-01 -8.1994353E-01
  9.957E+00  6.815E-01  1.948E+00 3.3088640E+00 2.8422895E-01 -8.4660781E-01
  1.000E+01  7.532E-01  1.969E+00 3.3003846E+00 2.1208579E-01 -8.3187267E-01
  9.957E+00  7.292E-01  1.963E+00 3.3051475E+00 2.4207283E-01 -8.6002073E-01
  1.000E+01  8.019E-01  1.980E+00 3.2838287E+00 1.7041387E-01 -8.4145057E-01
  9.957E+00  7.775E-01  1.975E+00 3.2931108E+00 1.9922250E-01 -8.7127443E-01
  1.000E+01  8.510E-01  1.989E+00 3.2661545E+00 1.2795057E-01 -8.4865089E-01
  9.957E+00  8.264E-01  1.985E+00 3.2749187E+00 1.5535715E-01 -8.7996068E-01
  1.000E+01  9.004E-01  1.995E+00 3.2542602E+00 8.5255243E-02 -8.5379994E-01
  9.957E+00  8.757E-01  1.992E+00 3.2594440E+00 1.1097179E-01 -8.8635633E-01
  1.000E+01  9.502E-01  1.999E+00 3.2487358E+00 4.2605456E-02 -8.5699184E-01
  9.957E+00  9.253E-01  1.997E+00 3.2505708E+00 6.6541918E-02 -8.9071001E-01
  1.000E+01  1.000E+00  2.000E+00 3.2472964E+00 -4.8497190E-06 -8.5808469E-01
  9.957E+00  9.751E-01  2.000E+00 3.2471207E+00 2.2171140E-02 -8.9295696E-01
  1.000E+01  1.050E+00  1.999E+00 3.2487361E+00 -4.2615149E-02 -8.5699151E-01
  9.957E+00  1.025E+00  2.000E+00 3.2471209E+00 -2.2180621E-02 -8.9295679E-01
  1.000E+01  1.100E+00  1.995E+00 3.2542607E+00 -8.5264912E-02 -8.5379928E-01
  9.957E+00  1.075E+00  1.997E+00 3.2505712E+00 -6.6551384E-02 -8.9070952E-01
  1.000E+01  1.149E+00  1.989E+00 3.2661553E+00 -1.2796020E-01 -8.4864990E-01
  9.957E+00  1.124E+00  1.992E+00 3.2594446E+00 -1.1098122E-01 -8.8635551E-01
  1.000E+01  1.198E+00  1.980E+00 3.2838298E+00 -1.7042345E-01 -8.4144925E-01
  9.957E+00  1.174E+00  1.985E+00 3.2749196E+00 -1.5536654E-01 -8.7995954E-01