# TIME = 0.000000
VARIABLES = X, Y, Z, FX, FY, FZ
ZONE N=29232 E=58212 F=FEPOINT ET=TRIANGLE
  0.000E+00  9.502E-01  1.243E-03 3.5835663E+00 1.8378440E-02 3.6981335E-01
  0.000E+00  1.000E+00  0.000E+00 3.5822019E+00 -9.5034154E-06 3.7028436E-01
  4.318E-02  9.751E-01  3.108E-04 3.5819718E+00 9.1845036E-03 3.7019525E-01
  0.000E+00  1.050E+00  1.243E-03 3.5835663E+00 -1.8397424E-02 3.6981236E-01
  4.318E-02  1.025E+00  3.108E-04 3.5819719E+00 -9.2035401E-03 3.7019475E-01
  0.000E+00  1.100E+00  4.969E-03 3.5889840E+00 -3.6802275E-02 3.6843440E-01
  4.318E-02  1.075E+00  2.796E-03 3.5853194E+00 -2.7599233E-02 3.6926277E-01
  0.000E+00  1.149E+00  1.117E-02 3.6009917E+00 -5.5226693E-02 3.6621133E-01
  4.318E-02  1.124E+00  7.761E-03 3.5941957E+00 -4.6019014E-02 3.6745709E-01
  0.000E+00  1.198E+00  1.983E-02 3.6190113E+00 -7.3551463E-02 3.6310341E-01
  4.318E-02  1.174E+00  1.519E-02 3.6099608E+00 -6.4420412E-02 3.6480471E-01
  0.000E+00  1.247E+00  3.092E-02 3.6354913E+00 -9.1534921E-02 3.5896948E-01
  4.318E-02  1.223E+00  2.507E-02 3.6284052E+00 -8.2606486E-02 3.6120271E-01
  0.000E+00  1.295E+00  4.443E-02 3.6416964E+00 -1.0911794E-01 3.5382020E-01
  4.318E-02  1.271E+00  3.738E-02 3.6398207E+00 -1.0037144E-01 3.5653612E-01
  0.000E+00  1.342E+00  6.031E-02 3.6521099E+00 -1.2655569E-01 3.4790899E-01
  4.318E-02  1.318E+00  5.207E-02 3.6418130E+00 -1.1784841E-01 3.5097416E-01
  0.000E+00  1.388E+00  7.852E-02 3.6869688E+00 -1.4387547E-01 3.4127470E-01
  4.318E-02  1.365E+00  6.913E-02 3.6710444E+00 -1.3526459E-01 3.4472856E-01
  0.000E+00  1.434E+00  9.903E-02 3.6942179E+00 -1.6072564E-01 3.3367250E-01
  4.318E-02  1.411E+00  8.849E-02 3.6973424E+00 -1.5238204E-01 3.3762456E-01
  0.000E+00  1.478E+00  1.218E-01 3.7115505E+00 -1.7711210E-01 3.2520789E-01
  4.318E-02  1.456E+00  1.101E-01 3.6930439E+00 -1.6897851E-01 3.2956003E-01
  0.000E+00  1.521E+00  1.467E-01 3.7380651E+00 -1.9312022E-01 3.1599370E-01
  4.318E-02  1.500E+00  1.340E-01 3.7284597E+00 -1.8518501E-01 3.2072479E-01
  0.000E+00  1.563E+00  1.738E-01 3.7333392E+00 -2.0863283E-01 3.0597091E-01
  4.318E-02  1.543E+00  1.600E-01 3.7263379E+00 -2.0095921E-01 3.1110762E-01
  0.000E+00  1.604E+00  2.029E-01 3.7551446E+00 -2.2362149E-01 2.9518627E-01
  4.318E-02  1.584E+00  1.881E-01 3.7589331E+00 -2.1620988E-01 3.0069397E-01
  0.000E+00  1.643E+00  2.340E-01 3.7624025E+00 -2.3806024E-01 2.8367424E-01
  4.318E-02  1.623E+00  2.182E-01 3.7480796E+00 -2.3093232E-01 2.8954451E-01
  0.000E+00  1.680E+00  2.669E-01 3.7636989E+00 -2.5190355E-01 2.7145341E-01
  4.318E-02  1.662E+00  2.502E-01 3.7653749E+00 -2.4507811E-01 2.7767273E-01
  0.000E+00  1.716E+00  3.018E-01 3.7648997E+00 -2.6512128E-01 2.5855788E-01
  4.318E-02  1.698E+00  2.841E-01 3.7649110E+00 -2.5861404E-01 2.6510960E-01
  0.000E+00  1.750E+00  3.383E-01 3.7653645E+00 -2.7767986E-01 2.4502024E-01
  4.318E-02  1.733E+00  3.198E-01 3.7637110E+00 -2.7150726E-01 2.5188766E-01
  0.000E+00  1.782E+00  3.765E-01 3.7480702E+00 -2.8954692E-01 2.3087335E-01
  4.318E-02  1.766E+00  3.572E-01 3.7624153E+00 -2.8372541E-01 2.3804062E-01
  0.000E+00  1.812E+00  4.163E-01 3.7589248E+00 -3.0069158E-01 2.1615057E-01
  4.318E-02  1.797E+00  3.962E-01 3.7551579E+00 -2.9523436E-01 2.2359864E-01
  0.000E+00  1.840E+00  4.575E-01 3.7263307E+00 -3.1110010E-01 2.0090005E-01
  4.318E-02  1.826E+00  4.367E-01 3.7333530E+00 -3.0601564E-01 2.0860734E-01
  0.000E+00  1.866E+00  5.000E-01 3.7284534E+00 -3.2071175E-01 1.8512645E-01
  4.318E-02  1.853E+00  4.786E-01 3.7380791E+00 -3.1603460E-01 1.9309253E-01
  0.000E+00  1.890E+00  5.438E-01 3.6930383E+00 -3.2954168E-01 1.6892112E-01
  4.318E-02  1.878E+00  5.217E-01 3.7115648E+00 -3.2524510E-01 1.7708279E-01
  0.000E+00  1.912E+00  5.887E-01 3.6973377E+00 -3.3760113E-01 1.5232676E-01
  4.318E-02  1.901E+00  5.661E-01 3.6942329E+00 -3.3370612E-01 1.6069537E-01
  0.000E+00  1.931E+00  6.347E-01 3.6710403E+00 -3.4470037E-01 1.3521208E-01
  4.318E-02  1.921E+00  6.116E-01 3.6869843E+00 -3.4130475E-01 1.4384499E-01
  0.000E+00  1.948E+00  6.815E-01 3.6418092E+00 -3.5094149E-01 1.1779920E-01
  4.318E-02  1.940E+00  6.580E-01 3.6521258E+00 -3.4793563E-01 1.2652547E-01
  0.000E+00  1.963E+00  7.292E-01 3.6398172E+00 -3.5649911E-01 1.0032594E-01
  4.318E-02  1.956E+00  7.052E-01 3.6417125E+00 -3.5384323E-01 1.0908827E-01
  0.000E+00  1.975E+00  7.775E-01 3.6284019E+00 -3.6116176E-01 8.2565056E-02
  4.318E-02  1.969E+00  7.532E-01 3.6355075E+00 -3.5898903E-01 9.1506122E-02
  0.000E+00  1.985E+00  8.264E-01 3.6099578E+00 -3.6476034E-01 6.4383467E-02
  4.318E-02  1.980E+00  8.019E-01 3.6190277E+00 -3.6312000E-01 7.3523922E-02
  0.000E+00  1.992E+00  8.757E-01 3.5941929E+00 -3.6740968E-01 4.5986930E-02
  4.318E-02  1.989E+00  8.510E-01 3.6010086E+00 -3.6622553E-01 5.5200908E-02
  0.000E+00  1.997E+00  9.253E-01 3.5853170E+00 -3.6921263E-01 2.7572332E-02
  4.318E-02  1.995E+00  9.004E-01 3.5890014E+00 -3.6844683E-01 3.6778751E-02
  0.000E+00  2.000E+00  9.751E-01 3.5819705E+00 -3.7014252E-01 9.1821334E-03
  4.318E-02  1.999E+00  9.502E-01 3.5835837E+00 -3.6982357E-01 1.8376438E-02
  0.000E+00  2.000E+00  1.025E+00 3.5819717E+00 -3.7014204E-01 -9.2002466E-03
  4.318E-02  2.000E+00  1.000E+00 3.5822187E+00 -3.7029460E-01 -8.9542014E-06
  0.000E+00  1.997E+00  1.075E+00 3.5853198E+00 -3.6921119E-01 -2.7590404E-02
  4.318E-02  1.999E+00  1.050E+00 3.5835824E+00 -3.6982263E-01 -1.8394410E-02
  0.000E+00  1.992E+00  1.124E+00 3.5941957E+00 -3.6740729E-01 -4.6004918E-02
  4.318E-02  1.995E+00  1.100E+00 3.5889996E+00 -3.6844493E-01 -3.6796818E-02
  0.000E+00  1.985E+00  1.174E+00 3.6099600E+00 -3.6475706E-01 -6.4401330E-02
  4.318E-02  1.989E+00  1.149E+00 3.6010072E+00 -3.6622269E-01 -5.5218955E-02
  0.000E+00  1.975E+00  1.223E+00 3.6284034E+00 -3.6115763E-01 -8.2582752E-02
  4.318E-02  1.980E+00  1.198E+00 3.6190269E+00 -3.6311630E-01 -7.3541829E-02
  0.000E+00  1.963E+00  1.271E+00 3.6398180E+00 -3.5649401E-01 -1.0034343E-01
  4.318E-02  1.969E+00  1.247E+00 3.6355071E+00 -3.5898444E-01 -9.1523826E-02
  0.000E+00  1.948E+00  1.318E+00 3.6418097E+00 -3.5093537E-01 -1.1781644E-01
  4.318E-02  1.956E+00  1.295E+00 3.6417125E+00 -3.5383760E-01 -1.0910573E-01
  0.000E+00  1.931E+00  1.365E+00 3.6710404E+00 -3.4469352E-01 -1.3522903E-01
  4.318E-02  1.940E+00  1.342E+00 3.6521261E+00 -3.4792910E-01 -1.2654265E-01
  0.000E+00  1.912E+00  1.411E+00 3.6973376E+00 -3.3759345E-01 -1.5234338E-01
  4.318E-02  1.921E+00  1.388E+00 3.6869848E+00 -3.4129754E-01 -1.4386186E-01
  0.000E+00  1.890E+00  1.456E+00 3.6930381E+00 -3.2953298E-01 -1.6893737E-01
  4.318E-02  1.901E+00  1.434E+00 3.6942336E+00 -3.3369791E-01 -1.6071187E-01
  0.000E+00  1.866E+00  1.500E+00 3.7284532E+00 -3.2070241E-01 -1.8514229E-01
  4.318E-02  1.878E+00  1.478E+00 3.7115656E+00 -3.2523607E-01 -1.7709888E-01
  0.000E+00  1.840E+00  1.543E+00 3.7263306E+00 -3.1108990E-01 -2.0091544E-01
  4.318E-02  1.853E+00  1.521E+00 3.7380799E+00 -3.1602487E-01 -1.9310818E-01
  0.000E+00  1.812E+00  1.584E+00 3.7589248E+00 -3.0068062E-01 -2.1616546E-01
  4.318E-02  1.826E+00  1.563E+00 3.7333538E+00 -3.0600502E-01 -2.0862252E-01
  0.000E+00  1.782E+00  1.623E+00 3.7480704E+00 -2.8953524E-01 -2.3088772E-01
  4.318E-02  1.797E+00  1.604E+00 3.7551587E+00 -2.9522307E-01 -2.2361331E-01
  0.000E+00  1.750E+00  1.662E+00 3.7653649E+00 -2.7766746E-01 -2.4503404E-01
  4.318E-02  1.766E+00  1.643E+00 3.7624160E+00 -2.8371336E-01 -2.3805474E-01
  0.000E+00  1.716E+00  1.698E+00 3.7649004E+00 -2.6510822E-01 -2.5857107E-01
  4.318E-02  1.733E+00  1.680E+00 3.7637116E+00 -2.7149454E-01 -2.5190119E-01
  0.000E+00  1.680E+00  1.733E+00 3.7636998E+00 -2.5188983E-01 -2.7146595E-01
  4.318E-02  1.698E+00  1.716E+00 3.7649116E+00 -2.5860064E-01 -2.6512251E-01
  0.000E+00  1.643E+00  1.766E+00 3.7624036E+00 -2.3804592E-01 -2.8368611E-01
  4.318E-02  1.662E+00  1.750E+00 3.7653754E+00 -2.4506409E-01 -2.7768498E-01
  0.000E+00  1.604E+00  1.797E+00 3.7551456E+00 -2.2360659E-01 -2.9519742E-01
  4.318E-02  1.623E+00  1.782E+00 3.7480801E+00 -2.3091769E-01 -2.8955607E-01
  0.000E+00  1.563E+00  1.826E+00 3.7333400E+00 -2.0861739E-01 -3.0598132E-01
  4.318E-02  1.584E+00  1.812E+00 3.7589337E+00 -2.1619468E-01 -3.0070482E-01
  0.000E+00  1.521E+00  1.853E+00 3.7380655E+00 -1.9310429E-01 -3.1600334E-01
  4.318E-02  1.543E+00  1.840E+00 3.7263389E+00 -2.0094347E-01 -3.1111772E-01
  0.000E+00  1.478E+00  1.878E+00 3.7115507E+00 -1.7709572E-01 -3.2521672E-01
  4.318E-02  1.500E+00  1.866E+00 3.7284609E+00 -1.8516882E-01 -3.2073408E-01
  0.000E+00  1.434E+00  1.901E+00 3.6942182E+00 -1.6070884E-01 -3.3368050E-01
  4.318E-02  1.456E+00  1.890E+00 3.6930451E+00 -1.6896189E-01 -3.2956849E-01
  0.000E+00  1.388E+00  1.921E+00 3.6869691E+00 -1.4385831E-01 -3.4128185E-01
  4.318E-02  1.411E+00  1.912E+00 3.6973437E+00 -1.5236503E-01 -3.3763217E-01
  0.000E+00  1.342E+00  1.940E+00 3.6521103E+00 -1.2653819E-01 -3.4791526E-01
  4.318E-02  1.365E+00  1.931E+00 3.6710457E+00 -1.3524721E-01 -3.4473531E-01
  0.000E+00  1.295E+00  1.956E+00 3.6416967E+00 -1.0910010E-01 -3.5382556E-01
  4.318E-02  1.318E+00  1.948E+00 3.6418143E+00 -1.1783073E-01 -3.5098002E-01
  0.000E+00  1.247E+00  1.969E+00 3.6354916E+00 -9.1516722E-02 -3.5897389E-01
  4.318E-02  1.271E+00  1.963E+00 3.6398220E+00 -1.0035354E-01 -3.5654109E-01
  0.000E+00  1.198E+00  1.980E+00 3.6190114E+00 -7.3532951E-02 -3.6310686E-01
  4.318E-02  1.223E+00  1.975E+00 3.6284066E+00 -8.2588442E-02 -3.6120679E-01
  0.000E+00  1.149E+00  1.989E+00 3.6009917E+00 -5.5208063E-02 -3.6621381E-01
  4.318E-02  1.174E+00  1.985E+00 3.6099624E+00 -6.4402216E-02 -3.6480787E-01
  0.000E+00  1.100E+00  1.995E+00 3.5889840E+00 -3.6783738E-02 -3.6843594E-01
  4.318E-02  1.124E+00  1.992E+00 3.5941974E+00 -4.6000584E-02 -3.6745930E-01
  0.000E+00  1.050E+00  1.999E+00 3.5835663E+00 -1.8378949E-02 -3.6981295E-01
  4.318E-02  1.075E+00  1.997E+00 3.5853212E+00 -2.7580570E-02 -3.6926402E-01
  0.000E+00  1.000E+00  2.000E+00 3.5822019E+00 9.1274165E-06 -3.7028400E-01
  4.318E-02  1.025E+00  2.000E+00 3.5819736E+00 -9.1848255E-03 -3.7019503E-01
  0.000E+00  9.502E-01  1.999E+00 3.5835663E+00 1.8397185E-02 -3.6981202E-01
  4.318E-02  9.751E-01  2.000E+00 3.5819736E+00 9.2031189E-03 -3.7019456E-01
  0.000E+00  9.004E-01  1.995E+00 3.5889839E+00 3.6801916E-02 -3.6843408E-01
  4.318E-02  9.253E-01  1.997E+00 3.5853211E+00 2.7598821E-02 -3.6926262E-01
  0.000E+00  8.510E-01  1.989E+00 3.6009916E+00 5.5226138E-02 -3.6621103E-01
  4.318E-02  8.757E-01  1.992E+00 3.5941973E+00 4.6018752E-02 -3.6745697E-01
  0.000E+00  8.019E-01  1.980E+00 3.6190113E+00 7.3550882E-02 -3.6310316E-01
  4.318E-02  8.264E-01  1.985E+00 3.6099623E+00 6.4420262E-02 -3.6480462E-01
  0.000E+00  7.532E-01  1.969E+00 3.6354914E+00 9.1534472E-02 -3.5896929E-01
  4.318E-02  7.775E-01  1.975E+00 3.6284064E+00 8.2606326E-02 -3.6120263E-01
  0.000E+00  7.052E-01  1.956E+00 3.6416965E+00 1.0911763E-01 -3.5382007E-01
  4.318E-02  7.292E-01  1.963E+00 3.6398218E+00 1.0037123E-01 -3.5653603E-01
  0.000E+00  6.580E-01  1.940E+00 3.6521100E+00 1.2655546E-01 -3.4790890E-01
  4.318E-02  6.815E-01  1.948E+00 3.6418141E+00 1.1784818E-01 -3.5097407E-01
  0.000E+00  6.116E-01  1.921E+00 3.6869688E+00 1.4387528E-01 -3.4127463E-01
  4.318E-02  6.347E-01  1.931E+00 3.6710454E+00 1.3526438E-01 -3.4472849E-01
  0.000E+00  5.661E-01  1.901E+00 3.6942178E+00 1.6072548E-01 -3.3367244E-01
  4.318E-02  5.887E-01  1.912E+00 3.6973433E+00 1.5238187E-01 -3.3762450E-01
  0.000E+00  5.217E-01  1.878E+00 3.7115503E+00 1.7711197E-01 -3.2520784E-01
  4.318E-02  5.438E-01  1.890E+00 3.6930448E+00 1.6897838E-01 -3.2955998E-01
  0.000E+00  4.786E-01  1.853E+00 3.7380651E+00 1.9312012E-01 -3.1599366E-01
  4.318E-02  5.000E-01  1.866E+00 3.7284605E+00 1.8518490E-01 -3.2072477E-01
  0.000E+00  4.367E-01  1.826E+00 3.7333395E+00 2.0863277E-01 -3.0597087E-01
  4.318E-02  4.575E-01  1.840E+00 3.7263384E+00 2.0095912E-01 -3.1110762E-01
  0.000E+00  3.962E-01  1.797E+00 3.7551451E+00 2.2362147E-01 -2.9518623E-01
  4.318E-02  4.163E-01  1.812E+00 3.7589332E+00 2.1620984E-01 -3.0069397E-01
  0.000E+00  3.572E-01  1.766E+00 3.7624030E+00 2.3806026E-01 -2.8367421E-01
  4.318E-02  3.765E-01  1.782E+00 3.7480796E+00 2.3093234E-01 -2.8954449E-01
  0.000E+00  3.198E-01  1.733E+00 3.7636992E+00 2.5190360E-01 -2.7145337E-01
  4.318E-02  3.383E-01  1.750E+00 3.7653748E+00 2.4507818E-01 -2.7767270E-01
  0.000E+00  2.841E-01  1.698E+00 3.7648997E+00 2.6512138E-01 -2.5855783E-01
  4.318E-02  3.018E-01  1.716E+00 3.7649110E+00 2.5861415E-01 -2.6510956E-01
  0.000E+00  2.502E-01  1.662E+00 3.7653642E+00 2.7767999E-01 -2.4502018E-01
  4.318E-02  2.669E-01  1.680E+00 3.7637110E+00 2.7150741E-01 -2.5188760E-01
  0.000E+00  2.182E-01  1.623E+00 3.7480697E+00 2.8954708E-01 -2.3087328E-01
  4.318E-02  2.340E-01  1.643E+00 3.7624153E+00 2.8372559E-01 -2.3804056E-01
  0.000E+00  1.881E-01  1.584E+00 3.7589241E+00 3.0069177E-01 -2.1615048E-01
  4.318E-02  2.029E-01  1.604E+00 3.7551580E+00 2.9523457E-01 -2.2359856E-01
  0.000E+00  1.600E-01  1.543E+00 3.7263298E+00 3.1110032E-01 -2.0089994E-01
  4.318E-02  1.738E-01  1.563E+00 3.7333531E+00 3.0601587E-01 -2.0860724E-01
  0.000E+00  1.340E-01  1.500E+00 3.7284524E+00 3.2071200E-01 -1.8512632E-01
  4.318E-02  1.467E-01  1.521E+00 3.7380791E+00 3.1603486E-01 -1.9309241E-01
  0.000E+00  1.101E-01  1.456E+00 3.6930373E+00 3.2954195E-01 -1.6892097E-01
  4.318E-02  1.218E-01  1.478E+00 3.7115649E+00 3.2524539E-01 -1.7708265E-01
  0.000E+00  8.849E-02  1.411E+00 3.6973368E+00 3.3760142E-01 -1.5232658E-01
  4.318E-02  9.903E-02  1.434E+00 3.6942328E+00 3.3370642E-01 -1.6069523E-01
  0.000E+00  6.913E-02  1.365E+00 3.6710395E+00 3.4470069E-01 -1.3521187E-01
  4.318E-02  7.852E-02  1.388E+00 3.6869840E+00 3.4130507E-01 -1.4384484E-01
  0.000E+00  5.207E-02  1.318E+00 3.6418088E+00 3.5094182E-01 -1.1779897E-01
  4.318E-02  6.031E-02  1.342E+00 3.6521253E+00 3.4793596E-01 -1.2652529E-01
  0.000E+00  3.738E-02  1.271E+00 3.6398171E+00 3.5649945E-01 -1.0032567E-01
  4.318E-02  4.443E-02  1.295E+00 3.6417116E+00 3.5384358E-01 -1.0908807E-01
  0.000E+00  2.507E-02  1.223E+00 3.6284024E+00 3.6116212E-01 -8.2564764E-02
  4.318E-02  3.092E-02  1.247E+00 3.6355062E+00 3.5898939E-01 -9.1505919E-02
  0.000E+00  1.519E-02  1.174E+00 3.6099590E+00 3.6476070E-01 -6.4383143E-02
  4.318E-02  1.983E-02  1.198E+00 3.6190259E+00 3.6312037E-01 -7.3523705E-02
  0.000E+00  7.761E-03  1.124E+00 3.5941947E+00 3.6741004E-01 -4.5986574E-02
  4.318E-02  1.117E-02  1.149E+00 3.6010062E+00 3.6622591E-01 -5.5200654E-02
  0.000E+00  2.796E-03  1.075E+00 3.5853188E+00 3.6921300E-01 -2.7571944E-02
  4.318E-02  4.969E-03  1.100E+00 3.5889987E+00 3.6844722E-01 -3.6778381E-02
  0.000E+00  3.108E-04  1.025E+00 3.5819706E+00 3.7014288E-01 -9.1817131E-03
  4.318E-02  1.243E-03  1.050E+00 3.5835814E+00 3.6982396E-01 -1.8375880E-02
  0.000E+00  3.108E-04  9.751E-01 3.5819694E+00 3.7014239E-01 9.2006976E-03
  4.318E-02  0.000E+00  1.000E+00 3.5822177E+00 3.7029496E-01 9.6268988E-06
  0.000E+00  2.796E-03  9.253E-01 3.5853160E+00 3.6921153E-01 2.7590884E-02
  4.318E-02  1.243E-03  9.502E-01 3.5835827E+00 3.6982295E-01 1.8395027E-02
  0.000E+00  7.761E-03  8.757E-01 3.5941918E+00 3.6740761E-01 4.6005426E-02
  4.318E-02  4.969E-03  9.004E-01 3.5890004E+00 3.6844524E-01 3.6797305E-02
  0.000E+00  1.519E-02  8.264E-01 3.6099567E+00 3.6475736E-01 6.4401865E-02
  4.318E-02  1.117E-02  8.510E-01 3.6010076E+00 3.6622300E-01 5.5219383E-02
  0.000E+00  2.507E-02  7.775E-01 3.6284008E+00 3.6115791E-01 8.2583313E-02
  4.318E-02  1.983E-02  8.019E-01 3.6190267E+00 3.6311659E-01 7.3542276E-02
  0.000E+00  3.738E-02  7.292E-01 3.6398161E+00 3.5649427E-01 1.0034401E-01
  4.318E-02  3.092E-02  7.532E-01 3.6355064E+00 3.5898470E-01 9.1524312E-02
  0.000E+00  5.207E-02  6.815E-01 3.6418081E+00 3.5093560E-01 1.1781705E-01
  4.318E-02  4.443E-02  7.052E-01 3.6417114E+00 3.5383785E-01 1.0910625E-01
  0.000E+00  6.913E-02  6.347E-01 3.6710392E+00 3.4469372E-01 1.3522966E-01
  4.318E-02  6.031E-02  6.580E-01 3.6521248E+00 3.4792931E-01 1.2654321E-01
  0.000E+00  8.849E-02  5.887E-01 3.6973366E+00 3.3759362E-01 1.5234402E-01
  4.318E-02  7.852E-02  6.116E-01 3.6869832E+00 3.4129772E-01 1.4386244E-01
  0.000E+00  1.101E-01  5.438E-01 3.6930373E+00 3.2953312E-01 1.6893803E-01
  4.318E-02  9.903E-02  5.661E-01 3.6942318E+00 3.3369805E-01 1.6071248E-01
  0.000E+00  1.340E-01  5.000E-01 3.7284523E+00 3.2070251E-01 1.8514296E-01
  4.318E-02  1.218E-01  5.217E-01 3.7115638E+00 3.2523617E-01 1.7709951E-01
  0.000E+00  1.600E-01  4.575E-01 3.7263296E+00 3.1108996E-01 2.0091611E-01
  4.318E-02  1.467E-01  4.786E-01 3.7380780E+00 3.1602493E-01 1.9310883E-01
  0.000E+00  1.881E-01  4.163E-01 3.7589237E+00 3.0068065E-01 2.1616614E-01
  4.318E-02  1.738E-01  4.367E-01 3.7333520E+00 3.0600504E-01 2.0862318E-01
  0.000E+00  2.182E-01  3.765E-01 3.7480692E+00 2.8953523E-01 2.3088840E-01
  4.318E-02  2.029E-01  3.962E-01 3.7551569E+00 2.9522305E-01 2.2361396E-01
  0.000E+00  2.502E-01  3.383E-01 3.7653635E+00 2.7766740E-01 2.4503471E-01
  4.318E-02  2.340E-01  3.572E-01 3.7624144E+00 2.8371330E-01 2.3805540E-01
  0.000E+00  2.841E-01  3.018E-01 3.7648988E+00 2.6510813E-01 2.5857174E-01
  4.318E-02  2.669E-01  3.198E-01 3.7637100E+00 2.7149444E-01 2.5190184E-01
  0.000E+00  3.198E-01  2.669E-01 3.7636980E+00 2.5188970E-01 2.7146662E-01
  4.318E-02  3.018E-01  2.841E-01 3.7649101E+00 2.5860050E-01 2.6512315E-01
  0.000E+00  3.572E-01  2.340E-01 3.7624017E+00 2.3804575E-01 2.8368676E-01
  4.318E-02  3.383E-01  2.502E-01 3.7653740E+00 2.4506392E-01 2.7768561E-01
  0.000E+00  3.962E-01  2.029E-01 3.7551437E+00 2.2360639E-01 2.9519805E-01
  4.318E-02  3.765E-01  2.182E-01 3.7480788E+00 2.3091750E-01 2.8955667E-01
  0.000E+00  4.367E-01  1.738E-01 3.7333384E+00 2.0861716E-01 3.0598193E-01
  4.318E-02  4.163E-01  1.881E-01 3.7589323E+00 2.1619448E-01 3.0070539E-01
  0.000E+00  4.786E-01  1.467E-01 3.7380644E+00 1.9310403E-01 3.1600393E-01
  4.318E-02  4.575E-01  1.600E-01 3.7263372E+00 2.0094326E-01 3.1111827E-01
  0.000E+00  5.217E-01  1.218E-01 3.7115498E+00 1.7709543E-01 3.2521729E-01
  4.318E-02  5.000E-01  1.340E-01 3.7284591E+00 1.8516856E-01 3.2073463E-01
  0.000E+00  5.661E-01  9.903E-02 3.6942173E+00 1.6070853E-01 3.3368105E-01
  4.318E-02  5.438E-01  1.101E-01 3.6930433E+00 1.6896159E-01 3.2956902E-01
  0.000E+00  6.116E-01  7.852E-02 3.6869682E+00 1.4385797E-01 3.4128237E-01
  4.318E-02  5.887E-01  8.849E-02 3.6973419E+00 1.5236471E-01 3.3763268E-01
  0.000E+00  6.580E-01  6.031E-02 3.6521094E+00 1.2653784E-01 3.4791575E-01
  4.318E-02  6.347E-01  6.913E-02 3.6710439E+00 1.3524688E-01 3.4473579E-01
  0.000E+00  7.052E-01  4.443E-02 3.6416960E+00 1.0909978E-01 3.5382604E-01
  4.318E-02  6.815E-01  5.207E-02 3.6418126E+00 1.1783036E-01 3.5098047E-01
  0.000E+00  7.532E-01  3.092E-02 3.6354910E+00 9.1516509E-02 3.5897438E-01
  4.318E-02  7.292E-01  3.738E-02 3.6398203E+00 1.0035312E-01 3.5654149E-01
  0.000E+00  8.019E-01  1.983E-02 3.6190110E+00 7.3532838E-02 3.6310735E-01
  4.318E-02  7.775E-01  2.507E-02 3.6284049E+00 8.2587931E-02 3.6120713E-01
  0.000E+00  8.510E-01  1.117E-02 3.6009914E+00 5.5207899E-02 3.6621429E-01
  4.318E-02  8.264E-01  1.519E-02 3.6099606E+00 6.4401666E-02 3.6480816E-01
  0.000E+00  9.004E-01  4.969E-03 3.5889839E+00 3.6783360E-02 3.6843638E-01
  4.318E-02  8.757E-01  7.761E-03 3.5941955E+00 4.6000124E-02 3.6745956E-01
  4.318E-02  9.253E-01  2.796E-03 3.5853193E+00 2.7580246E-02 3.6926426E-01
  1.000E+01  1.050E+00  1.243E-03 3.5835663E+00 -1.8397424E-02 3.6981236E-01
  1.000E+01  1.000E+00  5.551E-16 3.5822019E+00 -9.5034154E-06 3.7028436E-01
  9.957E+00  1.025E+00  3.108E-04 3.5819689E+00 -9.2025962E-03 3.7016345E-01
  1.000E+01  9.502E-01  1.243E-03 3.5835663E+00 1.8378440E-02 3.6981335E-01
  9.957E+00  9.751E-01  3.108E-04 3.5819689E+00 9.1836901E-03 3.7016394E-01
  1.000E+01  9.004E-01  4.969E-03 3.5889839E+00 3.6783360E-02 3.6843638E-01
  9.957E+00  9.253E-01  2.796E-03 3.5853163E+00 2.7577708E-02 3.6923298E-01
  1.000E+01  8.510E-01  1.117E-02 3.6009914E+00 5.5207899E-02 3.6621429E-01
  9.957E+00  8.757E-01  7.761E-03 3.5941924E+00 4.5995964E-02 3.6742838E-01
  1.000E+01  8.019E-01  1.983E-02 3.6190110E+00 7.3532838E-02 3.6310735E-01
  9.957E+00  8.264E-01  1.519E-02 3.6099572E+00 6.4396056E-02 3.6477722E-01
  1.000E+01  7.532E-01  3.092E-02 3.6354910E+00 9.1516509E-02 3.5897438E-01
  9.957E+00  7.775E-01  2.507E-02 3.6284011E+00 8.2581095E-02 3.6117663E-01
  1.000E+01  7.052E-01  4.443E-02 3.6416960E+00 1.0909978E-01 3.5382604E-01
  9.957E+00  7.292E-01  3.738E-02 3.6398163E+00 1.0034514E-01 3.5651154E-01
  1.000E+01  6.580E-01  6.031E-02 3.6521094E+00 1.2653784E-01 3.4791575E-01
  9.957E+00  6.815E-01  5.207E-02 3.6418084E+00 1.1782100E-01 3.5095093E-01
  1.000E+01  6.116E-01  7.852E-02 3.6869682E+00 1.4385797E-01 3.4128237E-01
  9.957E+00  6.347E-01  6.913E-02 3.6710395E+00 1.3523577E-01 3.4470652E-01
  1.000E+01  5.661E-01  9.903E-02 3.6942173E+00 1.6070853E-01 3.3368105E-01
  9.957E+00  5.887E-01  8.849E-02 3.6973373E+00 1.5235181E-01 3.3760383E-01
  1.000E+01  5.217E-01  1.218E-01 3.7115498E+00 1.7709543E-01 3.2521729E-01
  9.957E+00  5.438E-01  1.101E-01 3.6930386E+00 1.6894714E-01 3.2954084E-01
  1.000E+01  4.786E-01  1.467E-01 3.7380644E+00 1.9310403E-01 3.1600393E-01
  9.957E+00  5.000E-01  1.340E-01 3.7284544E+00 1.8515298E-01 3.2070744E-01
  1.000E+01  4.367E-01  1.738E-01 3.7333384E+00 2.0861716E-01 3.0598193E-01
  9.957E+00  4.575E-01  1.600E-01 3.7263325E+00 2.0092646E-01 3.1109213E-01
  1.000E+01  3.962E-01  2.029E-01 3.7551437E+00 2.2360639E-01 2.9519805E-01
  9.957E+00  4.163E-01  1.881E-01 3.7589274E+00 2.1617620E-01 3.0068007E-01
  1.000E+01  3.572E-01  2.340E-01 3.7624017E+00 2.3804575E-01 2.8368676E-01
  9.957E+00  3.765E-01  2.182E-01 3.7480737E+00 2.3089780E-01 2.8953217E-01
  1.000E+01  3.198E-01  2.669E-01 3.7636980E+00 2.5188970E-01 2.7146662E-01
  9.957E+00  3.383E-01  2.502E-01 3.7653689E+00 2.4504304E-01 2.7766210E-01
  1.000E+01  2.841E-01  3.018E-01 3.7648988E+00 2.6510813E-01 2.5857174E-01
  9.957E+00  3.018E-01  2.841E-01 3.7649050E+00 2.5857848E-01 2.6510079E-01
  1.000E+01  2.502E-01  3.383E-01 3.7653635E+00 2.7766740E-01 2.4503471E-01
  9.957E+00  2.669E-01  3.198E-01 3.7637051E+00 2.7147140E-01 2.5188066E-01
  1.000E+01  2.182E-01  3.765E-01 3.7480692E+00 2.8953523E-01 2.3088840E-01
  9.957E+00  2.340E-01  3.572E-01 3.7624097E+00 2.8368926E-01 2.3803540E-01
  1.000E+01  1.881E-01  4.163E-01 3.7589237E+00 3.0068065E-01 2.1616614E-01
  9.957E+00  2.029E-01  3.962E-01 3.7551528E+00 2.9519797E-01 2.2359517E-01
  1.000E+01  1.600E-01  4.575E-01 3.7263296E+00 3.1108996E-01 2.0091611E-01
  9.957E+00  1.738E-01  4.367E-01 3.7333482E+00 3.0597891E-01 2.0860538E-01
  1.000E+01  1.340E-01  5.000E-01 3.7284523E+00 3.2070251E-01 1.8514296E-01
  9.957E+00  1.467E-01  4.786E-01 3.7380747E+00 3.1599804E-01 1.9309238E-01
  1.000E+01  1.101E-01  5.438E-01 3.6930373E+00 3.2953312E-01 1.6893803E-01
  9.957E+00  1.218E-01  5.217E-01 3.7115608E+00 3.2520874E-01 1.7708464E-01
  1.000E+01  8.849E-02  5.887E-01 3.6973366E+00 3.3759362E-01 1.5234402E-01
  9.957E+00  9.903E-02  5.661E-01 3.6942293E+00 3.3367009E-01 1.6069918E-01
  1.000E+01  6.913E-02  6.347E-01 3.6710392E+00 3.4469372E-01 1.3522966E-01
  9.957E+00  7.852E-02  6.116E-01 3.6869810E+00 3.4126897E-01 1.4385025E-01
  1.000E+01  5.207E-02  6.815E-01 3.6418081E+00 3.5093560E-01 1.1781705E-01
  9.957E+00  6.031E-02  6.580E-01 3.6521229E+00 3.4789973E-01 1.2653212E-01
  1.000E+01  3.738E-02  7.292E-01 3.6398161E+00 3.5649427E-01 1.0034401E-01
  9.957E+00  4.443E-02  7.052E-01 3.6417099E+00 3.5380769E-01 1.0909662E-01
  1.000E+01  2.507E-02  7.775E-01 3.6284008E+00 3.6115791E-01 8.2583313E-02
  9.957E+00  3.092E-02  7.532E-01 3.6355053E+00 3.5895419E-01 9.1516417E-02
  1.000E+01  1.519E-02  8.264E-01 3.6099567E+00 3.6475736E-01 6.4401865E-02
  9.957E+00  1.983E-02  8.019E-01 3.6190260E+00 3.6308585E-01 7.3536237E-02
  1.000E+01  7.761E-03  8.757E-01 3.5941918E+00 3.6740761E-01 4.6005426E-02
  9.957E+00  1.117E-02  8.510E-01 3.6010073E+00 3.6619209E-01 5.5215092E-02
  1.000E+01  2.796E-03  9.253E-01 3.5853160E+00 3.6921153E-01 2.7590884E-02
  9.957E+00  4.969E-03  9.004E-01 3.5890003E+00 3.6841416E-01 3.6794494E-02
  1.000E+01  3.108E-04  9.751E-01 3.5819694E+00 3.7014239E-01 9.2006976E-03
  9.957E+00  1.243E-03  9.502E-01 3.5835828E+00 3.6979172E-01 1.8393478E-02
  1.000E+01  3.108E-04  1.025E+00 3.5819706E+00 3.7014288E-01 -9.1817131E-03
  9.957E+00  0.000E+00  1.000E+00 3.5822178E+00 3.7026363E-01 9.3264584E-06
  1.000E+01  2.796E-03  1.075E+00 3.5853188E+00 3.6921300E-01 -2.7571944E-02
  9.957E+00  1.243E-03  1.050E+00 3.5835815E+00 3.6979267E-01 -1.8374761E-02
  1.000E+01  7.761E-03  1.124E+00 3.5941947E+00 3.6741004E-01 -4.5986574E-02
  9.957E+00  4.969E-03  1.100E+00 3.5889986E+00 3.6841609E-01 -3.6775685E-02
  1.000E+01  1.519E-02  1.174E+00 3.6099590E+00 3.6476070E-01 -6.4383143E-02
  9.957E+00  1.117E-02  1.149E+00 3.6010060E+00 3.6619497E-01 -5.5196305E-02
  1.000E+01  2.507E-02  1.223E+00 3.6284024E+00 3.6116212E-01 -8.2564764E-02
  9.957E+00  1.983E-02  1.198E+00 3.6190253E+00 3.6308962E-01 -7.3517597E-02
  1.000E+01  3.738E-02  1.271E+00 3.6398171E+00 3.5649945E-01 -1.0032567E-01
  9.957E+00  3.092E-02  1.247E+00 3.6355051E+00 3.5895887E-01 -9.1497987E-02
  1.000E+01  5.207E-02  1.318E+00 3.6418088E+00 3.5094182E-01 -1.1779897E-01
  9.957E+00  4.443E-02  1.295E+00 3.6417101E+00 3.5381342E-01 -1.0907844E-01
  1.000E+01  6.913E-02  1.365E+00 3.6710395E+00 3.4470069E-01 -1.3521187E-01
  9.957E+00  6.031E-02  1.342E+00 3.6521234E+00 3.4790636E-01 -1.2651423E-01
  1.000E+01  8.849E-02  1.411E+00 3.6973368E+00 3.3760142E-01 -1.5232658E-01
  9.957E+00  7.852E-02  1.388E+00 3.6869817E+00 3.4127629E-01 -1.4383270E-01
  1.000E+01  1.101E-01  1.456E+00 3.6930373E+00 3.2954195E-01 -1.6892097E-01
  9.957E+00  9.903E-02  1.434E+00 3.6942302E+00 3.3367843E-01 -1.6068199E-01
  1.000E+01  1.340E-01  1.500E+00 3.7284524E+00 3.2071200E-01 -1.8512632E-01
  9.957E+00  1.218E-01  1.478E+00 3.7115619E+00 3.2521790E-01 -1.7706788E-01
  1.000E+01  1.600E-01  1.543E+00 3.7263298E+00 3.1110032E-01 -2.0089994E-01
  9.957E+00  1.467E-01  1.521E+00 3.7380758E+00 3.1600791E-01 -1.9307607E-01
  1.000E+01  1.881E-01  1.584E+00 3.7589241E+00 3.0069177E-01 -2.1615048E-01
  9.957E+00  1.738E-01  1.563E+00 3.7333493E+00 3.0598966E-01 -2.0858956E-01
  1.000E+01  2.182E-01  1.623E+00 3.7480697E+00 2.8954708E-01 -2.3087328E-01
  9.957E+00  2.029E-01  1.604E+00 3.7551538E+00 2.9520940E-01 -2.2357987E-01
  1.000E+01  2.502E-01  1.662E+00 3.7653642E+00 2.7767999E-01 -2.4502018E-01
  9.957E+00  2.340E-01  1.643E+00 3.7624107E+00 2.8370145E-01 -2.3802068E-01
  1.000E+01  2.841E-01  1.698E+00 3.7648997E+00 2.6512138E-01 -2.5855783E-01
  9.957E+00  2.669E-01  1.680E+00 3.7637061E+00 2.7148425E-01 -2.5186654E-01
  1.000E+01  3.198E-01  1.733E+00 3.7636992E+00 2.5190360E-01 -2.7145337E-01
  9.957E+00  3.018E-01  1.716E+00 3.7649058E+00 2.5859200E-01 -2.6508731E-01
  1.000E+01  3.572E-01  1.766E+00 3.7624030E+00 2.3806026E-01 -2.8367421E-01
  9.957E+00  3.383E-01  1.750E+00 3.7653697E+00 2.4505718E-01 -2.7764929E-01
  1.000E+01  3.962E-01  1.797E+00 3.7551451E+00 2.2362147E-01 -2.9518623E-01
  9.957E+00  3.765E-01  1.782E+00 3.7480745E+00 2.3091255E-01 -2.8952005E-01
  1.000E+01  4.367E-01  1.826E+00 3.7333395E+00 2.0863277E-01 -3.0597087E-01
  9.957E+00  4.163E-01  1.812E+00 3.7589283E+00 2.1619151E-01 -3.0066868E-01
  1.000E+01  4.786E-01  1.853E+00 3.7380651E+00 1.9312012E-01 -3.1599366E-01
  9.957E+00  4.575E-01  1.840E+00 3.7263336E+00 2.0094228E-01 -3.1108150E-01
  1.000E+01  5.217E-01  1.878E+00 3.7115503E+00 1.7711197E-01 -3.2520784E-01
  9.957E+00  5.000E-01  1.866E+00 3.7284558E+00 1.8516924E-01 -3.2069763E-01
  1.000E+01  5.661E-01  1.901E+00 3.6942178E+00 1.6072548E-01 -3.3367244E-01
  9.957E+00  5.438E-01  1.890E+00 3.6930401E+00 1.6896381E-01 -3.2953186E-01
  1.000E+01  6.116E-01  1.921E+00 3.6869688E+00 1.4387528E-01 -3.4127463E-01
  9.957E+00  5.887E-01  1.912E+00 3.6973387E+00 1.5236885E-01 -3.3759571E-01
  1.000E+01  6.580E-01  1.940E+00 3.6521100E+00 1.2655546E-01 -3.4790890E-01
  9.957E+00  6.347E-01  1.931E+00 3.6710409E+00 1.3525315E-01 -3.4469927E-01
  1.000E+01  7.052E-01  1.956E+00 3.6416965E+00 1.0911763E-01 -3.5382007E-01
  9.957E+00  6.815E-01  1.948E+00 3.6418099E+00 1.1783870E-01 -3.5094458E-01
  1.000E+01  7.532E-01  1.969E+00 3.6354914E+00 9.1534472E-02 -3.5896929E-01
  9.957E+00  7.292E-01  1.963E+00 3.6398178E+00 1.0036314E-01 -3.5650612E-01
  1.000E+01  8.019E-01  1.980E+00 3.6190113E+00 7.3550882E-02 -3.6310316E-01
  9.957E+00  7.775E-01  1.975E+00 3.6284027E+00 8.2599392E-02 -3.6117216E-01
  1.000E+01  8.510E-01  1.989E+00 3.6009916E+00 5.5226138E-02 -3.6621103E-01
  9.957E+00  8.264E-01  1.985E+00 3.6099588E+00 6.4414548E-02 -3.6477371E-01
  1.000E+01  9.004E-01  1.995E+00 3.5889839E+00 3.6801916E-02 -3.6843408E-01
  9.957E+00  8.757E-01  1.992E+00 3.5941941E+00 4.6014474E-02 -3.6742582E-01
  1.000E+01  9.502E-01  1.999E+00 3.5835663E+00 1.8397185E-02 -3.6981202E-01
  9.957E+00  9.253E-01  1.997E+00 3.5853180E+00 2.7596156E-02 -3.6923136E-01
  1.000E+01  1.000E+00  2.000E+00 3.5822019E+00 9.1274165E-06 -3.7028400E-01
  9.957E+00  9.751E-01  2.000E+00 3.5819706E+00 9.2021735E-03 -3.7016328E-01
  1.000E+01  1.050E+00  1.999E+00 3.5835663E+00 -1.8378949E-02 -3.6981295E-01
  9.957E+00  1.025E+00  2.000E+00 3.5819706E+00 -9.1840204E-03 -3.7016374E-01
  1.000E+01  1.100E+00  1.995E+00 3.5889840E+00 -3.6783738E-02 -3.6843594E-01
  9.957E+00  1.075E+00  1.997E+00 3.5853181E+00 -2.7578045E-02 -3.6923275E-01
  1.000E+01  1.149E+00  1.989E+00 3.6009917E+00 -5.5208063E-02 -3.6621381E-01
  9.957E+00  1.124E+00  1.992E+00 3.5941942E+00 -4.5996445E-02 -3.6742812E-01
  1.000E+01  1.198E+00  1.980E+00 3.6190114E+00 -7.3532951E-02 -3.6310686E-01
  9.957E+00  1.174E+00  1.985E+00 3.6099590E+00 -6.4396640E-02 -3.6477693E-01