# TIME = 3.000000
VARIABLES = X, Y, Z, FX, FY, FZ
ZONE N=29232 E=58212 F=FEPOINT ET=TRIANGLE
  0.000E+00  9.502E-01  1.243E-03 3.2528254E+00 2.7758490E-02 5.5828986E-01
  0.000E+00  1.000E+00  0.000E+00 3.2513865E+00 4.9820905E-08 5.5900193E-01
  4.318E-02  9.751E-01  3.108E-04 3.2512143E+00 1.3017155E-02 5.2416026E-01
  0.000E+00  1.050E+00  1.243E-03 3.2528246E+00 -2.7758390E-02 5.5828986E-01
  4.318E-02  1.025E+00  3.108E-04 3.2512139E+00 -1.3017206E-02 5.2416027E-01
  0.000E+00  1.100E+00  4.969E-03 3.2583475E+00 -5.5542510E-02 5.5621034E-01
  4.318E-02  1.075E+00  2.796E-03 3.2546625E+00 -3.9062706E-02 5.2284125E-01
  0.000E+00  1.149E+00  1.117E-02 3.2702430E+00 -8.3356328E-02 5.5285587E-01
  4.318E-02  1.124E+00  7.761E-03 3.2635357E+00 -6.5142835E-02 5.2028559E-01
  0.000E+00  1.198E+00  1.983E-02 3.2879213E+00 -1.1101915E-01 5.4816515E-01
  4.318E-02  1.174E+00  1.519E-02 3.2790139E+00 -9.1196751E-02 5.1653132E-01
  0.000E+00  1.247E+00  3.092E-02 3.3044764E+00 -1.3816656E-01 5.4192551E-01
  4.318E-02  1.223E+00  2.507E-02 3.2972088E+00 -1.1694521E-01 5.1143238E-01
  0.000E+00  1.295E+00  4.443E-02 3.3118823E+00 -1.6471036E-01 5.3415405E-01
  4.318E-02  1.271E+00  3.738E-02 3.3092376E+00 -1.4209759E-01 5.0482619E-01
  0.000E+00  1.342E+00  6.031E-02 3.3233226E+00 -1.9103439E-01 5.2523134E-01
  4.318E-02  1.318E+00  5.207E-02 3.3129326E+00 -1.6684257E-01 4.9695263E-01
  0.000E+00  1.388E+00  7.852E-02 3.3569958E+00 -2.1718031E-01 5.1521775E-01
  4.318E-02  1.365E+00  6.913E-02 3.3416086E+00 -1.9150100E-01 4.8811070E-01
  0.000E+00  1.434E+00  9.903E-02 3.3654808E+00 -2.4261754E-01 5.0374319E-01
  4.318E-02  1.411E+00  8.849E-02 3.3674113E+00 -2.1573689E-01 4.7805417E-01
  0.000E+00  1.478E+00  1.218E-01 3.3833553E+00 -2.6735489E-01 4.9096692E-01
  4.318E-02  1.456E+00  1.101E-01 3.3653836E+00 -2.3923578E-01 4.6663809E-01
  0.000E+00  1.521E+00  1.467E-01 3.4090523E+00 -2.9152083E-01 4.7705863E-01
  4.318E-02  1.500E+00  1.340E-01 3.3993952E+00 -2.6218215E-01 4.5413072E-01
  0.000E+00  1.563E+00  1.738E-01 3.4061584E+00 -3.1493988E-01 4.6193074E-01
  4.318E-02  1.543E+00  1.600E-01 3.3990643E+00 -2.8451659E-01 4.4051606E-01
  0.000E+00  1.604E+00  2.029E-01 3.4271511E+00 -3.3756874E-01 4.4565312E-01
  4.318E-02  1.584E+00  1.881E-01 3.4302058E+00 -3.0611062E-01 4.2577453E-01
  0.000E+00  1.643E+00  2.340E-01 3.4347679E+00 -3.5936705E-01 4.2827708E-01
  4.318E-02  1.623E+00  2.182E-01 3.4211417E+00 -3.2695674E-01 4.0999049E-01
  0.000E+00  1.680E+00  2.669E-01 3.4362234E+00 -3.8026657E-01 4.0983062E-01
  4.318E-02  1.662E+00  2.502E-01 3.4375835E+00 -3.4698647E-01 3.9318395E-01
  0.000E+00  1.716E+00  3.018E-01 3.4375224E+00 -4.0022262E-01 3.9036610E-01
  4.318E-02  1.698E+00  2.841E-01 3.4375318E+00 -3.6615347E-01 3.7539875E-01
  0.000E+00  1.750E+00  3.383E-01 3.4375737E+00 -4.1918385E-01 3.6993162E-01
  4.318E-02  1.733E+00  3.198E-01 3.4362324E+00 -3.8441057E-01 3.5668039E-01
  0.000E+00  1.782E+00  3.765E-01 3.4211315E+00 -4.3710185E-01 3.4857746E-01
  4.318E-02  1.766E+00  3.572E-01 3.4347765E+00 -4.0171287E-01 3.3707714E-01
  0.000E+00  1.812E+00  4.163E-01 3.4301954E+00 -4.5392981E-01 3.2635300E-01
  4.318E-02  1.797E+00  3.962E-01 3.4271593E+00 -4.1801121E-01 3.1663092E-01
  0.000E+00  1.840E+00  4.575E-01 3.3990535E+00 -4.6964608E-01 3.0333100E-01
  4.318E-02  1.826E+00  4.367E-01 3.4061662E+00 -4.3327933E-01 2.9540581E-01
  0.000E+00  1.866E+00  5.000E-01 3.3993839E+00 -4.8416071E-01 2.7951944E-01
  4.318E-02  1.853E+00  4.786E-01 3.4090597E+00 -4.4746864E-01 2.7343938E-01
  0.000E+00  1.890E+00  5.438E-01 3.3653718E+00 -4.9749523E-01 2.5505562E-01
  4.318E-02  1.878E+00  5.217E-01 3.3833623E+00 -4.6051419E-01 2.5077229E-01
  0.000E+00  1.912E+00  5.887E-01 3.3673993E+00 -5.0966642E-01 2.3000310E-01
  4.318E-02  1.901E+00  5.661E-01 3.3654875E+00 -4.7249805E-01 2.2756916E-01
  0.000E+00  1.931E+00  6.347E-01 3.3415965E+00 -5.2038818E-01 2.0416479E-01
  4.318E-02  1.921E+00  6.116E-01 3.3570019E+00 -4.8326096E-01 2.0370971E-01
  0.000E+00  1.948E+00  6.815E-01 3.3129200E+00 -5.2981491E-01 1.7787582E-01
  4.318E-02  1.940E+00  6.580E-01 3.3233280E+00 -4.9265367E-01 1.7918564E-01
  0.000E+00  1.963E+00  7.292E-01 3.3092246E+00 -5.3820891E-01 1.5149444E-01
  4.318E-02  1.956E+00  7.052E-01 3.3118869E+00 -5.0102278E-01 1.5449442E-01
  0.000E+00  1.975E+00  7.775E-01 3.2971953E+00 -5.4525182E-01 1.2467867E-01
  4.318E-02  1.969E+00  7.532E-01 3.3044804E+00 -5.0831192E-01 1.2959691E-01
  0.000E+00  1.985E+00  8.264E-01 3.2789999E+00 -5.5068798E-01 9.7227421E-02
  4.318E-02  1.980E+00  8.019E-01 3.2879251E+00 -5.1416448E-01 1.0413316E-01
  0.000E+00  1.992E+00  8.757E-01 3.2635213E+00 -5.5469063E-01 6.9450582E-02
  4.318E-02  1.989E+00  8.510E-01 3.2702467E+00 -5.1856436E-01 7.8186040E-02
  0.000E+00  1.997E+00  9.253E-01 3.2546479E+00 -5.5741539E-01 4.1645851E-02
  4.318E-02  1.995E+00  9.004E-01 3.2583510E+00 -5.2171087E-01 5.2097405E-02
  0.000E+00  2.000E+00  9.751E-01 3.2511990E+00 -5.5882169E-01 1.3878073E-02
  4.318E-02  1.999E+00  9.502E-01 3.2528279E+00 -5.2366148E-01 2.6036718E-02
  0.000E+00  2.000E+00  1.025E+00 3.2511990E+00 -5.5882167E-01 -1.3877819E-02
  4.318E-02  2.000E+00  1.000E+00 3.2513894E+00 -5.2432940E-01 1.7052092E-07
  0.000E+00  1.997E+00  1.075E+00 3.2546480E+00 -5.5741533E-01 -4.1645594E-02
  4.318E-02  1.999E+00  1.050E+00 3.2528280E+00 -5.2366147E-01 -2.6036377E-02
  0.000E+00  1.992E+00  1.124E+00 3.2635215E+00 -5.5469056E-01 -6.9450314E-02
  4.318E-02  1.995E+00  1.100E+00 3.2583511E+00 -5.2171085E-01 -5.2097068E-02
  0.000E+00  1.985E+00  1.174E+00 3.2790001E+00 -5.5068797E-01 -9.7227136E-02
  4.318E-02  1.989E+00  1.149E+00 3.2702470E+00 -5.1856436E-01 -7.8185715E-02
  0.000E+00  1.975E+00  1.223E+00 3.2971956E+00 -5.4525193E-01 -1.2467838E-01
  4.318E-02  1.980E+00  1.198E+00 3.2879254E+00 -5.1416458E-01 -1.0413285E-01
  0.000E+00  1.963E+00  1.271E+00 3.3092250E+00 -5.3820896E-01 -1.5149416E-01
  4.318E-02  1.969E+00  1.247E+00 3.3044808E+00 -5.0831206E-01 -1.2959659E-01
  0.000E+00  1.948E+00  1.318E+00 3.3129205E+00 -5.2981476E-01 -1.7787555E-01
  4.318E-02  1.956E+00  1.295E+00 3.3118873E+00 -5.0102274E-01 -1.5449410E-01
  0.000E+00  1.931E+00  1.365E+00 3.3415970E+00 -5.2038828E-01 -2.0416452E-01
  4.318E-02  1.940E+00  1.342E+00 3.3233285E+00 -4.9265363E-01 -1.7918532E-01
  0.000E+00  1.912E+00  1.411E+00 3.3673999E+00 -5.0966658E-01 -2.3000283E-01
  4.318E-02  1.921E+00  1.388E+00 3.3570025E+00 -4.8326118E-01 -2.0370940E-01
  0.000E+00  1.890E+00  1.456E+00 3.3653725E+00 -4.9749513E-01 -2.5505534E-01
  4.318E-02  1.901E+00  1.434E+00 3.3654881E+00 -4.7249807E-01 -2.2756885E-01
  0.000E+00  1.866E+00  1.500E+00 3.3993846E+00 -4.8416086E-01 -2.7951918E-01
  4.318E-02  1.878E+00  1.478E+00 3.3833630E+00 -4.6051423E-01 -2.5077198E-01
  0.000E+00  1.840E+00  1.543E+00 3.3990543E+00 -4.6964614E-01 -3.0333073E-01
  4.318E-02  1.853E+00  1.521E+00 3.4090604E+00 -4.4746883E-01 -2.7343907E-01
  0.000E+00  1.812E+00  1.584E+00 3.4301962E+00 -4.5392988E-01 -3.2635273E-01
  4.318E-02  1.826E+00  1.563E+00 3.4061670E+00 -4.3327938E-01 -2.9540550E-01
  0.000E+00  1.782E+00  1.623E+00 3.4211324E+00 -4.3710195E-01 -3.4857720E-01
  4.318E-02  1.797E+00  1.604E+00 3.4271602E+00 -4.1801137E-01 -3.1663061E-01
  0.000E+00  1.750E+00  1.662E+00 3.4375747E+00 -4.1918395E-01 -3.6993136E-01
  4.318E-02  1.766E+00  1.643E+00 3.4347775E+00 -4.0171296E-01 -3.3707684E-01
  0.000E+00  1.716E+00  1.698E+00 3.4375234E+00 -4.0022276E-01 -3.9036585E-01
  4.318E-02  1.733E+00  1.680E+00 3.4362334E+00 -3.8441069E-01 -3.5668009E-01
  0.000E+00  1.680E+00  1.733E+00 3.4362245E+00 -3.8026669E-01 -4.0983037E-01
  4.318E-02  1.698E+00  1.716E+00 3.4375328E+00 -3.6615356E-01 -3.7539844E-01
  0.000E+00  1.643E+00  1.766E+00 3.4347690E+00 -3.5936708E-01 -4.2827681E-01
  4.318E-02  1.662E+00  1.750E+00 3.4375846E+00 -3.4698660E-01 -3.9318365E-01
  0.000E+00  1.604E+00  1.797E+00 3.4271521E+00 -3.3756869E-01 -4.4565282E-01
  4.318E-02  1.623E+00  1.782E+00 3.4211428E+00 -3.2695693E-01 -4.0999023E-01
  0.000E+00  1.563E+00  1.826E+00 3.4061594E+00 -3.1493992E-01 -4.6193046E-01
  4.318E-02  1.584E+00  1.812E+00 3.4302070E+00 -3.0611082E-01 -4.2577428E-01
  0.000E+00  1.521E+00  1.853E+00 3.4090536E+00 -2.9152116E-01 -4.7705843E-01
  4.318E-02  1.543E+00  1.840E+00 3.3990655E+00 -2.8451667E-01 -4.4051577E-01
  0.000E+00  1.478E+00  1.878E+00 3.3833568E+00 -2.6735532E-01 -4.9096677E-01
  4.318E-02  1.500E+00  1.866E+00 3.3993963E+00 -2.6218209E-01 -4.5413038E-01
  0.000E+00  1.434E+00  1.901E+00 3.3654825E+00 -2.4261773E-01 -5.0374300E-01
  4.318E-02  1.456E+00  1.890E+00 3.3653845E+00 -2.3923574E-01 -4.6663775E-01
  0.000E+00  1.388E+00  1.921E+00 3.3569972E+00 -2.1718013E-01 -5.1521747E-01
  4.318E-02  1.411E+00  1.912E+00 3.3674123E+00 -2.1573705E-01 -4.7805391E-01
  0.000E+00  1.342E+00  1.940E+00 3.3233235E+00 -1.9103413E-01 -5.2523100E-01
  4.318E-02  1.365E+00  1.931E+00 3.3416100E+00 -1.9150129E-01 -4.8811050E-01
  0.000E+00  1.295E+00  1.956E+00 3.3118829E+00 -1.6471028E-01 -5.3415372E-01
  4.318E-02  1.318E+00  1.948E+00 3.3129343E+00 -1.6684282E-01 -4.9695244E-01
  0.000E+00  1.247E+00  1.969E+00 3.3044772E+00 -1.3816658E-01 -5.4192518E-01
  4.318E-02  1.271E+00  1.963E+00 3.3092393E+00 -1.4209778E-01 -5.0482598E-01
  0.000E+00  1.198E+00  1.980E+00 3.2879226E+00 -1.1101908E-01 -5.4816479E-01
  4.318E-02  1.223E+00  1.975E+00 3.2972103E+00 -1.1694542E-01 -5.1143219E-01
  0.000E+00  1.149E+00  1.989E+00 3.2702447E+00 -8.3356142E-02 -5.5285547E-01
  4.318E-02  1.174E+00  1.985E+00 3.2790151E+00 -9.1197019E-02 -5.1653115E-01
  0.000E+00  1.100E+00  1.995E+00 3.2583492E+00 -5.5542311E-02 -5.5620993E-01
  4.318E-02  1.124E+00  1.992E+00 3.2635368E+00 -6.5143119E-02 -5.2028546E-01
  0.000E+00  1.050E+00  1.999E+00 3.2528264E+00 -2.7758296E-02 -5.5828946E-01
  4.318E-02  1.075E+00  1.997E+00 3.2546636E+00 -3.9062935E-02 -5.2284112E-01
  0.000E+00  1.000E+00  2.000E+00 3.2513882E+00 -2.0526674E-08 -5.5900153E-01
  4.318E-02  1.025E+00  2.000E+00 3.2512150E+00 -1.3017334E-02 -5.2416015E-01
  0.000E+00  9.502E-01  1.999E+00 3.2528272E+00 2.7758255E-02 -5.5828946E-01
  4.318E-02  9.751E-01  2.000E+00 3.2512154E+00 1.3017142E-02 -5.2416015E-01
  0.000E+00  9.004E-01  1.995E+00 3.2583508E+00 5.5542270E-02 -5.5620994E-01
  4.318E-02  9.253E-01  1.997E+00 3.2546648E+00 3.9062743E-02 -5.2284113E-01
  0.000E+00  8.510E-01  1.989E+00 3.2702470E+00 8.3356102E-02 -5.5285548E-01
  4.318E-02  8.757E-01  1.992E+00 3.2635387E+00 6.5142928E-02 -5.2028547E-01
  0.000E+00  8.019E-01  1.980E+00 3.2879257E+00 1.1101904E-01 -5.4816480E-01
  4.318E-02  8.264E-01  1.985E+00 3.2790178E+00 9.1196827E-02 -5.1653116E-01
  0.000E+00  7.532E-01  1.969E+00 3.3044811E+00 1.3816654E-01 -5.4192520E-01
  4.318E-02  7.775E-01  1.975E+00 3.2972138E+00 1.1694522E-01 -5.1143220E-01
  0.000E+00  7.052E-01  1.956E+00 3.3118875E+00 1.6471024E-01 -5.3415374E-01
  4.318E-02  7.292E-01  1.963E+00 3.3092435E+00 1.4209759E-01 -5.0482599E-01
  0.000E+00  6.580E-01  1.940E+00 3.3233288E+00 1.9103410E-01 -5.2523103E-01
  4.318E-02  6.815E-01  1.948E+00 3.3129392E+00 1.6684263E-01 -4.9695246E-01
  0.000E+00  6.116E-01  1.921E+00 3.3570032E+00 2.1718010E-01 -5.1521749E-01
  4.318E-02  6.347E-01  1.931E+00 3.3416156E+00 1.9150110E-01 -4.8811052E-01
  0.000E+00  5.661E-01  1.901E+00 3.3654891E+00 2.4261770E-01 -5.0374302E-01
  4.318E-02  5.887E-01  1.912E+00 3.3674186E+00 2.1573686E-01 -4.7805393E-01
  0.000E+00  5.217E-01  1.878E+00 3.3833641E+00 2.6735529E-01 -4.9096680E-01
  4.318E-02  5.438E-01  1.890E+00 3.3653915E+00 2.3923556E-01 -4.6663778E-01
  0.000E+00  4.786E-01  1.853E+00 3.4090615E+00 2.9152112E-01 -4.7705846E-01
  4.318E-02  5.000E-01  1.866E+00 3.3994040E+00 2.6218190E-01 -4.5413041E-01
  0.000E+00  4.367E-01  1.826E+00 3.4061680E+00 3.1493989E-01 -4.6193049E-01
  4.318E-02  4.575E-01  1.840E+00 3.3990738E+00 2.8451649E-01 -4.4051580E-01
  0.000E+00  3.962E-01  1.797E+00 3.4271612E+00 3.3756866E-01 -4.4565285E-01
  4.318E-02  4.163E-01  1.812E+00 3.4302158E+00 3.0611063E-01 -4.2577431E-01
  0.000E+00  3.572E-01  1.766E+00 3.4347787E+00 3.5936705E-01 -4.2827684E-01
  4.318E-02  3.765E-01  1.782E+00 3.4211521E+00 3.2695675E-01 -4.0999027E-01
  0.000E+00  3.198E-01  1.733E+00 3.4362346E+00 3.8026666E-01 -4.0983041E-01
  4.318E-02  3.383E-01  1.750E+00 3.4375945E+00 3.4698641E-01 -3.9318370E-01
  0.000E+00  2.841E-01  1.698E+00 3.4375340E+00 4.0022272E-01 -3.9036589E-01
  4.318E-02  3.018E-01  1.716E+00 3.4375432E+00 3.6615339E-01 -3.7539849E-01
  0.000E+00  2.502E-01  1.662E+00 3.4375857E+00 4.1918394E-01 -3.6993141E-01
  4.318E-02  2.669E-01  1.680E+00 3.4362442E+00 3.8441050E-01 -3.5668013E-01
  0.000E+00  2.182E-01  1.623E+00 3.4211439E+00 4.3710191E-01 -3.4857724E-01
  4.318E-02  2.340E-01  1.643E+00 3.4347888E+00 4.0171281E-01 -3.3707689E-01
  0.000E+00  1.881E-01  1.584E+00 3.4302081E+00 4.5392987E-01 -3.2635278E-01
  4.318E-02  2.029E-01  1.604E+00 3.4271719E+00 4.1801116E-01 -3.1663066E-01
  0.000E+00  1.600E-01  1.543E+00 3.3990665E+00 4.6964614E-01 -3.0333078E-01
  4.318E-02  1.738E-01  1.563E+00 3.4061791E+00 4.3327928E-01 -2.9540555E-01
  0.000E+00  1.340E-01  1.500E+00 3.3993972E+00 4.8416077E-01 -2.7951923E-01
  4.318E-02  1.467E-01  1.521E+00 3.4090728E+00 4.4746858E-01 -2.7343913E-01
  0.000E+00  1.101E-01  1.456E+00 3.3653853E+00 4.9749529E-01 -2.5505540E-01
  4.318E-02  1.218E-01  1.478E+00 3.3833757E+00 4.6051413E-01 -2.5077203E-01
  0.000E+00  8.849E-02  1.411E+00 3.3674130E+00 5.0966647E-01 -2.3000288E-01
  4.318E-02  9.903E-02  1.434E+00 3.3655011E+00 4.7249798E-01 -2.2756891E-01
  0.000E+00  6.913E-02  1.365E+00 3.3416103E+00 5.2038823E-01 -2.0416457E-01
  4.318E-02  7.852E-02  1.388E+00 3.3570157E+00 4.8326089E-01 -2.0370946E-01
  0.000E+00  5.207E-02  1.318E+00 3.3129341E+00 5.2981495E-01 -1.7787561E-01
  4.318E-02  6.031E-02  1.342E+00 3.3233419E+00 4.9265360E-01 -1.7918538E-01
  0.000E+00  3.738E-02  1.271E+00 3.3092387E+00 5.3820895E-01 -1.5149422E-01
  4.318E-02  4.443E-02  1.295E+00 3.3119009E+00 5.0102270E-01 -1.5449416E-01
  0.000E+00  2.507E-02  1.223E+00 3.2972095E+00 5.4525185E-01 -1.2467844E-01
  4.318E-02  3.092E-02  1.247E+00 3.3044945E+00 5.0831184E-01 -1.2959666E-01
  0.000E+00  1.519E-02  1.174E+00 3.2790141E+00 5.5068800E-01 -9.7227198E-02
  4.318E-02  1.983E-02  1.198E+00 3.2879393E+00 5.1416440E-01 -1.0413291E-01
  0.000E+00  7.761E-03  1.124E+00 3.2635356E+00 5.5469064E-01 -6.9450378E-02
  4.318E-02  1.117E-02  1.149E+00 3.2702610E+00 5.1856428E-01 -7.8185781E-02
  0.000E+00  2.796E-03  1.075E+00 3.2546621E+00 5.5741540E-01 -4.1645660E-02
  4.318E-02  4.969E-03  1.100E+00 3.2583652E+00 5.2171078E-01 -5.2097135E-02
  0.000E+00  3.108E-04  1.025E+00 3.2512132E+00 5.5882171E-01 -1.3877887E-02
  4.318E-02  1.243E-03  1.050E+00 3.2528421E+00 5.2366138E-01 -2.6036444E-02
  0.000E+00  3.108E-04  9.751E-01 3.2512131E+00 5.5882171E-01 1.3878004E-02
  4.318E-02  0.000E+00  1.000E+00 3.2514036E+00 5.2432928E-01 1.0252974E-07
  0.000E+00  2.796E-03  9.253E-01 3.2546620E+00 5.5741537E-01 4.1645781E-02
  4.318E-02  1.243E-03  9.502E-01 3.2528420E+00 5.2366133E-01 2.6036650E-02
  0.000E+00  7.761E-03  8.757E-01 3.2635354E+00 5.5469060E-01 6.9450512E-02
  4.318E-02  4.969E-03  9.004E-01 3.2583651E+00 5.2171070E-01 5.2097337E-02
  0.000E+00  1.519E-02  8.264E-01 3.2790138E+00 5.5068801E-01 9.7227349E-02
  4.318E-02  1.117E-02  8.510E-01 3.2702608E+00 5.1856420E-01 7.8185972E-02
  0.000E+00  2.507E-02  7.775E-01 3.2972091E+00 5.4525195E-01 1.2467860E-01
  4.318E-02  1.983E-02  8.019E-01 3.2879390E+00 5.1416442E-01 1.0413309E-01
  0.000E+00  3.738E-02  7.292E-01 3.3092383E+00 5.3820897E-01 1.5149437E-01
  4.318E-02  3.092E-02  7.532E-01 3.3044942E+00 5.0831190E-01 1.2959684E-01
  0.000E+00  5.207E-02  6.815E-01 3.3129336E+00 5.2981477E-01 1.7787575E-01
  4.318E-02  4.443E-02  7.052E-01 3.3119005E+00 5.0102258E-01 1.5449435E-01
  0.000E+00  6.913E-02  6.347E-01 3.3416098E+00 5.2038828E-01 2.0416471E-01
  4.318E-02  6.031E-02  6.580E-01 3.3233414E+00 4.9265346E-01 1.7918558E-01
  0.000E+00  8.849E-02  5.887E-01 3.3674124E+00 5.0966658E-01 2.3000302E-01
  4.318E-02  7.852E-02  6.116E-01 3.3570152E+00 4.8326101E-01 2.0370965E-01
  0.000E+00  1.101E-01  5.438E-01 3.3653846E+00 4.9749512E-01 2.5505554E-01
  4.318E-02  9.903E-02  5.661E-01 3.3655005E+00 4.7249789E-01 2.2756910E-01
  0.000E+00  1.340E-01  5.000E-01 3.3993964E+00 4.8416085E-01 2.7951938E-01
  4.318E-02  1.218E-01  5.217E-01 3.3833750E+00 4.6051405E-01 2.5077223E-01
  0.000E+00  1.600E-01  4.575E-01 3.3990657E+00 4.6964613E-01 3.0333093E-01
  4.318E-02  1.467E-01  4.786E-01 3.4090721E+00 4.4746865E-01 2.7343932E-01
  0.000E+00  1.881E-01  4.163E-01 3.4302073E+00 4.5392988E-01 3.2635293E-01
  4.318E-02  1.738E-01  4.367E-01 3.4061783E+00 4.3327919E-01 2.9540574E-01
  0.000E+00  2.182E-01  3.765E-01 3.4211430E+00 4.3710194E-01 3.4857739E-01
  4.318E-02  2.029E-01  3.962E-01 3.4271710E+00 4.1801118E-01 3.1663086E-01
  0.000E+00  2.502E-01  3.383E-01 3.4375848E+00 4.1918392E-01 3.6993155E-01
  4.318E-02  2.340E-01  3.572E-01 3.4347878E+00 4.0171278E-01 3.3707708E-01
  0.000E+00  2.841E-01  3.018E-01 3.4375330E+00 4.0022271E-01 3.9036603E-01
  4.318E-02  2.669E-01  3.198E-01 3.4362433E+00 3.8441053E-01 3.5668034E-01
  0.000E+00  3.198E-01  2.669E-01 3.4362336E+00 3.8026665E-01 4.0983056E-01
  4.318E-02  3.018E-01  2.841E-01 3.4375422E+00 3.6615340E-01 3.7539869E-01
  0.000E+00  3.572E-01  2.340E-01 3.4347776E+00 3.5936714E-01 4.2827702E-01
  4.318E-02  3.383E-01  2.502E-01 3.4375934E+00 3.4698641E-01 3.9318389E-01
  0.000E+00  3.962E-01  2.029E-01 3.4271602E+00 3.3756882E-01 4.4565306E-01
  4.318E-02  3.765E-01  2.182E-01 3.4211510E+00 3.2695667E-01 4.0999044E-01
  0.000E+00  4.367E-01  1.738E-01 3.4061669E+00 3.1493996E-01 4.6193069E-01
  4.318E-02  4.163E-01  1.881E-01 3.4302146E+00 3.0611056E-01 4.2577448E-01
  0.000E+00  4.786E-01  1.467E-01 3.4090603E+00 2.9152092E-01 4.7705858E-01
  4.318E-02  4.575E-01  1.600E-01 3.3990725E+00 2.8451652E-01 4.4051602E-01
  0.000E+00  5.217E-01  1.218E-01 3.3833626E+00 2.6735498E-01 4.9096687E-01
  4.318E-02  5.000E-01  1.340E-01 3.3994029E+00 2.6218210E-01 4.5413068E-01
  0.000E+00  5.661E-01  9.903E-02 3.3654875E+00 2.4261763E-01 5.0374313E-01
  4.318E-02  5.438E-01  1.101E-01 3.3653906E+00 2.3923572E-01 4.6663805E-01
  0.000E+00  6.116E-01  7.852E-02 3.3570018E+00 2.1718041E-01 5.1521770E-01
  4.318E-02  5.887E-01  8.849E-02 3.3674176E+00 2.1573684E-01 4.7805414E-01
  0.000E+00  6.580E-01  6.031E-02 3.3233278E+00 1.9103448E-01 5.2523130E-01
  4.318E-02  6.347E-01  6.913E-02 3.3416142E+00 1.9150095E-01 4.8811068E-01
  0.000E+00  7.052E-01  4.443E-02 3.3118868E+00 1.6471046E-01 5.3415402E-01
  4.318E-02  6.815E-01  5.207E-02 3.3129375E+00 1.6684252E-01 4.9695261E-01
  0.000E+00  7.532E-01  3.092E-02 3.3044802E+00 1.3816666E-01 5.4192549E-01
  4.318E-02  7.292E-01  3.738E-02 3.3092418E+00 1.4209754E-01 5.0482617E-01
  0.000E+00  8.019E-01  1.983E-02 3.2879244E+00 1.1101925E-01 5.4816512E-01
  4.318E-02  7.775E-01  2.507E-02 3.2972123E+00 1.1694516E-01 5.1143237E-01
  0.000E+00  8.510E-01  1.117E-02 3.2702454E+00 8.3356427E-02 5.5285585E-01
  4.318E-02  8.264E-01  1.519E-02 3.2790166E+00 9.1196700E-02 5.1653130E-01
  0.000E+00  9.004E-01  4.969E-03 3.2583490E+00 5.5542609E-02 5.5621033E-01
  4.318E-02  8.757E-01  7.761E-03 3.2635377E+00 6.5142783E-02 5.2028558E-01
  4.318E-02  9.253E-01  2.796E-03 3.2546637E+00 3.9062655E-02 5.2284124E-01
  1.000E+01  1.050E+00  1.243E-03 3.2528246E+00 -2.7758390E-02 5.5828986E-01
  1.000E+01  1.000E+00  5.551E-16 3.2513865E+00 4.9820905E-08 5.5900193E-01
  9.957E+00  1.025E+00  3.108E-04 3.2512116E+00 -1.4739611E-02 5.9352638E-01
  1.000E+01  9.502E-01  1.243E-03 3.2528254E+00 2.7758490E-02 5.5828986E-01
  9.957E+00  9.751E-01  3.108E-04 3.2512120E+00 1.4739861E-02 5.9352638E-01
  1.000E+01  9.004E-01  4.969E-03 3.2583490E+00 5.5542609E-02 5.5621033E-01
  9.957E+00  9.253E-01  2.796E-03 3.2546614E+00 4.4231985E-02 5.9203274E-01
  1.000E+01  8.510E-01  1.117E-02 3.2702454E+00 8.3356427E-02 5.5285585E-01
  9.957E+00  8.757E-01  7.761E-03 3.2635353E+00 7.3763439E-02 5.8913880E-01
  1.000E+01  8.019E-01  1.983E-02 3.2879244E+00 1.1101925E-01 5.4816512E-01
  9.957E+00  8.264E-01  1.519E-02 3.2790142E+00 1.0326539E-01 5.8488767E-01
  1.000E+01  7.532E-01  3.092E-02 3.3044802E+00 1.3816666E-01 5.4192549E-01
  9.957E+00  7.775E-01  2.507E-02 3.2972100E+00 1.3242165E-01 5.7911406E-01
  1.000E+01  7.052E-01  4.443E-02 3.3118868E+00 1.6471046E-01 5.3415402E-01
  9.957E+00  7.292E-01  3.738E-02 3.3092395E+00 1.6090292E-01 5.7163376E-01
  1.000E+01  6.580E-01  6.031E-02 3.3233278E+00 1.9103448E-01 5.2523130E-01
  9.957E+00  6.815E-01  5.207E-02 3.3129353E+00 1.8892261E-01 5.6271820E-01
  1.000E+01  6.116E-01  7.852E-02 3.3570018E+00 2.1718041E-01 5.1521770E-01
  9.957E+00  6.347E-01  6.913E-02 3.3416119E+00 2.1684400E-01 5.5270589E-01
  1.000E+01  5.661E-01  9.903E-02 3.3654875E+00 2.4261763E-01 5.0374313E-01
  9.957E+00  5.887E-01  8.849E-02 3.3674151E+00 2.4428691E-01 5.4131830E-01
  1.000E+01  5.217E-01  1.218E-01 3.3833626E+00 2.6735498E-01 4.9096687E-01
  9.957E+00  5.438E-01  1.101E-01 3.3653881E+00 2.7089544E-01 5.2839138E-01
  1.000E+01  4.786E-01  1.467E-01 3.4090603E+00 2.9152092E-01 4.7705858E-01
  9.957E+00  5.000E-01  1.340E-01 3.3994005E+00 2.9687872E-01 5.1422901E-01
  1.000E+01  4.367E-01  1.738E-01 3.4061669E+00 3.1493996E-01 4.6193069E-01
  9.957E+00  4.575E-01  1.600E-01 3.3990702E+00 3.2216897E-01 4.9881286E-01
  1.000E+01  3.962E-01  2.029E-01 3.4271602E+00 3.3756882E-01 4.4565306E-01
  9.957E+00  4.163E-01  1.881E-01 3.4302123E+00 3.4662050E-01 4.8212039E-01
  1.000E+01  3.572E-01  2.340E-01 3.4347776E+00 3.5936714E-01 4.2827702E-01
  9.957E+00  3.765E-01  2.182E-01 3.4211487E+00 3.7022516E-01 4.6424742E-01
  1.000E+01  3.198E-01  2.669E-01 3.4362336E+00 3.8026665E-01 4.0983056E-01
  9.957E+00  3.383E-01  2.502E-01 3.4375910E+00 3.9290557E-01 4.4521672E-01
  1.000E+01  2.841E-01  3.018E-01 3.4375330E+00 4.0022271E-01 3.9036603E-01
  9.957E+00  3.018E-01  2.841E-01 3.4375398E+00 4.1460909E-01 4.2507796E-01
  1.000E+01  2.502E-01  3.383E-01 3.4375848E+00 4.1918392E-01 3.6993155E-01
  9.957E+00  2.669E-01  3.198E-01 3.4362409E+00 4.3528240E-01 4.0388251E-01
  1.000E+01  2.182E-01  3.765E-01 3.4211430E+00 4.3710194E-01 3.4857739E-01
  9.957E+00  2.340E-01  3.572E-01 3.4347855E+00 4.5487445E-01 3.8168502E-01
  1.000E+01  1.881E-01  4.163E-01 3.4302073E+00 4.5392988E-01 3.2635293E-01
  9.957E+00  2.029E-01  3.962E-01 3.4271686E+00 4.7332969E-01 3.5853296E-01
  1.000E+01  1.600E-01  4.575E-01 3.3990657E+00 4.6964613E-01 3.0333093E-01
  9.957E+00  1.738E-01  4.367E-01 3.4061759E+00 4.9061812E-01 3.3449871E-01
  1.000E+01  1.340E-01  5.000E-01 3.3993964E+00 4.8416085E-01 2.7951938E-01
  9.957E+00  1.467E-01  4.786E-01 3.4090697E+00 5.0668549E-01 3.0962534E-01
  1.000E+01  1.101E-01  5.438E-01 3.3653846E+00 4.9749512E-01 2.5505554E-01
  9.957E+00  1.218E-01  5.217E-01 3.3833726E+00 5.2145755E-01 2.8395873E-01
  1.000E+01  8.849E-02  5.887E-01 3.3674124E+00 5.0966658E-01 2.3000302E-01
  9.957E+00  9.903E-02  5.661E-01 3.3654982E+00 5.3502751E-01 2.5768513E-01
  1.000E+01  6.913E-02  6.347E-01 3.3416098E+00 5.2038828E-01 2.0416471E-01
  9.957E+00  7.852E-02  6.116E-01 3.3570128E+00 5.4721485E-01 2.3066788E-01
  1.000E+01  5.207E-02  6.815E-01 3.3129336E+00 5.2981477E-01 1.7787575E-01
  9.957E+00  6.031E-02  6.580E-01 3.3233390E+00 5.5785003E-01 2.0289799E-01
  1.000E+01  3.738E-02  7.292E-01 3.3092383E+00 5.3820897E-01 1.5149437E-01
  9.957E+00  4.443E-02  7.052E-01 3.3118981E+00 5.6732666E-01 1.7493918E-01
  1.000E+01  2.507E-02  7.775E-01 3.2972091E+00 5.4525195E-01 1.2467860E-01
  9.957E+00  3.092E-02  7.532E-01 3.3044918E+00 5.7558071E-01 1.4674705E-01
  1.000E+01  1.519E-02  8.264E-01 3.2790138E+00 5.5068801E-01 9.7227349E-02
  9.957E+00  1.983E-02  8.019E-01 3.2879367E+00 5.8220788E-01 1.1791381E-01
  1.000E+01  7.761E-03  8.757E-01 3.2635354E+00 5.5469060E-01 6.9450512E-02
  9.957E+00  1.117E-02  8.510E-01 3.2702584E+00 5.8719000E-01 8.8533116E-02
  1.000E+01  2.796E-03  9.253E-01 3.2546620E+00 5.5741537E-01 4.1645781E-02
  9.957E+00  4.969E-03  9.004E-01 3.2583628E+00 5.9075292E-01 5.8991998E-02
  1.000E+01  3.108E-04  9.751E-01 3.2512131E+00 5.5882171E-01 1.3878004E-02
  9.957E+00  1.243E-03  9.502E-01 3.2528397E+00 5.9296166E-01 2.9482393E-02
  1.000E+01  3.108E-04  1.025E+00 3.2512132E+00 5.5882171E-01 -1.3877887E-02
  9.957E+00  0.000E+00  1.000E+00 3.2514012E+00 5.9371798E-01 4.1683128E-08
  1.000E+01  2.796E-03  1.075E+00 3.2546621E+00 5.5741540E-01 -4.1645660E-02
  9.957E+00  1.243E-03  1.050E+00 3.2528398E+00 5.9296170E-01 -2.9482311E-02
  1.000E+01  7.761E-03  1.124E+00 3.2635356E+00 5.5469064E-01 -6.9450378E-02
  9.957E+00  4.969E-03  1.100E+00 3.2583629E+00 5.9075300E-01 -5.8991921E-02
  1.000E+01  1.519E-02  1.174E+00 3.2790141E+00 5.5068800E-01 -9.7227198E-02
  9.957E+00  1.117E-02  1.149E+00 3.2702587E+00 5.8719008E-01 -8.8533051E-02
  1.000E+01  2.507E-02  1.223E+00 3.2972095E+00 5.4525185E-01 -1.2467844E-01
  9.957E+00  1.983E-02  1.198E+00 3.2879369E+00 5.8220785E-01 -1.1791376E-01
  1.000E+01  3.738E-02  1.271E+00 3.3092387E+00 5.3820895E-01 -1.5149422E-01
  9.957E+00  3.092E-02  1.247E+00 3.3044922E+00 5.7558064E-01 -1.4674699E-01
  1.000E+01  5.207E-02  1.318E+00 3.3129341E+00 5.2981495E-01 -1.7787561E-01
  9.957E+00  4.443E-02  1.295E+00 3.3118985E+00 5.6732678E-01 -1.7493911E-01
  1.000E+01  6.913E-02  1.365E+00 3.3416103E+00 5.2038823E-01 -2.0416457E-01
  9.957E+00  6.031E-02  1.342E+00 3.3233395E+00 5.5785018E-01 -2.0289792E-01
  1.000E+01  8.849E-02  1.411E+00 3.3674130E+00 5.0966647E-01 -2.3000288E-01
  9.957E+00  7.852E-02  1.388E+00 3.3570134E+00 5.4721470E-01 -2.3066781E-01
  1.000E+01  1.101E-01  1.456E+00 3.3653853E+00 4.9749529E-01 -2.5505540E-01
  9.957E+00  9.903E-02  1.434E+00 3.3654988E+00 5.3502760E-01 -2.5768506E-01
  1.000E+01  1.340E-01  1.500E+00 3.3993972E+00 4.8416077E-01 -2.7951923E-01
  9.957E+00  1.218E-01  1.478E+00 3.3833733E+00 5.2145763E-01 -2.8395866E-01
  1.000E+01  1.600E-01  1.543E+00 3.3990665E+00 4.6964614E-01 -3.0333078E-01
  9.957E+00  1.467E-01  1.521E+00 3.4090704E+00 5.0668540E-01 -3.0962527E-01
  1.000E+01  1.881E-01  1.584E+00 3.4302081E+00 4.5392987E-01 -3.2635278E-01
  9.957E+00  1.738E-01  1.563E+00 3.4061767E+00 4.9061821E-01 -3.3449864E-01
  1.000E+01  2.182E-01  1.623E+00 3.4211439E+00 4.3710191E-01 -3.4857724E-01
  9.957E+00  2.029E-01  1.604E+00 3.4271695E+00 4.7332965E-01 -3.5853289E-01
  1.000E+01  2.502E-01  1.662E+00 3.4375857E+00 4.1918394E-01 -3.6993141E-01
  9.957E+00  2.340E-01  1.643E+00 3.4347864E+00 4.5487448E-01 -3.8168495E-01
  1.000E+01  2.841E-01  1.698E+00 3.4375340E+00 4.0022272E-01 -3.9036589E-01
  9.957E+00  2.669E-01  1.680E+00 3.4362419E+00 4.3528236E-01 -4.0388243E-01
  1.000E+01  3.198E-01  1.733E+00 3.4362346E+00 3.8026666E-01 -4.0983041E-01
  9.957E+00  3.018E-01  1.716E+00 3.4375408E+00 4.1460907E-01 -4.2507787E-01
  1.000E+01  3.572E-01  1.766E+00 3.4347787E+00 3.5936705E-01 -4.2827684E-01
  9.957E+00  3.383E-01  1.750E+00 3.4375921E+00 3.9290557E-01 -4.4521664E-01
  1.000E+01  3.962E-01  1.797E+00 3.4271612E+00 3.3756866E-01 -4.4565285E-01
  9.957E+00  3.765E-01  1.782E+00 3.4211498E+00 3.7022524E-01 -4.6424736E-01
  1.000E+01  4.367E-01  1.826E+00 3.4061680E+00 3.1493989E-01 -4.6193049E-01
  9.957E+00  4.163E-01  1.812E+00 3.4302134E+00 3.4662057E-01 -4.8212034E-01
  1.000E+01  4.786E-01  1.853E+00 3.4090615E+00 2.9152112E-01 -4.7705846E-01
  9.957E+00  4.575E-01  1.840E+00 3.3990714E+00 3.2216890E-01 -4.9881278E-01
  1.000E+01  5.217E-01  1.878E+00 3.3833641E+00 2.6735529E-01 -4.9096680E-01
  9.957E+00  5.000E-01  1.866E+00 3.3994016E+00 2.9687846E-01 -5.1422888E-01
  1.000E+01  5.661E-01  1.901E+00 3.3654891E+00 2.4261770E-01 -5.0374302E-01
  9.957E+00  5.438E-01  1.890E+00 3.3653891E+00 2.7089525E-01 -5.2839123E-01
  1.000E+01  6.116E-01  1.921E+00 3.3570032E+00 2.1718010E-01 -5.1521749E-01
  9.957E+00  5.887E-01  1.912E+00 3.3674163E+00 2.4428698E-01 -5.4131818E-01
  1.000E+01  6.580E-01  1.940E+00 3.3233288E+00 1.9103410E-01 -5.2523103E-01
  9.957E+00  6.347E-01  1.931E+00 3.3416133E+00 2.1684425E-01 -5.5270582E-01
  1.000E+01  7.052E-01  1.956E+00 3.3118875E+00 1.6471024E-01 -5.3415374E-01
  9.957E+00  6.815E-01  1.948E+00 3.3129369E+00 1.8892278E-01 -5.6271816E-01
  1.000E+01  7.532E-01  1.969E+00 3.3044811E+00 1.3816654E-01 -5.4192520E-01
  9.957E+00  7.292E-01  1.963E+00 3.3092412E+00 1.6090293E-01 -5.7163372E-01
  1.000E+01  8.019E-01  1.980E+00 3.2879257E+00 1.1101904E-01 -5.4816480E-01
  9.957E+00  7.775E-01  1.975E+00 3.2972114E+00 1.3242162E-01 -5.7911404E-01
  1.000E+01  8.510E-01  1.989E+00 3.2702470E+00 8.3356102E-02 -5.5285548E-01
  9.957E+00  8.264E-01  1.985E+00 3.2790155E+00 1.0326545E-01 -5.8488767E-01
  1.000E+01  9.004E-01  1.995E+00 3.2583508E+00 5.5542270E-02 -5.5620994E-01
  9.957E+00  8.757E-01  1.992E+00 3.2635364E+00 7.3763555E-02 -5.8913880E-01
  1.000E+01  9.502E-01  1.999E+00 3.2528272E+00 2.7758255E-02 -5.5828946E-01
  9.957E+00  9.253E-01  1.997E+00 3.2546624E+00 4.4232075E-02 -5.9203274E-01
  1.000E+01  1.000E+00  2.000E+00 3.2513882E+00 -2.0526674E-08 -5.5900153E-01
  9.957E+00  9.751E-01  2.000E+00 3.2512131E+00 1.4739853E-02 -5.9352638E-01
  1.000E+01  1.050E+00  1.999E+00 3.2528264E+00 -2.7758296E-02 -5.5828946E-01
  9.957E+00  1.025E+00  2.000E+00 3.2512127E+00 -1.4739743E-02 -5.9352638E-01
  1.000E+01  1.100E+00  1.995E+00 3.2583492E+00 -5.5542311E-02 -5.5620993E-01
  9.957E+00  1.075E+00  1.997E+00 3.2546613E+00 -4.4231966E-02 -5.9203274E-01
  1.000E+01  1.149E+00  1.989E+00 3.2702447E+00 -8.3356142E-02 -5.5285547E-01
  9.957E+00  1.124E+00  1.992E+00 3.2635345E+00 -7.3763446E-02 -5.8913880E-01
  1.000E+01  1.198E+00  1.980E+00 3.2879226E+00 -1.1101908E-01 -5.4816479E-01
  9.957E+00  1.174E+00  1.985E+00 3.2790128E+00 -1.0326534E-01 -5.8488766E-01