# TIME = 5.500000
variables = x, y, z
zone N=5762 E=11520 F=FEPOINT ET=TRIANGLE
 7.9654259E+00 1.4678780E+00 1.7569342E+00
 7.9654259E+00 1.4678779E+00 2.4306574E-01
 7.9654259E+00 5.3212198E-01 1.7569341E+00
 7.9654259E+00 5.3212200E-01 2.4306565E-01
 6.8443877E+00 9.9999997E-01 1.5687560E+00
 9.1123532E+00 9.9999997E-01 1.5814949E+00
 6.8443875E+00 9.9999997E-01 4.3124355E-01
 9.1123531E+00 9.9999997E-01 4.1850488E-01
 7.3000244E+00 1.8779476E+00 9.9999986E-01
 7.3000244E+00 1.2205238E-01 9.9999986E-01
 8.6156629E+00 1.7965407E+00 9.9999986E-01
 8.6156629E+00 2.0345919E-01 9.9999985E-01
 7.9237015E+00 1.4617498E+00 1.7661526E+00
 7.8777405E+00 1.4546318E+00 1.7760175E+00
 7.8295151E+00 1.4467520E+00 1.7859905E+00
 7.7793465E+00 1.4379862E+00 1.7958500E+00
 7.7274027E+00 1.4281846E+00 1.8053378E+00
 7.6738837E+00 1.4171746E+00 1.8141283E+00
 7.6189833E+00 1.4047686E+00 1.8218401E+00
 7.5629328E+00 1.3907815E+00 1.8280386E+00
 7.5060153E+00 1.3750492E+00 1.8322586E+00
 7.4485813E+00 1.3574502E+00 1.8340350E+00
 7.3910582E+00 1.3379260E+00 1.8329441E+00
 7.3339469E+00 1.3164971E+00 1.8286450E+00
 7.2778049E+00 1.2932711E+00 1.8209177E+00
 7.2232137E+00 1.2684399E+00 1.8096857E+00
 7.1707366E+00 1.2422674E+00 1.7950240E+00
 7.1208769E+00 1.2150681E+00 1.7771466E+00
 7.0740443E+00 1.1871825E+00 1.7563817E+00
 7.0305356E+00 1.1589528E+00 1.7331372E+00
 6.9905316E+00 1.1307051E+00 1.7078666E+00
 6.9541057E+00 1.1027379E+00 1.6810382E+00
 6.9212525E+00 1.0753300E+00 1.6531258E+00
 6.8918971E+00 1.0487302E+00 1.6245810E+00
 6.8659889E+00 1.0232355E+00 1.5959226E+00
 7.9187789E+00 5.7044234E-01 1.7852597E+00
 7.8711760E+00 5.7963894E-01 1.7958498E+00
 7.8218682E+00 5.8917295E-01 1.8061320E+00
 7.7709206E+00 5.9950004E-01 1.8160885E+00
 7.7184117E+00 6.1090787E-01 1.8255289E+00
 7.6644796E+00 6.2359559E-01 1.8341339E+00
 7.6093118E+00 6.3773195E-01 1.8415029E+00
 7.5531412E+00 6.5346437E-01 1.8471831E+00
 7.4962630E+00 6.7090885E-01 1.8506990E+00
 7.4390423E+00 6.9013244E-01 1.8515888E+00
 7.3819187E+00 7.1113659E-01 1.8494469E+00
 7.3253996E+00 7.3384582E-01 1.8439649E+00
 7.2700388E+00 7.5810524E-01 1.8349658E+00
 7.2164019E+00 7.8368800E-01 1.8224228E+00
 7.1650246E+00 8.1031219E-01 1.8064598E+00
 7.1163737E+00 8.3766394E-01 1.7873356E+00
 7.0708173E+00 8.6542240E-01 1.7654134E+00
 7.0286079E+00 8.9328073E-01 1.7411231E+00
 6.9898761E+00 9.2095424E-01 1.7149195E+00
 6.9546148E+00 9.4817212E-01 1.6872221E+00
 6.9226424E+00 9.7465139E-01 1.6583257E+00
 6.8935476E+00 9.9999997E-01 1.6282764E+00
 7.9166615E+00 6.0386763E-01 1.8028953E+00
 7.8673705E+00 6.1504642E-01 1.8139926E+00
 7.8168954E+00 6.2627232E-01 1.8244815E+00
 7.7650446E+00 6.3824800E-01 1.8344774E+00
 7.7118365E+00 6.5133260E-01 1.8438071E+00
 7.6573629E+00 6.6574351E-01 1.8521485E+00
 7.6017936E+00 6.8162916E-01 1.8590842E+00
 7.5453663E+00 6.9910069E-01 1.8641452E+00
 7.4883879E+00 7.1822793E-01 1.8668493E+00
 7.4312386E+00 7.3902624E-01 1.8667404E+00
 7.3743712E+00 7.6144353E-01 1.8634341E+00
 7.3183002E+00 7.8535451E-01 1.8566568E+00
 7.2635767E+00 8.1056319E-01 1.8462774E+00
 7.2107513E+00 8.3681576E-01 1.8323194E+00
 7.1603326E+00 8.6382111E-01 1.8149568E+00
 7.1127488E+00 8.9127633E-01 1.7944899E+00
 7.0683187E+00 9.1889007E-01 1.7713079E+00
 7.0272240E+00 9.4639486E-01 1.7458343E+00
 6.9894686E+00 9.7353224E-01 1.7184451E+00
 6.9548132E+00 9.9999997E-01 1.6893425E+00
 6.9226424E+00 1.0253485E+00 1.6583257E+00
 7.9152722E+00 6.3904624E-01 1.8194868E+00
 7.8648418E+00 6.5190707E-01 1.8307045E+00
 7.8133429E+00 6.6481150E-01 1.8412348E+00
 7.7606509E+00 6.7846175E-01 1.8511383E+00
 7.7067428E+00 6.9325646E-01 1.8602371E+00
 7.6517055E+00 7.0940338E-01 1.8681880E+00
 7.5957082E+00 7.2702668E-01 1.8745562E+00
 7.5389985E+00 7.4619929E-01 1.8788600E+00
 7.4818980E+00 7.6694516E-01 1.8806151E+00
 7.4248025E+00 7.8922921E-01 1.8793772E+00
 7.3681766E+00 8.1294956E-01 1.8747882E+00
 7.3125398E+00 8.3793648E-01 1.8666147E+00
 7.2584370E+00 8.6396108E-01 1.8547738E+00
 7.2063997E+00 8.9075285E-01 1.8393408E+00
 7.1569032E+00 9.1802386E-01 1.8205352E+00
 7.1103262E+00 9.4549380E-01 1.7986878E+00
 7.0669103E+00 9.7290378E-01 1.7741846E+00
 7.0267036E+00 9.9999997E-01 1.7473787E+00
 6.9894686E+00 1.0264677E+00 1.7184451E+00
 6.9546148E+00 1.0518278E+00 1.6872221E+00
 7.9141918E+00 6.7603195E-01 1.8349359E+00
 7.8628348E+00 6.9045355E-01 1.8460470E+00
 7.8104809E+00 7.0498254E-01 1.8564263E+00
 7.7570401E+00 7.2030794E-01 1.8660786E+00
 7.7025086E+00 7.3680695E-01 1.8747871E+00
 7.6469764E+00 7.5466701E-01 1.8821860E+00
 7.5906244E+00 7.7397823E-01 1.8878237E+00
 7.5337134E+00 7.9477311E-01 1.8912119E+00
 7.4765800E+00 8.1702893E-01 1.8918716E+00
 7.4196328E+00 8.4066247E-01 1.8893783E+00
 7.3633444E+00 8.6552646E-01 1.8834077E+00
 7.3082327E+00 8.9141486E-01 1.8737709E+00
 7.2548287E+00 9.1807686E-01 1.8604354E+00
 7.2036356E+00 9.4523924E-01 1.8435235E+00
 7.1550815E+00 9.7263116E-01 1.8232891E+00
 7.1094701E+00 9.9999997E-01 1.8000666E+00
 7.0669102E+00 1.0270961E+00 1.7741846E+00
 7.0272240E+00 1.0536051E+00 1.7458343E+00
 6.9898761E+00 1.0790457E+00 1.7149195E+00
 7.9132448E+00 7.1483213E-01 1.8490896E+00
 7.8610815E+00 7.3073163E-01 1.8599072E+00
 7.8079948E+00 7.4684836E-01 1.8699589E+00
 7.7539276E+00 7.6382108E-01 1.8791843E+00
 7.6988928E+00 7.8198943E-01 1.8873269E+00
 7.6429944E+00 8.0150345E-01 1.8939975E+00
 7.5864258E+00 8.2241523E-01 1.8987340E+00
 7.5294615E+00 8.4471378E-01 1.9010494E+00
 7.4724501E+00 8.6833083E-01 1.9004790E+00
 7.4158081E+00 8.9313839E-01 1.8966268E+00
 7.3600085E+00 9.1895136E-01 1.8892086E+00
 7.3055588E+00 9.4553834E-01 1.8780830E+00
 7.2529650E+00 9.7264134E-01 1.8632645E+00
 7.2026871E+00 9.9999997E-01 1.8449121E+00
 7.1550815E+00 1.0273688E+00 1.8232891E+00
 7.1103262E+00 1.0545061E+00 1.7986878E+00
 7.0683187E+00 1.0811099E+00 1.7713079E+00
 7.0286079E+00 1.1067192E+00 1.7411232E+00
 7.9123856E+00 7.5535939E-01 1.8617470E+00
 7.8595196E+00 7.7267702E-01 1.8721044E+00
 7.8058250E+00 7.9033701E-01 1.8816553E+00
 7.7512689E+00 8.0890895E-01 1.8902758E+00
 7.6958802E+00 8.2867931E-01 1.8976730E+00
 7.6397760E+00 8.4975430E-01 1.9034404E+00
 7.5831616E+00 8.7214339E-01 1.9071134E+00
 7.5263220E+00 8.9579248E-01 1.9082152E+00
 7.4696129E+00 9.2059018E-01 1.9063049E+00
 7.4134518E+00 9.4637054E-01 1.9010221E+00
 7.3583030E+00 9.7292110E-01 1.8921269E+00
 7.3046519E+00 9.9999997E-01 1.8795236E+00
 7.2529650E+00 1.0273586E+00 1.8632646E+00
 7.2036356E+00 1.0547607E+00 1.8435236E+00
 7.1569031E+00 1.0819761E+00 1.8205352E+00
 7.1127488E+00 1.1087236E+00 1.7944899E+00
 7.0708173E+00 1.1345775E+00 1.7654134E+00
 7.9116242E+00 7.9746188E-01 1.8726957E+00
 7.8581703E+00 8.1613783E-01 1.8824356E+00
 7.8040048E+00 8.3527891E-01 1.8913155E+00
 7.7491124E+00 8.5537417E-01 1.8991559E+00
 7.6935350E+00 8.7664750E-01 1.9056343E+00
 7.6374003E+00 8.9915636E-01 1.9103358E+00
 7.5809225E+00 9.2286718E-01 1.9128016E+00
 7.5243926E+00 9.4768456E-01 1.9125749E+00
 7.4681670E+00 9.7346016E-01 1.9092461E+00
 7.4126556E+00 9.9999997E-01 1.9024955E+00
 7.3583030E+00 1.0270788E+00 1.8921269E+00
 7.3055588E+00 1.0544616E+00 1.8780830E+00
 7.2548287E+00 1.0819231E+00 1.8604354E+00
 7.2063997E+00 1.1092471E+00 1.8393408E+00
 7.1603325E+00 1.1361788E+00 1.8149569E+00
 7.1163737E+00 1.1623360E+00 1.7873356E+00
 7.9109832E+00 8.4093872E-01 1.8817348E+00
 7.8570732E+00 8.6089410E-01 1.8907051E+00
 7.8025868E+00 8.8142873E-01 1.8987502E+00
 7.7475213E+00 9.0294058E-01 1.9056439E+00
 7.6919281E+00 9.2558494E-01 1.9110444E+00
 7.6359424E+00 9.4936904E-01 1.9145368E+00
 7.5797831E+00 9.7421773E-01 1.9156780E+00
 7.5237416E+00 9.9999997E-01 1.9140386E+00
 7.4681670E+00 1.0265398E+00 1.9092461E+00
 7.4134518E+00 1.0536294E+00 1.9010221E+00
 7.3600085E+00 1.0810486E+00 1.8892086E+00
 7.3082327E+00 1.1085851E+00 1.8737709E+00
 7.2584370E+00 1.1360389E+00 1.8547739E+00
 7.2107513E+00 1.1631842E+00 1.8323195E+00
 7.1650246E+00 1.1896878E+00 1.8064599E+00
 7.9104838E+00 8.8554165E-01 1.8886862E+00
 7.8562640E+00 9.0667211E-01 1.8967439E+00
 7.8016160E+00 9.2848340E-01 1.9038013E+00
 7.7465459E+00 9.5127368E-01 1.9095975E+00
 7.6911113E+00 9.7512659E-01 1.9137813E+00
 7.6354509E+00 9.9999997E-01 1.9159481E+00
 7.5797831E+00 1.0257822E+00 1.9156781E+00
 7.5243926E+00 1.0523154E+00 1.9125749E+00
 7.4696129E+00 1.0794098E+00 1.9063049E+00
 7.4158081E+00 1.1068616E+00 1.8966268E+00
 7.3633444E+00 1.1344735E+00 1.8834077E+00
 7.3125398E+00 1.1620635E+00 1.8666147E+00
 7.2635766E+00 1.1894368E+00 1.8462774E+00
 7.2164019E+00 1.2163120E+00 1.8224229E+00
 7.9101421E+00 9.3098101E-01 1.8934057E+00
 7.8557683E+00 9.5315585E-01 1.9004218E+00
 7.8011229E+00 9.7609793E-01 1.9063562E+00
 7.7462173E+00 9.9999997E-01 1.9109257E+00
 7.6911113E+00 1.0248733E+00 1.9137814E+00
 7.6359424E+00 1.0506309E+00 1.9145368E+00
 7.5809225E+00 1.0771328E+00 1.9128017E+00
 7.5263220E+00 1.1042075E+00 1.9082152E+00
 7.4724501E+00 1.1316691E+00 1.9004791E+00
 7.4196328E+00 1.1593375E+00 1.8893783E+00
 7.3681766E+00 1.1870504E+00 1.8747883E+00
 7.3183002E+00 1.2146454E+00 1.8566569E+00
 7.2700388E+00 1.2418947E+00 1.8349659E+00
 7.9099686E+00 9.7693566E-01 1.8957917E+00
 7.8556014E+00 9.9999997E-01 1.9016571E+00
 7.8011229E+00 1.0239020E+00 1.9063562E+00
 7.7465459E+00 1.0487263E+00 1.9095975E+00
 7.6919281E+00 1.0744150E+00 1.9110444E+00
 7.6374003E+00 1.1008436E+00 1.9103358E+00
 7.5831616E+00 1.1278565E+00 1.9071134E+00
 7.5294615E+00 1.1552862E+00 1.9010495E+00
 7.4765800E+00 1.1829710E+00 1.8918717E+00
 7.4248024E+00 1.2107707E+00 1.8793773E+00
 7.3743712E+00 1.2385564E+00 1.8634342E+00
 7.3253996E+00 1.2661541E+00 1.8439650E+00
 7.9099686E+00 1.0230643E+00 1.8957917E+00
 7.8557683E+00 1.0468441E+00 1.9004218E+00
 7.8016160E+00 1.0715165E+00 1.9038013E+00
 7.7475213E+00 1.0970594E+00 1.9056440E+00
 7.6935350E+00 1.1233524E+00 1.9056344E+00
 7.6397760E+00 1.1502456E+00 1.9034405E+00
 7.5864258E+00 1.1775847E+00 1.8987341E+00
 7.5337134E+00 1.2052268E+00 1.8912120E+00
 7.4818980E+00 1.2330548E+00 1.8806152E+00
 7.4312386E+00 1.2609737E+00 1.8667405E+00
 7.3819187E+00 1.2888634E+00 1.8494470E+00
 7.9101421E+00 1.0690189E+00 1.8934057E+00
 7.8562640E+00 1.0933278E+00 1.8967439E+00
 7.8025868E+00 1.1185712E+00 1.8987502E+00
 7.7491124E+00 1.1446258E+00 1.8991559E+00
 7.6958802E+00 1.1713206E+00 1.8976730E+00
 7.6429944E+00 1.1984965E+00 1.8939976E+00
 7.5906244E+00 1.2260217E+00 1.8878237E+00
 7.5389985E+00 1.2538007E+00 1.8788601E+00
 7.4883879E+00 1.2817720E+00 1.8668494E+00
 7.4390423E+00 1.3098675E+00 1.8515890E+00
 7.9104838E+00 1.1144583E+00 1.8886863E+00
 7.8570732E+00 1.1391058E+00 1.8907051E+00
 7.8040048E+00 1.1647210E+00 1.8913156E+00
 7.7512689E+00 1.1910910E+00 1.8902759E+00
 7.6988928E+00 1.2180105E+00 1.8873270E+00
 7.6469764E+00 1.2453330E+00 1.8821861E+00
 7.5957082E+00 1.2729733E+00 1.8745563E+00
 7.5453663E+00 1.3008993E+00 1.8641453E+00
 7.4962630E+00 1.3290911E+00 1.8506992E+00
 7.9109832E+00 1.1590612E+00 1.8817349E+00
 7.8581703E+00 1.1838621E+00 1.8824356E+00
 7.8058250E+00 1.2096629E+00 1.8816554E+00
 7.7539276E+00 1.2361789E+00 1.8791844E+00
 7.7025086E+00 1.2631930E+00 1.8747872E+00
 7.6517055E+00 1.2905966E+00 1.8681881E+00
 7.6017936E+00 1.3183708E+00 1.8590843E+00
 7.5531412E+00 1.3465356E+00 1.8471832E+00
 7.9116242E+00 1.2025381E+00 1.8726958E+00
 7.8595197E+00 1.2273229E+00 1.8721044E+00
 7.8079949E+00 1.2531516E+00 1.8699590E+00
 7.7570401E+00 1.2796920E+00 1.8660786E+00
 7.7067428E+00 1.3067435E+00 1.8602372E+00
 7.6573629E+00 1.3342565E+00 1.8521486E+00
 7.6093118E+00 1.3622680E+00 1.8415030E+00
 7.9123856E+00 1.2446406E+00 1.8617470E+00
 7.8610815E+00 1.2692683E+00 1.8599073E+00
 7.8104809E+00 1.2950174E+00 1.8564264E+00
 7.7606509E+00 1.3215382E+00 1.8511383E+00
 7.7118365E+00 1.3486674E+00 1.8438072E+00
 7.6644796E+00 1.3764044E+00 1.8341340E+00
 7.9132448E+00 1.2851678E+00 1.8490896E+00
 7.8628348E+00 1.3095464E+00 1.8460471E+00
 7.8133429E+00 1.3351885E+00 1.8412349E+00
 7.7650447E+00 1.3617520E+00 1.8344775E+00
 7.7184117E+00 1.3890921E+00 1.8255290E+00
 7.9141918E+00 1.3239680E+00 1.8349360E+00
 7.8648419E+00 1.3480929E+00 1.8307046E+00
 7.8168954E+00 1.3737277E+00 1.8244816E+00
 7.7709206E+00 1.4004999E+00 1.8160886E+00
 7.9152722E+00 1.3609537E+00 1.8194869E+00
 7.8673706E+00 1.3849536E+00 1.8139927E+00
 7.8218683E+00 1.4108270E+00 1.8061321E+00
 7.9166615E+00 1.3961324E+00 1.8028954E+00
 7.8711760E+00 1.4203610E+00 1.7958499E+00
 7.9187789E+00 1.4295577E+00 1.7852598E+00
 7.9652283E+00 1.4400004E+00 1.7735467E+00
 7.9649835E+00 1.4084764E+00 1.7907025E+00
 7.9647982E+00 1.3748691E+00 1.8072190E+00
 7.9646578E+00 1.3392556E+00 1.8228507E+00
 7.9645480E+00 1.3017294E+00 1.8373646E+00
 7.9644570E+00 1.2624211E+00 1.8505250E+00
 7.9643796E+00 1.2214740E+00 1.8621137E+00
 7.9643144E+00 1.1790720E+00 1.8719247E+00
 7.9642622E+00 1.1354415E+00 1.8797718E+00
 7.9642238E+00 1.0908484E+00 1.8854981E+00
 7.9642004E+00 1.0455930E+00 1.8889839E+00
 7.9641925E+00 9.9999997E-01 1.8901543E+00
 7.9642004E+00 9.5440695E-01 1.8889839E+00
 7.9642238E+00 9.0915151E-01 1.8854981E+00
 7.9642622E+00 8.6455841E-01 1.8797718E+00
 7.9643144E+00 8.2092791E-01 1.8719246E+00
 7.9643796E+00 7.7852596E-01 1.8621136E+00
 7.9644570E+00 7.3757888E-01 1.8505249E+00
 7.9645480E+00 6.9827059E-01 1.8373645E+00
 7.9646578E+00 6.6074437E-01 1.8228506E+00
 7.9647982E+00 6.2513083E-01 1.8072189E+00
 7.9649835E+00 5.9152353E-01 1.7907024E+00
 7.9652283E+00 5.5999959E-01 1.7735466E+00
 8.0069333E+00 5.4309215E-01 1.7582042E+00
 8.0525157E+00 5.5526729E-01 1.7593021E+00
 8.1002288E+00 5.6804759E-01 1.7601788E+00
 8.1497464E+00 5.8139835E-01 1.7608452E+00
 8.2008718E+00 5.9533067E-01 1.7612913E+00
 8.2533740E+00 6.0987314E-01 1.7614789E+00
 8.3070302E+00 6.2507515E-01 1.7613369E+00
 8.3615947E+00 6.4099708E-01 1.7607585E+00
 8.4167986E+00 6.5770646E-01 1.7596042E+00
 8.4723482E+00 6.7527051E-01 1.7577058E+00
 8.5279301E+00 6.9374880E-01 1.7548762E+00
 8.5832159E+00 7.1318589E-01 1.7509194E+00
 8.6378691E+00 7.3360410E-01 1.7456448E+00
 8.6915517E+00 7.5499822E-01 1.7388795E+00
 8.7439329E+00 7.7733189E-01 1.7304808E+00
 8.7946971E+00 8.0053731E-01 1.7203456E+00
 8.8435531E+00 8.2451722E-01 1.7084172E+00
 8.8902401E+00 8.4914931E-01 1.6946877E+00
 8.9345298E+00 8.7429060E-01 1.6792001E+00
 8.9762257E+00 8.9978397E-01 1.6620473E+00
 9.0151450E+00 9.2544964E-01 1.6433816E+00
 9.0511363E+00 9.5109462E-01 1.6233963E+00
 9.0839812E+00 9.7639844E-01 1.6023986E+00
 8.0114247E+00 1.4244443E+00 1.7762495E+00
 8.0586810E+00 1.4104203E+00 1.7775571E+00
 8.1074973E+00 1.3963752E+00 1.7783413E+00
 8.1578052E+00 1.3819482E+00 1.7787978E+00
 8.2094998E+00 1.3669587E+00 1.7789859E+00
 8.2624134E+00 1.3513266E+00 1.7788745E+00
 8.3163324E+00 1.3349988E+00 1.7783806E+00
 8.3710124E+00 1.3179250E+00 1.7773818E+00
 8.4261772E+00 1.3000540E+00 1.7757247E+00
 8.4815251E+00 1.2813379E+00 1.7732315E+00
 8.5367363E+00 1.2617394E+00 1.7697106E+00
 8.5914799E+00 1.2412389E+00 1.7649675E+00
 8.6454212E+00 1.2198403E+00 1.7588188E+00
 8.6982289E+00 1.1975746E+00 1.7511053E+00
 8.7495838E+00 1.1745008E+00 1.7417029E+00
 8.7991871E+00 1.1507028E+00 1.7305310E+00
 8.8467687E+00 1.1262848E+00 1.7175572E+00
 8.8920951E+00 1.1013650E+00 1.7027964E+00
 8.9349792E+00 1.0760768E+00 1.6863043E+00
 8.9753155E+00 1.0505816E+00 1.6681500E+00
 9.0131539E+00 1.0250923E+00 1.6483582E+00
 9.0488279E+00 9.9999997E-01 1.6267987E+00
 8.0130959E+00 1.3911684E+00 1.7933230E+00
 8.0620802E+00 1.3754230E+00 1.7946032E+00
 8.1121038E+00 1.3600735E+00 1.7951805E+00
 8.1633406E+00 1.3444689E+00 1.7953526E+00
 8.2157495E+00 1.3283318E+00 1.7951996E+00
 8.2692120E+00 1.3115391E+00 1.7946915E+00
 8.3235345E+00 1.2940330E+00 1.7937334E+00
 8.3784714E+00 1.2757717E+00 1.7921904E+00
 8.4337388E+00 1.2567184E+00 1.7898982E+00
 8.4890258E+00 1.2368436E+00 1.7866720E+00
 8.5440056E+00 1.2161320E+00 1.7823176E+00
 8.5983436E+00 1.1945881E+00 1.7766440E+00
 8.6517064E+00 1.1722402E+00 1.7694774E+00
 8.7037697E+00 1.1491415E+00 1.7606736E+00
 8.7542276E+00 1.1253677E+00 1.7501282E+00
 8.8028027E+00 1.1010096E+00 1.7377819E+00
 8.8492588E+00 1.0761669E+00 1.7236198E+00
 8.8934267E+00 1.0509467E+00 1.7076563E+00
 8.9352619E+00 1.0254848E+00 1.6898961E+00
 8.9749562E+00 9.9999997E-01 1.6702496E+00
 9.0131539E+00 9.7490763E-01 1.6483582E+00
 8.0141398E+00 1.3562908E+00 1.8094651E+00
 8.0642878E+00 1.3392235E+00 1.8104410E+00
 8.1153591E+00 1.3226240E+00 1.8106827E+00
 8.1674550E+00 1.3058358E+00 1.8104623E+00
 8.2205755E+00 1.2885224E+00 1.8098609E+00
 8.2746069E+00 1.2705499E+00 1.8088377E+00
 8.3293584E+00 1.2518604E+00 1.8072878E+00
 8.3845765E+00 1.2324220E+00 1.8050657E+00
 8.4399671E+00 1.2122127E+00 1.8019994E+00
 8.4952097E+00 1.1912221E+00 1.7978996E+00
 8.5499707E+00 1.1694566E+00 1.7925729E+00
 8.6039136E+00 1.1469435E+00 1.7858350E+00
 8.6567086E+00 1.1237322E+00 1.7775245E+00
 8.7080422E+00 1.0998925E+00 1.7675143E+00
 8.7576288E+00 1.0755072E+00 1.7557190E+00
 8.8052264E+00 1.0506641E+00 1.7420942E+00
 8.8506684E+00 1.0254551E+00 1.7266217E+00
 8.8939305E+00 9.9999997E-01 1.7092682E+00
 8.9352619E+00 9.7451519E-01 1.6898961E+00
 8.9753155E+00 9.4941839E-01 1.6681500E+00
 8.0149625E+00 1.3196888E+00 1.8245160E+00
 8.0660497E+00 1.3014907E+00 1.8250090E+00
 8.1179888E+00 1.2837452E+00 1.8247695E+00
 8.1708438E+00 1.2658033E+00 1.8240335E+00
 8.2245937E+00 1.2473369E+00 1.8228585E+00
 8.2791222E+00 1.2282124E+00 1.8211905E+00
 8.3342273E+00 1.2083817E+00 1.8189138E+00
 8.3896454E+00 1.1878251E+00 1.8158755E+00
 8.4450712E+00 1.1665370E+00 1.8118987E+00
 8.5001766E+00 1.1445266E+00 1.8067936E+00
 8.5546244E+00 1.1218208E+00 1.8003718E+00
 8.6080801E+00 1.0984669E+00 1.7924593E+00
 8.6602235E+00 1.0745297E+00 1.7829101E+00
 8.7107601E+00 1.0500861E+00 1.7716143E+00
 8.7594390E+00 1.0252159E+00 1.7585003E+00
 8.8060848E+00 9.9999997E-01 1.7435220E+00
 8.8506684E+00 9.7454489E-01 1.7266217E+00
 8.8934267E+00 9.4905321E-01 1.7076563E+00
 8.9349792E+00 9.2392312E-01 1.6863043E+00
 8.0157053E+00 1.2813312E+00 1.8382998E+00
 8.0676082E+00 1.2621394E+00 1.8381605E+00
 8.1202883E+00 1.2433288E+00 1.8373063E+00
 8.1737766E+00 1.2242931E+00 1.8359254E+00
 8.2280340E+00 1.2047283E+00 1.8340470E+00
 8.2829302E+00 1.1845183E+00 1.8316018E+00
 8.3382522E+00 1.1636281E+00 1.8284655E+00
 8.3937252E+00 1.1420535E+00 1.8244802E+00
 8.4490359E+00 1.1198060E+00 1.8194682E+00
 8.5038520E+00 1.0969136E+00 1.8132438E+00
 8.5578379E+00 1.0734214E+00 1.8056276E+00
 8.6106680E+00 1.0493906E+00 1.7964594E+00
 8.6620403E+00 1.0248925E+00 1.7856090E+00
 8.7116935E+00 9.9999997E-01 1.7729798E+00
 8.7594390E+00 9.7478408E-01 1.7585003E+00
 8.8052264E+00 9.4933581E-01 1.7420942E+00
 8.8492588E+00 9.2383304E-01 1.7236198E+00
 8.8920951E+00 8.9863490E-01 1.7027964E+00
 8.0163943E+00 1.2412962E+00 1.8506156E+00
 8.0690086E+00 1.2212166E+00 1.8497172E+00
 8.1223047E+00 1.2014232E+00 1.8481235E+00
 8.1762886E+00 1.1813696E+00 1.8459717E+00
 8.2309050E+00 1.1607897E+00 1.8432628E+00
 8.2860111E+00 1.1395911E+00 1.8399136E+00
 8.3413832E+00 1.1177561E+00 1.8357938E+00
 8.3967387E+00 1.0952963E+00 1.8307445E+00
 8.4517602E+00 1.0722405E+00 1.8245914E+00
 8.5061167E+00 1.0486326E+00 1.8171569E+00
 8.5594813E+00 1.0245304E+00 1.8082741E+00
 8.6115460E+00 9.9999997E-01 1.7977973E+00
 8.6620403E+00 9.7510740E-01 1.7856090E+00
 8.7107601E+00 9.4991383E-01 1.7716143E+00
 8.7576288E+00 9.2449275E-01 1.7557190E+00
 8.8028027E+00 8.9899037E-01 1.7377819E+00
 8.8467687E+00 8.7371512E-01 1.7175572E+00
 8.0170118E+00 1.1997310E+00 1.8612597E+00
 8.0702237E+00 1.1788630E+00 1.8594925E+00
 8.1240000E+00 1.1581802E+00 1.8570433E+00
 8.1783288E+00 1.1372053E+00 1.8540022E+00
 8.2331418E+00 1.1157190E+00 1.8503445E+00
 8.2882864E+00 1.0936564E+00 1.8459762E+00
 8.3435317E+00 1.0710183E+00 1.8407649E+00
 8.3985910E+00 1.0478323E+00 1.8345544E+00
 8.4531487E+00 1.0241413E+00 1.8271779E+00
 8.5068821E+00 9.9999997E-01 1.8184690E+00
 8.5594813E+00 9.7546956E-01 1.8082741E+00
 8.6106680E+00 9.5060930E-01 1.7964594E+00
 8.6602235E+00 9.2547021E-01 1.7829101E+00
 8.7080422E+00 9.0010742E-01 1.7675143E+00
 8.7542276E+00 8.7463229E-01 1.7501282E+00
 8.7991871E+00 8.4929711E-01 1.7305309E+00
 8.0175343E+00 1.1568316E+00 1.8700413E+00
 8.0712135E+00 1.1352869E+00 1.8673086E+00
 8.1253219E+00 1.1138256E+00 1.8638999E+00
 8.1798350E+00 1.0920487E+00 1.8598628E+00
 8.2346750E+00 1.0697891E+00 1.8551519E+00
 8.2896830E+00 1.0470115E+00 1.8496672E+00
 8.3446250E+00 1.0237349E+00 1.8432775E+00
 8.3992161E+00 9.9999997E-01 1.8358334E+00
 8.4531487E+00 9.7585865E-01 1.8271779E+00
 8.5061167E+00 9.5136734E-01 1.8171569E+00
 8.5578379E+00 9.2657853E-01 1.8056276E+00
 8.6080801E+00 9.0153308E-01 1.7924593E+00
 8.6567086E+00 8.7626771E-01 1.7775245E+00
 8.7037697E+00 8.5085841E-01 1.7606736E+00
 8.7495838E+00 8.2549919E-01 1.7417029E+00
 8.0179421E+00 1.1128399E+00 1.8767913E+00
 8.0719441E+00 1.0907476E+00 1.8730119E+00
 8.1262273E+00 1.0686389E+00 1.8685544E+00
 8.1807584E+00 1.0462013E+00 1.8634314E+00
 8.2354544E+00 1.0233236E+00 1.8575827E+00
 8.2901538E+00 9.9999997E-01 1.8509067E+00
 8.3446250E+00 9.7626507E-01 1.8432775E+00
 8.3985910E+00 9.5216763E-01 1.8345544E+00
 8.4517602E+00 9.2775945E-01 1.8245914E+00
 8.5038520E+00 9.0308634E-01 1.8132438E+00
 8.5546244E+00 8.7817911E-01 1.8003718E+00
 8.6039136E+00 8.5305647E-01 1.7858350E+00
 8.6517064E+00 8.2775978E-01 1.7694774E+00
 8.6982289E+00 8.0242534E-01 1.7511053E+00
 8.0182214E+00 1.0680372E+00 1.8813725E+00
 8.0723917E+00 1.0455434E+00 1.8764838E+00
 8.1266872E+00 1.0229376E+00 1.8709075E+00
 8.1810695E+00 9.9999997E-01 1.8646298E+00
 8.2354544E+00 9.7667631E-01 1.8575827E+00
 8.2896830E+00 9.5298846E-01 1.8496672E+00
 8.3435317E+00 9.2898162E-01 1.8407649E+00
 8.3967387E+00 9.0470365E-01 1.8307445E+00
 8.4490359E+00 8.8019394E-01 1.8194682E+00
 8.5001766E+00 8.5547338E-01 1.8067936E+00
 8.5499707E+00 8.3054331E-01 1.7925729E+00
 8.5983436E+00 8.0541187E-01 1.7766440E+00
 8.6454212E+00 7.8015966E-01 1.7588188E+00
 8.0183633E+00 1.0227353E+00 1.8836881E+00
 8.0725425E+00 9.9999997E-01 1.8776496E+00
 8.1266872E+00 9.7706229E-01 1.8709075E+00
 8.1807584E+00 9.5379859E-01 1.8634313E+00
 8.2346750E+00 9.3021084E-01 1.8551519E+00
 8.2882864E+00 9.0634352E-01 1.8459762E+00
 8.3413832E+00 8.8224389E-01 1.8357938E+00
 8.3937252E+00 8.5794648E-01 1.8244802E+00
 8.4450712E+00 8.3346292E-01 1.8118986E+00
 8.4952097E+00 8.0877782E-01 1.7978996E+00
 8.5440056E+00 7.8386792E-01 1.7823176E+00
 8.5914799E+00 7.5876105E-01 1.7649674E+00
 8.0183633E+00 9.7726468E-01 1.8836881E+00
 8.0723917E+00 9.5445649E-01 1.8764838E+00
 8.1262273E+00 9.3136103E-01 1.8685544E+00
 8.1798350E+00 9.0795126E-01 1.8598628E+00
 8.2331418E+00 8.8428091E-01 1.8503444E+00
 8.2860111E+00 8.6040885E-01 1.8399136E+00
 8.3382522E+00 8.3637181E-01 1.8284655E+00
 8.3896453E+00 8.1217487E-01 1.8158755E+00
 8.4399671E+00 7.8778729E-01 1.8019994E+00
 8.4890258E+00 7.6315637E-01 1.7866720E+00
 8.5367363E+00 7.3826057E-01 1.7697106E+00
 8.0182214E+00 9.3196272E-01 1.8813724E+00
 8.0719441E+00 9.0925233E-01 1.8730119E+00
 8.1253219E+00 8.8617432E-01 1.8638999E+00
 8.1783288E+00 8.6279461E-01 1.8540022E+00
 8.2309050E+00 8.3921023E-01 1.8432628E+00
 8.2829302E+00 8.1548168E-01 1.8316018E+00
 8.3342273E+00 7.9161820E-01 1.8189138E+00
 8.3845765E+00 7.6757796E-01 1.8050657E+00
 8.4337388E+00 7.4328160E-01 1.7898982E+00
 8.4815250E+00 7.1866209E-01 1.7732315E+00
 8.0179421E+00 8.8716006E-01 1.8767912E+00
 8.0712135E+00 8.6471300E-01 1.8673086E+00
 8.1240000E+00 8.4181970E-01 1.8570433E+00
 8.1762886E+00 8.1863036E-01 1.8459717E+00
 8.2280340E+00 7.9527170E-01 1.8340470E+00
 8.2791221E+00 7.7178754E-01 1.8211904E+00
 8.3293584E+00 7.4813953E-01 1.8072877E+00
 8.3784714E+00 7.2422824E-01 1.7921903E+00
 8.4261771E+00 6.9994599E-01 1.7757246E+00
 8.0175342E+00 8.4316836E-01 1.8700412E+00
 8.0702237E+00 8.2113695E-01 1.8594924E+00
 8.1223047E+00 7.9857678E-01 1.8481234E+00
 8.1737766E+00 7.7570681E-01 1.8359253E+00
 8.2245937E+00 7.5266309E-01 1.8228585E+00
 8.2746069E+00 7.2945004E-01 1.8088377E+00
 8.3235345E+00 7.0596694E-01 1.7937333E+00
 8.3710124E+00 6.8207497E-01 1.7773818E+00
 8.0170118E+00 8.0026897E-01 1.8612596E+00
 8.0690085E+00 7.7878335E-01 1.8497172E+00
 8.1202883E+00 7.5667118E-01 1.8373063E+00
 8.1708438E+00 7.3419662E-01 1.8240335E+00
 8.2205755E+00 7.1147756E-01 1.8098609E+00
 8.2692120E+00 6.8846090E-01 1.7946914E+00
 8.3163323E+00 6.6500117E-01 1.7783806E+00
 8.0163943E+00 7.5870380E-01 1.8506155E+00
 8.0676082E+00 7.3786054E-01 1.8381604E+00
 8.1179888E+00 7.1625480E-01 1.8247695E+00
 8.1674550E+00 6.9416418E-01 1.8104623E+00
 8.2157495E+00 6.7166814E-01 1.7951996E+00
 8.2624134E+00 6.4867335E-01 1.7788745E+00
 8.0157053E+00 7.1866872E-01 1.8382997E+00
 8.0660497E+00 6.9850924E-01 1.8250089E+00
 8.1153591E+00 6.7737598E-01 1.8106827E+00
 8.1633406E+00 6.5553111E-01 1.7953525E+00
 8.2094998E+00 6.3304129E-01 1.7789859E+00
 8.0149624E+00 6.8031118E-01 1.8245159E+00
 8.0642878E+00 6.6077646E-01 1.8104409E+00
 8.1121038E+00 6.3992646E-01 1.7951804E+00
 8.1578052E+00 6.1805177E-01 1.7787977E+00
 8.0141398E+00 6.4370922E-01 1.8094650E+00
 8.0620802E+00 6.2457698E-01 1.7946031E+00
 8.1074973E+00 6.0362482E-01 1.7783412E+00
 8.0130959E+00 6.0883161E-01 1.7933229E+00
 8.0586809E+00 5.8957963E-01 1.7775570E+00
 8.0114247E+00 5.7555567E-01 1.7762495E+00
 7.9395483E+00 1.4915197E+00 1.7453175E+00
 7.9109884E+00 1.5172956E+00 1.7314868E+00
 7.8811807E+00 1.5438413E+00 1.7159136E+00
 7.8503034E+00 1.5709308E+00 1.6985029E+00
 7.8184945E+00 1.5983739E+00 1.6791339E+00
 7.7859215E+00 1.6259505E+00 1.6576908E+00
 7.7527542E+00 1.6534279E+00 1.6340634E+00
 7.7191849E+00 1.6805434E+00 1.6081665E+00
 7.6854279E+00 1.7070082E+00 1.5799515E+00
 7.6517156E+00 1.7325146E+00 1.5494180E+00
 7.6182925E+00 1.7567474E+00 1.5166239E+00
 7.5854077E+00 1.7793999E+00 1.4816895E+00
 7.5533064E+00 1.8001903E+00 1.4447987E+00
 7.5222218E+00 1.8188760E+00 1.4061946E+00
 7.4923671E+00 1.8352677E+00 1.3661701E+00
 7.4639283E+00 1.8492371E+00 1.3250547E+00
 7.4370590E+00 1.8607214E+00 1.2831980E+00
 7.4118780E+00 1.8697216E+00 1.2409541E+00
 7.3884710E+00 1.8762969E+00 1.1986692E+00
 7.3668973E+00 1.8805572E+00 1.1566753E+00
 7.3472007E+00 1.8826540E+00 1.1153037E+00
 7.3293929E+00 1.8827675E+00 1.0748575E+00
 7.3135183E+00 1.8811134E+00 1.0358459E+00
 6.8611952E+00 1.0675642E+00 1.5867376E+00
 6.8568060E+00 1.1114686E+00 1.5745158E+00
 6.8539565E+00 1.1562253E+00 1.5603358E+00
 6.8531233E+00 1.2020097E+00 1.5444471E+00
 6.8546192E+00 1.2487587E+00 1.5269079E+00
 6.8586809E+00 1.2962695E+00 1.5077177E+00
 6.8654980E+00 1.3442550E+00 1.4868664E+00
 6.8752257E+00 1.3923733E+00 1.4643658E+00
 6.8879803E+00 1.4402362E+00 1.4402649E+00
 6.9038292E+00 1.4874199E+00 1.4146547E+00
 6.9227809E+00 1.5334797E+00 1.3876692E+00
 6.9447770E+00 1.5779666E+00 1.3594835E+00
 6.9696882E+00 1.6204464E+00 1.3303100E+00
 6.9973155E+00 1.6605196E+00 1.3003916E+00
 7.0273961E+00 1.6978398E+00 1.2699938E+00
 7.0596147E+00 1.7321305E+00 1.2393939E+00
 7.0936186E+00 1.7631958E+00 1.2088708E+00
 7.1290349E+00 1.7909268E+00 1.1786920E+00
 7.1654814E+00 1.8152984E+00 1.1490977E+00
 7.2025735E+00 1.8363636E+00 1.1202622E+00
 7.2399354E+00 1.8542473E+00 1.0922087E+00
 7.2771374E+00 1.8691148E+00 1.0646509E+00
 6.8885890E+00 1.0957076E+00 1.6154621E+00
 6.8857848E+00 1.1419124E+00 1.6033053E+00
 6.8844617E+00 1.1883160E+00 1.5889598E+00
 6.8852144E+00 1.2353674E+00 1.5727733E+00
 6.8884069E+00 1.2831164E+00 1.5548427E+00
 6.8942767E+00 1.3313937E+00 1.5351653E+00
 6.9029933E+00 1.3799062E+00 1.5137245E+00
 6.9146819E+00 1.4282841E+00 1.4905333E+00
 6.9294217E+00 1.4761083E+00 1.4656505E+00
 6.9472372E+00 1.5229287E+00 1.4391842E+00
 6.9680881E+00 1.5682840E+00 1.4112906E+00
 6.9918647E+00 1.6117218E+00 1.3821706E+00
 7.0183862E+00 1.6528202E+00 1.3520632E+00
 7.0474073E+00 1.6912082E+00 1.3212374E+00
 7.0786283E+00 1.7265843E+00 1.2899815E+00
 7.1117132E+00 1.7587306E+00 1.2585905E+00
 7.1463084E+00 1.7875214E+00 1.2273487E+00
 7.1820611E+00 1.8129245E+00 1.1965007E+00
 7.2186255E+00 1.8349968E+00 1.1661867E+00
 7.2556510E+00 1.8538720E+00 1.1363195E+00
 7.2927599E+00 1.8697404E+00 1.1063343E+00
 6.9193700E+00 1.1239186E+00 1.6437929E+00
 6.9181238E+00 1.1717248E+00 1.6314719E+00
 6.9184021E+00 1.2195107E+00 1.6168492E+00
 6.9208347E+00 1.2676938E+00 1.6002639E+00
 6.9258097E+00 1.3163417E+00 1.5818180E+00
 6.9335560E+00 1.3652769E+00 1.5615059E+00
 6.9442187E+00 1.4141821E+00 1.5393126E+00
 6.9578889E+00 1.4626578E+00 1.5152609E+00
 6.9746050E+00 1.5102564E+00 1.4894268E+00
 6.9943437E+00 1.5565072E+00 1.4619423E+00
 7.0170139E+00 1.6009410E+00 1.4329919E+00
 7.0424536E+00 1.6431128E+00 1.4028070E+00
 7.0704342E+00 1.6826256E+00 1.3716568E+00
 7.1006716E+00 1.7191503E+00 1.3398378E+00
 7.1328434E+00 1.7524433E+00 1.3076591E+00
 7.1666103E+00 1.7823570E+00 1.2754222E+00
 7.2016363E+00 1.8088449E+00 1.2433859E+00
 7.2375911E+00 1.8319578E+00 1.2116945E+00
 7.2741292E+00 1.8518340E+00 1.1802346E+00
 7.3108453E+00 1.8686707E+00 1.1484587E+00
 6.9536527E+00 1.1524752E+00 1.6712794E+00
 6.9539867E+00 1.2014835E+00 1.6585983E+00
 6.9559369E+00 1.2503623E+00 1.6435491E+00
 6.9601406E+00 1.2994573E+00 1.6264331E+00
 6.9669772E+00 1.3487906E+00 1.6073349E+00
 6.9766535E+00 1.3981526E+00 1.5862453E+00
 6.9892817E+00 1.4471935E+00 1.5631571E+00
 7.0049127E+00 1.4954846E+00 1.5381098E+00
 7.0235382E+00 1.5425566E+00 1.5112039E+00
 7.0450848E+00 1.5879290E+00 1.4826010E+00
 7.0694095E+00 1.6311376E+00 1.4525184E+00
 7.0963027E+00 1.6717603E+00 1.4212206E+00
 7.1254969E+00 1.7094405E+00 1.3890075E+00
 7.1566848E+00 1.7439062E+00 1.3561990E+00
 7.1895407E+00 1.7749847E+00 1.3231136E+00
 7.2237413E+00 1.8026081E+00 1.2900312E+00
 7.2589673E+00 1.8268145E+00 1.2571194E+00
 7.2948718E+00 1.8477378E+00 1.2243022E+00
 7.3310253E+00 1.8655824E+00 1.1911075E+00
 6.9915329E+00 1.1813179E+00 1.6974944E+00
 6.9934845E+00 1.2312384E+00 1.6842669E+00
 6.9971777E+00 1.2809389E+00 1.6686360E+00