# TIME = 0.900000
variables = x, y, z
zone N=5762 E=11520 F=FEPOINT ET=TRIANGLE
 5.5326237E+00 1.4700476E+00 1.7604969E+00
 5.5326237E+00 1.4700475E+00 2.3950311E-01
 5.5326237E+00 5.2995231E-01 1.7604969E+00
 5.5326237E+00 5.2995225E-01 2.3950303E-01
 4.4054126E+00 9.9999993E-01 1.5687374E+00
 6.6737407E+00 9.9999992E-01 1.5808487E+00
 4.4054126E+00 9.9999993E-01 4.3126259E-01
 6.6737407E+00 9.9999992E-01 4.1915131E-01
 4.8701327E+00 1.8660191E+00 1.0000000E+00
 4.8701327E+00 1.3398079E-01 1.0000000E+00
 6.1800370E+00 1.8055858E+00 1.0000000E+00
 6.1800371E+00 1.9441396E-01 1.0000000E+00
 5.4914011E+00 1.4631860E+00 1.7685799E+00
 5.4463414E+00 1.4552827E+00 1.7770527E+00
 5.3991331E+00 1.4465901E+00 1.7854987E+00
 5.3499776E+00 1.4370362E+00 1.7937315E+00
 5.2989230E+00 1.4264765E+00 1.8015649E+00
 5.2460877E+00 1.4147678E+00 1.8087399E+00
 5.1916244E+00 1.4017482E+00 1.8149451E+00
 5.1357519E+00 1.3872598E+00 1.8198121E+00
 5.0787612E+00 1.3711580E+00 1.8229344E+00
 5.0210265E+00 1.3533311E+00 1.8238912E+00
 4.9630083E+00 1.3337199E+00 1.8222850E+00
 4.9052465E+00 1.3123351E+00 1.8177808E+00
 4.8483373E+00 1.2892678E+00 1.8101461E+00
 4.7928985E+00 1.2646903E+00 1.7992782E+00
 4.7395266E+00 1.2388469E+00 1.7852172E+00
 4.6887544E+00 1.2120350E+00 1.7681392E+00
 4.6410173E+00 1.1845817E+00 1.7483364E+00
 4.5966329E+00 1.1568199E+00 1.7261846E+00
 4.5557936E+00 1.1290658E+00 1.7021090E+00
 4.5185729E+00 1.1016043E+00 1.6765491E+00
 4.4849387E+00 1.0746742E+00 1.6499315E+00
 4.4547951E+00 1.0484881E+00 1.6226641E+00
 4.4280111E+00 1.0232276E+00 1.5951311E+00
 5.4879266E+00 5.6829432E-01 1.7869916E+00
 5.4417229E+00 5.7766763E-01 1.7957917E+00
 5.3936065E+00 5.8773021E-01 1.8043944E+00
 5.3435806E+00 5.9873512E-01 1.8127148E+00
 5.2917119E+00 6.1081645E-01 1.8205370E+00
 5.2381141E+00 6.2411603E-01 1.8275828E+00
 5.1829723E+00 6.3877647E-01 1.8335106E+00
 5.1265331E+00 6.5493394E-01 1.8379284E+00
 5.0691200E+00 6.7270006E-01 1.8404107E+00
 5.0111393E+00 6.9214453E-01 1.8405297E+00
 4.9530812E+00 7.1327722E-01 1.8378947E+00
 4.8955076E+00 7.3603472E-01 1.8321947E+00
 4.8390250E+00 7.6027520E-01 1.8232357E+00
 4.7842466E+00 7.8578306E-01 1.8109647E+00
 4.7317483E+00 8.1228343E-01 1.7954757E+00
 4.6820294E+00 8.3946337E-01 1.7769975E+00
 4.6354823E+00 8.6699548E-01 1.7558672E+00
 4.5923770E+00 8.9456169E-01 1.7324953E+00
 4.5528592E+00 9.2187099E-01 1.7073292E+00
 4.5169565E+00 9.4868059E-01 1.6808170E+00
 4.4845850E+00 9.7479538E-01 1.6533680E+00
 4.4554499E+00 9.9999992E-01 1.6252050E+00
 5.4867670E+00 6.0111533E-01 1.8042310E+00
 5.4394696E+00 6.1194529E-01 1.8132382E+00
 5.3903687E+00 6.2346402E-01 1.8219418E+00
 5.3393804E+00 6.3599412E-01 1.8302800E+00
 5.2865743E+00 6.4967075E-01 1.8380163E+00
 5.2320938E+00 6.6462280E-01 1.8448434E+00
 5.1761484E+00 6.8097644E-01 1.8503934E+00
 5.1190181E+00 6.9884052E-01 1.8542483E+00
 5.0610601E+00 7.1829077E-01 1.8559650E+00
 5.0027159E+00 7.3935214E-01 1.8551103E+00
 4.9445072E+00 7.6198365E-01 1.8513043E+00
 4.8870191E+00 7.8606953E-01 1.8442641E+00
 4.8308692E+00 8.1141941E-01 1.8338398E+00
 4.7766658E+00 8.3777854E-01 1.8200325E+00
 4.7249640E+00 8.6484631E-01 1.8029947E+00
 4.6762286E+00 8.9229952E-01 1.7830103E+00
 4.6308080E+00 9.1981672E-01 1.7604629E+00
 4.5889242E+00 9.4709877E-01 1.7357975E+00
 4.5506697E+00 9.7389340E-01 1.7094780E+00
 4.5160045E+00 9.9999992E-01 1.6819392E+00
 4.4845850E+00 1.0252045E+00 1.6533680E+00
 5.4857861E+00 6.3590464E-01 1.8206650E+00
 5.4375531E+00 6.4817028E-01 1.8297067E+00
 5.3875177E+00 6.6121566E-01 1.8383952E+00
 5.3356282E+00 6.7533431E-01 1.8466209E+00
 5.2819645E+00 6.9065635E-01 1.8541265E+00
 5.2266959E+00 7.0729450E-01 1.8605786E+00
 5.1700623E+00 7.2535077E-01 1.8655840E+00
 5.1123752E+00 7.4490152E-01 1.8687046E+00
 5.0540254E+00 7.6598105E-01 1.8694870E+00
 4.9954860E+00 7.8856593E-01 1.8675016E+00
 4.9373047E+00 8.1256347E-01 1.8623894E+00
 4.8800828E+00 8.3780775E-01 1.8539054E+00
 4.8244395E+00 8.6406552E-01 1.8419504E+00
 4.7709690E+00 8.9105127E-01 1.8265838E+00
 4.7201973E+00 9.1844878E-01 1.8080159E+00
 4.6725487E+00 9.4593592E-01 1.7865819E+00
 4.6283242E+00 9.7320692E-01 1.7627052E+00
 4.5876909E+00 9.9999992E-01 1.7368525E+00
 4.5506697E+00 1.0261064E+00 1.7094780E+00
 4.5169565E+00 1.0513193E+00 1.6808170E+00
 5.4848815E+00 6.7274025E-01 1.8361259E+00
 5.4357673E+00 6.8650403E-01 1.8450789E+00
 5.3848893E+00 7.0111645E-01 1.8536034E+00
 5.3321984E+00 7.1686014E-01 1.8615602E+00
 5.2778002E+00 7.3384607E-01 1.8686660E+00
 5.2218897E+00 7.5216661E-01 1.8745650E+00
 5.1647364E+00 7.7189395E-01 1.8788438E+00
 5.1066828E+00 7.9306621E-01 1.8810518E+00
 5.0481495E+00 8.1567180E-01 1.8807347E+00
 4.9896355E+00 8.3963680E-01 1.8774776E+00
 4.9317064E+00 8.6481758E-01 1.8709528E+00
 4.8749690E+00 8.9100273E-01 1.8609613E+00
 4.8200334E+00 9.1792404E-01 1.8474600E+00
 4.7674697E+00 9.4527548E-01 1.8305664E+00
 4.7177667E+00 9.7273740E-01 1.8105451E+00
 4.6713028E+00 9.9999992E-01 1.7877749E+00
 4.6283242E+00 1.0267929E+00 1.7627052E+00
 4.5889242E+00 1.0529011E+00 1.7357975E+00
 4.5528591E+00 1.0781289E+00 1.7073292E+00
 5.4840371E+00 7.1157594E-01 1.8503859E+00
 5.4341310E+00 7.2686522E-01 1.8591016E+00
 5.3825130E+00 7.4307312E-01 1.8673054E+00
 5.3291473E+00 7.6045020E-01 1.8748226E+00
 5.2741621E+00 7.7908833E-01 1.8813495E+00
 5.2177798E+00 7.9905241E-01 1.8865116E+00
 5.1602982E+00 8.2037991E-01 1.8898827E+00
 5.1020879E+00 8.4306616E-01 1.8910084E+00
 5.0435941E+00 8.6705131E-01 1.8894441E+00
 4.9853342E+00 8.9221112E-01 1.8848007E+00
 4.9278820E+00 9.1835505E-01 1.8767912E+00
 4.8718393E+00 9.4523344E-01 1.8652691E+00
 4.8177967E+00 9.7255313E-01 1.8502488E+00
 4.7662906E+00 9.9999992E-01 1.8319037E+00
 4.7177667E+00 1.0272624E+00 1.8105451E+00
 4.6725486E+00 1.0540639E+00 1.7865819E+00
 4.6308080E+00 1.0801831E+00 1.7604630E+00
 4.5923770E+00 1.1054382E+00 1.7324953E+00
 5.4832785E+00 7.5230147E-01 1.8632011E+00
 5.4326805E+00 7.6912428E-01 1.8715217E+00
 5.3804438E+00 7.8692051E-01 1.8792340E+00
 5.3265454E+00 8.0590468E-01 1.8861326E+00
 5.2711376E+00 8.2614277E-01 1.8918968E+00
 5.2144688E+00 8.4766852E-01 1.8961398E+00
 5.1568630E+00 8.7048019E-01 1.8984305E+00
 5.0987140E+00 8.9452804E-01 1.8983212E+00
 5.0404855E+00 9.1970376E-01 1.8953881E+00
 4.9827044E+00 9.4583616E-01 1.8892776E+00
 4.9259426E+00 9.7269436E-01 1.8797512E+00
 4.8707863E+00 9.9999992E-01 1.8667181E+00
 4.8177967E+00 1.0274467E+00 1.8502488E+00
 4.7674697E+00 1.0547243E+00 1.8305664E+00
 4.7201973E+00 1.0815511E+00 1.8080159E+00
 4.6762286E+00 1.1077003E+00 1.7830103E+00
 4.6354823E+00 1.1330044E+00 1.7558673E+00
 5.4826178E+00 7.9474634E-01 1.8743293E+00
 5.4314450E+00 8.1307809E-01 1.8820886E+00
 5.3787257E+00 8.3242111E-01 1.8891337E+00
 5.3244518E+00 8.5294653E-01 1.8952332E+00
 5.2687989E+00 8.7469075E-01 1.9000546E+00
 5.2120395E+00 8.9765242E-01 1.9032068E+00
 5.1545199E+00 9.2178860E-01 1.9042630E+00
 5.0966517E+00 9.4700417E-01 1.9027926E+00
 5.0389091E+00 9.7314537E-01 1.8984028E+00
 4.9818194E+00 9.9999992E-01 1.8907841E+00
 4.9259426E+00 1.0273055E+00 1.8797512E+00
 4.8718393E+00 1.0547664E+00 1.8652691E+00
 4.8200334E+00 1.0820758E+00 1.8474600E+00
 4.7709690E+00 1.1089486E+00 1.8265838E+00
 4.7249640E+00 1.1351535E+00 1.8029947E+00
 4.6820294E+00 1.1605365E+00 1.7769975E+00
 5.4820705E+00 8.3868974E-01 1.8835449E+00
 5.4304524E+00 8.5847110E-01 1.8905748E+00
 5.3773990E+00 8.7928043E-01 1.8967784E+00
 5.3229174E+00 9.0124025E-01 1.9019046E+00
 5.2672051E+00 9.2435413E-01 1.9056164E+00
 5.2105555E+00 9.4858383E-01 1.9075258E+00
 5.1533322E+00 9.7384506E-01 1.9072207E+00
 5.0959579E+00 9.9999992E-01 1.9042973E+00
 5.0389091E+00 1.0268545E+00 1.8984028E+00
 4.9827044E+00 1.0541637E+00 1.8892776E+00
 4.9278820E+00 1.0816448E+00 1.8767912E+00
 4.8749690E+00 1.1089971E+00 1.8609613E+00
 4.8244395E+00 1.1359343E+00 1.8419504E+00
 4.7766658E+00 1.1622213E+00 1.8200325E+00
 4.7317483E+00 1.1877164E+00 1.7954757E+00
 5.4816480E+00 8.8385984E-01 1.8906486E+00
 5.4297255E+00 9.0499476E-01 1.8967865E+00
 5.3764955E+00 9.2715139E-01 1.9019840E+00
 5.3219805E+00 9.5039903E-01 1.9059785E+00
 5.2663974E+00 9.7470689E-01 1.9084353E+00
 5.2100563E+00 9.9999992E-01 1.9089790E+00
 5.1533322E+00 1.0261548E+00 1.9072207E+00
 5.0966517E+00 1.0529957E+00 1.9027926E+00
 5.0404855E+00 1.0802961E+00 1.8953881E+00
 4.9853342E+00 1.1077887E+00 1.8848007E+00
 4.9317064E+00 1.1351823E+00 1.8709528E+00
 4.8800828E+00 1.1621921E+00 1.8539054E+00
 4.8308692E+00 1.1885804E+00 1.8338398E+00
 4.7842466E+00 1.2142168E+00 1.8109647E+00
 5.4813606E+00 9.2994115E-01 1.8954796E+00
 5.4292819E+00 9.5229833E-01 1.9005755E+00
 5.3760378E+00 9.7564671E-01 1.9046204E+00
 5.3216655E+00 9.9999992E-01 1.9073484E+00
 5.2663974E+00 1.0252930E+00 1.9084353E+00
 5.2105555E+00 1.0514160E+00 1.9075258E+00
 5.1545199E+00 1.0782112E+00 1.9042630E+00
 5.0987140E+00 1.1054718E+00 1.8983212E+00
 5.0435941E+00 1.1329485E+00 1.8894441E+00
 4.9896355E+00 1.1603630E+00 1.8774775E+00
 4.9373047E+00 1.1874364E+00 1.8623894E+00
 4.8870191E+00 1.2139303E+00 1.8442641E+00
 4.8390250E+00 1.2397246E+00 1.8232358E+00
 5.4812151E+00 9.7658380E-01 1.8979244E+00
 5.4291328E+00 9.9999992E-01 1.9018491E+00
 5.3760378E+00 1.0243531E+00 1.9046204E+00
 5.3219805E+00 1.0496008E+00 1.9059785E+00
 5.2672051E+00 1.0756457E+00 1.9056164E+00
 5.2120395E+00 1.1023474E+00 1.9032068E+00
 5.1568630E+00 1.1295196E+00 1.8984305E+00
 5.1020879E+00 1.1569337E+00 1.8910083E+00
 5.0481495E+00 1.1843280E+00 1.8807347E+00
 4.9954860E+00 1.2114339E+00 1.8675015E+00
 4.9445072E+00 1.2380162E+00 1.8513043E+00
 4.8955076E+00 1.2639651E+00 1.8321947E+00
 5.4812151E+00 1.0234160E+00 1.8979244E+00
 5.4292819E+00 1.0477015E+00 1.9005755E+00
 5.3764955E+00 1.0728485E+00 1.9019840E+00
 5.3229174E+00 1.0987596E+00 1.9019046E+00
 5.2687989E+00 1.1253091E+00 1.9000546E+00
 5.2144688E+00 1.1523313E+00 1.8961398E+00
 5.1602982E+00 1.1796199E+00 1.8898827E+00
 5.1066828E+00 1.2069336E+00 1.8810518E+00
 5.0540254E+00 1.2340188E+00 1.8694869E+00
 5.0027159E+00 1.2606477E+00 1.8551102E+00
 4.9530812E+00 1.2867226E+00 1.8378947E+00
 5.4813606E+00 1.0700587E+00 1.8954796E+00
 5.4297255E+00 1.0950051E+00 1.8967865E+00
 5.3773990E+00 1.1207194E+00 1.8967784E+00
 5.3244518E+00 1.1470533E+00 1.8952332E+00
 5.2711376E+00 1.1738571E+00 1.8918968E+00
 5.2177798E+00 1.2009474E+00 1.8865116E+00
 5.1647364E+00 1.2281059E+00 1.8788438E+00
 5.1123752E+00 1.2550983E+00 1.8687046E+00
 5.0610601E+00 1.2817091E+00 1.8559650E+00
 5.0111393E+00 1.3078553E+00 1.8405297E+00
 5.4816481E+00 1.1161400E+00 1.8906487E+00
 5.4304524E+00 1.1415287E+00 1.8905748E+00
 5.3787257E+00 1.1675787E+00 1.8891337E+00
 5.3265454E+00 1.1940952E+00 1.8861326E+00
 5.2741621E+00 1.2209115E+00 1.8813495E+00
 5.2218897E+00 1.2478332E+00 1.8745650E+00
 5.1700623E+00 1.2746491E+00 1.8655840E+00
 5.1190181E+00 1.3011593E+00 1.8542483E+00
 5.0691200E+00 1.3272998E+00 1.8404107E+00
 5.4820705E+00 1.1613101E+00 1.8835449E+00
 5.4314451E+00 1.1869218E+00 1.8820886E+00
 5.3804438E+00 1.2130793E+00 1.8792340E+00
 5.3291473E+00 1.2395497E+00 1.8748226E+00
 5.2778002E+00 1.2661538E+00 1.8686660E+00
 5.2266959E+00 1.2927053E+00 1.8605786E+00
 5.1761484E+00 1.3190234E+00 1.8503934E+00
 5.1265331E+00 1.3450659E+00 1.8379284E+00
 5.4826178E+00 1.2052535E+00 1.8743293E+00
 5.4326805E+00 1.2308756E+00 1.8715217E+00
 5.3825130E+00 1.2569267E+00 1.8673054E+00
 5.3321984E+00 1.2831397E+00 1.8615603E+00
 5.2819645E+00 1.3093435E+00 1.8541265E+00
 5.2320938E+00 1.3353770E+00 1.8448434E+00
 5.1829723E+00 1.3612234E+00 1.8335106E+00
 5.4832785E+00 1.2476984E+00 1.8632011E+00
 5.4341311E+00 1.2731346E+00 1.8591016E+00
 5.3848893E+00 1.2988834E+00 1.8536035E+00
 5.3356282E+00 1.3246655E+00 1.8466209E+00
 5.2865743E+00 1.3503291E+00 1.8380163E+00
 5.2381141E+00 1.3758838E+00 1.8275828E+00
 5.4840371E+00 1.2884239E+00 1.8503860E+00
 5.4357673E+00 1.3134958E+00 1.8450789E+00
 5.3875177E+00 1.3387842E+00 1.8383952E+00
 5.3393804E+00 1.3640057E+00 1.8302801E+00
 5.2917119E+00 1.3891834E+00 1.8205371E+00
 5.4848815E+00 1.3272596E+00 1.8361260E+00
 5.4375531E+00 1.3518296E+00 1.8297068E+00
 5.3903687E+00 1.3765358E+00 1.8219418E+00
 5.3435806E+00 1.4012647E+00 1.8127149E+00
 5.4857861E+00 1.3640952E+00 1.8206650E+00
 5.4394696E+00 1.3880546E+00 1.8132382E+00
 5.3936065E+00 1.4122697E+00 1.8043944E+00
 5.4867670E+00 1.3988845E+00 1.8042310E+00
 5.4417229E+00 1.4223322E+00 1.7957917E+00
 5.4879266E+00 1.4317055E+00 1.7869916E+00
 5.5325929E+00 1.4420013E+00 1.7771828E+00
 5.5325749E+00 1.4105638E+00 1.7942699E+00
 5.5325692E+00 1.3771361E+00 1.8106943E+00
 5.5325626E+00 1.3416259E+00 1.8263027E+00
 5.5325570E+00 1.3041394E+00 1.8408393E+00
 5.5325516E+00 1.2647581E+00 1.8540730E+00
 5.5325468E+00 1.2236272E+00 1.8657667E+00
 5.5325427E+00 1.1809354E+00 1.8756964E+00
 5.5325394E+00 1.1369243E+00 1.8836575E+00
 5.5325370E+00 1.0918786E+00 1.8894773E+00
 5.5325355E+00 1.0461208E+00 1.8930242E+00
 5.5325350E+00 9.9999992E-01 1.8942158E+00
 5.5325355E+00 9.5387903E-01 1.8930242E+00
 5.5325370E+00 9.0812122E-01 1.8894772E+00
 5.5325394E+00 8.6307552E-01 1.8836574E+00
 5.5325427E+00 8.1906442E-01 1.8756963E+00
 5.5325468E+00 7.7637268E-01 1.8657666E+00
 5.5325516E+00 7.3524175E-01 1.8540729E+00
 5.5325570E+00 6.9586043E-01 1.8408392E+00
 5.5325626E+00 6.5837392E-01 1.8263027E+00
 5.5325692E+00 6.2286381E-01 1.8106943E+00
 5.5325749E+00 5.8943607E-01 1.7942699E+00
 5.5325928E+00 5.5799855E-01 1.7771828E+00
 5.5737771E+00 5.4029248E-01 1.7628177E+00
 5.6186395E+00 5.5179403E-01 1.7649718E+00
 5.6655102E+00 5.6399315E-01 1.7668703E+00
 5.7141497E+00 5.7685968E-01 1.7684673E+00
 5.7644745E+00 5.9044397E-01 1.7697255E+00
 5.8163276E+00 6.0478318E-01 1.7705733E+00
 5.8695241E+00 6.1993205E-01 1.7709188E+00
 5.9238289E+00 6.3594585E-01 1.7706402E+00
 5.9789662E+00 6.5288258E-01 1.7695909E+00
 6.0346216E+00 6.7079569E-01 1.7676022E+00
 6.0904492E+00 6.8972760E-01 1.7644919E+00
 6.1460785E+00 7.0970254E-01 1.7600748E+00
 6.2011239E+00 7.3071927E-01 1.7541758E+00
 6.2551956E+00 7.5274603E-01 1.7466431E+00
 6.3079108E+00 7.7571701E-01 1.7373608E+00
 6.3589056E+00 7.9953229E-01 1.7262584E+00
 6.4078473E+00 8.2406028E-01 1.7133176E+00
 6.4544445E+00 8.4914329E-01 1.6985739E+00
 6.4984564E+00 8.7460458E-01 1.6821148E+00
 6.5396990E+00 9.0025857E-01 1.6640726E+00
 6.5780491E+00 9.2591820E-01 1.6446168E+00
 6.6134207E+00 9.5139519E-01 1.6239535E+00
 6.6457340E+00 9.7648362E-01 1.6023330E+00
 5.5771853E+00 1.4281717E+00 1.7806109E+00
 5.6231847E+00 1.4153951E+00 1.7827891E+00
 5.6709407E+00 1.4020847E+00 1.7845817E+00
 5.7204209E+00 1.3880659E+00 1.7860308E+00
 5.7715212E+00 1.3732987E+00 1.7870833E+00
 5.8240908E+00 1.3577402E+00 1.7876613E+00
 5.8779143E+00 1.3413463E+00 1.7876593E+00
 5.9327340E+00 1.3240684E+00 1.7869447E+00
 5.9882496E+00 1.3058608E+00 1.7853600E+00
 6.0441251E+00 1.2866863E+00 1.7827278E+00
 6.0999957E+00 1.2665227E+00 1.7788614E+00
 6.1554770E+00 1.2453705E+00 1.7735764E+00
 6.2101751E+00 1.2232583E+00 1.7667050E+00
 6.2636983E+00 1.2002467E+00 1.7581092E+00
 6.3156695E+00 1.1764295E+00 1.7476932E+00
 6.3657377E+00 1.1519316E+00 1.7354118E+00
 6.4135902E+00 1.1269051E+00 1.7212748E+00
 6.4589611E+00 1.1015215E+00 1.7053468E+00
 6.5016411E+00 1.0759616E+00 1.6877424E+00
 6.5414814E+00 1.0504038E+00 1.6686177E+00
 6.5784189E+00 1.0250038E+00 1.6481434E+00
 6.6125975E+00 9.9999992E-01 1.6264008E+00
 5.5783135E+00 1.3955237E+00 1.7975478E+00
 5.6253968E+00 1.3815112E+00 1.7996349E+00
 5.6741203E+00 1.3670112E+00 1.8012555E+00
 5.7245378E+00 1.3517727E+00 1.8024726E+00
 5.7765423E+00 1.3357509E+00 1.8032267E+00
 5.8299530E+00 1.3189102E+00 1.8034289E+00
 5.8845320E+00 1.3012118E+00 1.8029636E+00
 5.9399932E+00 1.2826182E+00 1.8016866E+00
 5.9960098E+00 1.2630978E+00 1.7994298E+00
 6.0522213E+00 1.2426318E+00 1.7960084E+00
 6.1082422E+00 1.2212213E+00 1.7912327E+00
 6.1636723E+00 1.1988929E+00 1.7849213E+00
 6.2181087E+00 1.1757040E+00 1.7769168E+00
 6.2711579E+00 1.1517440E+00 1.7670987E+00
 6.3224489E+00 1.1271338E+00 1.7553952E+00
 6.3716451E+00 1.1020216E+00 1.7417897E+00
 6.4184548E+00 1.0765764E+00 1.7263233E+00
 6.4626413E+00 1.0509778E+00 1.7090914E+00
 6.5040317E+00 1.0254021E+00 1.6902350E+00
 6.5425491E+00 9.9999992E-01 1.6699119E+00
 6.5784189E+00 9.7499601E-01 1.6481434E+00
 5.5792787E+00 1.3609627E+00 1.8136971E+00
 5.6272898E+00 1.3457790E+00 1.8155450E+00
 5.6769329E+00 1.3300537E+00 1.8168888E+00
 5.7282288E+00 1.3135650E+00 1.8177599E+00
 5.7810600E+00 1.2962678E+00 1.8180924E+00
 5.8352199E+00 1.2781339E+00 1.8177880E+00
 5.8904431E+00 1.2591350E+00 1.8167209E+00
 5.9464165E+00 1.2392468E+00 1.8147373E+00
 6.0027879E+00 1.2184556E+00 1.8116616E+00
 6.0591745E+00 1.1967643E+00 1.8073051E+00
 6.1151736E+00 1.1741991E+00 1.8014800E+00
 6.1703740E+00 1.1508147E+00 1.7940139E+00
 6.2243691E+00 1.1266967E+00 1.7847652E+00
 6.2767699E+00 1.1019616E+00 1.7736364E+00
 6.3272177E+00 1.0767539E+00 1.7605839E+00
 6.3753961E+00 1.0512396E+00 1.7456226E+00
 6.4210414E+00 1.0255965E+00 1.7288250E+00
 6.4639534E+00 9.9999992E-01 1.7103144E+00
 6.5040317E+00 9.7459772E-01 1.6902350E+00
 6.5414814E+00 9.4959600E-01 1.6686177E+00
 5.5801680E+00 1.3243887E+00 1.8288886E+00
 5.6290518E+00 1.3080044E+00 1.8303879E+00
 5.6795232E+00 1.2910482E+00 1.8313287E+00
 5.7315994E+00 1.2733055E+00 1.8317235E+00
 5.7851370E+00 1.2547439E+00 1.8314961E+00
 5.8399052E+00 1.2353437E+00 1.8305406E+00
 5.8956114E+00 1.2150896E+00 1.8287230E+00
 5.9519168E+00 1.1939739E+00 1.8258829E+00
 6.0084468E+00 1.1720033E+00 1.8218412E+00
 6.0648004E+00 1.1492048E+00 1.8164105E+00
 6.1205631E+00 1.1256314E+00 1.8094109E+00
 6.1753189E+00 1.1013652E+00 1.8006847E+00
 6.2286647E+00 1.0765187E+00 1.7901123E+00
 6.2802228E+00 1.0512319E+00 1.7776234E+00
 6.3296541E+00 1.0256673E+00 1.7632058E+00
 6.3766693E+00 9.9999992E-01 1.7469061E+00
 6.4210414E+00 9.7440338E-01 1.7288250E+00
 6.4626413E+00 9.4902209E-01 1.7090914E+00
 6.5016411E+00 9.2403822E-01 1.6877424E+00
 5.5809986E+00 1.2858490E+00 1.8428933E+00
 5.6306668E+00 1.2682714E+00 1.8439179E+00
 5.6818652E+00 1.2500893E+00 1.8443258E+00
 5.7345976E+00 1.2311154E+00 1.8441064E+00
 5.7886984E+00 1.2113270E+00 1.8431767E+00
 5.8439108E+00 1.1907173E+00 1.8414240E+00
 5.8999170E+00 1.1692862E+00 1.8387094E+00
 5.9563556E+00 1.1470452E+00 1.8348696E+00
 6.0128333E+00 1.1240237E+00 1.8297268E+00
 6.0689367E+00 1.1002739E+00 1.8231010E+00
 6.1242456E+00 1.0758753E+00 1.8148260E+00
 6.1783464E+00 1.0509361E+00 1.8047647E+00
 6.2308465E+00 1.0255917E+00 1.7928241E+00
 6.2813866E+00 9.9999992E-01 1.7789647E+00
 6.3296541E+00 9.7433256E-01 1.7632058E+00
 6.3753961E+00 9.4876026E-01 1.7456226E+00
 6.4184548E+00 9.2342342E-01 1.7263233E+00
 6.4589611E+00 8.9847835E-01 1.7053468E+00
 5.5817443E+00 1.2454521E+00 1.8554756E+00
 5.6320977E+00 1.2267053E+00 1.8558951E+00
 5.6839035E+00 1.2073345E+00 1.8556329E+00
 5.7371532E+00 1.1871822E+00 1.8546583E+00
 5.7916577E+00 1.1662392E+00 1.8528828E+00
 5.8471362E+00 1.1445131E+00 1.8501901E+00
 5.9032482E+00 1.1220214E+00 1.8464398E+00
 5.9596137E+00 1.0987966E+00 1.8414702E+00
 6.0158261E+00 1.0748915E+00 1.8351107E+00
 6.0714657E+00 1.0503832E+00 1.8271941E+00
 6.1261136E+00 1.0253759E+00 1.8175738E+00
 6.1793655E+00 9.9999992E-01 1.8061382E+00
 6.2308465E+00 9.7440817E-01 1.7928241E+00
 6.2802228E+00 9.4876790E-01 1.7776234E+00
 6.3272177E+00 9.2324596E-01 1.7605839E+00
 6.3716451E+00 8.9797828E-01 1.7417897E+00
 6.4135902E+00 8.7309472E-01 1.7212748E+00
 5.5823937E+00 1.2033671E+00 1.8663983E+00
 5.6333164E+00 1.1835045E+00 1.8660801E+00
 5.6855959E+00 1.1630125E+00 1.8650109E+00
 5.7392092E+00 1.1417679E+00 1.8631431E+00
 5.7939455E+00 1.1197771E+00 1.8603854E+00
 5.8495021E+00 1.0970638E+00 1.8566214E+00
 5.9055198E+00 1.0736644E+00 1.8517132E+00
 5.9616049E+00 1.0496328E+00 1.8455062E+00
 6.0173437E+00 1.0250446E+00 1.8378420E+00
 6.0723168E+00 9.9999992E-01 1.8285720E+00
 6.1261136E+00 9.7462396E-01 1.8175738E+00
 6.1783464E+00 9.4906371E-01 1.8047647E+00
 6.2286647E+00 9.2348110E-01 1.7901123E+00
 6.2767699E+00 8.9803820E-01 1.7736364E+00
 6.3224489E+00 8.7286601E-01 1.7553952E+00
 6.3657378E+00 8.4806821E-01 1.7354118E+00
 5.5829317E+00 1.1598112E+00 1.8754415E+00
 5.6342955E+00 1.1389164E+00 1.8742562E+00
 5.6869025E+00 1.1174032E+00 1.8722491E+00
 5.7407158E+00 1.0951864E+00 1.8693600E+00
 5.7955044E+00 1.0722892E+00 1.8654981E+00
 5.8509472E+00 1.0487523E+00 1.8605508E+00
 5.9066712E+00 1.0246310E+00 1.8543871E+00
 5.9622747E+00 9.9999992E-01 1.8468645E+00
 6.0173437E+00 9.7495529E-01 1.8378420E+00
 6.0714657E+00 9.4961666E-01 1.8271941E+00
 6.1242456E+00 9.2412451E-01 1.8148260E+00
 6.1753189E+00 8.9863462E-01 1.8006847E+00
 6.2243691E+00 8.7330315E-01 1.7847652E+00
 6.2711579E+00 8.4825582E-01 1.7670987E+00
 6.3156695E+00 8.2357039E-01 1.7476932E+00
 5.5833469E+00 1.1150517E+00 1.8824111E+00
 5.6350125E+00 1.0932393E+00 1.8802391E+00
 5.6877923E+00 1.0708363E+00 1.8771760E+00
 5.7416356E+00 1.0477990E+00 1.8731549E+00
 5.7962942E+00 1.0241678E+00 1.8680888E+00
 5.8514333E+00 9.9999992E-01 1.8618726E+00
 5.9066712E+00 9.7536880E-01 1.8543871E+00
 5.9616049E+00 9.5036706E-01 1.8455062E+00
 6.0158261E+00 9.2510837E-01 1.8351107E+00
 6.0689367E+00 8.9972595E-01 1.8231010E+00
 6.1205631E+00 8.7436849E-01 1.8094109E+00
 6.1703740E+00 8.4918513E-01 1.7940139E+00
 6.2181087E+00 8.2429580E-01 1.7769168E+00
 6.2636984E+00 7.9975311E-01 1.7581092E+00
 5.5836293E+00 1.0693985E+00 1.8871502E+00
 5.6354499E+00 1.0468112E+00 1.8838878E+00
 5.6882430E+00 1.0236786E+00 1.8796709E+00
 5.7419449E+00 9.9999992E-01 1.8744309E+00
 5.7962942E+00 9.7583203E-01 1.8680888E+00
 5.8509472E+00 9.5124758E-01 1.8605508E+00
 5.9055198E+00 9.2633544E-01 1.8517132E+00
 5.9596137E+00 9.0120320E-01 1.8414702E+00
 6.0128333E+00 8.7597616E-01 1.8297268E+00
 6.0648004E+00 8.5079506E-01 1.8164105E+00
 6.1151736E+00 8.2580074E-01 1.8014800E+00
 6.1636723E+00 8.0110690E-01 1.7849213E+00
 6.2101751E+00 7.7674151E-01 1.7667050E+00
 5.5837723E+00 1.0231948E+00 1.8895482E+00
 5.6355969E+00 9.9999992E-01 1.8851141E+00
 5.6882430E+00 9.7632125E-01 1.8796709E+00
 5.7416356E+00 9.5220081E-01 1.8731549E+00
 5.7955044E+00 9.2771063E-01 1.8654981E+00
 5.8495021E+00 9.0293605E-01 1.8566214E+00
 5.9032482E+00 8.7797840E-01 1.8464398E+00
 5.9563556E+00 8.5295462E-01 1.8348696E+00
 6.0084468E+00 8.2799654E-01 1.8218412E+00
 6.0591745E+00 8.0323559E-01 1.8073051E+00
 6.1082422E+00 7.7877858E-01 1.7912327E+00
 6.1554770E+00 7.5462931E-01 1.7735765E+00
 5.5837723E+00 9.7680509E-01 1.8895482E+00
 5.6354499E+00 9.5318867E-01 1.8838878E+00
 5.6877923E+00 9.2916358E-01 1.8771760E+00
 5.7407158E+00 9.0481343E-01 1.8693600E+00
 5.7939455E+00 8.8022272E-01 1.8603853E+00
 5.8471362E+00 8.5548674E-01 1.8501901E+00
 5.8999170E+00 8.3071368E-01 1.8387094E+00
 5.9519168E+00 8.0602592E-01 1.8258829E+00
 6.0027879E+00 7.8154427E-01 1.8116616E+00
 6.0522213E+00 7.5736802E-01 1.7960084E+00
 6.0999957E+00 7.3347714E-01 1.7788615E+00
 5.5836293E+00 9.3060136E-01 1.8871501E+00
 5.6350125E+00 9.0676055E-01 1.8802390E+00
 5.6869025E+00 8.8259669E-01 1.8722490E+00
 5.7392092E+00 8.5823191E-01 1.8631431E+00
 5.7916577E+00 8.3376060E-01 1.8528827E+00
 5.8439108E+00 8.0928256E-01 1.8414240E+00
 5.8956114E+00 7.8491023E-01 1.8287230E+00
 5.9464165E+00 7.6075303E-01 1.8147373E+00
 5.9960098E+00 7.3690205E-01 1.7994298E+00
 6.0441251E+00 7.1331355E-01 1.7827278E+00
 5.5833469E+00 8.8494811E-01 1.8824111E+00
 5.6342955E+00 8.6108340E-01 1.8742562E+00
 5.6855959E+00 8.3698738E-01 1.8650108E+00
 5.7371532E+00 8.1281760E-01 1.8546583E+00
 5.7886984E+00 7.8867288E-01 1.8431766E+00
 5.8399052E+00 7.6465612E-01 1.8305406E+00
 5.8904431E+00 7.4086486E-01 1.8167209E+00
 5.9399932E+00 7.1738164E-01 1.8016866E+00
 5.9882496E+00 6.9413900E-01 1.7853600E+00
 5.5829317E+00 8.4018867E-01 1.8754415E+00
 5.6333164E+00 8.1649533E-01 1.8660800E+00
 5.6839035E+00 7.9266531E-01 1.8556329E+00
 5.7345976E+00 7.6888442E-01 1.8441064E+00
 5.7851370E+00 7.4525598E-01 1.8314961E+00
 5.8352199E+00 7.2186593E-01 1.8177880E+00
 5.8845320E+00 6.9878803E-01 1.8029636E+00
 5.9327340E+00 6.7593149E-01 1.7869447E+00
 5.5823937E+00 7.9663273E-01 1.8663982E+00
 5.6320977E+00 7.7329458E-01 1.8558951E+00
 5.6818652E+00 7.4991060E-01 1.8443258E+00
 5.7315994E+00 7.2669435E-01 1.8317234E+00
 5.7810599E+00 7.0373207E-01 1.8180924E+00
 5.8299530E+00 6.8108964E-01 1.8034289E+00
 5.8779142E+00 6.5865360E-01 1.7876593E+00
 5.5817443E+00 7.5454772E-01 1.8554755E+00
 5.6306668E+00 7.3172840E-01 1.8439179E+00
 5.6795232E+00 7.0895166E-01 1.8313286E+00
 5.7282288E+00 6.8643483E-01 1.8177598E+00
 5.7765423E+00 6.6424896E-01 1.8032267E+00
 5.8240908E+00 6.4225970E-01 1.7876613E+00
 5.5809986E+00 7.1415081E-01 1.8428933E+00
 5.6290518E+00 6.9199541E-01 1.8303879E+00
 5.6769329E+00 6.6994611E-01 1.8168887E+00
 5.7245378E+00 6.4822711E-01 1.8024726E+00
 5.7715212E+00 6.2670116E-01 1.7870833E+00
 5.5801680E+00 6.7561119E-01 1.8288886E+00
 5.6272898E+00 6.5422084E-01 1.8155449E+00
 5.6741203E+00 6.3298863E-01 1.8012555E+00
 5.7204209E+00 6.1193394E-01 1.7860307E+00
 5.5792787E+00 6.3903712E-01 1.8136970E+00
 5.6253968E+00 6.1848867E-01 1.7996349E+00
 5.6709407E+00 5.9791511E-01 1.7845817E+00
 5.5783135E+00 6.0447614E-01 1.7975478E+00
 5.6231847E+00 5.8460480E-01 1.7827891E+00
 5.5771853E+00 5.7182821E-01 1.7806109E+00
 5.5070923E+00 1.4933798E+00 1.7480893E+00
 5.4792234E+00 1.5185558E+00 1.7334868E+00
 5.4502165E+00 1.5443480E+00 1.7171657E+00
 5.4200756E+00 1.5706073E+00 1.6990209E+00
 5.3889467E+00 1.5971723E+00 1.6789229E+00
 5.3569411E+00 1.6238548E+00 1.6567537E+00
 5.3242184E+00 1.6504354E+00 1.6324111E+00
 5.2909634E+00 1.6766594E+00 1.6058248E+00
 5.2573919E+00 1.7022455E+00 1.5769631E+00
 5.2237433E+00 1.7268935E+00 1.5458425E+00
 5.1902757E+00 1.7502964E+00 1.5125363E+00
 5.1572580E+00 1.7721547E+00 1.4771790E+00
 5.1249600E+00 1.7921927E+00 1.4399680E+00
 5.0936425E+00 1.8101731E+00 1.4011590E+00
 5.0635468E+00 1.8259113E+00 1.3610581E+00
 5.0348848E+00 1.8392839E+00 1.3200076E+00
 5.0078315E+00 1.8502336E+00 1.2783708E+00
 4.9825196E+00 1.8587683E+00 1.2365143E+00
 4.9590368E+00 1.8649558E+00 1.1947918E+00
 4.9374262E+00 1.8689143E+00 1.1535283E+00
 4.9176913E+00 1.8708020E+00 1.1130111E+00
 4.8998060E+00 1.8708014E+00 1.0734934E+00
 4.8837757E+00 1.8691208E+00 1.0352679E+00
 4.4223880E+00 1.0658743E+00 1.5855684E+00
 4.4172653E+00 1.1085556E+00 1.5731812E+00
 4.4139685E+00 1.1526338E+00 1.5590831E+00
 4.4128682E+00 1.1980828E+00 1.5433141E+00
 4.4142169E+00 1.2447111E+00 1.5258010E+00
 4.4182586E+00 1.2922405E+00 1.5065041E+00
 4.4252149E+00 1.3403348E+00 1.4854166E+00
 4.4352710E+00 1.3886033E+00 1.4625697E+00
 4.4485613E+00 1.4366111E+00 1.4380352E+00
 4.4651566E+00 1.4838896E+00 1.4119294E+00
 4.4850534E+00 1.5299528E+00 1.3844139E+00
 4.5081649E+00 1.5743160E+00 1.3556945E+00
 4.5343189E+00 1.6165180E+00 1.3260164E+00
 4.5632595E+00 1.6561439E+00 1.2956570E+00
 4.5946558E+00 1.6928454E+00 1.2649140E+00
 4.6281165E+00 1.7263583E+00 1.2340940E+00
 4.6632088E+00 1.7565136E+00 1.2034975E+00
 4.6994805E+00 1.7832420E+00 1.1734061E+00
 4.7364838E+00 1.8065704E+00 1.1440705E+00
 4.7738013E+00 1.8266143E+00 1.1157019E+00
 4.8110746E+00 1.8435656E+00 1.0884467E+00
 4.8479608E+00 1.8576656E+00 1.0622439E+00
 4.4504230E+00 1.0927734E+00 1.6130926E+00
 4.4465975E+00 1.1369496E+00 1.6006903E+00
 4.4447051E+00 1.1823648E+00 1.5864509E+00
 4.4451491E+00 1.2290559E+00 1.5704098E+00
 4.4481821E+00 1.2768035E+00 1.5524863E+00
 4.4540398E+00 1.3252861E+00 1.5326387E+00
 4.4629271E+00 1.3741194E+00 1.5108651E+00
 4.4750030E+00 1.4228658E+00 1.4872081E+00
 4.4903654E+00 1.4710470E+00 1.4617578E+00
 4.5090389E+00 1.5181596E+00 1.4346544E+00
 4.5309645E+00 1.5636947E+00 1.4060889E+00
 4.5559955E+00 1.6071606E+00 1.3762997E+00
 4.5838971E+00 1.6481078E+00 1.3455657E+00
 4.6143547E+00 1.6861509E+00 1.3141960E+00
 4.6469865E+00 1.7209899E+00 1.2825164E+00
 4.6813631E+00 1.7524225E+00 1.2508542E+00
 4.7170299E+00 1.7803518E+00 1.2195232E+00
 4.7535316E+00 1.8047833E+00 1.1888097E+00
 4.7904428E+00 1.8258204E+00 1.1589583E+00
 4.8273979E+00 1.8436527E+00 1.1301447E+00
 4.8640739E+00 1.8585452E+00 1.1022481E+00
 4.4818940E+00 1.1202416E+00 1.6402112E+00
 4.4794936E+00 1.1657179E+00 1.6276767E+00
 4.4791613E+00 1.2123570E+00 1.6131956E+00
 4.4812993E+00 1.2601562E+00 1.5967707E+00
 4.4861528E+00 1.3088542E+00 1.5783167E+00
 4.4939416E+00 1.3580823E+00 1.5577941E+00
 4.5048457E+00 1.4074078E+00 1.5352108E+00
 4.5189884E+00 1.4563478E+00 1.5106260E+00
 4.5364224E+00 1.5043867E+00 1.4841535E+00
 4.5571176E+00 1.5509950E+00 1.4559637E+00
 4.5809547E+00 1.5956538E+00 1.4262818E+00
 4.6077237E+00 1.6378800E+00 1.3953827E+00
 4.6371301E+00 1.6772519E+00 1.3635812E+00
 4.6688066E+00 1.7134317E+00 1.3312179E+00
 4.7023315E+00 1.7461814E+00 1.2986438E+00
 4.7372525E+00 1.7753726E+00 1.2662030E+00
 4.7731107E+00 1.8009857E+00 1.2342163E+00
 4.8094739E+00 1.8231064E+00 1.2029652E+00
 4.8459688E+00 1.8419153E+00 1.1726590E+00
 4.8822700E+00 1.8576873E+00 1.1432214E+00
 4.5169681E+00 1.1483001E+00 1.6665380E+00
 4.5161617E+00 1.1949365E+00 1.6537628E+00
 4.5175574E+00 1.2426312E+00 1.6389274E+00
 4.5215412E+00 1.2913351E+00 1.6220014E+00
 4.5283411E+00 1.3407390E+00 1.6028976E+00
 4.5381516E+00 1.3904268E+00 1.5815834E+00
 4.5511177E+00 1.4399199E+00 1.5580820E+00
 4.5673177E+00 1.4886969E+00 1.5324753E+00
 4.5867502E+00 1.5362145E+00 1.5049071E+00
 4.6093250E+00 1.5819315E+00 1.4755831E+00
 4.6348599E+00 1.6253357E+00 1.4447671E+00
 4.6630851E+00 1.6659709E+00 1.4127725E+00
 4.6936533E+00 1.7034623E+00 1.3799489E+00
 4.7261574E+00 1.7375347E+00 1.3466659E+00
 4.7601531E+00 1.7680252E+00 1.3132940E+00
 4.7951844E+00 1.7948848E+00 1.2801869E+00
 4.8308173E+00 1.8181763E+00 1.2476617E+00
 4.8666744E+00 1.8380653E+00 1.2159664E+00
 4.9024359E+00 1.8548301E+00 1.1850771E+00
 4.5557635E+00 1.1767359E+00 1.6916812E+00
 4.5567088E+00 1.2243515E+00 1.6785400E+00
 4.5599781E+00 1.2728867E+00 1.6632222E+00