# TIME = 2.000000
VARIABLES = X, Y, Z, FX, FY, FZ
ZONE N=29232 E=58212 F=FEPOINT ET=TRIANGLE
  0.000E+00  9.502E-01  1.243E-03 6.4043459E+00 1.8825897E-01 3.7986366E+00
  0.000E+00  1.000E+00  0.000E+00 6.3935707E+00 3.2989797E-07 3.8035455E+00
  4.318E-02  9.751E-01  3.108E-04 6.3947672E+00 9.2308800E-02 3.7296089E+00
  0.000E+00  1.050E+00  1.243E-03 6.4043467E+00 -1.8825883E-01 3.7986366E+00
  4.318E-02  1.025E+00  3.108E-04 6.3947677E+00 -9.2308359E-02 3.7296090E+00
  0.000E+00  1.100E+00  4.969E-03 6.4404380E+00 -3.7699221E-01 3.7844050E+00
  4.318E-02  1.075E+00  2.796E-03 6.4194269E+00 -2.7713191E-01 3.7201304E+00
  0.000E+00  1.149E+00  1.117E-02 6.5089136E+00 -5.6673946E-01 3.7617404E+00
  4.318E-02  1.124E+00  7.761E-03 6.4720895E+00 -4.6270350E-01 3.7019178E+00
  0.000E+00  1.198E+00  1.983E-02 6.6079118E+00 -7.5643204E-01 3.7305833E+00
  4.318E-02  1.174E+00  1.519E-02 6.5552007E+00 -6.4913519E-01 3.6756576E+00
  0.000E+00  1.247E+00  3.092E-02 6.7162820E+00 -9.4229558E-01 3.6889732E+00
  4.318E-02  1.223E+00  2.507E-02 6.6618140E+00 -8.3387359E-01 3.6403184E+00
  0.000E+00  1.295E+00  4.443E-02 6.8055305E+00 -1.1214311E+00 3.6351132E+00
  4.318E-02  1.271E+00  3.738E-02 6.7651644E+00 -1.0128716E+00 3.5934281E+00
  0.000E+00  1.342E+00  6.031E-02 6.8822720E+00 -1.2981700E+00 3.5727515E+00
  4.318E-02  1.318E+00  5.207E-02 6.8426438E+00 -1.1864958E+00 3.5356996E+00
  0.000E+00  1.388E+00  7.852E-02 7.0408103E+00 -1.4768795E+00 3.5053595E+00
  4.318E-02  1.365E+00  6.913E-02 6.9490668E+00 -1.3609034E+00 3.4721221E+00
  0.000E+00  1.434E+00  9.903E-02 7.1736640E+00 -1.6519168E+00 3.4287341E+00
  4.318E-02  1.411E+00  8.849E-02 7.1213006E+00 -1.5354280E+00 3.4022334E+00
  0.000E+00  1.478E+00  1.218E-01 7.2284565E+00 -1.8193287E+00 3.3408230E+00
  4.318E-02  1.456E+00  1.101E-01 7.2111984E+00 -1.7031716E+00 3.3212036E+00
  0.000E+00  1.521E+00  1.467E-01 7.3881507E+00 -1.9833271E+00 3.2459301E+00
  4.318E-02  1.500E+00  1.340E-01 7.2891083E+00 -1.8652166E+00 3.2311157E+00
  0.000E+00  1.563E+00  1.738E-01 7.4338038E+00 -2.1432866E+00 3.1435286E+00
  4.318E-02  1.543E+00  1.600E-01 7.4351777E+00 -2.0246023E+00 3.1347564E+00
  0.000E+00  1.604E+00  2.029E-01 7.5221795E+00 -2.2970225E+00 3.0325039E+00
  4.318E-02  1.584E+00  1.881E-01 7.4591069E+00 -2.1784157E+00 3.0299266E+00
  0.000E+00  1.643E+00  2.340E-01 7.5765358E+00 -2.4453751E+00 2.9142978E+00
  4.318E-02  1.623E+00  2.182E-01 7.5533208E+00 -2.3265362E+00 2.9174199E+00
  0.000E+00  1.680E+00  2.669E-01 7.5789308E+00 -2.5876135E+00 2.7887763E+00
  4.318E-02  1.662E+00  2.502E-01 7.5659141E+00 -2.4691882E+00 2.7979228E+00
  0.000E+00  1.716E+00  3.018E-01 7.6122942E+00 -2.7233603E+00 2.6562946E+00
  4.318E-02  1.698E+00  2.841E-01 7.6123176E+00 -2.6055098E+00 2.6712947E+00
  0.000E+00  1.750E+00  3.383E-01 7.5658886E+00 -2.8524556E+00 2.5173141E+00
  4.318E-02  1.733E+00  3.198E-01 7.5789522E+00 -2.7354612E+00 2.5381439E+00
  0.000E+00  1.782E+00  3.765E-01 7.5532933E+00 -2.9742805E+00 2.3718827E+00
  4.318E-02  1.766E+00  3.572E-01 7.5765549E+00 -2.8585785E+00 2.3986237E+00
  0.000E+00  1.812E+00  4.163E-01 7.4590775E+00 -3.0889850E+00 2.2208758E+00
  4.318E-02  1.797E+00  3.962E-01 7.5221965E+00 -2.9745294E+00 2.2531087E+00
  0.000E+00  1.840E+00  4.575E-01 7.4351459E+00 -3.1958498E+00 2.0640650E+00
  4.318E-02  1.826E+00  4.367E-01 7.4338183E+00 -3.0834287E+00 2.1023124E+00
  0.000E+00  1.866E+00  5.000E-01 7.2890737E+00 -3.2940966E+00 1.9015719E+00
  4.318E-02  1.853E+00  4.786E-01 7.3881618E+00 -3.1838702E+00 1.9454110E+00
  0.000E+00  1.890E+00  5.438E-01 7.2111627E+00 -3.3859401E+00 1.7363690E+00
  4.318E-02  1.878E+00  5.217E-01 7.2284650E+00 -3.2769598E+00 1.7845478E+00
  0.000E+00  1.912E+00  5.887E-01 7.1212636E+00 -3.4685399E+00 1.5653563E+00
  4.318E-02  1.901E+00  5.661E-01 7.1736707E+00 -3.3631785E+00 1.6203368E+00
  0.000E+00  1.931E+00  6.347E-01 6.9490277E+00 -3.5398013E+00 1.3874299E+00
  4.318E-02  1.921E+00  6.116E-01 7.0408152E+00 -3.4383403E+00 1.4486452E+00
  0.000E+00  1.948E+00  6.815E-01 6.8426034E+00 -3.6046190E+00 1.2096222E+00
  4.318E-02  1.940E+00  6.580E-01 6.8822752E+00 -3.5044535E+00 1.2733514E+00
  0.000E+00  1.963E+00  7.292E-01 6.7651251E+00 -3.6634665E+00 1.0326141E+00
  4.318E-02  1.956E+00  7.052E-01 6.8055326E+00 -3.5656157E+00 1.0999908E+00
  0.000E+00  1.975E+00  7.775E-01 6.6617752E+00 -3.7112717E+00 8.5012767E-01
  4.318E-02  1.969E+00  7.532E-01 6.7162840E+00 -3.6184429E+00 9.2428151E-01
  0.000E+00  1.985E+00  8.264E-01 6.5551611E+00 -3.7473018E+00 6.6178813E-01
  4.318E-02  1.980E+00  8.019E-01 6.6079126E+00 -3.6592607E+00 7.4197323E-01
  0.000E+00  1.992E+00  8.757E-01 6.4720486E+00 -3.7740725E+00 4.7172184E-01
  4.318E-02  1.989E+00  8.510E-01 6.5089129E+00 -3.6898234E+00 5.5590739E-01
  0.000E+00  1.997E+00  9.253E-01 6.4193872E+00 -3.7926406E+00 2.8253245E-01
  4.318E-02  1.995E+00  9.004E-01 6.4404375E+00 -3.7120547E+00 3.6978662E-01
  0.000E+00  2.000E+00  9.751E-01 6.3947300E+00 -3.8023055E+00 9.4107714E-02
  4.318E-02  1.999E+00  9.502E-01 6.4043489E+00 -3.7260162E+00 1.8466029E-01
  0.000E+00  2.000E+00  1.025E+00 6.3947308E+00 -3.8023043E+00 -9.4106386E-02
  4.318E-02  2.000E+00  1.000E+00 6.3935743E+00 -3.7308316E+00 6.4945481E-07
  0.000E+00  1.997E+00  1.075E+00 6.4193896E+00 -3.7926369E+00 -2.8253113E-01
  4.318E-02  1.999E+00  1.050E+00 6.4043504E+00 -3.7260140E+00 -1.8465900E-01
  0.000E+00  1.992E+00  1.124E+00 6.4720525E+00 -3.7740669E+00 -4.7172054E-01
  4.318E-02  1.995E+00  1.100E+00 6.4404406E+00 -3.7120497E+00 -3.6978534E-01
  0.000E+00  1.985E+00  1.174E+00 6.5551665E+00 -3.7472992E+00 -6.6178686E-01
  4.318E-02  1.989E+00  1.149E+00 6.5089176E+00 -3.6898185E+00 -5.5590615E-01
  0.000E+00  1.975E+00  1.223E+00 6.6617821E+00 -3.7112783E+00 -8.5012645E-01
  4.318E-02  1.980E+00  1.198E+00 6.6079187E+00 -3.6592625E+00 -7.4197204E-01
  0.000E+00  1.963E+00  1.271E+00 6.7651333E+00 -3.6634730E+00 -1.0326129E+00
  4.318E-02  1.969E+00  1.247E+00 6.7162915E+00 -3.6184517E+00 -9.2428031E-01
  0.000E+00  1.948E+00  1.318E+00 6.8426130E+00 -3.6046069E+00 -1.2096211E+00
  4.318E-02  1.956E+00  1.295E+00 6.8055415E+00 -3.5656141E+00 -1.0999896E+00
  0.000E+00  1.931E+00  1.365E+00 6.9490386E+00 -3.5397916E+00 -1.3874288E+00
  4.318E-02  1.940E+00  1.342E+00 6.8822855E+00 -3.5044370E+00 -1.2733503E+00
  0.000E+00  1.912E+00  1.411E+00 7.1212750E+00 -3.4685543E+00 -1.5653552E+00
  4.318E-02  1.921E+00  1.388E+00 7.0408270E+00 -3.4383458E+00 -1.4486443E+00
  0.000E+00  1.890E+00  1.456E+00 7.2111759E+00 -3.3859350E+00 -1.7363681E+00
  4.318E-02  1.901E+00  1.434E+00 7.1736835E+00 -3.3631882E+00 -1.6203359E+00
  0.000E+00  1.866E+00  1.500E+00 7.2890880E+00 -3.2940870E+00 -1.9015709E+00
  4.318E-02  1.878E+00  1.478E+00 7.2284787E+00 -3.2769445E+00 -1.7845467E+00
  0.000E+00  1.840E+00  1.543E+00 7.4351611E+00 -3.1958606E+00 -2.0640645E+00
  4.318E-02  1.853E+00  1.521E+00 7.3881766E+00 -3.1838756E+00 -1.9454104E+00
  0.000E+00  1.812E+00  1.584E+00 7.4590935E+00 -3.0889791E+00 -2.2208748E+00
  4.318E-02  1.826E+00  1.563E+00 7.4338339E+00 -3.0834311E+00 -2.1023116E+00
  0.000E+00  1.782E+00  1.623E+00 7.5533101E+00 -2.9742838E+00 -2.3718822E+00
  4.318E-02  1.797E+00  1.604E+00 7.5222129E+00 -2.9745259E+00 -2.2531081E+00
  0.000E+00  1.750E+00  1.662E+00 7.5659060E+00 -2.8524564E+00 -2.5173135E+00
  4.318E-02  1.766E+00  1.643E+00 7.5765720E+00 -2.8585837E+00 -2.3986234E+00
  0.000E+00  1.716E+00  1.698E+00 7.6123122E+00 -2.7233606E+00 -2.6562942E+00
  4.318E-02  1.733E+00  1.680E+00 7.5789699E+00 -2.7354589E+00 -2.5381433E+00
  0.000E+00  1.680E+00  1.733E+00 7.5789492E+00 -2.5876150E+00 -2.7887760E+00
  4.318E-02  1.698E+00  1.716E+00 7.6123359E+00 -2.6055128E+00 -2.6712946E+00
  0.000E+00  1.643E+00  1.766E+00 7.5765547E+00 -2.4453748E+00 -2.9142975E+00
  4.318E-02  1.662E+00  1.750E+00 7.5659328E+00 -2.4691877E+00 -2.7979225E+00
  0.000E+00  1.604E+00  1.797E+00 7.5221988E+00 -2.2970233E+00 -3.0325038E+00
  4.318E-02  1.623E+00  1.782E+00 7.5533399E+00 -2.3265372E+00 -2.9174198E+00
  0.000E+00  1.563E+00  1.826E+00 7.4338233E+00 -2.1432863E+00 -3.1435286E+00
  4.318E-02  1.584E+00  1.812E+00 7.4591263E+00 -2.1784155E+00 -3.0299265E+00
  0.000E+00  1.521E+00  1.853E+00 7.3881703E+00 -1.9833277E+00 -3.2459302E+00
  4.318E-02  1.543E+00  1.840E+00 7.4351974E+00 -2.0246027E+00 -3.1347565E+00
  0.000E+00  1.478E+00  1.878E+00 7.2284761E+00 -1.8193288E+00 -3.3408232E+00
  4.318E-02  1.500E+00  1.866E+00 7.2891283E+00 -1.8652163E+00 -3.2311157E+00
  0.000E+00  1.434E+00  1.901E+00 7.1736838E+00 -1.6519179E+00 -3.4287344E+00
  4.318E-02  1.456E+00  1.890E+00 7.2112186E+00 -1.7031720E+00 -3.3212038E+00
  0.000E+00  1.388E+00  1.921E+00 7.0408306E+00 -1.4768783E+00 -3.5053596E+00
  4.318E-02  1.411E+00  1.912E+00 7.1213206E+00 -1.5354284E+00 -3.4022338E+00
  0.000E+00  1.342E+00  1.940E+00 6.8822930E+00 -1.2981685E+00 -3.5727512E+00
  4.318E-02  1.365E+00  1.931E+00 6.9490865E+00 -1.3609042E+00 -3.4721228E+00
  0.000E+00  1.295E+00  1.956E+00 6.8055516E+00 -1.1214296E+00 -3.6351128E+00
  4.318E-02  1.318E+00  1.948E+00 6.8426634E+00 -1.1864973E+00 -3.5357005E+00
  0.000E+00  1.247E+00  1.969E+00 6.7163024E+00 -9.4229606E-01 -3.6889731E+00
  4.318E-02  1.271E+00  1.963E+00 6.7651845E+00 -1.0128721E+00 -3.5934291E+00
  0.000E+00  1.198E+00  1.980E+00 6.6079314E+00 -7.5643428E-01 -3.7305838E+00
  4.318E-02  1.223E+00  1.975E+00 6.6618346E+00 -8.3387278E-01 -3.6403191E+00
  0.000E+00  1.149E+00  1.989E+00 6.5089330E+00 -5.6674278E-01 -3.7617416E+00
  4.318E-02  1.174E+00  1.985E+00 6.5552216E+00 -6.4913315E-01 -3.6756580E+00
  0.000E+00  1.100E+00  1.995E+00 6.4404577E+00 -3.7699503E-01 -3.7844067E+00
  4.318E-02  1.124E+00  1.992E+00 6.4721100E+00 -4.6270189E-01 -3.7019178E+00
  0.000E+00  1.050E+00  1.999E+00 6.4043669E+00 -1.8826007E-01 -3.7986387E+00
  4.318E-02  1.075E+00  1.997E+00 6.4194470E+00 -2.7713043E-01 -3.7201302E+00
  0.000E+00  1.000E+00  2.000E+00 6.3935910E+00 4.8092758E-09 -3.8035477E+00
  4.318E-02  1.025E+00  2.000E+00 6.3947875E+00 -9.2308039E-02 -3.7296086E+00
  0.000E+00  9.502E-01  1.999E+00 6.4043660E+00 1.8826060E-01 -3.7986387E+00
  4.318E-02  9.751E-01  2.000E+00 6.3947871E+00 9.2308242E-02 -3.7296086E+00
  0.000E+00  9.004E-01  1.995E+00 6.4404560E+00 3.7699523E-01 -3.7844067E+00
  4.318E-02  9.253E-01  1.997E+00 6.4194458E+00 2.7713094E-01 -3.7201301E+00
  0.000E+00  8.510E-01  1.989E+00 6.5089305E+00 5.6674297E-01 -3.7617416E+00
  4.318E-02  8.757E-01  1.992E+00 6.4721079E+00 4.6270188E-01 -3.7019177E+00
  0.000E+00  8.019E-01  1.980E+00 6.6079281E+00 7.5643469E-01 -3.7305838E+00
  4.318E-02  8.264E-01  1.985E+00 6.5552187E+00 6.4913358E-01 -3.6756579E+00
  0.000E+00  7.532E-01  1.969E+00 6.7162984E+00 9.4229614E-01 -3.6889730E+00
  4.318E-02  7.775E-01  1.975E+00 6.6618309E+00 8.3387293E-01 -3.6403191E+00
  0.000E+00  7.052E-01  1.956E+00 6.8055468E+00 1.1214298E+00 -3.6351127E+00
  4.318E-02  7.292E-01  1.963E+00 6.7651800E+00 1.0128723E+00 -3.5934290E+00
  0.000E+00  6.580E-01  1.940E+00 6.8822875E+00 1.2981685E+00 -3.5727512E+00
  4.318E-02  6.815E-01  1.948E+00 6.8426582E+00 1.1864973E+00 -3.5357005E+00
  0.000E+00  6.116E-01  1.921E+00 7.0408245E+00 1.4768789E+00 -3.5053596E+00
  4.318E-02  6.347E-01  1.931E+00 6.9490806E+00 1.3609046E+00 -3.4721227E+00
  0.000E+00  5.661E-01  1.901E+00 7.1736770E+00 1.6519172E+00 -3.4287343E+00
  4.318E-02  5.887E-01  1.912E+00 7.1213138E+00 1.5354283E+00 -3.4022335E+00
  0.000E+00  5.217E-01  1.878E+00 7.2284688E+00 1.8193292E+00 -3.3408232E+00
  4.318E-02  5.438E-01  1.890E+00 7.2112114E+00 1.7031716E+00 -3.3212037E+00
  0.000E+00  4.786E-01  1.853E+00 7.3881625E+00 1.9833273E+00 -3.2459302E+00
  4.318E-02  5.000E-01  1.866E+00 7.2891207E+00 1.8652166E+00 -3.2311157E+00
  0.000E+00  4.367E-01  1.826E+00 7.4338149E+00 2.1432867E+00 -3.1435285E+00
  4.318E-02  4.575E-01  1.840E+00 7.4351892E+00 2.0246023E+00 -3.1347564E+00
  0.000E+00  3.962E-01  1.797E+00 7.5221900E+00 2.2970225E+00 -3.0325037E+00
  4.318E-02  4.163E-01  1.812E+00 7.4591176E+00 2.1784158E+00 -3.0299265E+00
  0.000E+00  3.572E-01  1.766E+00 7.5765455E+00 2.4453750E+00 -2.9142975E+00
  4.318E-02  3.765E-01  1.782E+00 7.5533308E+00 2.3265362E+00 -2.9174197E+00
  0.000E+00  3.198E-01  1.733E+00 7.5789397E+00 2.5876133E+00 -2.7887760E+00
  4.318E-02  3.383E-01  1.750E+00 7.5659234E+00 2.4691882E+00 -2.7979225E+00
  0.000E+00  2.841E-01  1.698E+00 7.6123024E+00 2.7233601E+00 -2.6562941E+00
  4.318E-02  3.018E-01  1.716E+00 7.6123261E+00 2.6055097E+00 -2.6712944E+00
  0.000E+00  2.502E-01  1.662E+00 7.5658959E+00 2.8524554E+00 -2.5173135E+00
  4.318E-02  2.669E-01  1.680E+00 7.5789599E+00 2.7354611E+00 -2.5381434E+00
  0.000E+00  2.182E-01  1.623E+00 7.5532998E+00 2.9742802E+00 -2.3718820E+00
  4.318E-02  2.340E-01  1.643E+00 7.5765617E+00 2.8585784E+00 -2.3986232E+00
  0.000E+00  1.881E-01  1.584E+00 7.4590830E+00 3.0889846E+00 -2.2208750E+00
  4.318E-02  2.029E-01  1.604E+00 7.5222025E+00 2.9745291E+00 -2.2531081E+00
  0.000E+00  1.600E-01  1.543E+00 7.4351505E+00 3.1958494E+00 -2.0640642E+00
  4.318E-02  1.738E-01  1.563E+00 7.4338233E+00 3.0834284E+00 -2.1023117E+00
  0.000E+00  1.340E-01  1.500E+00 7.2890772E+00 3.2940962E+00 -1.9015710E+00
  4.318E-02  1.467E-01  1.521E+00 7.3881658E+00 3.1838698E+00 -1.9454102E+00
  0.000E+00  1.101E-01  1.456E+00 7.2111651E+00 3.3859396E+00 -1.7363681E+00
  4.318E-02  1.218E-01  1.478E+00 7.2284679E+00 3.2769594E+00 -1.7845469E+00
  0.000E+00  8.849E-02  1.411E+00 7.1212646E+00 3.4685391E+00 -1.5653552E+00
  4.318E-02  9.903E-02  1.434E+00 7.1736726E+00 3.3631780E+00 -1.6203358E+00
  0.000E+00  6.913E-02  1.365E+00 6.9490277E+00 3.5398007E+00 -1.3874288E+00
  4.318E-02  7.852E-02  1.388E+00 7.0408159E+00 3.4383399E+00 -1.4486441E+00
  0.000E+00  5.207E-02  1.318E+00 6.8426021E+00 3.6046183E+00 -1.2096210E+00
  4.318E-02  6.031E-02  1.342E+00 6.8822746E+00 3.5044529E+00 -1.2733503E+00
  0.000E+00  3.738E-02  1.271E+00 6.7651225E+00 3.6634658E+00 -1.0326129E+00
  4.318E-02  4.443E-02  1.295E+00 6.8055306E+00 3.5656151E+00 -1.0999896E+00
  0.000E+00  2.507E-02  1.223E+00 6.6617713E+00 3.7112710E+00 -8.5012636E-01
  4.318E-02  3.092E-02  1.247E+00 6.7162806E+00 3.6184422E+00 -9.2428026E-01
  0.000E+00  1.519E-02  1.174E+00 6.5551556E+00 3.7473010E+00 -6.6178678E-01
  4.318E-02  1.983E-02  1.198E+00 6.6079078E+00 3.6592600E+00 -7.4197195E-01
  0.000E+00  7.761E-03  1.124E+00 6.4720416E+00 3.7740717E+00 -4.7172047E-01
  4.318E-02  1.117E-02  1.149E+00 6.5089066E+00 3.6898226E+00 -5.5590608E-01
  0.000E+00  2.796E-03  1.075E+00 6.4193787E+00 3.7926398E+00 -2.8253106E-01
  4.318E-02  4.969E-03  1.100E+00 6.4404297E+00 3.7120539E+00 -3.6978528E-01
  0.000E+00  3.108E-04  1.025E+00 6.3947200E+00 3.8023046E+00 -9.4106319E-02
  4.318E-02  1.243E-03  1.050E+00 6.4043395E+00 3.7260154E+00 -1.8465893E-01
  0.000E+00  3.108E-04  9.751E-01 6.3947192E+00 3.8023035E+00 9.4107776E-02
  4.318E-02  0.000E+00  1.000E+00 6.3935634E+00 3.7308308E+00 7.1306045E-07
  0.000E+00  2.796E-03  9.253E-01 6.4193764E+00 3.7926361E+00 2.8253250E-01
  4.318E-02  1.243E-03  9.502E-01 6.4043380E+00 3.7260131E+00 1.8466035E-01
  0.000E+00  7.761E-03  8.757E-01 6.4720377E+00 3.7740661E+00 4.7172189E-01
  4.318E-02  4.969E-03  9.004E-01 6.4404266E+00 3.7120489E+00 3.6978666E-01
  0.000E+00  1.519E-02  8.264E-01 6.5551502E+00 3.7472983E+00 6.6178817E-01
  4.318E-02  1.117E-02  8.510E-01 6.5089020E+00 3.6898176E+00 5.5590744E-01
  0.000E+00  2.507E-02  7.775E-01 6.6617644E+00 3.7112774E+00 8.5012771E-01
  4.318E-02  1.983E-02  8.019E-01 6.6079017E+00 3.6592616E+00 7.4197328E-01
  0.000E+00  3.738E-02  7.292E-01 6.7651142E+00 3.6634722E+00 1.0326141E+00
  4.318E-02  3.092E-02  7.532E-01 6.7162731E+00 3.6184508E+00 9.2428151E-01
  0.000E+00  5.207E-02  6.815E-01 6.8425925E+00 3.6046061E+00 1.2096222E+00
  4.318E-02  4.443E-02  7.052E-01 6.8055217E+00 3.5656133E+00 1.0999908E+00
  0.000E+00  6.913E-02  6.347E-01 6.9490169E+00 3.5397908E+00 1.3874298E+00
  4.318E-02  6.031E-02  6.580E-01 6.8822643E+00 3.5044362E+00 1.2733513E+00
  0.000E+00  8.849E-02  5.887E-01 7.1212523E+00 3.4685537E+00 1.5653563E+00
  4.318E-02  7.852E-02  6.116E-01 7.0408045E+00 3.4383449E+00 1.4486452E+00
  0.000E+00  1.101E-01  5.438E-01 7.2111520E+00 3.3859342E+00 1.7363690E+00
  4.318E-02  9.903E-02  5.661E-01 7.1736600E+00 3.3631874E+00 1.6203368E+00
  0.000E+00  1.340E-01  5.000E-01 7.2890631E+00 3.2940863E+00 1.9015717E+00
  4.318E-02  1.218E-01  5.217E-01 7.2284542E+00 3.2769438E+00 1.7845475E+00
  0.000E+00  1.600E-01  4.575E-01 7.4351354E+00 3.1958599E+00 2.0640651E+00
  4.318E-02  1.467E-01  4.786E-01 7.3881512E+00 3.1838749E+00 1.9454111E+00
  0.000E+00  1.881E-01  4.163E-01 7.4590671E+00 3.0889785E+00 2.2208754E+00
  4.318E-02  1.738E-01  4.367E-01 7.4338078E+00 3.0834304E+00 2.1023122E+00
  0.000E+00  2.182E-01  3.765E-01 7.5532831E+00 2.9742833E+00 2.3718826E+00
  4.318E-02  2.029E-01  3.962E-01 7.5221862E+00 2.9745253E+00 2.2531086E+00
  0.000E+00  2.502E-01  3.383E-01 7.5658786E+00 2.8524559E+00 2.5173139E+00
  4.318E-02  2.340E-01  3.572E-01 7.5765447E+00 2.8585832E+00 2.3986237E+00
  0.000E+00  2.841E-01  3.018E-01 7.6122845E+00 2.7233602E+00 2.6562945E+00
  4.318E-02  2.669E-01  3.198E-01 7.5789422E+00 2.7354584E+00 2.5381436E+00
  0.000E+00  3.198E-01  2.669E-01 7.5789213E+00 2.5876147E+00 2.7887762E+00
  4.318E-02  3.018E-01  2.841E-01 7.6123079E+00 2.6055124E+00 2.6712947E+00
  0.000E+00  3.572E-01  2.340E-01 7.5765266E+00 2.4453745E+00 2.9142976E+00
  4.318E-02  3.383E-01  2.502E-01 7.5659047E+00 2.4691873E+00 2.7979225E+00
  0.000E+00  3.962E-01  2.029E-01 7.5221707E+00 2.2970231E+00 3.0325038E+00
  4.318E-02  3.765E-01  2.182E-01 7.5533118E+00 2.3265369E+00 2.9174198E+00
  0.000E+00  4.367E-01  1.738E-01 7.4337954E+00 2.1432861E+00 3.1435284E+00
  4.318E-02  4.163E-01  1.881E-01 7.4590982E+00 2.1784153E+00 3.0299264E+00
  0.000E+00  4.786E-01  1.467E-01 7.3881428E+00 1.9833274E+00 3.2459300E+00
  4.318E-02  4.575E-01  1.600E-01 7.4351695E+00 2.0246026E+00 3.1347563E+00
  0.000E+00  5.217E-01  1.218E-01 7.2284491E+00 1.8193284E+00 3.3408228E+00
  4.318E-02  5.000E-01  1.340E-01 7.2891007E+00 1.8652163E+00 3.2311155E+00
  0.000E+00  5.661E-01  9.903E-02 7.1736571E+00 1.6519177E+00 3.4287339E+00
  4.318E-02  5.438E-01  1.101E-01 7.2111913E+00 1.7031722E+00 3.3212035E+00
  0.000E+00  6.116E-01  7.852E-02 7.0408041E+00 1.4768792E+00 3.5053594E+00
  4.318E-02  5.887E-01  8.849E-02 7.1212939E+00 1.5354281E+00 3.4022332E+00
  0.000E+00  6.580E-01  6.031E-02 6.8822665E+00 1.2981704E+00 3.5727514E+00
  4.318E-02  6.347E-01  6.913E-02 6.9490610E+00 1.3609034E+00 3.4721221E+00
  0.000E+00  7.052E-01  4.443E-02 6.8055257E+00 1.1214313E+00 3.6351131E+00
  4.318E-02  6.815E-01  5.207E-02 6.8426386E+00 1.1864961E+00 3.5356995E+00
  0.000E+00  7.532E-01  3.092E-02 6.7162780E+00 9.4229600E-01 3.6889731E+00
  4.318E-02  7.292E-01  3.738E-02 6.7651599E+00 1.0128718E+00 3.5934280E+00
  0.000E+00  8.019E-01  1.983E-02 6.6079085E+00 7.5643219E-01 3.7305832E+00
  4.318E-02  7.775E-01  2.507E-02 6.6618102E+00 8.3387395E-01 3.6403183E+00
  0.000E+00  8.510E-01  1.117E-02 6.5089111E+00 5.6673987E-01 3.7617403E+00
  4.318E-02  8.264E-01  1.519E-02 6.5551978E+00 6.4913533E-01 3.6756575E+00
  0.000E+00  9.004E-01  4.969E-03 6.4404364E+00 3.7699265E-01 3.7844049E+00
  4.318E-02  8.757E-01  7.761E-03 6.4720874E+00 4.6270411E-01 3.7019177E+00
  4.318E-02  9.253E-01  2.796E-03 6.4194256E+00 2.7713203E-01 3.7201304E+00
  1.000E+01  1.050E+00  1.243E-03 6.4043467E+00 -1.8825883E-01 3.7986366E+00
  1.000E+01  1.000E+00  5.551E-16 6.3935707E+00 3.2989797E-07 3.8035455E+00
  9.957E+00  1.025E+00  3.108E-04 6.3947573E+00 -9.5912853E-02 3.8752890E+00
  1.000E+01  9.502E-01  1.243E-03 6.4043459E+00 1.8825897E-01 3.7986366E+00
  9.957E+00  9.751E-01  3.108E-04 6.3947569E+00 9.5913323E-02 3.8752890E+00
  1.000E+01  9.004E-01  4.969E-03 6.4404364E+00 3.7699265E-01 3.7844049E+00
  9.957E+00  9.253E-01  2.796E-03 6.4194154E+00 2.8795495E-01 3.8654401E+00
  1.000E+01  8.510E-01  1.117E-02 6.5089111E+00 5.6673987E-01 3.7617403E+00
  9.957E+00  8.757E-01  7.761E-03 6.4720771E+00 4.8077736E-01 3.8465158E+00
  1.000E+01  8.019E-01  1.983E-02 6.6079085E+00 7.5643219E-01 3.7305832E+00
  9.957E+00  8.264E-01  1.519E-02 6.5551879E+00 6.7449190E-01 3.8192298E+00
  1.000E+01  7.532E-01  3.092E-02 6.7162780E+00 9.4229600E-01 3.6889731E+00
  9.957E+00  7.775E-01  2.507E-02 6.6618003E+00 8.6644498E-01 3.7825101E+00
  1.000E+01  7.052E-01  4.443E-02 6.8055257E+00 1.1214313E+00 3.6351131E+00
  9.957E+00  7.292E-01  3.738E-02 6.7651498E+00 1.0524330E+00 3.7337881E+00
  1.000E+01  6.580E-01  6.031E-02 6.8822665E+00 1.2981704E+00 3.5727514E+00
  9.957E+00  6.815E-01  5.207E-02 6.8426283E+00 1.2328394E+00 3.6738044E+00
  1.000E+01  6.116E-01  7.852E-02 7.0408041E+00 1.4768792E+00 3.5053594E+00
  9.957E+00  6.347E-01  6.913E-02 6.9490508E+00 1.4140607E+00 3.6077433E+00
  1.000E+01  5.661E-01  9.903E-02 7.1736571E+00 1.6519177E+00 3.4287339E+00
  9.957E+00  5.887E-01  8.849E-02 7.1212832E+00 1.5954018E+00 3.5351242E+00
  1.000E+01  5.217E-01  1.218E-01 7.2284491E+00 1.8193284E+00 3.3408228E+00
  9.957E+00  5.438E-01  1.101E-01 7.2111812E+00 1.7696976E+00 3.4509296E+00
  1.000E+01  4.786E-01  1.467E-01 7.3881428E+00 1.9833274E+00 3.2459300E+00
  9.957E+00  5.000E-01  1.340E-01 7.2890906E+00 1.9380719E+00 3.3573219E+00
  1.000E+01  4.367E-01  1.738E-01 7.4337954E+00 2.1432861E+00 3.1435284E+00
  9.957E+00  4.575E-01  1.600E-01 7.4351595E+00 2.1036843E+00 3.2571987E+00
  1.000E+01  3.962E-01  2.029E-01 7.5221707E+00 2.2970231E+00 3.0325038E+00
  9.957E+00  4.163E-01  1.881E-01 7.4590883E+00 2.2635042E+00 3.1482745E+00
  1.000E+01  3.572E-01  2.340E-01 7.5765266E+00 2.4453745E+00 2.9142976E+00
  9.957E+00  3.765E-01  2.182E-01 7.5533016E+00 2.4174102E+00 3.0313738E+00
  1.000E+01  3.198E-01  2.669E-01 7.5789213E+00 2.5876147E+00 2.7887762E+00
  9.957E+00  3.383E-01  2.502E-01 7.5658947E+00 2.5656322E+00 2.9072096E+00
  1.000E+01  2.841E-01  3.018E-01 7.6122845E+00 2.7233602E+00 2.6562945E+00
  9.957E+00  3.018E-01  2.841E-01 7.6122978E+00 2.7072819E+00 2.7756359E+00
  1.000E+01  2.502E-01  3.383E-01 7.5658786E+00 2.8524559E+00 2.5173139E+00
  9.957E+00  2.669E-01  3.198E-01 7.5789321E+00 2.8423036E+00 2.6372837E+00
  1.000E+01  2.182E-01  3.765E-01 7.5532831E+00 2.9742833E+00 2.3718826E+00
  9.957E+00  2.340E-01  3.572E-01 7.5765346E+00 2.9702382E+00 2.4923140E+00
  1.000E+01  1.881E-01  4.163E-01 7.4590671E+00 3.0889785E+00 2.2208754E+00
  9.957E+00  2.029E-01  3.962E-01 7.5221760E+00 3.0907097E+00 2.3411143E+00
  1.000E+01  1.600E-01  4.575E-01 7.4351354E+00 3.1958599E+00 2.0640651E+00
  9.957E+00  1.738E-01  4.367E-01 7.4337976E+00 3.2038694E+00 2.1844267E+00
  1.000E+01  1.340E-01  5.000E-01 7.2890631E+00 3.2940863E+00 1.9015717E+00
  9.957E+00  1.467E-01  4.786E-01 7.3881408E+00 3.3082373E+00 2.0213970E+00
  1.000E+01  1.101E-01  5.438E-01 7.2111520E+00 3.3859342E+00 1.7363690E+00
  9.957E+00  1.218E-01  5.217E-01 7.2284441E+00 3.4049414E+00 1.8542510E+00
  1.000E+01  8.849E-02  5.887E-01 7.1212523E+00 3.4685537E+00 1.5653563E+00
  9.957E+00  9.903E-02  5.661E-01 7.1736498E+00 3.4945535E+00 1.6836269E+00
  1.000E+01  6.913E-02  6.347E-01 6.9490169E+00 3.5397908E+00 1.3874298E+00
  9.957E+00  7.852E-02  6.116E-01 7.0407941E+00 3.5726468E+00 1.5052278E+00
  1.000E+01  5.207E-02  6.815E-01 6.8425925E+00 3.6046061E+00 1.2096222E+00
  9.957E+00  6.031E-02  6.580E-01 6.8822541E+00 3.6413200E+00 1.3230881E+00
  1.000E+01  3.738E-02  7.292E-01 6.7651142E+00 3.6634722E+00 1.0326141E+00
  9.957E+00  4.443E-02  7.052E-01 6.8055116E+00 3.7048868E+00 1.1429574E+00
  1.000E+01  2.507E-02  7.775E-01 6.6617644E+00 3.7112774E+00 8.5012771E-01
  9.957E+00  3.092E-02  7.532E-01 6.7162627E+00 3.7597882E+00 9.6038452E-01
  1.000E+01  1.519E-02  8.264E-01 6.5551502E+00 3.7472983E+00 6.6178817E-01
  9.957E+00  1.983E-02  8.019E-01 6.6078911E+00 3.8021932E+00 7.7095311E-01
  1.000E+01  7.761E-03  8.757E-01 6.4720377E+00 3.7740661E+00 4.7172189E-01
  9.957E+00  1.117E-02  8.510E-01 6.5088914E+00 3.8339430E+00 5.7761993E-01
  1.000E+01  2.796E-03  9.253E-01 6.4193764E+00 3.7926361E+00 2.8253250E-01
  9.957E+00  4.969E-03  9.004E-01 6.4404163E+00 3.8570430E+00 3.8423121E-01
  1.000E+01  3.108E-04  9.751E-01 6.3947192E+00 3.8023035E+00 9.4107776E-02
  9.957E+00  1.243E-03  9.502E-01 6.4043265E+00 3.8715518E+00 1.9187505E-01
  1.000E+01  3.108E-04  1.025E+00 6.3947200E+00 3.8023046E+00 -9.4106319E-02
  9.957E+00  0.000E+00  1.000E+00 6.3935531E+00 3.8765588E+00 7.4579203E-07
  1.000E+01  2.796E-03  1.075E+00 6.4193787E+00 3.7926398E+00 -2.8253106E-01
  9.957E+00  1.243E-03  1.050E+00 6.4043280E+00 3.8715541E+00 -1.9187357E-01
  1.000E+01  7.761E-03  1.124E+00 6.4720416E+00 3.7740717E+00 -4.7172047E-01
  9.957E+00  4.969E-03  1.100E+00 6.4404193E+00 3.8570482E+00 -3.8422975E-01
  1.000E+01  1.519E-02  1.174E+00 6.5551556E+00 3.7473010E+00 -6.6178678E-01
  9.957E+00  1.117E-02  1.149E+00 6.5088960E+00 3.8339482E+00 -5.7761850E-01
  1.000E+01  2.507E-02  1.223E+00 6.6617713E+00 3.7112710E+00 -8.5012636E-01
  9.957E+00  1.983E-02  1.198E+00 6.6078971E+00 3.8021915E+00 -7.7095171E-01
  1.000E+01  3.738E-02  1.271E+00 6.7651225E+00 3.6634658E+00 -1.0326129E+00
  9.957E+00  3.092E-02  1.247E+00 6.7162702E+00 3.7597793E+00 -9.6038322E-01
  1.000E+01  5.207E-02  1.318E+00 6.8426021E+00 3.6046183E+00 -1.2096210E+00
  9.957E+00  4.443E-02  1.295E+00 6.8055204E+00 3.7048887E+00 -1.1429562E+00
  1.000E+01  6.913E-02  1.365E+00 6.9490277E+00 3.5398007E+00 -1.3874288E+00
  9.957E+00  6.031E-02  1.342E+00 6.8822643E+00 3.6413374E+00 -1.3230871E+00
  1.000E+01  8.849E-02  1.411E+00 7.1212646E+00 3.4685391E+00 -1.5653552E+00
  9.957E+00  7.852E-02  1.388E+00 7.0408056E+00 3.5726417E+00 -1.5052269E+00
  1.000E+01  1.101E-01  1.456E+00 7.2111651E+00 3.3859396E+00 -1.7363681E+00
  9.957E+00  9.903E-02  1.434E+00 7.1736624E+00 3.4945439E+00 -1.6836257E+00
  1.000E+01  1.340E-01  1.500E+00 7.2890772E+00 3.2940962E+00 -1.9015710E+00
  9.957E+00  1.218E-01  1.478E+00 7.2284577E+00 3.4049577E+00 -1.8542503E+00
  1.000E+01  1.600E-01  1.543E+00 7.4351505E+00 3.1958494E+00 -2.0640642E+00
  9.957E+00  1.467E-01  1.521E+00 7.3881553E+00 3.3082321E+00 -2.0213961E+00
  1.000E+01  1.881E-01  1.584E+00 7.4590830E+00 3.0889846E+00 -2.2208750E+00
  9.957E+00  1.738E-01  1.563E+00 7.4338130E+00 3.2038672E+00 -2.1844261E+00
  1.000E+01  2.182E-01  1.623E+00 7.5532998E+00 2.9742802E+00 -2.3718820E+00
  9.957E+00  2.029E-01  1.604E+00 7.5221922E+00 3.0907137E+00 -2.3411138E+00
  1.000E+01  2.502E-01  1.662E+00 7.5658959E+00 2.8524554E+00 -2.5173135E+00
  9.957E+00  2.340E-01  1.643E+00 7.5765514E+00 2.9702332E+00 -2.4923135E+00
  1.000E+01  2.841E-01  1.698E+00 7.6123024E+00 2.7233601E+00 -2.6562941E+00
  9.957E+00  2.669E-01  1.680E+00 7.5789495E+00 2.8423064E+00 -2.6372835E+00
  1.000E+01  3.198E-01  1.733E+00 7.5789397E+00 2.5876133E+00 -2.7887760E+00
  9.957E+00  3.018E-01  1.716E+00 7.6123159E+00 2.7072792E+00 -2.7756356E+00
  1.000E+01  3.572E-01  1.766E+00 7.5765455E+00 2.4453750E+00 -2.9142975E+00
  9.957E+00  3.383E-01  1.750E+00 7.5659132E+00 2.5656332E+00 -2.9072096E+00
  1.000E+01  3.962E-01  1.797E+00 7.5221900E+00 2.2970225E+00 -3.0325037E+00
  9.957E+00  3.765E-01  1.782E+00 7.5533205E+00 2.4174095E+00 -3.0313738E+00
  1.000E+01  4.367E-01  1.826E+00 7.4338149E+00 2.1432867E+00 -3.1435285E+00
  9.957E+00  4.163E-01  1.812E+00 7.4591074E+00 2.2635047E+00 -3.1482746E+00
  1.000E+01  4.786E-01  1.853E+00 7.3881625E+00 1.9833273E+00 -3.2459302E+00
  9.957E+00  4.575E-01  1.840E+00 7.4351789E+00 2.1036841E+00 -3.2571989E+00
  1.000E+01  5.217E-01  1.878E+00 7.2284688E+00 1.8193292E+00 -3.3408232E+00
  9.957E+00  5.000E-01  1.866E+00 7.2891104E+00 1.9380723E+00 -3.3573222E+00
  1.000E+01  5.661E-01  1.901E+00 7.1736770E+00 1.6519172E+00 -3.4287343E+00
  9.957E+00  5.438E-01  1.890E+00 7.2112011E+00 1.7696970E+00 -3.4509300E+00
  1.000E+01  6.116E-01  1.921E+00 7.0408245E+00 1.4768789E+00 -3.5053596E+00
  9.957E+00  5.887E-01  1.912E+00 7.1213030E+00 1.5954018E+00 -3.5351245E+00
  1.000E+01  6.580E-01  1.940E+00 6.8822875E+00 1.2981685E+00 -3.5727512E+00
  9.957E+00  6.347E-01  1.931E+00 6.9490705E+00 1.4140618E+00 -3.6077441E+00
  1.000E+01  7.052E-01  1.956E+00 6.8055468E+00 1.1214298E+00 -3.6351127E+00
  9.957E+00  6.815E-01  1.948E+00 6.8426476E+00 1.2328405E+00 -3.6738055E+00
  1.000E+01  7.532E-01  1.969E+00 6.7162984E+00 9.4229614E-01 -3.6889730E+00
  9.957E+00  7.292E-01  1.963E+00 6.7651691E+00 1.0524335E+00 -3.7337892E+00
  1.000E+01  8.019E-01  1.980E+00 6.6079281E+00 7.5643469E-01 -3.7305838E+00
  9.957E+00  7.775E-01  1.975E+00 6.6618201E+00 8.6644412E-01 -3.7825110E+00
  1.000E+01  8.510E-01  1.989E+00 6.5089305E+00 5.6674297E-01 -3.7617416E+00
  9.957E+00  8.264E-01  1.985E+00 6.5552082E+00 6.7449022E-01 -3.8192303E+00
  1.000E+01  9.004E-01  1.995E+00 6.4404560E+00 3.7699523E-01 -3.7844067E+00
  9.957E+00  8.757E-01  1.992E+00 6.4720975E+00 4.8077507E-01 -3.8465159E+00
  1.000E+01  9.502E-01  1.999E+00 6.4043660E+00 1.8826060E-01 -3.7986387E+00
  9.957E+00  9.253E-01  1.997E+00 6.4194357E+00 2.8795376E-01 -3.8654400E+00
  1.000E+01  1.000E+00  2.000E+00 6.3935910E+00 4.8092758E-09 -3.8035477E+00
  9.957E+00  9.751E-01  2.000E+00 6.3947771E+00 9.5912719E-02 -3.8752888E+00
  1.000E+01  1.050E+00  1.999E+00 6.4043669E+00 -1.8826007E-01 -3.7986387E+00
  9.957E+00  1.025E+00  2.000E+00 6.3947775E+00 -9.5912495E-02 -3.8752888E+00
  1.000E+01  1.100E+00  1.995E+00 6.4404577E+00 -3.7699503E-01 -3.7844067E+00
  9.957E+00  1.075E+00  1.997E+00 6.4194370E+00 -2.8795322E-01 -3.8654400E+00
  1.000E+01  1.149E+00  1.989E+00 6.5089330E+00 -5.6674278E-01 -3.7617416E+00
  9.957E+00  1.124E+00  1.992E+00 6.4720996E+00 -4.8077506E-01 -3.8465160E+00
  1.000E+01  1.198E+00  1.980E+00 6.6079314E+00 -7.5643428E-01 -3.7305838E+00
  9.957E+00  1.174E+00  1.985E+00 6.5552111E+00 -6.7448976E-01 -3.8192303E+00