# TIME = 6.000000
VARIABLES = X, Y, Z, FX, FY, FZ
ZONE N=29232 E=58212 F=FEPOINT ET=TRIANGLE
  0.000E+00  9.502E-01  1.243E-03 6.7597756E+00 3.6070543E-01 7.2795292E+00
  0.000E+00  1.000E+00  0.000E+00 6.7490928E+00 1.7786269E-06 7.2889475E+00
  4.318E-02  9.751E-01  3.108E-04 6.6921969E+00 1.7949307E-01 7.2534025E+00
  0.000E+00  1.050E+00  1.243E-03 6.7597758E+00 -3.6070195E-01 7.2795292E+00
  4.318E-02  1.025E+00  3.108E-04 6.6921971E+00 -1.7948890E-01 7.2534025E+00
  0.000E+00  1.100E+00  4.969E-03 6.7958127E+00 -7.2230140E-01 7.2522907E+00
  4.318E-02  1.075E+00  2.796E-03 6.7168344E+00 -5.3887318E-01 7.2350071E+00
  0.000E+00  1.149E+00  1.117E-02 6.8647550E+00 -1.0858870E+00 7.2089912E+00
  4.318E-02  1.124E+00  7.761E-03 6.7696806E+00 -8.9972315E-01 7.1996598E+00
  0.000E+00  1.198E+00  1.983E-02 6.9648349E+00 -1.4494763E+00 7.1493785E+00
  4.318E-02  1.174E+00  1.519E-02 6.8534058E+00 -1.2622970E+00 7.1486834E+00
  0.000E+00  1.247E+00  3.092E-02 7.0739854E+00 -1.8058301E+00 7.0694830E+00
  4.318E-02  1.223E+00  2.507E-02 6.9609064E+00 -1.6216920E+00 7.0799719E+00
  0.000E+00  1.295E+00  4.443E-02 7.1623200E+00 -2.1492682E+00 6.9659388E+00
  4.318E-02  1.271E+00  3.738E-02 7.0643977E+00 -1.9699909E+00 6.9885533E+00
  0.000E+00  1.342E+00  6.031E-02 7.2368454E+00 -2.4879957E+00 6.8465236E+00
  4.318E-02  1.318E+00  5.207E-02 7.1403711E+00 -2.3077393E+00 6.8760208E+00
  0.000E+00  1.388E+00  7.852E-02 7.3975453E+00 -2.8304224E+00 6.7179053E+00
  4.318E-02  1.365E+00  6.913E-02 7.2461927E+00 -2.6468779E+00 6.7527931E+00
  0.000E+00  1.434E+00  9.903E-02 7.5316707E+00 -3.1657840E+00 6.5705191E+00
  4.318E-02  1.411E+00  8.849E-02 7.4209883E+00 -2.9863224E+00 6.6170341E+00
  0.000E+00  1.478E+00  1.218E-01 7.5834639E+00 -3.4867104E+00 6.4019272E+00
  4.318E-02  1.456E+00  1.101E-01 7.5100992E+00 -3.3125359E+00 6.4588127E+00
  0.000E+00  1.521E+00  1.467E-01 7.7462059E+00 -3.8010603E+00 6.2207677E+00
  4.318E-02  1.500E+00  1.340E-01 7.5866966E+00 -3.6276784E+00 6.2840306E+00
  0.000E+00  1.563E+00  1.738E-01 7.7903348E+00 -4.1072723E+00 6.0236160E+00
  4.318E-02  1.543E+00  1.600E-01 7.7352397E+00 -3.9376979E+00 6.0966356E+00
  0.000E+00  1.604E+00  2.029E-01 7.8792856E+00 -4.4023019E+00 5.8117251E+00
  4.318E-02  1.584E+00  1.881E-01 7.7569211E+00 -4.2368038E+00 5.8924946E+00
  0.000E+00  1.643E+00  2.340E-01 7.9343944E+00 -4.6862140E+00 5.5845463E+00
  4.318E-02  1.623E+00  2.182E-01 7.8527759E+00 -4.5247508E+00 5.6739620E+00
  0.000E+00  1.680E+00  2.669E-01 7.9352560E+00 -4.9589605E+00 5.3444974E+00
  4.318E-02  1.662E+00  2.502E-01 7.8642357E+00 -4.8023750E+00 5.4413715E+00
  0.000E+00  1.716E+00  3.018E-01 7.9702548E+00 -5.2190398E+00 5.0902343E+00
  4.318E-02  1.698E+00  2.841E-01 7.9120400E+00 -5.0672021E+00 5.1952227E+00
  0.000E+00  1.750E+00  3.383E-01 7.9222131E+00 -5.4662774E+00 4.8242215E+00
  4.318E-02  1.733E+00  3.198E-01 7.8773319E+00 -5.3202594E+00 4.9363137E+00
  0.000E+00  1.782E+00  3.765E-01 7.9110019E+00 -5.6999457E+00 4.5452986E+00
  4.318E-02  1.766E+00  3.572E-01 7.8762316E+00 -5.5592547E+00 4.6648143E+00
  0.000E+00  1.812E+00  4.163E-01 7.8148797E+00 -5.9194241E+00 4.2560460E+00
  4.318E-02  1.797E+00  3.962E-01 7.8212768E+00 -5.7853165E+00 4.3821429E+00
  0.000E+00  1.840E+00  4.575E-01 7.7936554E+00 -6.1245133E+00 3.9555796E+00
  4.318E-02  1.826E+00  4.367E-01 7.7324021E+00 -5.9963322E+00 4.0885038E+00
  0.000E+00  1.866E+00  5.000E-01 7.6446848E+00 -6.3127565E+00 3.6441349E+00
  4.318E-02  1.853E+00  4.786E-01 7.6880611E+00 -6.1924525E+00 3.7836368E+00
  0.000E+00  1.890E+00  5.438E-01 7.5683938E+00 -6.4882616E+00 3.3275579E+00
  4.318E-02  1.878E+00  5.217E-01 7.5257905E+00 -6.3728858E+00 3.4707307E+00
  0.000E+00  1.912E+00  5.887E-01 7.4794572E+00 -6.6472662E+00 2.9998630E+00
  4.318E-02  1.901E+00  5.661E-01 7.4735225E+00 -6.5406501E+00 3.1512752E+00
  0.000E+00  1.931E+00  6.347E-01 7.3042201E+00 -6.7836171E+00 2.6588712E+00
  4.318E-02  1.921E+00  6.116E-01 7.3396115E+00 -6.6872899E+00 2.8174327E+00
  0.000E+00  1.948E+00  6.815E-01 7.1985645E+00 -6.9073358E+00 2.3182020E+00
  4.318E-02  1.940E+00  6.580E-01 7.1792406E+00 -6.8153985E+00 2.4765654E+00
  0.000E+00  1.963E+00  7.292E-01 7.1229099E+00 -7.0203997E+00 1.9789120E+00
  4.318E-02  1.956E+00  7.052E-01 7.1043564E+00 -6.9342489E+00 2.1393874E+00
  0.000E+00  1.975E+00  7.775E-01 7.0194194E+00 -7.1122587E+00 1.6290124E+00
  4.318E-02  1.969E+00  7.532E-01 7.0158789E+00 -7.0372621E+00 1.7975403E+00
  0.000E+00  1.985E+00  8.264E-01 6.9117737E+00 -7.1812735E+00 1.2679773E+00
  4.318E-02  1.980E+00  8.019E-01 6.9068521E+00 -7.1167734E+00 1.4428411E+00
  0.000E+00  1.992E+00  8.757E-01 6.8279481E+00 -7.2324570E+00 9.0376494E-01
  4.318E-02  1.989E+00  8.510E-01 6.8069408E+00 -7.1761236E+00 1.0809260E+00
  0.000E+00  1.997E+00  9.253E-01 6.7750786E+00 -7.2679499E+00 5.4129197E-01
  4.318E-02  1.995E+00  9.004E-01 6.7380718E+00 -7.2192375E+00 7.1900228E-01
  0.000E+00  2.000E+00  9.751E-01 6.7504521E+00 -7.2864239E+00 1.8029410E-01
  4.318E-02  1.999E+00  9.502E-01 6.7020299E+00 -7.2463564E+00 3.5905215E-01
  0.000E+00  2.000E+00  1.025E+00 6.7504523E+00 -7.2864215E+00 -1.8029941E-01
  4.318E-02  2.000E+00  1.000E+00 6.6913340E+00 -7.2557295E+00 -2.6719505E-06
  0.000E+00  1.997E+00  1.075E+00 6.7750793E+00 -7.2679419E+00 -5.4129724E-01
  4.318E-02  1.999E+00  1.050E+00 6.7020305E+00 -7.2463515E+00 -3.5905746E-01
  0.000E+00  1.992E+00  1.124E+00 6.8279495E+00 -7.2324445E+00 -9.0377016E-01
  4.318E-02  1.995E+00  1.100E+00 6.7380729E+00 -7.2192267E+00 -7.1900754E-01
  0.000E+00  1.985E+00  1.174E+00 6.9117756E+00 -7.1812661E+00 -1.2679824E+00
  4.318E-02  1.989E+00  1.149E+00 6.8069425E+00 -7.1761122E+00 -1.0809312E+00
  0.000E+00  1.975E+00  1.223E+00 7.0194220E+00 -7.1122695E+00 -1.6290174E+00
  4.318E-02  1.980E+00  1.198E+00 6.9068543E+00 -7.1167748E+00 -1.4428462E+00
  0.000E+00  1.963E+00  1.271E+00 7.1229130E+00 -7.0204118E+00 -1.9789168E+00
  4.318E-02  1.969E+00  1.247E+00 7.0158817E+00 -7.0372781E+00 -1.7975452E+00
  0.000E+00  1.948E+00  1.318E+00 7.1985681E+00 -6.9073126E+00 -2.3182066E+00
  4.318E-02  1.956E+00  1.295E+00 7.1043597E+00 -6.9342458E+00 -2.1393922E+00
  0.000E+00  1.931E+00  1.365E+00 7.3042242E+00 -6.7835967E+00 -2.6588756E+00
  4.318E-02  1.940E+00  1.342E+00 7.1792443E+00 -6.8153656E+00 -2.4765699E+00
  0.000E+00  1.912E+00  1.411E+00 7.4794609E+00 -6.6472913E+00 -2.9998671E+00
  4.318E-02  1.921E+00  1.388E+00 7.3396159E+00 -6.6872981E+00 -2.8174374E+00
  0.000E+00  1.890E+00  1.456E+00 7.5683987E+00 -6.4882499E+00 -3.3275619E+00
  4.318E-02  1.901E+00  1.434E+00 7.4735273E+00 -6.5406670E+00 -3.1512795E+00
  0.000E+00  1.866E+00  1.500E+00 7.6446901E+00 -6.3127351E+00 -3.6441385E+00
  4.318E-02  1.878E+00  1.478E+00 7.5257955E+00 -6.3728538E+00 -3.4707343E+00
  0.000E+00  1.840E+00  1.543E+00 7.7936611E+00 -6.1245315E+00 -3.9555836E+00
  4.318E-02  1.853E+00  1.521E+00 7.6880665E+00 -6.1924601E+00 -3.7836411E+00
  0.000E+00  1.812E+00  1.584E+00 7.8148856E+00 -5.9194112E+00 -4.2560489E+00
  4.318E-02  1.826E+00  1.563E+00 7.7324078E+00 -5.9963352E+00 -4.0885073E+00
  0.000E+00  1.782E+00  1.623E+00 7.9110081E+00 -5.6999493E+00 -4.5453020E+00
  4.318E-02  1.797E+00  1.604E+00 7.8212829E+00 -5.7853077E+00 -4.3821463E+00
  0.000E+00  1.750E+00  1.662E+00 7.9222196E+00 -5.4662756E+00 -4.8242243E+00
  4.318E-02  1.766E+00  1.643E+00 7.8762379E+00 -5.5592620E+00 -4.6648178E+00
  0.000E+00  1.716E+00  1.698E+00 7.9702616E+00 -5.2190379E+00 -5.0902370E+00
  4.318E-02  1.733E+00  1.680E+00 7.8773384E+00 -5.3202522E+00 -4.9363164E+00
  0.000E+00  1.680E+00  1.733E+00 7.9352630E+00 -4.9589616E+00 -5.3444998E+00
  4.318E-02  1.698E+00  1.716E+00 7.9120467E+00 -5.0672060E+00 -5.1952257E+00
  0.000E+00  1.643E+00  1.766E+00 7.9344015E+00 -4.6862106E+00 -5.5845485E+00
  4.318E-02  1.662E+00  1.750E+00 7.8642426E+00 -4.8023716E+00 -5.4413739E+00
  0.000E+00  1.604E+00  1.797E+00 7.8792929E+00 -4.4023008E+00 -5.8117271E+00
  4.318E-02  1.623E+00  1.782E+00 7.8527830E+00 -4.5247497E+00 -5.6739645E+00
  0.000E+00  1.563E+00  1.826E+00 7.7903422E+00 -4.1072699E+00 -6.0236178E+00
  4.318E-02  1.584E+00  1.812E+00 7.7569283E+00 -4.2368013E+00 -5.8924967E+00
  0.000E+00  1.521E+00  1.853E+00 7.7462135E+00 -3.8010584E+00 -6.2207693E+00
  4.318E-02  1.543E+00  1.840E+00 7.7352469E+00 -3.9376970E+00 -6.0966377E+00
  0.000E+00  1.478E+00  1.878E+00 7.5834716E+00 -3.4867074E+00 -6.4019286E+00
  4.318E-02  1.500E+00  1.866E+00 7.5867039E+00 -3.6276756E+00 -6.2840324E+00
  0.000E+00  1.434E+00  1.901E+00 7.5316780E+00 -3.1657847E+00 -6.5705205E+00
  4.318E-02  1.456E+00  1.890E+00 7.5101068E+00 -3.3125354E+00 -6.4588145E+00
  0.000E+00  1.388E+00  1.921E+00 7.3975522E+00 -2.8304207E+00 -6.7179068E+00
  4.318E-02  1.411E+00  1.912E+00 7.4209963E+00 -2.9863206E+00 -6.6170355E+00
  0.000E+00  1.342E+00  1.940E+00 7.2368525E+00 -2.4879955E+00 -6.8465251E+00
  4.318E-02  1.365E+00  1.931E+00 7.2462007E+00 -2.6468749E+00 -6.7527942E+00
  0.000E+00  1.295E+00  1.956E+00 7.1623279E+00 -2.1492663E+00 -6.9659399E+00
  4.318E-02  1.318E+00  1.948E+00 7.1403787E+00 -2.3077388E+00 -6.8760219E+00
  0.000E+00  1.247E+00  1.969E+00 7.0739941E+00 -1.8058262E+00 -7.0694833E+00
  4.318E-02  1.271E+00  1.963E+00 7.0644047E+00 -1.9699908E+00 -6.9885547E+00
  0.000E+00  1.198E+00  1.980E+00 6.9648436E+00 -1.4494728E+00 -7.1493781E+00
  4.318E-02  1.223E+00  1.975E+00 6.9609133E+00 -1.6216930E+00 -7.0799736E+00
  0.000E+00  1.149E+00  1.989E+00 6.8647631E+00 -1.0858846E+00 -7.2089906E+00
  4.318E-02  1.174E+00  1.985E+00 6.8534131E+00 -1.2622976E+00 -7.1486853E+00
  0.000E+00  1.100E+00  1.995E+00 6.7958202E+00 -7.2230041E-01 -7.2522899E+00
  4.318E-02  1.124E+00  1.992E+00 6.7696885E+00 -8.9972324E-01 -7.1996618E+00
  0.000E+00  1.050E+00  1.999E+00 6.7597829E+00 -3.6070162E-01 -7.2795284E+00
  4.318E-02  1.075E+00  1.997E+00 6.7168424E+00 -5.3887275E-01 -7.2350091E+00
  0.000E+00  1.000E+00  2.000E+00 6.7490998E+00 1.8791200E-06 -7.2889467E+00
  4.318E-02  1.025E+00  2.000E+00 6.6922052E+00 -1.7948864E-01 -7.2534045E+00
  0.000E+00  9.502E-01  1.999E+00 6.7597827E+00 3.6070546E-01 -7.2795284E+00
  4.318E-02  9.751E-01  2.000E+00 6.6922051E+00 1.7949307E-01 -7.2534044E+00
  0.000E+00  9.004E-01  1.995E+00 6.7958196E+00 7.2230420E-01 -7.2522899E+00
  4.318E-02  9.253E-01  1.997E+00 6.7168421E+00 5.3887728E-01 -7.2350090E+00
  0.000E+00  8.510E-01  1.989E+00 6.8647624E+00 1.0858884E+00 -7.2089905E+00
  4.318E-02  8.757E-01  1.992E+00 6.7696878E+00 8.9972762E-01 -7.1996617E+00
  0.000E+00  8.019E-01  1.980E+00 6.9648425E+00 1.4494765E+00 -7.1493781E+00
  4.318E-02  8.264E-01  1.985E+00 6.8534123E+00 1.2623021E+00 -7.1486852E+00
  0.000E+00  7.532E-01  1.969E+00 7.0739929E+00 1.8058303E+00 -7.0694832E+00
  4.318E-02  7.775E-01  1.975E+00 6.9609122E+00 1.6216974E+00 -7.0799735E+00
  0.000E+00  7.052E-01  1.956E+00 7.1623264E+00 2.1492699E+00 -6.9659398E+00
  4.318E-02  7.292E-01  1.963E+00 7.0644033E+00 1.9699955E+00 -6.9885545E+00
  0.000E+00  6.580E-01  1.940E+00 7.2368508E+00 2.4879990E+00 -6.8465250E+00
  4.318E-02  6.815E-01  1.948E+00 7.1403771E+00 2.3077426E+00 -6.8760217E+00
  0.000E+00  6.116E-01  1.921E+00 7.3975504E+00 2.8304259E+00 -6.7179068E+00
  4.318E-02  6.347E-01  1.931E+00 7.2461989E+00 2.6468802E+00 -6.7527941E+00
  0.000E+00  5.661E-01  1.901E+00 7.5316760E+00 3.1657866E+00 -6.5705204E+00
  4.318E-02  5.887E-01  1.912E+00 7.4209941E+00 2.9863246E+00 -6.6170349E+00
  0.000E+00  5.217E-01  1.878E+00 7.5834694E+00 3.4867123E+00 -6.4019285E+00
  4.318E-02  5.438E-01  1.890E+00 7.5101046E+00 3.3125387E+00 -6.4588143E+00
  0.000E+00  4.786E-01  1.853E+00 7.7462111E+00 3.8010620E+00 -6.2207691E+00
  4.318E-02  5.000E-01  1.866E+00 7.5867015E+00 3.6276814E+00 -6.2840322E+00
  0.000E+00  4.367E-01  1.826E+00 7.7903396E+00 4.1072741E+00 -6.0236177E+00
  4.318E-02  4.575E-01  1.840E+00 7.7352444E+00 3.9377007E+00 -6.0966373E+00
  0.000E+00  3.962E-01  1.797E+00 7.8792901E+00 4.4023038E+00 -5.8117269E+00
  4.318E-02  4.163E-01  1.812E+00 7.7569256E+00 4.2368063E+00 -5.8924964E+00
  0.000E+00  3.572E-01  1.766E+00 7.9343987E+00 4.6862158E+00 -5.5845483E+00
  4.318E-02  3.765E-01  1.782E+00 7.8527802E+00 4.5247533E+00 -5.6739640E+00
  0.000E+00  3.198E-01  1.733E+00 7.9352600E+00 4.9589623E+00 -5.3444996E+00
  4.318E-02  3.383E-01  1.750E+00 7.8642397E+00 4.8023775E+00 -5.4413737E+00
  0.000E+00  2.841E-01  1.698E+00 7.9702585E+00 5.2190416E+00 -5.0902367E+00
  4.318E-02  3.018E-01  1.716E+00 7.9120436E+00 5.0672046E+00 -5.1952251E+00
  0.000E+00  2.502E-01  1.662E+00 7.9222164E+00 5.4662791E+00 -4.8242242E+00
  4.318E-02  2.669E-01  1.680E+00 7.8773353E+00 5.3202619E+00 -4.9363163E+00
  0.000E+00  2.182E-01  1.623E+00 7.9110048E+00 5.6999475E+00 -4.5453015E+00
  4.318E-02  2.340E-01  1.643E+00 7.8762346E+00 5.5592573E+00 -4.6648171E+00
  0.000E+00  1.881E-01  1.584E+00 7.8148822E+00 5.9194259E+00 -4.2560490E+00
  4.318E-02  2.029E-01  1.604E+00 7.8212795E+00 5.7853190E+00 -4.3821459E+00
  0.000E+00  1.600E-01  1.543E+00 7.7936576E+00 6.1245153E+00 -3.9555829E+00
  4.318E-02  1.738E-01  1.563E+00 7.7324044E+00 5.9963349E+00 -4.0885070E+00
  0.000E+00  1.340E-01  1.500E+00 7.6446866E+00 6.3127585E+00 -3.6441384E+00
  4.318E-02  1.467E-01  1.521E+00 7.6880630E+00 6.1924552E+00 -3.7836402E+00
  0.000E+00  1.101E-01  1.456E+00 7.5683952E+00 6.4882638E+00 -3.3275616E+00
  4.318E-02  1.218E-01  1.478E+00 7.5257920E+00 6.3728886E+00 -3.4707343E+00
  0.000E+00  8.849E-02  1.411E+00 7.4794579E+00 6.6472681E+00 -2.9998668E+00
  4.318E-02  9.903E-02  1.434E+00 7.4735236E+00 6.5406531E+00 -3.1512790E+00
  0.000E+00  6.913E-02  1.365E+00 7.3042205E+00 6.7836196E+00 -2.6588753E+00
  4.318E-02  7.852E-02  1.388E+00 7.3396122E+00 6.6872930E+00 -2.8174367E+00
  0.000E+00  5.207E-02  1.318E+00 7.1985645E+00 6.9073384E+00 -2.3182063E+00
  4.318E-02  6.031E-02  1.342E+00 7.1792407E+00 6.8154017E+00 -2.4765695E+00
  0.000E+00  3.738E-02  1.271E+00 7.1229093E+00 7.0204025E+00 -1.9789164E+00
  4.318E-02  4.443E-02  1.295E+00 7.1043561E+00 6.9342522E+00 -2.1393917E+00
  0.000E+00  2.507E-02  1.223E+00 7.0194183E+00 7.1122618E+00 -1.6290169E+00
  4.318E-02  3.092E-02  1.247E+00 7.0158780E+00 7.0372656E+00 -1.7975447E+00
  0.000E+00  1.519E-02  1.174E+00 6.9117720E+00 7.1812767E+00 -1.2679819E+00
  4.318E-02  1.983E-02  1.198E+00 6.9068507E+00 7.1167771E+00 -1.4428457E+00
  0.000E+00  7.761E-03  1.124E+00 6.8279459E+00 7.2324604E+00 -9.0376971E-01
  4.318E-02  1.117E-02  1.149E+00 6.8069389E+00 7.1761275E+00 -1.0809307E+00
  0.000E+00  2.796E-03  1.075E+00 6.7750757E+00 7.2679536E+00 -5.4129681E-01
  4.318E-02  4.969E-03  1.100E+00 6.7380693E+00 7.2192415E+00 -7.1900707E-01
  0.000E+00  3.108E-04  1.025E+00 6.7504487E+00 7.2864278E+00 -1.8029899E-01
  4.318E-02  1.243E-03  1.050E+00 6.7020269E+00 7.2463606E+00 -3.5905702E-01
  0.000E+00  3.108E-04  9.751E-01 6.7504485E+00 7.2864255E+00 1.8029449E-01
  4.318E-02  0.000E+00  1.000E+00 6.6913304E+00 7.2557339E+00 -2.2566630E-06
  0.000E+00  2.796E-03  9.253E-01 6.7750750E+00 7.2679461E+00 5.4129232E-01
  4.318E-02  1.243E-03  9.502E-01 6.7020263E+00 7.2463561E+00 3.5905252E-01
  0.000E+00  7.761E-03  8.757E-01 6.8279445E+00 7.2324489E+00 9.0376527E-01
  4.318E-02  4.969E-03  9.004E-01 6.7380681E+00 7.2192314E+00 7.1900260E-01
  0.000E+00  1.519E-02  8.264E-01 6.9117701E+00 7.1812707E+00 1.2679776E+00
  4.318E-02  1.117E-02  8.510E-01 6.8069372E+00 7.1761171E+00 1.0809263E+00
  0.000E+00  2.507E-02  7.775E-01 7.0194158E+00 7.1122743E+00 1.6290127E+00
  4.318E-02  1.983E-02  8.019E-01 6.9068485E+00 7.1167800E+00 1.4428413E+00
  0.000E+00  3.738E-02  7.292E-01 7.1229064E+00 7.0204168E+00 1.9789121E+00
  4.318E-02  3.092E-02  7.532E-01 7.0158754E+00 7.0372833E+00 1.7975404E+00
  0.000E+00  5.207E-02  6.815E-01 7.1985610E+00 6.9073177E+00 2.3182021E+00
  4.318E-02  4.443E-02  7.052E-01 7.1043529E+00 6.9342512E+00 2.1393875E+00
  0.000E+00  6.913E-02  6.347E-01 7.3042166E+00 6.7836019E+00 2.6588711E+00
  4.318E-02  6.031E-02  6.580E-01 7.1792371E+00 6.8153711E+00 2.4765653E+00
  0.000E+00  8.849E-02  5.887E-01 7.4794532E+00 6.6472971E+00 2.9998631E+00
  4.318E-02  7.852E-02  6.116E-01 7.3396082E+00 6.6873037E+00 2.8174329E+00
  0.000E+00  1.101E-01  5.438E-01 7.5683904E+00 6.4882554E+00 3.3275578E+00
  4.318E-02  9.903E-02  5.661E-01 7.4735192E+00 6.5406727E+00 3.1512752E+00
  0.000E+00  1.340E-01  5.000E-01 7.6446815E+00 6.3127407E+00 3.6441346E+00
  4.318E-02  1.218E-01  5.217E-01 7.5257871E+00 6.3728597E+00 3.4707301E+00
  0.000E+00  1.600E-01  4.575E-01 7.7936521E+00 6.1245372E+00 3.9555799E+00
  4.318E-02  1.467E-01  4.786E-01 7.6880577E+00 6.1924661E+00 3.7836370E+00
  0.000E+00  1.881E-01  4.163E-01 7.8148764E+00 5.9194169E+00 4.2560454E+00
  4.318E-02  1.738E-01  4.367E-01 7.7323988E+00 5.9963412E+00 4.0885034E+00
  0.000E+00  2.182E-01  3.765E-01 7.9109987E+00 5.6999550E+00 4.5452987E+00
  4.318E-02  2.029E-01  3.962E-01 7.8212736E+00 5.7853137E+00 4.3821427E+00
  0.000E+00  2.502E-01  3.383E-01 7.9222100E+00 5.4662814E+00 4.8242213E+00
  4.318E-02  2.340E-01  3.572E-01 7.8762284E+00 5.5592680E+00 4.6648143E+00
  0.000E+00  2.841E-01  3.018E-01 7.9702518E+00 5.2190437E+00 5.0902342E+00
  4.318E-02  2.669E-01  3.198E-01 7.8773289E+00 5.3202582E+00 4.9363131E+00
  0.000E+00  3.198E-01  2.669E-01 7.9352531E+00 4.9589673E+00 5.3444972E+00
  4.318E-02  3.018E-01  2.841E-01 7.9120370E+00 5.0672120E+00 5.1952226E+00
  0.000E+00  3.572E-01  2.340E-01 7.9343916E+00 4.6862162E+00 5.5845462E+00
  4.318E-02  3.383E-01  2.502E-01 7.8642329E+00 4.8023776E+00 5.4413711E+00
  0.000E+00  3.962E-01  2.029E-01 7.8792830E+00 4.4023063E+00 5.8117249E+00
  4.318E-02  3.765E-01  2.182E-01 7.8527732E+00 4.5247557E+00 5.6739618E+00
  0.000E+00  4.367E-01  1.738E-01 7.7903323E+00 4.1072754E+00 6.0236158E+00
  4.318E-02  4.163E-01  1.881E-01 7.7569185E+00 4.2368073E+00 5.8924942E+00
  0.000E+00  4.786E-01  1.467E-01 7.7462035E+00 3.8010641E+00 6.2207676E+00
  4.318E-02  4.575E-01  1.600E-01 7.7352373E+00 3.9377028E+00 6.0966354E+00
  0.000E+00  5.217E-01  1.218E-01 7.5834617E+00 3.4867130E+00 6.4019271E+00
  4.318E-02  5.000E-01  1.340E-01 7.5866943E+00 3.6276812E+00 6.2840303E+00
  0.000E+00  5.661E-01  9.903E-02 7.5316686E+00 3.1657895E+00 6.5705189E+00
  4.318E-02  5.438E-01  1.101E-01 7.5100972E+00 3.3125412E+00 6.4588126E+00
  0.000E+00  6.116E-01  7.852E-02 7.3975435E+00 2.8304245E+00 6.7179051E+00
  4.318E-02  5.887E-01  8.849E-02 7.4209862E+00 2.9863266E+00 6.6170336E+00
  0.000E+00  6.580E-01  6.031E-02 7.2368438E+00 2.4879995E+00 6.8465235E+00
  4.318E-02  6.347E-01  6.913E-02 7.2461910E+00 2.6468811E+00 6.7527930E+00
  0.000E+00  7.052E-01  4.443E-02 7.1623186E+00 2.1492719E+00 6.9659387E+00
  4.318E-02  6.815E-01  5.207E-02 7.1403696E+00 2.3077441E+00 6.8760206E+00
  0.000E+00  7.532E-01  3.092E-02 7.0739842E+00 1.8058334E+00 7.0694829E+00
  4.318E-02  7.292E-01  3.738E-02 7.0643964E+00 1.9699947E+00 6.9885532E+00
  0.000E+00  8.019E-01  1.983E-02 6.9648339E+00 1.4494799E+00 7.1493784E+00
  4.318E-02  7.775E-01  2.507E-02 6.9609054E+00 1.6216962E+00 7.0799718E+00
  0.000E+00  8.510E-01  1.117E-02 6.8647543E+00 1.0858904E+00 7.2089912E+00
  4.318E-02  8.264E-01  1.519E-02 6.8534050E+00 1.2623011E+00 7.1486833E+00
  0.000E+00  9.004E-01  4.969E-03 6.7958122E+00 7.2230493E-01 7.2522906E+00
  4.318E-02  8.757E-01  7.761E-03 6.7696800E+00 8.9972736E-01 7.1996597E+00
  4.318E-02  9.253E-01  2.796E-03 6.7168340E+00 5.3887724E-01 7.2350071E+00
  1.000E+01  1.050E+00  1.243E-03 6.7597758E+00 -3.6070195E-01 7.2795292E+00
  1.000E+01  1.000E+00  5.551E-16 6.7490928E+00 1.7786269E-06 7.2889475E+00
  9.957E+00  1.025E+00  3.108E-04 6.8170410E+00 -1.8084468E-01 7.3085206E+00
  1.000E+01  9.502E-01  1.243E-03 6.7597756E+00 3.6070543E-01 7.2795292E+00
  9.957E+00  9.751E-01  3.108E-04 6.8170409E+00 1.8084754E-01 7.3085206E+00
  1.000E+01  9.004E-01  4.969E-03 6.7958122E+00 7.2230493E-01 7.2522906E+00
  9.957E+00  9.253E-01  2.796E-03 6.8416649E+00 5.4294573E-01 7.2899962E+00
  1.000E+01  8.510E-01  1.117E-02 6.8647543E+00 1.0858904E+00 7.2089912E+00
  9.957E+00  8.757E-01  7.761E-03 6.8945761E+00 9.0652399E-01 7.2544026E+00
  1.000E+01  8.019E-01  1.983E-02 6.9648339E+00 1.4494799E+00 7.1493784E+00
  9.957E+00  8.264E-01  1.519E-02 6.9785325E+00 1.2718510E+00 7.2030705E+00
  1.000E+01  7.532E-01  3.092E-02 7.0739842E+00 1.8058334E+00 7.0694829E+00
  9.957E+00  7.775E-01  2.507E-02 7.0863657E+00 1.6340059E+00 7.1338463E+00
  1.000E+01  7.052E-01  4.443E-02 7.1623186E+00 2.1492719E+00 6.9659387E+00
  9.957E+00  7.292E-01  3.738E-02 7.1898867E+00 1.9850036E+00 7.0416639E+00
  1.000E+01  6.580E-01  6.031E-02 7.2368438E+00 2.4879995E+00 6.8465235E+00
  9.957E+00  6.815E-01  5.207E-02 7.2652165E+00 2.3253445E+00 6.9281830E+00
  1.000E+01  6.116E-01  7.852E-02 7.3975435E+00 2.8304245E+00 6.7179051E+00
  9.957E+00  6.347E-01  6.913E-02 7.3707183E+00 2.6670411E+00 6.8041356E+00
  1.000E+01  5.661E-01  9.903E-02 7.5316686E+00 3.1657895E+00 6.5705189E+00
  9.957E+00  5.887E-01  8.849E-02 7.5464984E+00 3.0090735E+00 6.6674073E+00
  1.000E+01  5.217E-01  1.218E-01 7.5834617E+00 3.4867130E+00 6.4019271E+00
  9.957E+00  5.438E-01  1.101E-01 7.6352881E+00 3.3377555E+00 6.5077818E+00
  1.000E+01  4.786E-01  1.467E-01 7.7462035E+00 3.8010641E+00 6.2207676E+00
  9.957E+00  5.000E-01  1.340E-01 7.7112787E+00 3.6552860E+00 6.3317852E+00
  1.000E+01  4.367E-01  1.738E-01 7.7903323E+00 4.1072754E+00 6.0236158E+00
  9.957E+00  4.575E-01  1.600E-01 7.8607869E+00 3.9676806E+00 6.1429817E+00
  1.000E+01  3.962E-01  2.029E-01 7.8792830E+00 4.4023063E+00 5.8117249E+00
  9.957E+00  4.163E-01  1.881E-01 7.8815443E+00 4.2690354E+00 5.9371875E+00
  1.000E+01  3.572E-01  2.340E-01 7.9343916E+00 4.6862162E+00 5.5845462E+00
  9.957E+00  3.765E-01  2.182E-01 7.9780289E+00 4.5591414E+00 5.7170866E+00
  1.000E+01  3.198E-01  2.669E-01 7.9352531E+00 4.9589673E+00 5.3444972E+00
  9.957E+00  3.383E-01  2.502E-01 7.9890136E+00 4.8389190E+00 5.4826598E+00
  1.000E+01  2.841E-01  3.018E-01 7.9702518E+00 5.2190437E+00 5.0902342E+00
  9.957E+00  3.018E-01  2.841E-01 8.0373884E+00 5.1056852E+00 5.2346819E+00
  1.000E+01  2.502E-01  3.383E-01 7.9222100E+00 5.4662814E+00 4.8242213E+00
  9.957E+00  2.669E-01  3.198E-01 8.0021131E+00 5.3607397E+00 4.9738095E+00
  1.000E+01  2.182E-01  3.765E-01 7.9109987E+00 5.6999550E+00 4.5452987E+00
  9.957E+00  2.340E-01  3.572E-01 8.0015877E+00 5.6014393E+00 4.7002044E+00
  1.000E+01  1.881E-01  4.163E-01 7.8148764E+00 5.9194169E+00 4.2560454E+00
  9.957E+00  2.029E-01  3.962E-01 7.9463557E+00 5.8293637E+00 4.4154792E+00
  1.000E+01  1.600E-01  4.575E-01 7.7936521E+00 6.1245372E+00 3.9555799E+00
  9.957E+00  1.738E-01  4.367E-01 7.8573789E+00 6.0417603E+00 4.1194949E+00
  1.000E+01  1.340E-01  5.000E-01 7.6446815E+00 6.3127407E+00 3.6441346E+00
  9.957E+00  1.467E-01  4.786E-01 7.8135407E+00 6.2396164E+00 3.8124038E+00
  1.000E+01  1.101E-01  5.438E-01 7.5683904E+00 6.4882554E+00 3.3275578E+00
  9.957E+00  1.218E-01  5.217E-01 7.6503106E+00 6.4211755E+00 3.4970921E+00
  1.000E+01  8.849E-02  5.887E-01 7.4794532E+00 6.6472971E+00 2.9998631E+00
  9.957E+00  9.903E-02  5.661E-01 7.5991126E+00 6.5903092E+00 3.1751930E+00
  1.000E+01  6.913E-02  6.347E-01 7.3042166E+00 6.7836019E+00 2.6588711E+00
  9.957E+00  7.852E-02  6.116E-01 7.4647807E+00 6.7381838E+00 2.8388362E+00
  1.000E+01  5.207E-02  6.815E-01 7.1985610E+00 6.9073177E+00 2.3182021E+00
  9.957E+00  6.031E-02  6.580E-01 7.3037435E+00 6.8670673E+00 2.4953942E+00
  1.000E+01  3.738E-02  7.292E-01 7.1229064E+00 7.0204168E+00 1.9789121E+00
  9.957E+00  4.443E-02  7.052E-01 7.2296706E+00 6.9868359E+00 2.1556534E+00
  1.000E+01  2.507E-02  7.775E-01 7.0194158E+00 7.1122743E+00 1.6290127E+00
  9.957E+00  3.092E-02  7.532E-01 7.1415351E+00 7.0907363E+00 1.8111725E+00
  1.000E+01  1.519E-02  8.264E-01 6.9117701E+00 7.1812707E+00 1.2679776E+00
  9.957E+00  1.983E-02  8.019E-01 7.0322667E+00 7.1708679E+00 1.4537384E+00
  1.000E+01  7.761E-03  8.757E-01 6.8279445E+00 7.2324489E+00 9.0376527E-01
  9.957E+00  1.117E-02  8.510E-01 6.9320094E+00 7.2306211E+00 1.0890658E+00
  1.000E+01  2.796E-03  9.253E-01 6.7750750E+00 7.2679461E+00 5.4129232E-01
  9.957E+00  4.969E-03  9.004E-01 6.8629964E+00 7.2740228E+00 7.2441392E-01
  1.000E+01  3.108E-04  9.751E-01 6.7504485E+00 7.2864255E+00 1.8029449E-01
  9.957E+00  1.243E-03  9.502E-01 6.8269770E+00 7.3013408E+00 3.6175895E-01
  1.000E+01  3.108E-04  1.025E+00 6.7504487E+00 7.2864278E+00 -1.8029899E-01
  9.957E+00  0.000E+00  1.000E+00 6.8163144E+00 7.3107945E+00 -2.2458041E-06
  1.000E+01  2.796E-03  1.075E+00 6.7750757E+00 7.2679536E+00 -5.4129681E-01
  9.957E+00  1.243E-03  1.050E+00 6.8269777E+00 7.3013455E+00 -3.6176344E-01
  1.000E+01  7.761E-03  1.124E+00 6.8279459E+00 7.2324604E+00 -9.0376971E-01
  9.957E+00  4.969E-03  1.100E+00 6.8629976E+00 7.2740332E+00 -7.2441839E-01
  1.000E+01  1.519E-02  1.174E+00 6.9117720E+00 7.1812767E+00 -1.2679819E+00
  9.957E+00  1.117E-02  1.149E+00 6.9320111E+00 7.2306318E+00 -1.0890702E+00
  1.000E+01  2.507E-02  1.223E+00 7.0194183E+00 7.1122618E+00 -1.6290169E+00
  9.957E+00  1.983E-02  1.198E+00 7.0322689E+00 7.1708652E+00 -1.4537427E+00
  1.000E+01  3.738E-02  1.271E+00 7.1229093E+00 7.0204025E+00 -1.9789164E+00
  9.957E+00  3.092E-02  1.247E+00 7.1415379E+00 7.0907182E+00 -1.8111768E+00
  1.000E+01  5.207E-02  1.318E+00 7.1985645E+00 6.9073384E+00 -2.3182063E+00
  9.957E+00  4.443E-02  1.295E+00 7.2296738E+00 6.9868363E+00 -2.1556576E+00
  1.000E+01  6.913E-02  1.365E+00 7.3042205E+00 6.7836196E+00 -2.6588753E+00
  9.957E+00  6.031E-02  1.342E+00 7.3037473E+00 6.8670976E+00 -2.4953984E+00
  1.000E+01  8.849E-02  1.411E+00 7.4794579E+00 6.6472681E+00 -2.9998668E+00
  9.957E+00  7.852E-02  1.388E+00 7.4647851E+00 6.7381732E+00 -2.8388402E+00
  1.000E+01  1.101E-01  1.456E+00 7.5683952E+00 6.4882638E+00 -3.3275616E+00
  9.957E+00  9.903E-02  1.434E+00 7.5991175E+00 6.5902894E+00 -3.1751966E+00
  1.000E+01  1.340E-01  1.500E+00 7.6446866E+00 6.3127585E+00 -3.6441384E+00
  9.957E+00  1.218E-01  1.478E+00 7.6503158E+00 6.4212045E+00 -3.4970961E+00
  1.000E+01  1.600E-01  1.543E+00 7.7936576E+00 6.1245153E+00 -3.9555829E+00
  9.957E+00  1.467E-01  1.521E+00 7.8135461E+00 6.2396052E+00 -3.8124068E+00
  1.000E+01  1.881E-01  1.584E+00 7.8148822E+00 5.9194259E+00 -4.2560490E+00
  9.957E+00  1.738E-01  1.563E+00 7.8573847E+00 6.0417535E+00 -4.1194982E+00
  1.000E+01  2.182E-01  1.623E+00 7.9110048E+00 5.6999475E+00 -4.5453015E+00
  9.957E+00  2.029E-01  1.604E+00 7.9463618E+00 5.8293686E+00 -4.4154822E+00
  1.000E+01  2.502E-01  1.662E+00 7.9222164E+00 5.4662791E+00 -4.8242242E+00
  9.957E+00  2.340E-01  1.643E+00 8.0015941E+00 5.6014283E+00 -4.7002069E+00
  1.000E+01  2.841E-01  1.698E+00 7.9702585E+00 5.2190416E+00 -5.0902367E+00
  9.957E+00  2.669E-01  1.680E+00 8.0021197E+00 5.3607432E+00 -4.9738123E+00
  1.000E+01  3.198E-01  1.733E+00 7.9352600E+00 4.9589623E+00 -5.3444996E+00
  9.957E+00  3.018E-01  1.716E+00 8.0373952E+00 5.1056773E+00 -5.2346840E+00
  1.000E+01  3.572E-01  1.766E+00 7.9343987E+00 4.6862158E+00 -5.5845483E+00
  9.957E+00  3.383E-01  1.750E+00 7.9890206E+00 4.8389185E+00 -5.4826620E+00
  1.000E+01  3.962E-01  1.797E+00 7.8792901E+00 4.4023038E+00 -5.8117269E+00
  9.957E+00  3.765E-01  1.782E+00 7.9780361E+00 4.5591388E+00 -5.7170883E+00
  1.000E+01  4.367E-01  1.826E+00 7.7903396E+00 4.1072741E+00 -6.0236177E+00
  9.957E+00  4.163E-01  1.812E+00 7.8815517E+00 4.2690341E+00 -5.9371893E+00
  1.000E+01  4.786E-01  1.853E+00 7.7462111E+00 3.8010620E+00 -6.2207691E+00
  9.957E+00  4.575E-01  1.840E+00 7.8607944E+00 3.9676781E+00 -6.1429831E+00
  1.000E+01  5.217E-01  1.878E+00 7.5834694E+00 3.4867123E+00 -6.4019285E+00
  9.957E+00  5.000E-01  1.866E+00 7.7112861E+00 3.6552862E+00 -6.3317866E+00
  1.000E+01  5.661E-01  1.901E+00 7.5316760E+00 3.1657866E+00 -6.5705204E+00
  9.957E+00  5.438E-01  1.890E+00 7.6352956E+00 3.3377528E+00 -6.5077830E+00
  1.000E+01  6.116E-01  1.921E+00 7.3975504E+00 2.8304259E+00 -6.7179068E+00
  9.957E+00  5.887E-01  1.912E+00 7.5465061E+00 3.0090712E+00 -6.6674078E+00
  1.000E+01  6.580E-01  1.940E+00 7.2368508E+00 2.4879990E+00 -6.8465250E+00
  9.957E+00  6.347E-01  1.931E+00 7.3707266E+00 2.6670402E+00 -6.8041361E+00
  1.000E+01  7.052E-01  1.956E+00 7.1623264E+00 2.1492699E+00 -6.9659398E+00
  9.957E+00  6.815E-01  1.948E+00 7.2652247E+00 2.3253424E+00 -6.9281835E+00
  1.000E+01  7.532E-01  1.969E+00 7.0739929E+00 1.8058303E+00 -7.0694832E+00
  9.957E+00  7.292E-01  1.963E+00 7.1898944E+00 1.9850042E+00 -7.0416647E+00
  1.000E+01  8.019E-01  1.980E+00 6.9648425E+00 1.4494765E+00 -7.1493781E+00
  9.957E+00  7.775E-01  1.975E+00 7.0863729E+00 1.6340070E+00 -7.1338473E+00
  1.000E+01  8.510E-01  1.989E+00 6.8647624E+00 1.0858884E+00 -7.2089905E+00
  9.957E+00  8.264E-01  1.985E+00 6.9785397E+00 1.2718519E+00 -7.2030717E+00
  1.000E+01  9.004E-01  1.995E+00 6.7958196E+00 7.2230420E-01 -7.2522899E+00
  9.957E+00  8.757E-01  1.992E+00 6.8945838E+00 9.0652444E-01 -7.2544039E+00
  1.000E+01  9.502E-01  1.999E+00 6.7597827E+00 3.6070546E-01 -7.2795284E+00
  9.957E+00  9.253E-01  1.997E+00 6.8416730E+00 5.4294567E-01 -7.2899975E+00
  1.000E+01  1.000E+00  2.000E+00 6.7490998E+00 1.8791200E-06 -7.2889467E+00
  9.957E+00  9.751E-01  2.000E+00 6.8170491E+00 1.8084756E-01 -7.3085219E+00
  1.000E+01  1.050E+00  1.999E+00 6.7597829E+00 -3.6070162E-01 -7.2795284E+00
  9.957E+00  1.025E+00  2.000E+00 6.8170493E+00 -1.8084442E-01 -7.3085219E+00
  1.000E+01  1.100E+00  1.995E+00 6.7958202E+00 -7.2230041E-01 -7.2522899E+00
  9.957E+00  1.075E+00  1.997E+00 6.8416734E+00 -5.4294257E-01 -7.2899975E+00
  1.000E+01  1.149E+00  1.989E+00 6.8647631E+00 -1.0858846E+00 -7.2089906E+00
  9.957E+00  1.124E+00  1.992E+00 6.8945844E+00 -9.0652123E-01 -7.2544038E+00
  1.000E+01  1.198E+00  1.980E+00 6.9648436E+00 -1.4494728E+00 -7.1493781E+00
  9.957E+00  1.174E+00  1.985E+00 6.9785406E+00 -1.2718488E+00 -7.2030717E+00