# TIME = 5.000000
VARIABLES = X, Y, Z, FX, FY, FZ
ZONE N=29232 E=58212 F=FEPOINT ET=TRIANGLE
  0.000E+00  9.502E-01  1.243E-03 6.4287159E+00 3.2364279E-01 6.5305671E+00
  0.000E+00  1.000E+00  0.000E+00 6.4179373E+00 -9.7583033E-07 6.5390079E+00
  4.318E-02  9.751E-01  3.108E-04 6.4127597E+00 1.5993102E-01 6.4620595E+00
  0.000E+00  1.050E+00  1.243E-03 6.4287159E+00 -3.2364553E-01 6.5305671E+00
  4.318E-02  1.025E+00  3.108E-04 6.4127597E+00 -1.5993324E-01 6.4620595E+00
  0.000E+00  1.100E+00  4.969E-03 6.4648346E+00 -6.4810443E-01 6.5061041E+00
  4.318E-02  1.075E+00  2.796E-03 6.4374399E+00 -4.8015647E-01 6.4456413E+00
  0.000E+00  1.149E+00  1.117E-02 6.5334012E+00 -9.7431320E-01 6.4671540E+00
  4.318E-02  1.124E+00  7.761E-03 6.4901596E+00 -8.0167973E-01 6.4140932E+00
  0.000E+00  1.198E+00  1.983E-02 6.6325579E+00 -1.3004418E+00 6.4135966E+00
  4.318E-02  1.174E+00  1.519E-02 6.5733791E+00 -1.1247020E+00 6.3686028E+00
  0.000E+00  1.247E+00  3.092E-02 6.7410780E+00 -1.6199981E+00 6.3420385E+00
  4.318E-02  1.223E+00  2.507E-02 6.6801385E+00 -1.4448039E+00 6.3073719E+00
  0.000E+00  1.295E+00  4.443E-02 6.8303601E+00 -1.9279831E+00 6.2494062E+00
  4.318E-02  1.271E+00  3.738E-02 6.7835966E+00 -1.7549646E+00 6.2261012E+00
  0.000E+00  1.342E+00  6.031E-02 6.9070585E+00 -2.2318372E+00 6.1422188E+00
  4.318E-02  1.318E+00  5.207E-02 6.8610837E+00 -2.0558016E+00 6.1260544E+00
  0.000E+00  1.388E+00  7.852E-02 7.0658991E+00 -2.5390680E+00 6.0264183E+00
  4.318E-02  1.365E+00  6.913E-02 6.9676025E+00 -2.3579826E+00 6.0159507E+00
  0.000E+00  1.434E+00  9.903E-02 7.1989451E+00 -2.8399839E+00 5.8946142E+00
  4.318E-02  1.411E+00  8.849E-02 7.1401363E+00 -2.6603737E+00 5.8948695E+00
  0.000E+00  1.478E+00  1.218E-01 7.2536230E+00 -3.1278166E+00 5.7434804E+00
  4.318E-02  1.456E+00  1.101E-01 7.2300754E+00 -2.9510137E+00 5.7544067E+00
  0.000E+00  1.521E+00  1.467E-01 7.4136796E+00 -3.4097615E+00 5.5804170E+00
  4.318E-02  1.500E+00  1.340E-01 7.3080209E+00 -3.2317797E+00 5.5983725E+00
  0.000E+00  1.563E+00  1.738E-01 7.4592633E+00 -3.6847272E+00 5.4042647E+00
  4.318E-02  1.543E+00  1.600E-01 7.4543565E+00 -3.5079399E+00 5.4314104E+00
  0.000E+00  1.604E+00  2.029E-01 7.5477980E+00 -3.9490788E+00 5.2135040E+00
  4.318E-02  1.584E+00  1.881E-01 7.4782012E+00 -3.7744443E+00 5.2497601E+00
  0.000E+00  1.643E+00  2.340E-01 7.6022282E+00 -4.2040746E+00 5.0102032E+00
  4.318E-02  1.623E+00  2.182E-01 7.5725950E+00 -4.0310634E+00 5.0548538E+00
  0.000E+00  1.680E+00  2.669E-01 7.6045567E+00 -4.4486336E+00 4.7944792E+00
  4.318E-02  1.662E+00  2.502E-01 7.5851498E+00 -4.2782549E+00 4.8477941E+00
  0.000E+00  1.716E+00  3.018E-01 7.6380363E+00 -4.6819951E+00 4.5666666E+00
  4.318E-02  1.698E+00  2.841E-01 7.6316630E+00 -4.5144100E+00 4.6284057E+00
  0.000E+00  1.750E+00  3.383E-01 7.5914933E+00 -4.9039193E+00 4.3277824E+00
  4.318E-02  1.733E+00  3.198E-01 7.5982118E+00 -4.7396114E+00 4.3977145E+00
  0.000E+00  1.782E+00  3.765E-01 7.5789644E+00 -5.1133784E+00 4.0777258E+00
  4.318E-02  1.766E+00  3.572E-01 7.5958563E+00 -4.9528712E+00 4.1559565E+00
  0.000E+00  1.812E+00  4.163E-01 7.4845350E+00 -5.3105432E+00 3.8181405E+00
  4.318E-02  1.797E+00  3.962E-01 7.5414357E+00 -5.1538395E+00 3.9038727E+00
  0.000E+00  1.840E+00  4.575E-01 7.4607419E+00 -5.4942880E+00 3.5485522E+00
  4.318E-02  1.826E+00  4.367E-01 7.4529145E+00 -5.3424319E+00 3.6425559E+00
  0.000E+00  1.866E+00  5.000E-01 7.3143521E+00 -5.6631999E+00 3.2691932E+00
  4.318E-02  1.853E+00  4.786E-01 7.4072955E+00 -5.5165459E+00 3.3707305E+00
  0.000E+00  1.890E+00  5.438E-01 7.2364362E+00 -5.8210280E+00 2.9851787E+00
  4.318E-02  1.878E+00  5.217E-01 7.2472956E+00 -5.6777762E+00 3.0920130E+00
  0.000E+00  1.912E+00  5.887E-01 7.1465190E+00 -5.9631160E+00 2.6911748E+00
  4.318E-02  1.901E+00  5.661E-01 7.1925603E+00 -5.8271593E+00 2.8074781E+00
  0.000E+00  1.931E+00  6.347E-01 6.9739296E+00 -6.0856135E+00 2.3852815E+00
  4.318E-02  1.921E+00  6.116E-01 7.0595332E+00 -5.9574459E+00 2.5100036E+00
  0.000E+00  1.948E+00  6.815E-01 6.8674244E+00 -6.1969821E+00 2.0796027E+00
  4.318E-02  1.940E+00  6.580E-01 6.9007314E+00 -6.0719494E+00 2.2062881E+00
  0.000E+00  1.963E+00  7.292E-01 6.7899750E+00 -6.2981818E+00 1.7752820E+00
  4.318E-02  1.956E+00  7.052E-01 6.8239899E+00 -6.1779014E+00 1.9059122E+00
  0.000E+00  1.975E+00  7.775E-01 6.6865169E+00 -6.3804008E+00 1.4615277E+00
  4.318E-02  1.969E+00  7.532E-01 6.7346890E+00 -6.2694621E+00 1.6014566E+00
  0.000E+00  1.985E+00  8.264E-01 6.5797386E+00 -6.4423443E+00 1.1377175E+00
  4.318E-02  1.980E+00  8.019E-01 6.6261809E+00 -6.3402033E+00 1.2855618E+00
  0.000E+00  1.992E+00  8.757E-01 6.4965057E+00 -6.4883572E+00 8.1095530E-01
  4.318E-02  1.989E+00  8.510E-01 6.5270414E+00 -6.3931514E+00 9.6316653E-01
  0.000E+00  1.997E+00  9.253E-01 6.4437840E+00 -6.5202698E+00 4.8571042E-01
  4.318E-02  1.995E+00  9.004E-01 6.4584818E+00 -6.4316581E+00 6.4068918E-01
  0.000E+00  2.000E+00  9.751E-01 6.4191064E+00 -6.5368797E+00 1.6178286E-01
  4.318E-02  1.999E+00  9.502E-01 6.4223627E+00 -6.4558451E+00 3.1994132E-01
  0.000E+00  2.000E+00  1.025E+00 6.4191064E+00 -6.5368777E+00 -1.6178156E-01
  4.318E-02  2.000E+00  1.000E+00 6.4115821E+00 -6.4641896E+00 6.8957006E-07
  0.000E+00  1.997E+00  1.075E+00 6.4437840E+00 -6.5202633E+00 -4.8570910E-01
  4.318E-02  1.999E+00  1.050E+00 6.4223625E+00 -6.4558412E+00 -3.1993994E-01
  0.000E+00  1.992E+00  1.124E+00 6.4965055E+00 -6.4883474E+00 -8.1095398E-01
  4.318E-02  1.995E+00  1.100E+00 6.4584816E+00 -6.4316495E+00 -6.4068780E-01
  0.000E+00  1.985E+00  1.174E+00 6.5797384E+00 -6.4423395E+00 -1.1377162E+00
  4.318E-02  1.989E+00  1.149E+00 6.5270411E+00 -6.3931427E+00 -9.6316515E-01
  0.000E+00  1.975E+00  1.223E+00 6.6865166E+00 -6.3804119E+00 -1.4615263E+00
  4.318E-02  1.980E+00  1.198E+00 6.6261806E+00 -6.3402062E+00 -1.2855605E+00
  0.000E+00  1.963E+00  1.271E+00 6.7899746E+00 -6.2981930E+00 -1.7752805E+00
  4.318E-02  1.969E+00  1.247E+00 6.7346886E+00 -6.2694773E+00 -1.6014552E+00
  0.000E+00  1.948E+00  1.318E+00 6.8674240E+00 -6.1969614E+00 -2.0796011E+00
  4.318E-02  1.956E+00  1.295E+00 6.8239895E+00 -6.1778988E+00 -1.9059107E+00
  0.000E+00  1.931E+00  1.365E+00 6.9739291E+00 -6.0855967E+00 -2.3852800E+00
  4.318E-02  1.940E+00  1.342E+00 6.9007310E+00 -6.0719207E+00 -2.2062865E+00
  0.000E+00  1.912E+00  1.411E+00 7.1465178E+00 -5.9631406E+00 -2.6911732E+00
  4.318E-02  1.921E+00  1.388E+00 7.0595330E+00 -5.9574551E+00 -2.5100024E+00
  0.000E+00  1.890E+00  1.456E+00 7.2364357E+00 -5.8210191E+00 -2.9851772E+00
  4.318E-02  1.901E+00  1.434E+00 7.1925599E+00 -5.8271760E+00 -2.8074766E+00
  0.000E+00  1.866E+00  1.500E+00 7.3143515E+00 -5.6631830E+00 -3.2691914E+00
  4.318E-02  1.878E+00  1.478E+00 7.2472950E+00 -5.6777494E+00 -3.0920110E+00
  0.000E+00  1.840E+00  1.543E+00 7.4607413E+00 -5.4943063E+00 -3.5485510E+00
  4.318E-02  1.853E+00  1.521E+00 7.4072949E+00 -5.5165550E+00 -3.3707292E+00
  0.000E+00  1.812E+00  1.584E+00 7.4845343E+00 -5.3105329E+00 -3.8181384E+00
  4.318E-02  1.826E+00  1.563E+00 7.4529138E+00 -5.3424359E+00 -3.6425541E+00
  0.000E+00  1.782E+00  1.623E+00 7.5789637E+00 -5.1133837E+00 -4.0777244E+00
  4.318E-02  1.797E+00  1.604E+00 7.5414350E+00 -5.1538333E+00 -3.9038710E+00
  0.000E+00  1.750E+00  1.662E+00 7.5914927E+00 -4.9039203E+00 -4.3277806E+00
  4.318E-02  1.766E+00  1.643E+00 7.5958556E+00 -4.9528799E+00 -4.1559550E+00
  0.000E+00  1.716E+00  1.698E+00 7.6380356E+00 -4.6819954E+00 -4.5666650E+00
  4.318E-02  1.733E+00  1.680E+00 7.5982111E+00 -4.7396071E+00 -4.3977125E+00
  0.000E+00  1.680E+00  1.733E+00 7.6045559E+00 -4.4486361E+00 -4.7944775E+00
  4.318E-02  1.698E+00  1.716E+00 7.6316622E+00 -4.5144150E+00 -4.6284042E+00
  0.000E+00  1.643E+00  1.766E+00 7.6022274E+00 -4.2040738E+00 -5.0102014E+00
  4.318E-02  1.662E+00  1.750E+00 7.5851490E+00 -4.2782536E+00 -4.8477922E+00
  0.000E+00  1.604E+00  1.797E+00 7.5477972E+00 -3.9490798E+00 -5.2135022E+00
  4.318E-02  1.623E+00  1.782E+00 7.5725942E+00 -4.0310648E+00 -5.0548521E+00
  0.000E+00  1.563E+00  1.826E+00 7.4592626E+00 -3.6847265E+00 -5.4042628E+00
  4.318E-02  1.584E+00  1.812E+00 7.4782003E+00 -3.7744438E+00 -5.2497582E+00
  0.000E+00  1.521E+00  1.853E+00 7.4136788E+00 -3.4097623E+00 -5.5804153E+00
  4.318E-02  1.543E+00  1.840E+00 7.4543558E+00 -3.5079405E+00 -5.4314086E+00
  0.000E+00  1.478E+00  1.878E+00 7.2536222E+00 -3.1278161E+00 -5.7434785E+00
  4.318E-02  1.500E+00  1.866E+00 7.3080201E+00 -3.2317788E+00 -5.5983706E+00
  0.000E+00  1.434E+00  1.901E+00 7.1989445E+00 -2.8399849E+00 -5.8946122E+00
  4.318E-02  1.456E+00  1.890E+00 7.2300745E+00 -2.9510147E+00 -5.7544049E+00
  0.000E+00  1.388E+00  1.921E+00 7.0658988E+00 -2.5390664E+00 -6.0264161E+00
  4.318E-02  1.411E+00  1.912E+00 7.1401352E+00 -2.6603744E+00 -5.8948678E+00
  0.000E+00  1.342E+00  1.940E+00 6.9070579E+00 -2.2318375E+00 -6.1422168E+00
  4.318E-02  1.365E+00  1.931E+00 6.9676015E+00 -2.3579825E+00 -6.0159490E+00
  0.000E+00  1.295E+00  1.956E+00 6.8303587E+00 -1.9279846E+00 -6.2494045E+00
  4.318E-02  1.318E+00  1.948E+00 6.8610833E+00 -2.0558014E+00 -6.1260526E+00
  0.000E+00  1.247E+00  1.969E+00 6.7410762E+00 -1.6200006E+00 -6.3420374E+00
  4.318E-02  1.271E+00  1.963E+00 6.7835965E+00 -1.7549633E+00 -6.2260990E+00
  0.000E+00  1.198E+00  1.980E+00 6.6325565E+00 -1.3004430E+00 -6.4135957E+00
  4.318E-02  1.223E+00  1.975E+00 6.6801382E+00 -1.4448028E+00 -6.3073694E+00
  0.000E+00  1.149E+00  1.989E+00 6.5334004E+00 -9.7431345E-01 -6.4671531E+00
  4.318E-02  1.174E+00  1.985E+00 6.5733783E+00 -1.1247014E+00 -6.3686003E+00
  0.000E+00  1.100E+00  1.995E+00 6.4648343E+00 -6.4810386E-01 -6.5061030E+00
  4.318E-02  1.124E+00  1.992E+00 6.4901585E+00 -8.0168058E-01 -6.4140908E+00
  0.000E+00  1.050E+00  1.999E+00 6.4287158E+00 -3.2364458E-01 -6.5305659E+00
  4.318E-02  1.075E+00  1.997E+00 6.4374388E+00 -4.8015673E-01 -6.4456390E+00
  0.000E+00  1.000E+00  2.000E+00 6.4179371E+00 -1.4871936E-06 -6.5390066E+00
  4.318E-02  1.025E+00  2.000E+00 6.4127586E+00 -1.5993369E-01 -6.4620573E+00
  0.000E+00  9.502E-01  1.999E+00 6.4287158E+00 3.2364239E-01 -6.5305659E+00
  4.318E-02  9.751E-01  2.000E+00 6.4127586E+00 1.5993106E-01 -6.4620573E+00
  0.000E+00  9.004E-01  1.995E+00 6.4648343E+00 6.4810119E-01 -6.5061030E+00
  4.318E-02  9.253E-01  1.997E+00 6.4374388E+00 4.8015459E-01 -6.4456390E+00
  0.000E+00  8.510E-01  1.989E+00 6.5334005E+00 9.7431080E-01 -6.4671531E+00
  4.318E-02  8.757E-01  1.992E+00 6.4901586E+00 8.0167767E-01 -6.4140908E+00
  0.000E+00  8.019E-01  1.980E+00 6.6325566E+00 1.3004407E+00 -6.4135957E+00
  4.318E-02  8.264E-01  1.985E+00 6.5733784E+00 1.1246992E+00 -6.3686003E+00
  0.000E+00  7.532E-01  1.969E+00 6.7410764E+00 1.6199979E+00 -6.3420373E+00
  4.318E-02  7.775E-01  1.975E+00 6.6801383E+00 1.4448002E+00 -6.3073694E+00
  0.000E+00  7.052E-01  1.956E+00 6.8303589E+00 1.9279820E+00 -6.2494045E+00
  4.318E-02  7.292E-01  1.963E+00 6.7835967E+00 1.7549609E+00 -6.2260990E+00
  0.000E+00  6.580E-01  1.940E+00 6.9070581E+00 2.2318347E+00 -6.1422168E+00
  4.318E-02  6.815E-01  1.948E+00 6.8610834E+00 2.0557986E+00 -6.1260526E+00
  0.000E+00  6.116E-01  1.921E+00 7.0658992E+00 2.5390648E+00 -6.0264162E+00
  4.318E-02  6.347E-01  1.931E+00 6.9676018E+00 2.3579805E+00 -6.0159490E+00
  0.000E+00  5.661E-01  1.901E+00 7.1989448E+00 2.8399810E+00 -5.8946122E+00
  4.318E-02  5.887E-01  1.912E+00 7.1401352E+00 2.6603716E+00 -5.8948674E+00
  0.000E+00  5.217E-01  1.878E+00 7.2536224E+00 3.1278142E+00 -5.7434785E+00
  4.318E-02  5.438E-01  1.890E+00 7.2300748E+00 2.9510114E+00 -5.7544049E+00
  0.000E+00  4.786E-01  1.853E+00 7.4136791E+00 3.4097592E+00 -5.5804152E+00
  4.318E-02  5.000E-01  1.866E+00 7.3080204E+00 3.2317771E+00 -5.5983707E+00
  0.000E+00  4.367E-01  1.826E+00 7.4592629E+00 3.6847247E+00 -5.4042628E+00
  4.318E-02  4.575E-01  1.840E+00 7.4543560E+00 3.5079374E+00 -5.4314085E+00
  0.000E+00  3.962E-01  1.797E+00 7.5477975E+00 3.9490762E+00 -5.2135021E+00
  4.318E-02  4.163E-01  1.812E+00 7.4782006E+00 3.7744419E+00 -5.2497583E+00
  0.000E+00  3.572E-01  1.766E+00 7.6022277E+00 4.2040720E+00 -5.0102014E+00
  4.318E-02  3.765E-01  1.782E+00 7.5725946E+00 4.0310610E+00 -5.0548520E+00
  0.000E+00  3.198E-01  1.733E+00 7.6045563E+00 4.4486310E+00 -4.7944775E+00
  4.318E-02  3.383E-01  1.750E+00 7.5851494E+00 4.2782524E+00 -4.8477923E+00
  0.000E+00  2.841E-01  1.698E+00 7.6380360E+00 4.6819926E+00 -4.5666648E+00
  4.318E-02  3.018E-01  1.716E+00 7.6316626E+00 4.5144075E+00 -4.6284039E+00
  0.000E+00  2.502E-01  1.662E+00 7.5914930E+00 4.9039167E+00 -4.3277806E+00
  4.318E-02  2.669E-01  1.680E+00 7.5982114E+00 4.7396089E+00 -4.3977128E+00
  0.000E+00  2.182E-01  1.623E+00 7.5789641E+00 5.1133758E+00 -4.0777241E+00
  4.318E-02  2.340E-01  1.643E+00 7.5958560E+00 4.9528687E+00 -4.1559548E+00
  0.000E+00  1.881E-01  1.584E+00 7.4845347E+00 5.3105406E+00 -3.8181388E+00
  4.318E-02  2.029E-01  1.604E+00 7.5414353E+00 5.1538370E+00 -3.9038710E+00
  0.000E+00  1.600E-01  1.543E+00 7.4607417E+00 5.4942854E+00 -3.5485506E+00
  4.318E-02  1.738E-01  1.563E+00 7.4529142E+00 5.3424294E+00 -3.6425542E+00
  0.000E+00  1.340E-01  1.500E+00 7.3143519E+00 5.6631972E+00 -3.2691916E+00
  4.318E-02  1.467E-01  1.521E+00 7.4072953E+00 5.5165434E+00 -3.3707289E+00
  0.000E+00  1.101E-01  1.456E+00 7.2364361E+00 5.8210254E+00 -2.9851772E+00
  4.318E-02  1.218E-01  1.478E+00 7.2472954E+00 5.6777737E+00 -3.0920114E+00
  0.000E+00  8.849E-02  1.411E+00 7.1465187E+00 5.9631130E+00 -2.6911731E+00
  4.318E-02  9.903E-02  1.434E+00 7.1925602E+00 5.8271569E+00 -2.8074765E+00
  0.000E+00  6.913E-02  1.365E+00 6.9739295E+00 6.0856109E+00 -2.3852800E+00
  4.318E-02  7.852E-02  1.388E+00 7.0595332E+00 5.9574434E+00 -2.5100021E+00
  0.000E+00  5.207E-02  1.318E+00 6.8674244E+00 6.1969794E+00 -2.0796011E+00
  4.318E-02  6.031E-02  1.342E+00 6.9007314E+00 6.0719468E+00 -2.2062865E+00
  0.000E+00  3.738E-02  1.271E+00 6.7899751E+00 6.2981791E+00 -1.7752804E+00
  4.318E-02  4.443E-02  1.295E+00 6.8239900E+00 6.1778989E+00 -1.9059107E+00
  0.000E+00  2.507E-02  1.223E+00 6.6865170E+00 6.3803981E+00 -1.4615262E+00
  4.318E-02  3.092E-02  1.247E+00 6.7346891E+00 6.2694596E+00 -1.6014551E+00
  0.000E+00  1.519E-02  1.174E+00 6.5797388E+00 6.4423416E+00 -1.1377160E+00
  4.318E-02  1.983E-02  1.198E+00 6.6261810E+00 6.3402007E+00 -1.2855603E+00
  0.000E+00  7.761E-03  1.124E+00 6.4965060E+00 6.4883545E+00 -8.1095383E-01
  4.318E-02  1.117E-02  1.149E+00 6.5270416E+00 6.3931488E+00 -9.6316501E-01
  0.000E+00  2.796E-03  1.075E+00 6.4437845E+00 6.5202671E+00 -4.8570897E-01
  4.318E-02  4.969E-03  1.100E+00 6.4584820E+00 6.4316555E+00 -6.4068768E-01
  0.000E+00  3.108E-04  1.025E+00 6.4191068E+00 6.5368770E+00 -1.6178143E-01
  4.318E-02  1.243E-03  1.050E+00 6.4223630E+00 6.4558425E+00 -3.1993981E-01
  0.000E+00  3.108E-04  9.751E-01 6.4191068E+00 6.5368750E+00 1.6178298E-01
  4.318E-02  0.000E+00  1.000E+00 6.4115826E+00 6.4641869E+00 8.1765773E-07
  0.000E+00  2.796E-03  9.253E-01 6.4437845E+00 6.5202606E+00 4.8571052E-01
  4.318E-02  1.243E-03  9.502E-01 6.4223631E+00 6.4558386E+00 3.1994143E-01
  0.000E+00  7.761E-03  8.757E-01 6.4965061E+00 6.4883447E+00 8.1095540E-01
  4.318E-02  4.969E-03  9.004E-01 6.4584822E+00 6.4316468E+00 6.4068928E-01
  0.000E+00  1.519E-02  8.264E-01 6.5797391E+00 6.4423368E+00 1.1377176E+00
  4.318E-02  1.117E-02  8.510E-01 6.5270418E+00 6.3931401E+00 9.6316662E-01
  0.000E+00  2.507E-02  7.775E-01 6.6865174E+00 6.3804093E+00 1.4615278E+00
  4.318E-02  1.983E-02  8.019E-01 6.6261813E+00 6.3402035E+00 1.2855619E+00
  0.000E+00  3.738E-02  7.292E-01 6.7899755E+00 6.2981904E+00 1.7752819E+00
  4.318E-02  3.092E-02  7.532E-01 6.7346894E+00 6.2694746E+00 1.6014567E+00
  0.000E+00  5.207E-02  6.815E-01 6.8674249E+00 6.1969587E+00 2.0796026E+00
  4.318E-02  4.443E-02  7.052E-01 6.8239904E+00 6.1778961E+00 1.9059122E+00
  0.000E+00  6.913E-02  6.347E-01 6.9739301E+00 6.0855940E+00 2.3852814E+00
  4.318E-02  6.031E-02  6.580E-01 6.9007319E+00 6.0719180E+00 2.2062879E+00
  0.000E+00  8.849E-02  5.887E-01 7.1465190E+00 5.9631382E+00 2.6911748E+00
  4.318E-02  7.852E-02  6.116E-01 7.0595338E+00 5.9574523E+00 2.5100038E+00
  0.000E+00  1.101E-01  5.438E-01 7.2364367E+00 5.8210164E+00 2.9851786E+00
  4.318E-02  9.903E-02  5.661E-01 7.1925608E+00 5.8271733E+00 2.8074781E+00
  0.000E+00  1.340E-01  5.000E-01 7.3143526E+00 5.6631804E+00 3.2691929E+00
  4.318E-02  1.218E-01  5.217E-01 7.2472961E+00 5.6777467E+00 3.0920126E+00
  0.000E+00  1.600E-01  4.575E-01 7.4607424E+00 5.4943037E+00 3.5485525E+00
  4.318E-02  1.467E-01  4.786E-01 7.4072960E+00 5.5165523E+00 3.3707307E+00
  0.000E+00  1.881E-01  4.163E-01 7.4845354E+00 5.3105303E+00 3.8181399E+00
  4.318E-02  1.738E-01  4.367E-01 7.4529149E+00 5.3424333E+00 3.6425557E+00
  0.000E+00  2.182E-01  3.765E-01 7.5789649E+00 5.1133811E+00 4.0777259E+00
  4.318E-02  2.029E-01  3.962E-01 7.5414361E+00 5.1538307E+00 3.9038725E+00
  0.000E+00  2.502E-01  3.383E-01 7.5914938E+00 4.9039177E+00 4.3277821E+00
  4.318E-02  2.340E-01  3.572E-01 7.5958568E+00 4.9528773E+00 4.1559566E+00
  0.000E+00  2.841E-01  3.018E-01 7.6380368E+00 4.6819928E+00 4.5666665E+00
  4.318E-02  2.669E-01  3.198E-01 7.5982122E+00 4.7396046E+00 4.3977141E+00
  0.000E+00  3.198E-01  2.669E-01 7.6045571E+00 4.4486335E+00 4.7944790E+00
  4.318E-02  3.018E-01  2.841E-01 7.6316634E+00 4.5144125E+00 4.6284057E+00
  0.000E+00  3.572E-01  2.340E-01 7.6022286E+00 4.2040713E+00 5.0102030E+00
  4.318E-02  3.383E-01  2.502E-01 7.5851502E+00 4.2782511E+00 4.8477938E+00
  0.000E+00  3.962E-01  2.029E-01 7.5477983E+00 3.9490773E+00 5.2135038E+00
  4.318E-02  3.765E-01  2.182E-01 7.5725954E+00 4.0310622E+00 5.0548537E+00
  0.000E+00  4.367E-01  1.738E-01 7.4592637E+00 3.6847240E+00 5.4042645E+00
  4.318E-02  4.163E-01  1.881E-01 7.4782015E+00 3.7744412E+00 5.2497598E+00
  0.000E+00  4.786E-01  1.467E-01 7.4136800E+00 3.4097596E+00 5.5804169E+00
  4.318E-02  4.575E-01  1.600E-01 7.4543568E+00 3.5079381E+00 5.4314103E+00
  0.000E+00  5.217E-01  1.218E-01 7.2536233E+00 3.1278135E+00 5.7434802E+00
  4.318E-02  5.000E-01  1.340E-01 7.3080212E+00 3.2317765E+00 5.5983723E+00
  0.000E+00  5.661E-01  9.903E-02 7.1989453E+00 2.8399828E+00 5.8946140E+00
  4.318E-02  5.438E-01  1.101E-01 7.2300757E+00 2.9510122E+00 5.7544066E+00
  0.000E+00  6.116E-01  7.852E-02 7.0658994E+00 2.5390648E+00 6.0264181E+00
  4.318E-02  5.887E-01  8.849E-02 7.1401363E+00 2.6603714E+00 5.8948691E+00
  0.000E+00  6.580E-01  6.031E-02 6.9070587E+00 2.2318350E+00 6.1422187E+00
  4.318E-02  6.347E-01  6.913E-02 6.9676027E+00 2.3579798E+00 6.0159506E+00
  0.000E+00  7.052E-01  4.443E-02 6.8303603E+00 1.9279806E+00 6.2494060E+00
  4.318E-02  6.815E-01  5.207E-02 6.8610839E+00 2.0557995E+00 6.1260543E+00
  0.000E+00  7.532E-01  3.092E-02 6.7410782E+00 1.6199959E+00 6.3420384E+00
  4.318E-02  7.292E-01  3.738E-02 6.7835968E+00 1.7549622E+00 6.2261011E+00
  0.000E+00  8.019E-01  1.983E-02 6.6325581E+00 1.3004391E+00 6.4135966E+00
  4.318E-02  7.775E-01  2.507E-02 6.6801386E+00 1.4448016E+00 6.3073718E+00
  0.000E+00  8.510E-01  1.117E-02 6.5334013E+00 9.7431092E-01 6.4671540E+00
  4.318E-02  8.264E-01  1.519E-02 6.5733793E+00 1.1246994E+00 6.3686028E+00
  0.000E+00  9.004E-01  4.969E-03 6.4648346E+00 6.4810216E-01 6.5061041E+00
  4.318E-02  8.757E-01  7.761E-03 6.4901597E+00 8.0167780E-01 6.4140932E+00
  4.318E-02  9.253E-01  2.796E-03 6.4374400E+00 4.8015377E-01 6.4456413E+00
  1.000E+01  1.050E+00  1.243E-03 6.4287159E+00 -3.2364553E-01 6.5305671E+00
  1.000E+01  1.000E+00  5.551E-16 6.4179373E+00 -9.7583033E-07 6.5390079E+00
  9.957E+00  1.025E+00  3.108E-04 6.4269765E+00 -1.6363751E-01 6.6118442E+00
  1.000E+01  9.502E-01  1.243E-03 6.4287159E+00 3.2364279E-01 6.5305671E+00
  9.957E+00  9.751E-01  3.108E-04 6.4269766E+00 1.6363520E-01 6.6118442E+00
  1.000E+01  9.004E-01  4.969E-03 6.4648346E+00 6.4810216E-01 6.5061041E+00
  9.957E+00  9.253E-01  2.796E-03 6.4516541E+00 4.9127616E-01 6.5950476E+00
  1.000E+01  8.510E-01  1.117E-02 6.5334013E+00 9.7431092E-01 6.4671540E+00
  9.957E+00  8.757E-01  7.761E-03 6.5043796E+00 8.2025203E-01 6.5627719E+00
  1.000E+01  8.019E-01  1.983E-02 6.6325581E+00 1.3004391E+00 6.4135966E+00
  9.957E+00  8.264E-01  1.519E-02 6.5876257E+00 1.1507628E+00 6.5162319E+00
  1.000E+01  7.532E-01  3.092E-02 6.7410782E+00 1.6199959E+00 6.3420384E+00
  9.957E+00  7.775E-01  2.507E-02 6.6944244E+00 1.4782900E+00 6.4535821E+00
  1.000E+01  7.052E-01  4.443E-02 6.8303603E+00 1.9279806E+00 6.2494060E+00
  9.957E+00  7.292E-01  3.738E-02 6.7978839E+00 1.7956483E+00 6.3704154E+00
  1.000E+01  6.580E-01  6.031E-02 6.9070587E+00 2.2318350E+00 6.1422187E+00
  9.957E+00  6.815E-01  5.207E-02 6.8752915E+00 2.1034636E+00 6.2680369E+00
  1.000E+01  6.116E-01  7.852E-02 7.0658994E+00 2.5390648E+00 6.0264181E+00
  9.957E+00  6.347E-01  6.913E-02 6.9817796E+00 2.4126471E+00 6.1554052E+00
  1.000E+01  5.661E-01  9.903E-02 7.1989453E+00 2.8399828E+00 5.8946140E+00
  9.957E+00  5.887E-01  8.849E-02 7.1544348E+00 2.7220489E+00 6.0315240E+00
  1.000E+01  5.217E-01  1.218E-01 7.2536233E+00 3.1278135E+00 5.7434802E+00
  9.957E+00  5.438E-01  1.101E-01 7.2443266E+00 3.0194260E+00 5.8877726E+00
  1.000E+01  4.786E-01  1.467E-01 7.4136800E+00 3.4097596E+00 5.5804169E+00
  9.957E+00  5.000E-01  1.340E-01 7.3222070E+00 3.3066989E+00 5.7281459E+00
  1.000E+01  4.367E-01  1.738E-01 7.4592637E+00 3.6847240E+00 5.4042645E+00
  9.957E+00  4.575E-01  1.600E-01 7.4686609E+00 3.5892641E+00 5.5573125E+00
  1.000E+01  3.962E-01  2.029E-01 7.5477983E+00 3.9490773E+00 5.2135038E+00
  9.957E+00  4.163E-01  1.881E-01 7.4923899E+00 3.8619431E+00 5.3714398E+00
  1.000E+01  3.572E-01  2.340E-01 7.6022286E+00 4.2040713E+00 5.0102030E+00
  9.957E+00  3.765E-01  2.182E-01 7.5868631E+00 4.1245037E+00 5.1720305E+00
  1.000E+01  3.198E-01  2.669E-01 7.6045571E+00 4.4486335E+00 4.7944790E+00
  9.957E+00  3.383E-01  2.502E-01 7.5993608E+00 4.3774337E+00 4.9601626E+00
  1.000E+01  2.841E-01  3.018E-01 7.6380368E+00 4.6819928E+00 4.5666665E+00
  9.957E+00  3.018E-01  2.841E-01 7.6459407E+00 4.6190516E+00 4.7356957E+00
  1.000E+01  2.502E-01  3.383E-01 7.5914938E+00 4.9039177E+00 4.3277821E+00
  9.957E+00  2.669E-01  3.198E-01 7.6124263E+00 4.8494827E+00 4.4996602E+00
  1.000E+01  2.182E-01  3.765E-01 7.5789649E+00 5.1133811E+00 4.0777259E+00
  9.957E+00  2.340E-01  3.572E-01 7.6101311E+00 5.0676738E+00 4.2522896E+00
  1.000E+01  1.881E-01  4.163E-01 7.4845354E+00 5.3105303E+00 3.8181399E+00
  9.957E+00  2.029E-01  3.962E-01 7.5556887E+00 5.2733175E+00 3.9943805E+00
  1.000E+01  1.600E-01  4.575E-01 7.4607424E+00 5.4943037E+00 3.5485525E+00
  9.957E+00  1.738E-01  4.367E-01 7.4671375E+00 5.4662497E+00 3.7269853E+00
  1.000E+01  1.340E-01  5.000E-01 7.3143526E+00 5.6631804E+00 3.2691929E+00
  9.957E+00  1.467E-01  4.786E-01 7.4215929E+00 5.6444471E+00 3.4488743E+00
  1.000E+01  1.101E-01  5.438E-01 7.2364367E+00 5.8210164E+00 2.9851786E+00
  9.957E+00  1.218E-01  5.217E-01 7.2614656E+00 5.8093463E+00 3.1636946E+00
  1.000E+01  8.849E-02  5.887E-01 7.1465190E+00 5.9631382E+00 2.6911748E+00
  9.957E+00  9.903E-02  5.661E-01 7.2068582E+00 5.9622383E+00 2.8725590E+00
  1.000E+01  6.913E-02  6.347E-01 6.9739301E+00 6.0855940E+00 2.3852814E+00
  9.957E+00  7.852E-02  6.116E-01 7.0737873E+00 6.0955638E+00 2.5681916E+00
  1.000E+01  5.207E-02  6.815E-01 6.8674249E+00 6.1969587E+00 2.0796026E+00
  9.957E+00  6.031E-02  6.580E-01 6.9148968E+00 6.2126589E+00 2.2574397E+00
  1.000E+01  3.738E-02  7.292E-01 6.7899755E+00 6.2981904E+00 1.7752819E+00
  9.957E+00  4.443E-02  7.052E-01 6.8382501E+00 6.3210861E+00 1.9501008E+00
  1.000E+01  2.507E-02  7.775E-01 6.6865174E+00 6.3804093E+00 1.4615278E+00
  9.957E+00  3.092E-02  7.532E-01 6.7489922E+00 6.4148017E+00 1.6385804E+00
  1.000E+01  1.519E-02  8.264E-01 6.5797391E+00 6.4423368E+00 1.1377176E+00
  9.957E+00  1.983E-02  8.019E-01 6.6404563E+00 6.4871779E+00 1.3153527E+00
  1.000E+01  7.761E-03  8.757E-01 6.4965061E+00 6.4883447E+00 8.1095540E-01
  9.957E+00  1.117E-02  8.510E-01 6.5412758E+00 6.5413376E+00 9.8548109E-01
  1.000E+01  2.796E-03  9.253E-01 6.4437845E+00 6.5202606E+00 4.8571052E-01
  9.957E+00  4.969E-03  9.004E-01 6.4727003E+00 6.5807309E+00 6.5553259E-01
  1.000E+01  3.108E-04  9.751E-01 6.4191068E+00 6.5368750E+00 1.6178298E-01
  9.957E+00  1.243E-03  9.502E-01 6.4365849E+00 6.6054800E+00 3.2735550E-01
  1.000E+01  3.108E-04  1.025E+00 6.4191068E+00 6.5368770E+00 -1.6178143E-01
  9.957E+00  0.000E+00  1.000E+00 6.4258104E+00 6.6140242E+00 7.4957564E-07
  1.000E+01  2.796E-03  1.075E+00 6.4437845E+00 6.5202671E+00 -4.8570897E-01
  9.957E+00  1.243E-03  1.050E+00 6.4365848E+00 6.6054840E+00 -3.2735400E-01
  1.000E+01  7.761E-03  1.124E+00 6.4965060E+00 6.4883545E+00 -8.1095383E-01
  9.957E+00  4.969E-03  1.100E+00 6.4727001E+00 6.5807399E+00 -6.5553110E-01
  1.000E+01  1.519E-02  1.174E+00 6.5797388E+00 6.4423416E+00 -1.1377160E+00
  9.957E+00  1.117E-02  1.149E+00 6.5412756E+00 6.5413465E+00 -9.8547958E-01
  1.000E+01  2.507E-02  1.223E+00 6.6865170E+00 6.3803981E+00 -1.4615262E+00
  9.957E+00  1.983E-02  1.198E+00 6.6404561E+00 6.4871751E+00 -1.3153511E+00
  1.000E+01  3.738E-02  1.271E+00 6.7899751E+00 6.2981791E+00 -1.7752804E+00
  9.957E+00  3.092E-02  1.247E+00 6.7489919E+00 6.4147863E+00 -1.6385789E+00
  1.000E+01  5.207E-02  1.318E+00 6.8674244E+00 6.1969794E+00 -2.0796011E+00
  9.957E+00  4.443E-02  1.295E+00 6.8382498E+00 6.3210889E+00 -1.9500993E+00
  1.000E+01  6.913E-02  1.365E+00 6.9739295E+00 6.0856109E+00 -2.3852800E+00
  9.957E+00  6.031E-02  1.342E+00 6.9148964E+00 6.2126882E+00 -2.2574384E+00
  1.000E+01  8.849E-02  1.411E+00 7.1465187E+00 5.9631130E+00 -2.6911731E+00
  9.957E+00  7.852E-02  1.388E+00 7.0737869E+00 6.0955550E+00 -2.5681903E+00
  1.000E+01  1.101E-01  1.456E+00 7.2364361E+00 5.8210254E+00 -2.9851772E+00
  9.957E+00  9.903E-02  1.434E+00 7.2068578E+00 5.9622217E+00 -2.8725573E+00
  1.000E+01  1.340E-01  1.500E+00 7.3143519E+00 5.6631972E+00 -3.2691916E+00
  9.957E+00  1.218E-01  1.478E+00 7.2614651E+00 5.8093738E+00 -3.1636936E+00
  1.000E+01  1.600E-01  1.543E+00 7.4607417E+00 5.4942854E+00 -3.5485506E+00
  9.957E+00  1.467E-01  1.521E+00 7.4215922E+00 5.6444379E+00 -3.4488725E+00
  1.000E+01  1.881E-01  1.584E+00 7.4845347E+00 5.3105406E+00 -3.8181388E+00
  9.957E+00  1.738E-01  1.563E+00 7.4671368E+00 5.4662456E+00 -3.7269840E+00
  1.000E+01  2.182E-01  1.623E+00 7.5789641E+00 5.1133758E+00 -4.0777241E+00
  9.957E+00  2.029E-01  1.604E+00 7.5556880E+00 5.2733239E+00 -3.9943790E+00
  1.000E+01  2.502E-01  1.662E+00 7.5914930E+00 4.9039167E+00 -4.3277806E+00
  9.957E+00  2.340E-01  1.643E+00 7.6101304E+00 5.0676650E+00 -4.2522879E+00
  1.000E+01  2.841E-01  1.698E+00 7.6380360E+00 4.6819926E+00 -4.5666648E+00
  9.957E+00  2.669E-01  1.680E+00 7.6124255E+00 4.8494871E+00 -4.4996590E+00
  1.000E+01  3.198E-01  1.733E+00 7.6045563E+00 4.4486310E+00 -4.7944775E+00
  9.957E+00  3.018E-01  1.716E+00 7.6459400E+00 4.6190465E+00 -4.7356940E+00
  1.000E+01  3.572E-01  1.766E+00 7.6022277E+00 4.2040720E+00 -5.0102014E+00
  9.957E+00  3.383E-01  1.750E+00 7.5993601E+00 4.3774350E+00 -4.9601612E+00
  1.000E+01  3.962E-01  1.797E+00 7.5477975E+00 3.9490762E+00 -5.2135021E+00
  9.957E+00  3.765E-01  1.782E+00 7.5868623E+00 4.1245023E+00 -5.1720289E+00
  1.000E+01  4.367E-01  1.826E+00 7.4592629E+00 3.6847247E+00 -5.4042628E+00
  9.957E+00  4.163E-01  1.812E+00 7.4923891E+00 3.8619438E+00 -5.3714382E+00
  1.000E+01  4.786E-01  1.853E+00 7.4136791E+00 3.4097592E+00 -5.5804152E+00
  9.957E+00  4.575E-01  1.840E+00 7.4686601E+00 3.5892633E+00 -5.5573109E+00
  1.000E+01  5.217E-01  1.878E+00 7.2536224E+00 3.1278142E+00 -5.7434785E+00
  9.957E+00  5.000E-01  1.866E+00 7.3222064E+00 3.3066994E+00 -5.7281442E+00
  1.000E+01  5.661E-01  1.901E+00 7.1989448E+00 2.8399810E+00 -5.8946122E+00
  9.957E+00  5.438E-01  1.890E+00 7.2443259E+00 3.0194251E+00 -5.8877710E+00
  1.000E+01  6.116E-01  1.921E+00 7.0658992E+00 2.5390648E+00 -6.0264162E+00
  9.957E+00  5.887E-01  1.912E+00 7.1544336E+00 2.7220489E+00 -6.0315222E+00
  1.000E+01  6.580E-01  1.940E+00 6.9070581E+00 2.2318347E+00 -6.1422168E+00
  9.957E+00  6.347E-01  1.931E+00 6.9817785E+00 2.4126479E+00 -6.1554037E+00
  1.000E+01  7.052E-01  1.956E+00 6.8303589E+00 1.9279820E+00 -6.2494045E+00
  9.957E+00  6.815E-01  1.948E+00 6.8752907E+00 2.1034627E+00 -6.2680350E+00
  1.000E+01  7.532E-01  1.969E+00 6.7410764E+00 1.6199979E+00 -6.3420373E+00
  9.957E+00  7.292E-01  1.963E+00 6.7978837E+00 1.7956470E+00 -6.3704132E+00
  1.000E+01  8.019E-01  1.980E+00 6.6325566E+00 1.3004407E+00 -6.4135957E+00
  9.957E+00  7.775E-01  1.975E+00 6.6944244E+00 1.4782884E+00 -6.4535797E+00
  1.000E+01  8.510E-01  1.989E+00 6.5334005E+00 9.7431080E-01 -6.4671531E+00
  9.957E+00  8.264E-01  1.985E+00 6.5876255E+00 1.1507624E+00 -6.5162295E+00
  1.000E+01  9.004E-01  1.995E+00 6.4648343E+00 6.4810119E-01 -6.5061030E+00
  9.957E+00  8.757E-01  1.992E+00 6.5043789E+00 8.2025179E-01 -6.5627695E+00
  1.000E+01  9.502E-01  1.999E+00 6.4287158E+00 3.2364239E-01 -6.5305659E+00
  9.957E+00  9.253E-01  1.997E+00 6.4516530E+00 4.9127692E-01 -6.5950454E+00
  1.000E+01  1.000E+00  2.000E+00 6.4179371E+00 -1.4871936E-06 -6.5390066E+00
  9.957E+00  9.751E-01  2.000E+00 6.4269754E+00 1.6363523E-01 -6.6118419E+00
  1.000E+01  1.050E+00  1.999E+00 6.4287158E+00 -3.2364458E-01 -6.5305659E+00
  9.957E+00  1.025E+00  2.000E+00 6.4269754E+00 -1.6363794E-01 -6.6118419E+00
  1.000E+01  1.100E+00  1.995E+00 6.4648343E+00 -6.4810386E-01 -6.5061030E+00
  9.957E+00  1.075E+00  1.997E+00 6.4516530E+00 -4.9127917E-01 -6.5950454E+00
  1.000E+01  1.149E+00  1.989E+00 6.5334004E+00 -9.7431345E-01 -6.4671531E+00
  9.957E+00  1.124E+00  1.992E+00 6.5043788E+00 -8.2025477E-01 -6.5627695E+00
  1.000E+01  1.198E+00  1.980E+00 6.6325565E+00 -1.3004430E+00 -6.4135957E+00
  9.957E+00  1.174E+00  1.985E+00 6.5876253E+00 -1.1507647E+00 -6.5162295E+00