# TIME = 0.000000
VARIABLES = X, Y, Z, FX, FY, FZ
ZONE N=29232 E=58212 F=FEPOINT ET=TRIANGLE
  0.000E+00  9.502E-01  1.243E-03 6.7499426E+00 1.2670414E-01 2.5567203E+00
  0.000E+00  1.000E+00  0.000E+00 6.7400902E+00 -3.4559961E-06 2.5600204E+00
  4.318E-02  9.751E-01  3.108E-04 6.7410114E+00 6.3337305E-02 2.5592787E+00
  0.000E+00  1.050E+00  1.243E-03 6.7499423E+00 -1.2671142E-01 2.5567201E+00
  4.318E-02  1.025E+00  3.108E-04 6.7410113E+00 -6.3344769E-02 2.5592786E+00
  0.000E+00  1.100E+00  4.969E-03 6.7834744E+00 -2.5374385E-01 2.5471498E+00
  4.318E-02  1.075E+00  2.796E-03 6.7639248E+00 -1.9017095E-01 2.5527800E+00
  0.000E+00  1.149E+00  1.117E-02 6.8482278E+00 -3.8146121E-01 2.5319046E+00
  4.318E-02  1.124E+00  7.761E-03 6.8134166E+00 -3.1751588E-01 2.5402931E+00
  0.000E+00  1.198E+00  1.983E-02 6.9426215E+00 -5.0914130E-01 2.5109482E+00
  4.318E-02  1.174E+00  1.519E-02 6.8923137E+00 -4.4545162E-01 2.5222851E+00
  0.000E+00  1.247E+00  3.092E-02 7.0449987E+00 -6.3423795E-01 2.4829560E+00
  4.318E-02  1.223E+00  2.507E-02 6.9937189E+00 -5.7222437E-01 2.4980502E+00
  0.000E+00  1.295E+00  4.443E-02 7.1259351E+00 -7.5480201E-01 2.4467181E+00
  4.318E-02  1.271E+00  3.738E-02 7.0900233E+00 -6.9505144E-01 2.4658888E+00
  0.000E+00  1.342E+00  6.031E-02 7.1926341E+00 -8.7375330E-01 2.4047588E+00
  4.318E-02  1.318E+00  5.207E-02 7.1580524E+00 -8.1418861E-01 2.4262884E+00
  0.000E+00  1.388E+00  7.852E-02 7.3445340E+00 -9.9403517E-01 2.3594124E+00
  4.318E-02  1.365E+00  6.913E-02 7.2555586E+00 -9.3386526E-01 2.3826774E+00
  0.000E+00  1.434E+00  9.903E-02 7.4705106E+00 -1.1118490E+00 2.3078477E+00
  4.318E-02  1.411E+00  8.849E-02 7.4219082E+00 -1.0536271E+00 2.3347311E+00
  0.000E+00  1.478E+00  1.218E-01 7.5151584E+00 -1.2245310E+00 2.2486834E+00
  4.318E-02  1.456E+00  1.101E-01 7.5031903E+00 -1.1687388E+00 2.2791372E+00
  0.000E+00  1.521E+00  1.467E-01 7.6699424E+00 -1.3349159E+00 2.1848111E+00
  4.318E-02  1.500E+00  1.340E-01 7.5724483E+00 -1.2799415E+00 2.2173259E+00
  0.000E+00  1.563E+00  1.738E-01 7.7088237E+00 -1.4425844E+00 2.1158898E+00
  4.318E-02  1.543E+00  1.600E-01 7.7142895E+00 -1.3893167E+00 2.1511959E+00
  0.000E+00  1.604E+00  2.029E-01 7.7923543E+00 -1.5460666E+00 2.0411552E+00
  4.318E-02  1.584E+00  1.881E-01 7.7308942E+00 -1.4948681E+00 2.0792560E+00
  0.000E+00  1.643E+00  2.340E-01 7.8440906E+00 -1.6459279E+00 1.9615895E+00
  4.318E-02  1.623E+00  2.182E-01 7.8225325E+00 -1.5965181E+00 2.0020399E+00
  0.000E+00  1.680E+00  2.669E-01 7.8434651E+00 -1.7416779E+00 1.8770960E+00
  4.318E-02  1.662E+00  2.502E-01 7.8313283E+00 -1.6944155E+00 1.9200309E+00
  0.000E+00  1.716E+00  3.018E-01 7.8776920E+00 -1.8330567E+00 1.7879176E+00
  4.318E-02  1.698E+00  2.841E-01 7.8777094E+00 -1.7879757E+00 1.8331269E+00
  0.000E+00  1.750E+00  3.383E-01 7.8313115E+00 -1.9199570E+00 1.6943594E+00
  4.318E-02  1.733E+00  3.198E-01 7.8434821E+00 -1.8771592E+00 1.7417457E+00
  0.000E+00  1.782E+00  3.765E-01 7.8225178E+00 -2.0019615E+00 1.5964655E+00
  4.318E-02  1.766E+00  3.572E-01 7.8441058E+00 -1.9616538E+00 1.6459924E+00
  0.000E+00  1.812E+00  4.163E-01 7.7308818E+00 -2.0791764E+00 1.4948186E+00
  4.318E-02  1.797E+00  3.962E-01 7.7923675E+00 -2.0412280E+00 1.5461301E+00
  0.000E+00  1.840E+00  4.575E-01 7.7142784E+00 -2.1511067E+00 1.3892704E+00
  4.318E-02  1.826E+00  4.367E-01 7.7088356E+00 -2.1159667E+00 1.4426464E+00
  0.000E+00  1.866E+00  5.000E-01 7.5724377E+00 -2.2172406E+00 1.2798980E+00
  4.318E-02  1.853E+00  4.786E-01 7.6699527E+00 -2.1848916E+00 1.3349744E+00
  0.000E+00  1.890E+00  5.438E-01 7.5031825E+00 -2.2790509E+00 1.1686996E+00
  4.318E-02  1.878E+00  5.217E-01 7.5151675E+00 -2.2487738E+00 1.2245839E+00
  0.000E+00  1.912E+00  5.887E-01 7.4219028E+00 -2.3346381E+00 1.0535924E+00
  4.318E-02  1.901E+00  5.661E-01 7.4705176E+00 -2.3079310E+00 1.1118960E+00
  0.000E+00  1.931E+00  6.347E-01 7.2555528E+00 -2.3825910E+00 9.3383452E-01
  4.318E-02  1.921E+00  6.116E-01 7.3445398E+00 -2.3594974E+00 9.9407598E-01
  0.000E+00  1.948E+00  6.815E-01 7.1580452E+00 -2.4262022E+00 8.1416069E-01
  4.318E-02  1.940E+00  6.580E-01 7.1926404E+00 -2.4048514E+00 8.7378773E-01
  0.000E+00  1.963E+00  7.292E-01 7.0900166E+00 -2.4657975E+00 6.9502702E-01
  4.318E-02  1.956E+00  7.052E-01 7.1259429E+00 -2.4468072E+00 7.5483009E-01
  0.000E+00  1.975E+00  7.775E-01 6.9937139E+00 -2.4979583E+00 5.7220409E-01
  4.318E-02  1.969E+00  7.532E-01 7.0450079E+00 -2.4830444E+00 6.3426118E-01
  0.000E+00  1.985E+00  8.264E-01 6.8923112E+00 -2.5221942E+00 4.4543510E-01
  4.318E-02  1.980E+00  8.019E-01 6.9426290E+00 -2.5110399E+00 5.0915996E-01
  0.000E+00  1.992E+00  8.757E-01 6.8134164E+00 -2.5402026E+00 3.1750218E-01
  4.318E-02  1.989E+00  8.510E-01 6.8482311E+00 -2.5319972E+00 3.8147344E-01
  0.000E+00  1.997E+00  9.253E-01 6.7639245E+00 -2.5526924E+00 1.9015946E-01
  4.318E-02  1.995E+00  9.004E-01 6.7834758E+00 -2.5472411E+00 2.5374837E-01
  0.000E+00  2.000E+00  9.751E-01 6.7410044E+00 -2.5591941E+00 6.3336721E-02
  4.318E-02  1.999E+00  9.502E-01 6.7499479E+00 -2.5568109E+00 1.2670872E-01
  0.000E+00  2.000E+00  1.025E+00 6.7409931E+00 -2.5591931E+00 -6.3341865E-02
  4.318E-02  2.000E+00  1.000E+00 6.7401027E+00 -2.5601103E+00 -4.0762028E-06
  0.000E+00  1.997E+00  1.075E+00 6.7638970E+00 -2.5526895E+00 -1.9016459E-01
  4.318E-02  1.999E+00  1.050E+00 6.7499618E+00 -2.5568088E+00 -1.2671618E-01
  0.000E+00  1.992E+00  1.124E+00 6.8133866E+00 -2.5401980E+00 -3.1750729E-01
  4.318E-02  1.995E+00  1.100E+00 6.7834960E+00 -2.5472369E+00 -2.5375431E-01
  0.000E+00  1.985E+00  1.174E+00 6.8922885E+00 -2.5221914E+00 -4.4544017E-01
  4.318E-02  1.989E+00  1.149E+00 6.8482494E+00 -2.5319929E+00 -3.8147833E-01
  0.000E+00  1.975E+00  1.223E+00 6.9936987E+00 -2.4979614E+00 -5.7220913E-01
  4.318E-02  1.980E+00  1.198E+00 6.9426422E+00 -2.5110399E+00 -5.0916476E-01
  0.000E+00  1.963E+00  1.271E+00 7.0900039E+00 -2.4658003E+00 -6.9503197E-01
  4.318E-02  1.969E+00  1.247E+00 7.0450181E+00 -2.4830489E+00 -6.3426639E-01
  0.000E+00  1.948E+00  1.318E+00 7.1580315E+00 -2.4261922E+00 -8.1416555E-01
  4.318E-02  1.956E+00  1.295E+00 7.1259531E+00 -2.4468042E+00 -7.5483557E-01
  0.000E+00  1.931E+00  1.365E+00 7.2555390E+00 -2.3825824E+00 -9.3383931E-01
  4.318E-02  1.940E+00  1.342E+00 7.1926516E+00 -2.4048380E+00 -8.7379302E-01
  0.000E+00  1.912E+00  1.411E+00 7.4218901E+00 -2.3346455E+00 -1.0535971E+00
  4.318E-02  1.921E+00  1.388E+00 7.3445509E+00 -2.3594988E+00 -9.9408116E-01
  0.000E+00  1.890E+00  1.456E+00 7.5031735E+00 -2.2790449E+00 -1.1687042E+00
  4.318E-02  1.901E+00  1.434E+00 7.4705271E+00 -2.3079353E+00 -1.1119008E+00
  0.000E+00  1.866E+00  1.500E+00 7.5724324E+00 -2.2172314E+00 -1.2799024E+00
  4.318E-02  1.878E+00  1.478E+00 7.5151750E+00 -2.2487609E+00 -1.2245884E+00
  0.000E+00  1.840E+00  1.543E+00 7.7142780E+00 -2.1511110E+00 -1.3892749E+00
  4.318E-02  1.853E+00  1.521E+00 7.6699575E+00 -2.1848927E+00 -1.3349790E+00
  0.000E+00  1.812E+00  1.584E+00 7.7308861E+00 -2.0791694E+00 -1.4948227E+00
  4.318E-02  1.826E+00  1.563E+00 7.7088374E+00 -2.1159658E+00 -1.4426507E+00
  0.000E+00  1.782E+00  1.623E+00 7.8225255E+00 -2.0019605E+00 -1.5964697E+00
  4.318E-02  1.797E+00  1.604E+00 7.7923667E+00 -2.0412228E+00 -1.5461344E+00
  0.000E+00  1.750E+00  1.662E+00 7.8313204E+00 -1.9199543E+00 -1.6943633E+00
  4.318E-02  1.766E+00  1.643E+00 7.8441036E+00 -1.9616543E+00 -1.6459968E+00
  0.000E+00  1.716E+00  1.698E+00 7.8776992E+00 -1.8330535E+00 -1.7879214E+00
  4.318E-02  1.733E+00  1.680E+00 7.8434801E+00 -1.8771543E+00 -1.7417500E+00
  0.000E+00  1.680E+00  1.733E+00 7.8434689E+00 -1.7416755E+00 -1.8770996E+00
  4.318E-02  1.698E+00  1.716E+00 7.8777092E+00 -1.7879741E+00 -1.8331314E+00
  0.000E+00  1.643E+00  1.766E+00 7.8440902E+00 -1.6459243E+00 -1.9615930E+00
  4.318E-02  1.662E+00  1.750E+00 7.8313306E+00 -1.6944114E+00 -1.9200351E+00
  0.000E+00  1.604E+00  1.797E+00 7.7923507E+00 -1.5460636E+00 -2.0411585E+00
  4.318E-02  1.623E+00  1.782E+00 7.8225374E+00 -1.5965150E+00 -2.0020439E+00
  0.000E+00  1.563E+00  1.826E+00 7.7088201E+00 -1.4425807E+00 -2.1158929E+00
  4.318E-02  1.584E+00  1.812E+00 7.7309001E+00 -1.4948645E+00 -2.0792595E+00
  0.000E+00  1.521E+00  1.853E+00 7.6699404E+00 -1.3349127E+00 -2.1848140E+00
  4.318E-02  1.543E+00  1.840E+00 7.7142947E+00 -1.3893137E+00 -2.1511992E+00
  0.000E+00  1.478E+00  1.878E+00 7.5151568E+00 -1.2245273E+00 -2.2486861E+00
  4.318E-02  1.500E+00  1.866E+00 7.5724523E+00 -1.2799380E+00 -2.2173290E+00
  0.000E+00  1.434E+00  1.901E+00 7.4705063E+00 -1.1118461E+00 -2.3078502E+00
  4.318E-02  1.456E+00  1.890E+00 7.5031952E+00 -1.1687356E+00 -2.2791402E+00
  0.000E+00  1.388E+00  1.921E+00 7.3445291E+00 -9.9403148E-01 -2.3594147E+00
  4.318E-02  1.411E+00  1.912E+00 7.4219143E+00 -1.0536239E+00 -2.3347338E+00
  0.000E+00  1.342E+00  1.940E+00 7.1926311E+00 -8.7375007E-01 -2.4047610E+00
  4.318E-02  1.365E+00  1.931E+00 7.2555640E+00 -9.3386211E-01 -2.3826798E+00
  0.000E+00  1.295E+00  1.956E+00 7.1259339E+00 -7.5479873E-01 -2.4467200E+00
  4.318E-02  1.318E+00  1.948E+00 7.1580561E+00 -8.1418579E-01 -2.4262906E+00
  0.000E+00  1.247E+00  1.969E+00 7.0449979E+00 -6.3423483E-01 -2.4829577E+00
  4.318E-02  1.271E+00  1.963E+00 7.0900261E+00 -6.9504845E-01 -2.4658909E+00
  0.000E+00  1.198E+00  1.980E+00 6.9426207E+00 -5.0913801E-01 -2.5109497E+00
  4.318E-02  1.223E+00  1.975E+00 6.9937214E+00 -5.7222144E-01 -2.4980520E+00
  0.000E+00  1.149E+00  1.989E+00 6.8482265E+00 -3.8145806E-01 -2.5319059E+00
  4.318E-02  1.174E+00  1.985E+00 6.8923161E+00 -4.4544858E-01 -2.5222867E+00
  0.000E+00  1.100E+00  1.995E+00 6.7834721E+00 -2.5374069E-01 -2.5471508E+00
  4.318E-02  1.124E+00  1.992E+00 6.8134192E+00 -3.1751323E-01 -2.5402945E+00
  0.000E+00  1.050E+00  1.999E+00 6.7499387E+00 -1.2670814E-01 -2.5567208E+00
  4.318E-02  1.075E+00  1.997E+00 6.7639279E+00 -1.9016801E-01 -2.5527812E+00
  0.000E+00  1.000E+00  2.000E+00 6.7400859E+00 -7.5531213E-07 -2.5600209E+00
  4.318E-02  1.025E+00  2.000E+00 6.7410150E+00 -6.3342106E-02 -2.5592796E+00
  0.000E+00  9.502E-01  1.999E+00 6.7499387E+00 1.2670699E-01 -2.5567206E+00
  4.318E-02  9.751E-01  2.000E+00 6.7410150E+00 6.3339880E-02 -2.5592795E+00
  0.000E+00  9.004E-01  1.995E+00 6.7834721E+00 2.5373935E-01 -2.5471504E+00
  4.318E-02  9.253E-01  1.997E+00 6.7639279E+00 1.9016598E-01 -2.5527809E+00
  0.000E+00  8.510E-01  1.989E+00 6.8482265E+00 3.8145671E-01 -2.5319053E+00
  4.318E-02  8.757E-01  1.992E+00 6.8134192E+00 3.1751082E-01 -2.5402940E+00
  0.000E+00  8.019E-01  1.980E+00 6.9426206E+00 5.0913678E-01 -2.5109488E+00
  4.318E-02  8.264E-01  1.985E+00 6.8923161E+00 4.4544647E-01 -2.5222861E+00
  0.000E+00  7.532E-01  1.969E+00 7.0449979E+00 6.3423335E-01 -2.4829567E+00
  4.318E-02  7.775E-01  1.975E+00 6.9937214E+00 5.7221913E-01 -2.4980511E+00
  0.000E+00  7.052E-01  1.956E+00 7.1259339E+00 7.5479732E-01 -2.4467189E+00
  4.318E-02  7.292E-01  1.963E+00 7.0900261E+00 6.9504617E-01 -2.4658899E+00
  0.000E+00  6.580E-01  1.940E+00 7.1926311E+00 8.7374850E-01 -2.4047596E+00
  4.318E-02  6.815E-01  1.948E+00 7.1580561E+00 8.1418336E-01 -2.4262894E+00
  0.000E+00  6.116E-01  1.921E+00 7.3445291E+00 9.9403027E-01 -2.3594133E+00
  4.318E-02  6.347E-01  1.931E+00 7.2555639E+00 9.3385992E-01 -2.3826784E+00
  0.000E+00  5.661E-01  1.901E+00 7.4705063E+00 1.1118440E+00 -2.3078486E+00
  4.318E-02  5.887E-01  1.912E+00 7.4219139E+00 1.0536213E+00 -2.3347322E+00
  0.000E+00  5.217E-01  1.878E+00 7.5151568E+00 1.2245259E+00 -2.2486843E+00
  4.318E-02  5.438E-01  1.890E+00 7.5031951E+00 1.1687328E+00 -2.2791387E+00
  0.000E+00  4.786E-01  1.853E+00 7.6699404E+00 1.3349106E+00 -2.1848122E+00
  4.318E-02  5.000E-01  1.866E+00 7.5724522E+00 1.2799357E+00 -2.2173273E+00
  0.000E+00  4.367E-01  1.826E+00 7.7088200E+00 1.4425791E+00 -2.1158909E+00
  4.318E-02  4.575E-01  1.840E+00 7.7142945E+00 1.3893109E+00 -2.1511973E+00
  0.000E+00  3.962E-01  1.797E+00 7.7923506E+00 1.5460612E+00 -2.0411564E+00
  4.318E-02  4.163E-01  1.812E+00 7.7309000E+00 1.4948620E+00 -2.0792576E+00
  0.000E+00  3.572E-01  1.766E+00 7.8440901E+00 1.6459224E+00 -1.9615908E+00
  4.318E-02  3.765E-01  1.782E+00 7.8225372E+00 1.5965116E+00 -2.0020418E+00
  0.000E+00  3.198E-01  1.733E+00 7.8434688E+00 1.7416723E+00 -1.8770973E+00
  4.318E-02  3.383E-01  1.750E+00 7.8313304E+00 1.6944089E+00 -1.9200331E+00
  0.000E+00  2.841E-01  1.698E+00 7.8776992E+00 1.8330510E+00 -1.7879191E+00
  4.318E-02  3.018E-01  1.716E+00 7.8777090E+00 1.7879691E+00 -1.8331291E+00
  0.000E+00  2.502E-01  1.662E+00 7.8313203E+00 1.9199513E+00 -1.6943609E+00
  4.318E-02  2.669E-01  1.680E+00 7.8434799E+00 1.8771527E+00 -1.7417479E+00
  0.000E+00  2.182E-01  1.623E+00 7.8225255E+00 2.0019557E+00 -1.5964671E+00
  4.318E-02  2.340E-01  1.643E+00 7.8441034E+00 1.9616475E+00 -1.6459944E+00
  0.000E+00  1.881E-01  1.584E+00 7.7308861E+00 2.0791705E+00 -1.4948202E+00
  4.318E-02  2.029E-01  1.604E+00 7.7923666E+00 2.0412217E+00 -1.5461320E+00
  0.000E+00  1.600E-01  1.543E+00 7.7142780E+00 2.1511008E+00 -1.3892721E+00
  4.318E-02  1.738E-01  1.563E+00 7.7088374E+00 2.1159605E+00 -1.4426482E+00
  0.000E+00  1.340E-01  1.500E+00 7.5724326E+00 2.2172346E+00 -1.2798998E+00
  4.318E-02  1.467E-01  1.521E+00 7.6699575E+00 2.1848852E+00 -1.3349762E+00
  0.000E+00  1.101E-01  1.456E+00 7.5031737E+00 2.2790449E+00 -1.1687015E+00
  4.318E-02  1.218E-01  1.478E+00 7.5151750E+00 2.2487673E+00 -1.2245858E+00
  0.000E+00  8.849E-02  1.411E+00 7.4218909E+00 2.3346320E+00 -1.0535942E+00
  4.318E-02  9.903E-02  1.434E+00 7.4705272E+00 2.3079244E+00 -1.1118980E+00
  0.000E+00  6.913E-02  1.365E+00 7.2555393E+00 2.3825850E+00 -9.3383639E-01
  4.318E-02  7.852E-02  1.388E+00 7.3445509E+00 2.3594907E+00 -9.9407814E-01
  0.000E+00  5.207E-02  1.318E+00 7.1580320E+00 2.4261962E+00 -8.1416254E-01
  4.318E-02  6.031E-02  1.342E+00 7.1926519E+00 2.4048446E+00 -8.7379005E-01
  0.000E+00  3.738E-02  1.271E+00 7.0900045E+00 2.4657915E+00 -6.9502884E-01
  4.318E-02  4.443E-02  1.295E+00 7.1259536E+00 2.4468004E+00 -7.5483245E-01
  0.000E+00  2.507E-02  1.223E+00 6.9936994E+00 2.4979523E+00 -5.7220588E-01
  4.318E-02  3.092E-02  1.247E+00 7.0450186E+00 2.4830377E+00 -6.3426313E-01
  0.000E+00  1.519E-02  1.174E+00 6.8922894E+00 2.5221882E+00 -4.4543684E-01
  4.318E-02  1.983E-02  1.198E+00 6.9426429E+00 2.5110332E+00 -5.0916136E-01
  0.000E+00  7.761E-03  1.124E+00 6.8133876E+00 2.5401967E+00 -3.1750385E-01
  4.318E-02  1.117E-02  1.149E+00 6.8482502E+00 2.5319906E+00 -3.8147482E-01
  0.000E+00  2.796E-03  1.075E+00 6.7638982E+00 2.5526866E+00 -1.9016107E-01
  4.318E-02  4.969E-03  1.100E+00 6.7834969E+00 2.5472344E+00 -2.5375068E-01
  0.000E+00  3.108E-04  1.025E+00 6.7409944E+00 2.5591883E+00 -6.3338243E-02
  4.318E-02  1.243E-03  1.050E+00 6.7499629E+00 2.5568042E+00 -1.2671243E-01
  0.000E+00  3.108E-04  9.751E-01 6.7410059E+00 2.5591875E+00 6.3340432E-02
  4.318E-02  0.000E+00  1.000E+00 6.7401039E+00 2.5601039E+00 -2.1033358E-07
  0.000E+00  2.796E-03  9.253E-01 6.7639261E+00 2.5526839E+00 1.9016325E-01
  4.318E-02  1.243E-03  9.502E-01 6.7499493E+00 2.5568027E+00 1.2671269E-01
  0.000E+00  7.761E-03  8.757E-01 6.8134182E+00 2.5401925E+00 3.1750604E-01
  4.318E-02  4.969E-03  9.004E-01 6.7834774E+00 2.5472309E+00 2.5375244E-01
  0.000E+00  1.519E-02  8.264E-01 6.8923131E+00 2.5221859E+00 4.4543903E-01
  4.318E-02  1.117E-02  8.510E-01 6.8482329E+00 2.5319869E+00 3.8147760E-01
  0.000E+00  2.507E-02  7.775E-01 6.9937161E+00 2.4979560E+00 5.7220807E-01
  4.318E-02  1.983E-02  8.019E-01 6.9426309E+00 2.5110339E+00 5.0916419E-01
  0.000E+00  3.738E-02  7.292E-01 7.0900189E+00 2.4657951E+00 6.9503100E-01
  4.318E-02  3.092E-02  7.532E-01 7.0450100E+00 2.4830431E+00 6.3426545E-01
  0.000E+00  5.207E-02  6.815E-01 7.1580476E+00 2.4261871E+00 8.1416467E-01
  4.318E-02  4.443E-02  7.052E-01 7.1259451E+00 2.4467985E+00 7.5483438E-01
  0.000E+00  6.913E-02  6.347E-01 7.2555554E+00 2.3825774E+00 9.3383850E-01
  4.318E-02  6.031E-02  6.580E-01 7.1926428E+00 2.4048324E+00 8.7379199E-01
  0.000E+00  8.849E-02  5.887E-01 7.4219050E+00 2.3346406E+00 1.0535964E+00
  4.318E-02  7.852E-02  6.116E-01 7.3445425E+00 2.3594932E+00 9.9408039E-01
  0.000E+00  1.101E-01  5.438E-01 7.5031854E+00 2.2790401E+00 1.1687036E+00
  4.318E-02  9.903E-02  5.661E-01 7.4705203E+00 2.3079297E+00 1.1119003E+00
  0.000E+00  1.340E-01  5.000E-01 7.5724407E+00 2.2172267E+00 1.2799018E+00
  4.318E-02  1.218E-01  5.217E-01 7.5151703E+00 2.2487553E+00 1.2245880E+00
  0.000E+00  1.600E-01  4.575E-01 7.7142815E+00 2.1511064E+00 1.3892743E+00
  4.318E-02  1.467E-01  4.786E-01 7.6699556E+00 2.1848871E+00 1.3349787E+00
  0.000E+00  1.881E-01  4.163E-01 7.7308849E+00 2.0791649E+00 1.4948221E+00
  4.318E-02  1.738E-01  4.367E-01 7.7088386E+00 2.1159603E+00 1.4426504E+00
  0.000E+00  2.182E-01  3.765E-01 7.8225210E+00 2.0019560E+00 1.5964692E+00
  4.318E-02  2.029E-01  3.962E-01 7.7923706E+00 2.0412174E+00 1.5461340E+00
  0.000E+00  2.502E-01  3.383E-01 7.8313148E+00 1.9199499E+00 1.6943628E+00
  4.318E-02  2.340E-01  3.572E-01 7.8441089E+00 1.9616492E+00 1.6459963E+00
  0.000E+00  2.841E-01  3.018E-01 7.8776952E+00 1.8330492E+00 1.7879209E+00
  4.318E-02  2.669E-01  3.198E-01 7.8434852E+00 1.8771494E+00 1.7417493E+00
  0.000E+00  3.198E-01  2.669E-01 7.8434683E+00 1.7416712E+00 1.8770991E+00
  4.318E-02  3.018E-01  2.841E-01 7.8777125E+00 1.7879695E+00 1.8331305E+00
  0.000E+00  3.572E-01  2.340E-01 7.8440937E+00 1.6459201E+00 1.9615925E+00
  4.318E-02  3.383E-01  2.502E-01 7.8313314E+00 1.6944069E+00 1.9200342E+00
  0.000E+00  3.962E-01  2.029E-01 7.7923574E+00 1.5460595E+00 2.0411580E+00
  4.318E-02  3.765E-01  2.182E-01 7.8225355E+00 1.5965106E+00 2.0020431E+00
  0.000E+00  4.367E-01  1.738E-01 7.7088267E+00 1.4425766E+00 2.1158924E+00
  4.318E-02  4.163E-01  1.881E-01 7.7308971E+00 1.4948599E+00 2.0792589E+00
  0.000E+00  4.786E-01  1.467E-01 7.6699452E+00 1.3349086E+00 2.1848135E+00
  4.318E-02  4.575E-01  1.600E-01 7.7142923E+00 1.3893089E+00 2.1511987E+00
  0.000E+00  5.217E-01  1.218E-01 7.5151611E+00 1.2245233E+00 2.2486856E+00
  4.318E-02  5.000E-01  1.340E-01 7.5724510E+00 1.2799333E+00 2.2173284E+00
  0.000E+00  5.661E-01  9.903E-02 7.4705130E+00 1.1118421E+00 2.3078497E+00
  4.318E-02  5.438E-01  1.101E-01 7.5031928E+00 1.1687313E+00 2.2791395E+00
  0.000E+00  6.116E-01  7.852E-02 7.3445362E+00 9.9402748E-01 2.3594142E+00
  4.318E-02  5.887E-01  8.849E-02 7.4219103E+00 1.0536192E+00 2.3347330E+00
  0.000E+00  6.580E-01  6.031E-02 7.1926361E+00 8.7374607E-01 2.4047604E+00
  4.318E-02  6.347E-01  6.913E-02 7.2555607E+00 9.3385737E-01 2.3826792E+00
  0.000E+00  7.052E-01  4.443E-02 7.1259369E+00 7.5479472E-01 2.4467194E+00
  4.318E-02  6.815E-01  5.207E-02 7.1580542E+00 8.1418102E-01 2.4262899E+00
  0.000E+00  7.532E-01  3.092E-02 7.0450002E+00 6.3423080E-01 2.4829572E+00
  4.318E-02  7.292E-01  3.738E-02 7.0900249E+00 6.9504379E-01 2.4658902E+00
  0.000E+00  8.019E-01  1.983E-02 6.9426228E+00 5.0913397E-01 2.5109491E+00
  4.318E-02  7.775E-01  2.507E-02 6.9937202E+00 5.7221682E-01 2.4980512E+00
  0.000E+00  8.510E-01  1.117E-02 6.8482287E+00 3.8145406E-01 2.5319053E+00
  4.318E-02  8.264E-01  1.519E-02 6.8923147E+00 4.4544394E-01 2.5222859E+00
  0.000E+00  9.004E-01  4.969E-03 6.7834750E+00 2.5373674E-01 2.5471502E+00
  4.318E-02  8.757E-01  7.761E-03 6.8134173E+00 3.1750855E-01 2.5402937E+00
  4.318E-02  9.253E-01  2.796E-03 6.7639252E+00 1.9016328E-01 2.5527804E+00
  1.000E+01  1.050E+00  1.243E-03 6.7499423E+00 -1.2671142E-01 2.5567201E+00
  1.000E+01  1.000E+00  5.551E-16 6.7400902E+00 -3.4559961E-06 2.5600204E+00
  9.957E+00  1.025E+00  3.108E-04 6.7410160E+00 -6.3343531E-02 2.5592890E+00
  1.000E+01  9.502E-01  1.243E-03 6.7499426E+00 1.2670414E-01 2.5567203E+00
  9.957E+00  9.751E-01  3.108E-04 6.7410161E+00 6.3336822E-02 2.5592891E+00
  1.000E+01  9.004E-01  4.969E-03 6.7834750E+00 2.5373674E-01 2.5471502E+00
  9.957E+00  9.253E-01  2.796E-03 6.7639301E+00 1.9016253E-01 2.5527907E+00
  1.000E+01  8.510E-01  1.117E-02 6.8482287E+00 3.8145406E-01 2.5319053E+00
  9.957E+00  8.757E-01  7.761E-03 6.8134221E+00 3.1751044E-01 2.5403039E+00
  1.000E+01  8.019E-01  1.983E-02 6.9426228E+00 5.0913397E-01 2.5109491E+00
  9.957E+00  8.264E-01  1.519E-02 6.8923195E+00 4.4544791E-01 2.5222960E+00
  1.000E+01  7.532E-01  3.092E-02 7.0450002E+00 6.3423080E-01 2.4829572E+00
  9.957E+00  7.775E-01  2.507E-02 6.9937253E+00 5.7221996E-01 2.4980612E+00
  1.000E+01  7.052E-01  4.443E-02 7.1259369E+00 7.5479472E-01 2.4467194E+00
  9.957E+00  7.292E-01  3.738E-02 7.0900302E+00 6.9504595E-01 2.4659000E+00
  1.000E+01  6.580E-01  6.031E-02 7.1926361E+00 8.7374607E-01 2.4047604E+00
  9.957E+00  6.815E-01  5.207E-02 7.1580600E+00 8.1418412E-01 2.4262994E+00
  1.000E+01  6.116E-01  7.852E-02 7.3445362E+00 9.9402748E-01 2.3594142E+00
  9.957E+00  6.347E-01  6.913E-02 7.2555672E+00 9.3386264E-01 2.3826882E+00
  1.000E+01  5.661E-01  9.903E-02 7.4705130E+00 1.1118421E+00 2.3078497E+00
  9.957E+00  5.887E-01  8.849E-02 7.4219170E+00 1.0536243E+00 2.3347419E+00
  1.000E+01  5.217E-01  1.218E-01 7.5151611E+00 1.2245233E+00 2.2486856E+00
  9.957E+00  5.438E-01  1.101E-01 7.5032001E+00 1.1687362E+00 2.2791483E+00
  1.000E+01  4.786E-01  1.467E-01 7.6699452E+00 1.3349086E+00 2.1848135E+00
  9.957E+00  5.000E-01  1.340E-01 7.5724587E+00 1.2799397E+00 2.2173362E+00
  1.000E+01  4.367E-01  1.738E-01 7.7088267E+00 1.4425766E+00 2.1158924E+00
  9.957E+00  4.575E-01  1.600E-01 7.7143008E+00 1.3893164E+00 2.1512061E+00
  1.000E+01  3.962E-01  2.029E-01 7.7923574E+00 1.5460595E+00 2.0411580E+00
  9.957E+00  4.163E-01  1.881E-01 7.7309063E+00 1.4948668E+00 2.0792665E+00
  1.000E+01  3.572E-01  2.340E-01 7.8440937E+00 1.6459201E+00 1.9615925E+00
  9.957E+00  3.765E-01  2.182E-01 7.8225451E+00 1.5965164E+00 2.0020512E+00
  1.000E+01  3.198E-01  2.669E-01 7.8434683E+00 1.7416712E+00 1.8770991E+00
  9.957E+00  3.383E-01  2.502E-01 7.8313412E+00 1.6944128E+00 1.9200427E+00
  1.000E+01  2.841E-01  3.018E-01 7.8776952E+00 1.8330492E+00 1.7879209E+00
  9.957E+00  3.018E-01  2.841E-01 7.8777223E+00 1.7879755E+00 1.8331389E+00
  1.000E+01  2.502E-01  3.383E-01 7.8313148E+00 1.9199499E+00 1.6943628E+00
  9.957E+00  2.669E-01  3.198E-01 7.8434947E+00 1.8771559E+00 1.7417570E+00
  1.000E+01  2.182E-01  3.765E-01 7.8225210E+00 2.0019560E+00 1.5964692E+00
  9.957E+00  2.340E-01  3.572E-01 7.8441181E+00 1.9616566E+00 1.6460034E+00
  1.000E+01  1.881E-01  4.163E-01 7.7308849E+00 2.0791649E+00 1.4948221E+00
  9.957E+00  2.029E-01  3.962E-01 7.7923794E+00 2.0412258E+00 1.5461399E+00
  1.000E+01  1.600E-01  4.575E-01 7.7142815E+00 2.1511064E+00 1.3892743E+00
  9.957E+00  1.738E-01  4.367E-01 7.7088468E+00 2.1159697E+00 1.4426546E+00
  1.000E+01  1.340E-01  5.000E-01 7.5724407E+00 2.2172267E+00 1.2799018E+00
  9.957E+00  1.467E-01  4.786E-01 7.6699628E+00 2.1848968E+00 1.3349824E+00
  1.000E+01  1.101E-01  5.438E-01 7.5031854E+00 2.2790401E+00 1.1687036E+00
  9.957E+00  1.218E-01  5.217E-01 7.5151768E+00 2.2487649E+00 1.2245923E+00
  1.000E+01  8.849E-02  5.887E-01 7.4219050E+00 2.3346406E+00 1.0535964E+00
  9.957E+00  9.903E-02  5.661E-01 7.4705261E+00 2.3079391E+00 1.1119048E+00
  1.000E+01  6.913E-02  6.347E-01 7.2555554E+00 2.3825774E+00 9.3383850E-01
  9.957E+00  7.852E-02  6.116E-01 7.3445471E+00 2.3595028E+00 9.9408328E-01
  1.000E+01  5.207E-02  6.815E-01 7.1580476E+00 2.4261871E+00 8.1416467E-01
  9.957E+00  6.031E-02  6.580E-01 7.1926466E+00 2.4048422E+00 8.7379584E-01
  1.000E+01  3.738E-02  7.292E-01 7.0900189E+00 2.4657951E+00 6.9503100E-01
  9.957E+00  4.443E-02  7.052E-01 7.1259482E+00 2.4468086E+00 7.5483915E-01
  1.000E+01  2.507E-02  7.775E-01 6.9937161E+00 2.4979560E+00 5.7220807E-01
  9.957E+00  3.092E-02  7.532E-01 7.0450123E+00 2.4830533E+00 6.3426884E-01
  1.000E+01  1.519E-02  8.264E-01 6.8923131E+00 2.5221859E+00 4.4543903E-01
  9.957E+00  1.983E-02  8.019E-01 6.9426324E+00 2.5110442E+00 5.0916425E-01
  1.000E+01  7.761E-03  8.757E-01 6.8134182E+00 2.5401925E+00 3.1750604E-01
  9.957E+00  1.117E-02  8.510E-01 6.8482342E+00 2.5319973E+00 3.8147752E-01
  1.000E+01  2.796E-03  9.253E-01 6.7639261E+00 2.5526839E+00 1.9016325E-01
  9.957E+00  4.969E-03  9.004E-01 6.7834792E+00 2.5472415E+00 2.5375480E-01
  1.000E+01  3.108E-04  9.751E-01 6.7410059E+00 2.5591875E+00 6.3340432E-02
  9.957E+00  1.243E-03  9.502E-01 6.7499502E+00 2.5568128E+00 1.2671712E-01
  1.000E+01  3.108E-04  1.025E+00 6.7409944E+00 2.5591883E+00 -6.3338243E-02
  9.957E+00  0.000E+00  1.000E+00 6.7401060E+00 2.5601149E+00 2.3994664E-06
  1.000E+01  2.796E-03  1.075E+00 6.7638982E+00 2.5526866E+00 -1.9016107E-01
  9.957E+00  1.243E-03  1.050E+00 6.7499637E+00 2.5568148E+00 -1.2671301E-01
  1.000E+01  7.761E-03  1.124E+00 6.8133876E+00 2.5401967E+00 -3.1750385E-01
  9.957E+00  4.969E-03  1.100E+00 6.7834987E+00 2.5472454E+00 -2.5375219E-01
  1.000E+01  1.519E-02  1.174E+00 6.8922894E+00 2.5221882E+00 -4.4543684E-01
  9.957E+00  1.117E-02  1.149E+00 6.8482516E+00 2.5320013E+00 -3.8147593E-01
  1.000E+01  2.507E-02  1.223E+00 6.9936994E+00 2.4979523E+00 -5.7220588E-01
  9.957E+00  1.983E-02  1.198E+00 6.9426444E+00 2.5110437E+00 -5.0916270E-01
  1.000E+01  3.738E-02  1.271E+00 7.0900045E+00 2.4657915E+00 -6.9502884E-01
  9.957E+00  3.092E-02  1.247E+00 7.0450209E+00 2.4830482E+00 -6.3426683E-01
  1.000E+01  5.207E-02  1.318E+00 7.1580320E+00 2.4261962E+00 -8.1416254E-01
  9.957E+00  4.443E-02  1.295E+00 7.1259567E+00 2.4468108E+00 -7.5483680E-01
  1.000E+01  6.913E-02  1.365E+00 7.2555393E+00 2.3825850E+00 -9.3383639E-01
  9.957E+00  6.031E-02  1.342E+00 7.1926557E+00 2.4048549E+00 -8.7379362E-01
  1.000E+01  8.849E-02  1.411E+00 7.4218909E+00 2.3346320E+00 -1.0535942E+00
  9.957E+00  7.852E-02  1.388E+00 7.3445558E+00 2.3595005E+00 -9.9408135E-01
  1.000E+01  1.101E-01  1.456E+00 7.5031737E+00 2.2790449E+00 -1.1687015E+00
  9.957E+00  9.903E-02  1.434E+00 7.4705331E+00 2.3079341E+00 -1.1119027E+00
  1.000E+01  1.340E-01  1.500E+00 7.5724326E+00 2.2172346E+00 -1.2798998E+00
  9.957E+00  1.218E-01  1.478E+00 7.5151815E+00 2.2487769E+00 -1.2245905E+00
  1.000E+01  1.600E-01  1.543E+00 7.7142780E+00 2.1511008E+00 -1.3892721E+00
  9.957E+00  1.467E-01  1.521E+00 7.6699648E+00 2.1848947E+00 -1.3349805E+00
  1.000E+01  1.881E-01  1.584E+00 7.7308861E+00 2.0791705E+00 -1.4948202E+00
  9.957E+00  1.738E-01  1.563E+00 7.7088456E+00 2.1159696E+00 -1.4426529E+00
  1.000E+01  2.182E-01  1.623E+00 7.8225255E+00 2.0019557E+00 -1.5964671E+00
  9.957E+00  2.029E-01  1.604E+00 7.7923754E+00 2.0412300E+00 -1.5461380E+00
  1.000E+01  2.502E-01  1.662E+00 7.8313203E+00 1.9199513E+00 -1.6943609E+00
  9.957E+00  2.340E-01  1.643E+00 7.8441126E+00 1.9616551E+00 -1.6460013E+00
  1.000E+01  2.841E-01  1.698E+00 7.8776992E+00 1.8330510E+00 -1.7879191E+00
  9.957E+00  2.669E-01  1.680E+00 7.8434894E+00 1.8771598E+00 -1.7417549E+00
  1.000E+01  3.198E-01  1.733E+00 7.8434688E+00 1.7416723E+00 -1.8770973E+00
  9.957E+00  3.018E-01  1.716E+00 7.8777188E+00 1.7879762E+00 -1.8331366E+00
  1.000E+01  3.572E-01  1.766E+00 7.8440901E+00 1.6459224E+00 -1.9615908E+00
  9.957E+00  3.383E-01  1.750E+00 7.8313402E+00 1.6944159E+00 -1.9200406E+00
  1.000E+01  3.962E-01  1.797E+00 7.7923506E+00 1.5460612E+00 -2.0411564E+00
  9.957E+00  3.765E-01  1.782E+00 7.8225468E+00 1.5965186E+00 -2.0020492E+00
  1.000E+01  4.367E-01  1.826E+00 7.7088200E+00 1.4425791E+00 -2.1158909E+00
  9.957E+00  4.163E-01  1.812E+00 7.7309092E+00 1.4948695E+00 -2.0792649E+00
  1.000E+01  4.786E-01  1.853E+00 7.6699404E+00 1.3349106E+00 -2.1848122E+00
  9.957E+00  4.575E-01  1.840E+00 7.7143030E+00 1.3893186E+00 -2.1512046E+00
  1.000E+01  5.217E-01  1.878E+00 7.5151568E+00 1.2245259E+00 -2.2486843E+00
  9.957E+00  5.000E-01  1.866E+00 7.5724599E+00 1.2799426E+00 -2.2173348E+00
  1.000E+01  5.661E-01  1.901E+00 7.4705063E+00 1.1118440E+00 -2.3078486E+00
  9.957E+00  5.438E-01  1.890E+00 7.5032024E+00 1.1687389E+00 -2.2791470E+00
  1.000E+01  6.116E-01  1.921E+00 7.3445291E+00 9.9403027E-01 -2.3594133E+00
  9.957E+00  5.887E-01  1.912E+00 7.4219205E+00 1.0536270E+00 -2.3347406E+00
  1.000E+01  6.580E-01  1.940E+00 7.1926311E+00 8.7374850E-01 -2.4047596E+00
  9.957E+00  6.347E-01  1.931E+00 7.2555705E+00 9.3386545E-01 -2.3826873E+00
  1.000E+01  7.052E-01  1.956E+00 7.1259339E+00 7.5479732E-01 -2.4467189E+00
  9.957E+00  6.815E-01  1.948E+00 7.1580619E+00 8.1418667E-01 -2.4262986E+00
  1.000E+01  7.532E-01  1.969E+00 7.0449979E+00 6.3423335E-01 -2.4829567E+00
  9.957E+00  7.292E-01  1.963E+00 7.0900314E+00 6.9504879E-01 -2.4658993E+00
  1.000E+01  8.019E-01  1.980E+00 6.9426206E+00 5.0913678E-01 -2.5109488E+00
  9.957E+00  7.775E-01  1.975E+00 6.9937265E+00 5.7222287E-01 -2.4980607E+00
  1.000E+01  8.510E-01  1.989E+00 6.8482265E+00 3.8145671E-01 -2.5319053E+00
  9.957E+00  8.264E-01  1.985E+00 6.8923210E+00 4.4545108E-01 -2.5222957E+00
  1.000E+01  9.004E-01  1.995E+00 6.7834721E+00 2.5373935E-01 -2.5471504E+00
  9.957E+00  8.757E-01  1.992E+00 6.8134240E+00 3.1751348E-01 -2.5403038E+00
  1.000E+01  9.502E-01  1.999E+00 6.7499387E+00 1.2670699E-01 -2.5567206E+00
  9.957E+00  9.253E-01  1.997E+00 6.7639329E+00 1.9016604E-01 -2.5527909E+00
  1.000E+01  1.000E+00  2.000E+00 6.7400859E+00 -7.5531213E-07 -2.5600209E+00
  9.957E+00  9.751E-01  2.000E+00 6.7410197E+00 6.3340075E-02 -2.5592895E+00
  1.000E+01  1.050E+00  1.999E+00 6.7499387E+00 -1.2670814E-01 -2.5567208E+00
  9.957E+00  1.025E+00  2.000E+00 6.7410197E+00 -6.3340474E-02 -2.5592896E+00
  1.000E+01  1.100E+00  1.995E+00 6.7834721E+00 -2.5374069E-01 -2.5471508E+00
  9.957E+00  1.075E+00  1.997E+00 6.7639328E+00 -1.9016626E-01 -2.5527912E+00
  1.000E+01  1.149E+00  1.989E+00 6.8482265E+00 -3.8145806E-01 -2.5319059E+00
  9.957E+00  1.124E+00  1.992E+00 6.8134240E+00 -3.1751405E-01 -2.5403044E+00
  1.000E+01  1.198E+00  1.980E+00 6.9426207E+00 -5.0913801E-01 -2.5109497E+00
  9.957E+00  1.174E+00  1.985E+00 6.8923209E+00 -4.4545139E-01 -2.5222965E+00