# TIME = 3.000000
VARIABLES = X, Y, Z, FX, FY, FZ
ZONE N=29232 E=58212 F=FEPOINT ET=TRIANGLE
  0.000E+00  9.502E-01  1.243E-03 6.3989188E+00 2.3347788E-01 4.7110476E+00
  0.000E+00  1.000E+00  0.000E+00 6.3881288E+00 -1.9502794E-08 4.7171359E+00
  4.318E-02  9.751E-01  3.108E-04 6.3893452E+00 1.1488324E-01 4.6417618E+00
  0.000E+00  1.050E+00  1.243E-03 6.3989190E+00 -2.3347857E-01 4.7110476E+00
  4.318E-02  1.025E+00  3.108E-04 6.3893452E+00 -1.1488355E-01 4.6417618E+00
  0.000E+00  1.100E+00  4.969E-03 6.4350495E+00 -4.6754502E-01 4.6933969E+00
  4.318E-02  1.075E+00  2.796E-03 6.4140310E+00 -3.4490755E-01 4.6299649E+00
  0.000E+00  1.149E+00  1.117E-02 6.5035813E+00 -7.0286829E-01 4.6652874E+00
  4.318E-02  1.124E+00  7.761E-03 6.4667421E+00 -5.7586330E-01 4.6072979E+00
  0.000E+00  1.198E+00  1.983E-02 6.6026497E+00 -9.3812252E-01 4.6266454E+00
  4.318E-02  1.174E+00  1.519E-02 6.5499181E+00 -8.0789056E-01 4.5746152E+00
  0.000E+00  1.247E+00  3.092E-02 6.7111128E+00 -1.1686267E+00 4.5750396E+00
  4.318E-02  1.223E+00  2.507E-02 6.6566110E+00 -1.0378112E+00 4.5306330E+00
  0.000E+00  1.295E+00  4.443E-02 6.8004900E+00 -1.3907867E+00 4.5082417E+00
  4.318E-02  1.271E+00  3.738E-02 6.7600686E+00 -1.2605874E+00 4.4722742E+00
  0.000E+00  1.342E+00  6.031E-02 6.8773862E+00 -1.6099765E+00 4.4309005E+00
  4.318E-02  1.318E+00  5.207E-02 6.8376927E+00 -1.4766748E+00 4.4004258E+00
  0.000E+00  1.388E+00  7.852E-02 7.0360254E+00 -1.8316120E+00 4.3473215E+00
  4.318E-02  1.365E+00  6.913E-02 6.9442543E+00 -1.6937369E+00 4.3212982E+00
  0.000E+00  1.434E+00  9.903E-02 7.1689853E+00 -2.0486933E+00 4.2522911E+00
  4.318E-02  1.411E+00  8.849E-02 7.1165770E+00 -1.9109443E+00 4.2343162E+00
  0.000E+00  1.478E+00  1.218E-01 7.2239340E+00 -2.2563163E+00 4.1432638E+00
  4.318E-02  1.456E+00  1.101E-01 7.2066072E+00 -2.1197125E+00 4.1334683E+00
  0.000E+00  1.521E+00  1.467E-01 7.3837020E+00 -2.4597054E+00 4.0255777E+00
  4.318E-02  1.500E+00  1.340E-01 7.2846528E+00 -2.3213888E+00 4.0213468E+00
  0.000E+00  1.563E+00  1.738E-01 7.4294605E+00 -2.6580862E+00 3.8985801E+00
  4.318E-02  1.543E+00  1.600E-01 7.4307861E+00 -2.5197554E+00 3.9014207E+00
  0.000E+00  1.604E+00  2.029E-01 7.5179085E+00 -2.8487482E+00 3.7608877E+00
  4.318E-02  1.584E+00  1.881E-01 7.4548300E+00 -2.7111870E+00 3.7709526E+00
  0.000E+00  1.643E+00  2.340E-01 7.5723049E+00 -3.0327339E+00 3.6142893E+00
  4.318E-02  1.623E+00  2.182E-01 7.5490849E+00 -2.8955329E+00 3.6309300E+00
  0.000E+00  1.680E+00  2.669E-01 7.5747501E+00 -3.2091369E+00 3.4586185E+00
  4.318E-02  1.662E+00  2.502E-01 7.5617357E+00 -3.0730733E+00 3.4822076E+00
  0.000E+00  1.716E+00  3.018E-01 7.6080996E+00 -3.3774890E+00 3.2943155E+00
  4.318E-02  1.698E+00  2.841E-01 7.6081378E+00 -3.2427348E+00 3.3246101E+00
  0.000E+00  1.750E+00  3.383E-01 7.5616959E+00 -3.5375921E+00 3.1219530E+00
  4.318E-02  1.733E+00  3.198E-01 7.5747867E+00 -3.4044684E+00 3.1588946E+00
  0.000E+00  1.782E+00  3.765E-01 7.5490435E+00 -3.6886784E+00 2.9415898E+00
  4.318E-02  1.766E+00  3.572E-01 7.5723397E+00 -3.5576965E+00 2.9852520E+00
  0.000E+00  1.812E+00  4.163E-01 7.4547872E+00 -3.8309342E+00 2.7543123E+00
  4.318E-02  1.797E+00  3.962E-01 7.5179416E+00 -3.7020055E+00 2.8041482E+00
  0.000E+00  1.840E+00  4.575E-01 7.4307410E+00 -3.9634672E+00 2.5598365E+00
  4.318E-02  1.826E+00  4.367E-01 7.4294915E+00 -3.8375387E+00 2.6164716E+00
  0.000E+00  1.866E+00  5.000E-01 7.2846050E+00 -4.0853124E+00 2.3583136E+00
  4.318E-02  1.853E+00  4.786E-01 7.3837301E+00 -3.9625451E+00 2.4211966E+00
  0.000E+00  1.890E+00  5.438E-01 7.2065583E+00 -4.1992166E+00 2.1534302E+00
  4.318E-02  1.878E+00  5.217E-01 7.2239598E+00 -4.0784022E+00 2.2209913E+00
  0.000E+00  1.912E+00  5.887E-01 7.1165271E+00 -4.3016567E+00 1.9413413E+00
  4.318E-02  1.901E+00  5.661E-01 7.1690096E+00 -4.1857079E+00 2.0166194E+00
  0.000E+00  1.931E+00  6.347E-01 6.9442027E+00 -4.3900350E+00 1.7206777E+00
  4.318E-02  1.921E+00  6.116E-01 7.0360474E+00 -4.2792525E+00 1.8029366E+00
  0.000E+00  1.948E+00  6.815E-01 6.8376397E+00 -4.4704220E+00 1.5001618E+00
  4.318E-02  1.940E+00  6.580E-01 6.8774057E+00 -4.3615355E+00 1.5847712E+00
  0.000E+00  1.963E+00  7.292E-01 6.7600159E+00 -4.5434053E+00 1.2806382E+00
  4.318E-02  1.956E+00  7.052E-01 6.8005080E+00 -4.4376570E+00 1.3690123E+00
  0.000E+00  1.975E+00  7.775E-01 6.6565577E+00 -4.6026938E+00 1.0543201E+00
  4.318E-02  1.969E+00  7.532E-01 6.7111308E+00 -4.5034052E+00 1.1503304E+00
  0.000E+00  1.985E+00  8.264E-01 6.5498629E+00 -4.6473785E+00 8.2074260E-01
  4.318E-02  1.980E+00  8.019E-01 6.6026668E+00 -4.5542064E+00 9.2343482E-01
  0.000E+00  1.992E+00  8.757E-01 6.4666851E+00 -4.6805798E+00 5.8502374E-01
  4.318E-02  1.989E+00  8.510E-01 6.5035965E+00 -4.5922443E+00 6.9186290E-01
  0.000E+00  1.997E+00  9.253E-01 6.4139746E+00 -4.7036082E+00 3.5039277E-01
  4.318E-02  1.995E+00  9.004E-01 6.4350636E+00 -4.6199132E+00 4.6022306E-01
  0.000E+00  2.000E+00  9.751E-01 6.3892899E+00 -4.7155947E+00 1.1671023E-01
  4.318E-02  1.999E+00  9.502E-01 6.3989343E+00 -4.6372896E+00 2.2982109E-01
  0.000E+00  2.000E+00  1.025E+00 6.3892897E+00 -4.7155933E+00 -1.1671088E-01
  4.318E-02  2.000E+00  1.000E+00 6.3881442E+00 -4.6432829E+00 -3.2868005E-07
  0.000E+00  1.997E+00  1.075E+00 6.4139739E+00 -4.7036036E+00 -3.5039341E-01
  4.318E-02  1.999E+00  1.050E+00 6.3989338E+00 -4.6372868E+00 -2.2982175E-01
  0.000E+00  1.992E+00  1.124E+00 6.4666841E+00 -4.6805727E+00 -5.8502438E-01
  4.318E-02  1.995E+00  1.100E+00 6.4350627E+00 -4.6199069E+00 -4.6022371E-01
  0.000E+00  1.985E+00  1.174E+00 6.5498615E+00 -4.6473751E+00 -8.2074324E-01
  4.318E-02  1.989E+00  1.149E+00 6.5035952E+00 -4.5922381E+00 -6.9186354E-01
  0.000E+00  1.975E+00  1.223E+00 6.6565559E+00 -4.6027018E+00 -1.0543207E+00
  4.318E-02  1.980E+00  1.198E+00 6.6026651E+00 -4.5542085E+00 -9.2343547E-01
  0.000E+00  1.963E+00  1.271E+00 6.7600136E+00 -4.5434132E+00 -1.2806388E+00
  4.318E-02  1.969E+00  1.247E+00 6.7111288E+00 -4.5034159E+00 -1.1503310E+00
  0.000E+00  1.948E+00  1.318E+00 6.8376371E+00 -4.4704068E+00 -1.5001623E+00
  4.318E-02  1.956E+00  1.295E+00 6.8005055E+00 -4.4376549E+00 -1.3690129E+00
  0.000E+00  1.931E+00  1.365E+00 6.9441999E+00 -4.3900227E+00 -1.7206782E+00
  4.318E-02  1.940E+00  1.342E+00 6.8774029E+00 -4.3615147E+00 -1.5847717E+00
  0.000E+00  1.912E+00  1.411E+00 7.1165232E+00 -4.3016742E+00 -1.9413417E+00
  4.318E-02  1.921E+00  1.388E+00 7.0360445E+00 -4.2792589E+00 -1.8029374E+00
  0.000E+00  1.890E+00  1.456E+00 7.2065548E+00 -4.1992099E+00 -2.1534307E+00
  4.318E-02  1.901E+00  1.434E+00 7.1690062E+00 -4.1857196E+00 -2.0166200E+00
  0.000E+00  1.866E+00  1.500E+00 7.2846013E+00 -4.0853001E+00 -2.3583138E+00
  4.318E-02  1.878E+00  1.478E+00 7.2239561E+00 -4.0783828E+00 -2.2209915E+00
  0.000E+00  1.840E+00  1.543E+00 7.4307370E+00 -3.9634801E+00 -2.5598372E+00
  4.318E-02  1.853E+00  1.521E+00 7.3837261E+00 -3.9625514E+00 -2.4211973E+00
  0.000E+00  1.812E+00  1.584E+00 7.4547829E+00 -3.8309265E+00 -2.7543124E+00
  4.318E-02  1.826E+00  1.563E+00 7.4294873E+00 -3.8375412E+00 -2.6164720E+00
  0.000E+00  1.782E+00  1.623E+00 7.5490390E+00 -3.6886820E+00 -2.9415903E+00
  4.318E-02  1.797E+00  1.604E+00 7.5179371E+00 -3.7020007E+00 -2.8041486E+00
  0.000E+00  1.750E+00  1.662E+00 7.5616913E+00 -3.5375925E+00 -3.1219532E+00
  4.318E-02  1.766E+00  1.643E+00 7.5723351E+00 -3.5577025E+00 -2.9852525E+00
  0.000E+00  1.716E+00  1.698E+00 7.6080948E+00 -3.3774889E+00 -3.2943159E+00
  4.318E-02  1.733E+00  1.680E+00 7.5747819E+00 -3.4044650E+00 -3.1588947E+00
  0.000E+00  1.680E+00  1.733E+00 7.5747452E+00 -3.2091383E+00 -3.4586188E+00
  4.318E-02  1.698E+00  1.716E+00 7.6081328E+00 -3.2427380E+00 -3.3246106E+00
  0.000E+00  1.643E+00  1.766E+00 7.5722998E+00 -3.0327330E+00 -3.6142895E+00
  4.318E-02  1.662E+00  1.750E+00 7.5617306E+00 -3.0730720E+00 -3.4822078E+00
  0.000E+00  1.604E+00  1.797E+00 7.5179033E+00 -2.8487486E+00 -3.7608880E+00
  4.318E-02  1.623E+00  1.782E+00 7.5490797E+00 -2.8955335E+00 -3.6309303E+00
  0.000E+00  1.563E+00  1.826E+00 7.4294552E+00 -2.6580852E+00 -3.8985802E+00
  4.318E-02  1.584E+00  1.812E+00 7.4548247E+00 -2.7111862E+00 -3.7709528E+00
  0.000E+00  1.521E+00  1.853E+00 7.3836967E+00 -2.4597054E+00 -4.0255779E+00
  4.318E-02  1.543E+00  1.840E+00 7.4307807E+00 -2.5197554E+00 -3.9014210E+00
  0.000E+00  1.478E+00  1.878E+00 7.2239288E+00 -2.2563151E+00 -4.1432638E+00
  4.318E-02  1.500E+00  1.866E+00 7.2846472E+00 -2.3213879E+00 -4.0213470E+00
  0.000E+00  1.434E+00  1.901E+00 7.1689801E+00 -2.0486936E+00 -4.2522910E+00
  4.318E-02  1.456E+00  1.890E+00 7.2066016E+00 -2.1197128E+00 -4.1334685E+00
  0.000E+00  1.388E+00  1.921E+00 7.0360198E+00 -1.8316114E+00 -4.3473216E+00
  4.318E-02  1.411E+00  1.912E+00 7.1165715E+00 -1.9109439E+00 -4.2343163E+00
  0.000E+00  1.342E+00  1.940E+00 6.8773800E+00 -1.6099777E+00 -4.4309010E+00
  4.318E-02  1.365E+00  1.931E+00 6.9442492E+00 -1.6937354E+00 -4.3212981E+00
  0.000E+00  1.295E+00  1.956E+00 6.8004835E+00 -1.3907879E+00 -4.5082424E+00
  4.318E-02  1.318E+00  1.948E+00 6.8376878E+00 -1.4766733E+00 -4.4004254E+00
  0.000E+00  1.247E+00  1.969E+00 6.7111068E+00 -1.1686266E+00 -4.5750402E+00
  4.318E-02  1.271E+00  1.963E+00 6.7600634E+00 -1.2605862E+00 -4.4722736E+00
  0.000E+00  1.198E+00  1.980E+00 6.6026445E+00 -9.3812007E-01 -4.6266455E+00
  4.318E-02  1.223E+00  1.975E+00 6.6566052E+00 -1.0378113E+00 -4.5306326E+00
  0.000E+00  1.149E+00  1.989E+00 6.5035766E+00 -7.0286501E-01 -4.6652868E+00
  4.318E-02  1.174E+00  1.985E+00 6.5499120E+00 -8.0789138E-01 -4.5746151E+00
  0.000E+00  1.100E+00  1.995E+00 6.4350446E+00 -4.6754196E-01 -4.6933958E+00
  4.318E-02  1.124E+00  1.992E+00 6.4667362E+00 -5.7586488E-01 -4.6072981E+00
  0.000E+00  1.050E+00  1.999E+00 6.3989137E+00 -2.3347623E-01 -4.7110461E+00
  4.318E-02  1.075E+00  1.997E+00 6.4140254E+00 -3.4490797E-01 -4.6299654E+00
  0.000E+00  1.000E+00  2.000E+00 6.3881234E+00 2.4750497E-07 -4.7171343E+00
  4.318E-02  1.025E+00  2.000E+00 6.3893400E+00 -1.1488349E-01 -4.6417624E+00
  0.000E+00  9.502E-01  1.999E+00 6.3989136E+00 2.3347737E-01 -4.7110461E+00
  4.318E-02  9.751E-01  2.000E+00 6.3893399E+00 1.1488423E-01 -4.6417623E+00
  0.000E+00  9.004E-01  1.995E+00 6.4350443E+00 4.6754271E-01 -4.6933957E+00
  4.318E-02  9.253E-01  1.997E+00 6.4140252E+00 3.4490909E-01 -4.6299653E+00
  0.000E+00  8.510E-01  1.989E+00 6.5035761E+00 7.0286576E-01 -4.6652867E+00
  4.318E-02  8.757E-01  1.992E+00 6.4667358E+00 5.7586537E-01 -4.6072979E+00
  0.000E+00  8.019E-01  1.980E+00 6.6026439E+00 9.3812110E-01 -4.6266452E+00
  4.318E-02  8.264E-01  1.985E+00 6.5499114E+00 8.0789243E-01 -4.5746149E+00
  0.000E+00  7.532E-01  1.969E+00 6.7111061E+00 1.1686273E+00 -4.5750399E+00
  4.318E-02  7.775E-01  1.975E+00 6.6566046E+00 1.0378120E+00 -4.5306323E+00
  0.000E+00  7.052E-01  1.956E+00 6.8004827E+00 1.3907887E+00 -4.5082420E+00
  4.318E-02  7.292E-01  1.963E+00 6.7600626E+00 1.2605870E+00 -4.4722733E+00
  0.000E+00  6.580E-01  1.940E+00 6.8773790E+00 1.6099783E+00 -4.4309006E+00
  4.318E-02  6.815E-01  1.948E+00 6.8376869E+00 1.4766739E+00 -4.4004250E+00
  0.000E+00  6.116E-01  1.921E+00 7.0360188E+00 1.8316128E+00 -4.3473213E+00
  4.318E-02  6.347E-01  1.931E+00 6.9442482E+00 1.6937365E+00 -4.3212977E+00
  0.000E+00  5.661E-01  1.901E+00 7.1689789E+00 2.0486934E+00 -4.2522905E+00
  4.318E-02  5.887E-01  1.912E+00 7.1165701E+00 1.9109444E+00 -4.2343156E+00
  0.000E+00  5.217E-01  1.878E+00 7.2239275E+00 2.2563163E+00 -4.1432633E+00
  4.318E-02  5.438E-01  1.890E+00 7.2066003E+00 2.1197130E+00 -4.1334680E+00
  0.000E+00  4.786E-01  1.853E+00 7.3836954E+00 2.4597057E+00 -4.0255773E+00
  4.318E-02  5.000E-01  1.866E+00 7.2846459E+00 2.3213891E+00 -4.0213465E+00
  0.000E+00  4.367E-01  1.826E+00 7.4294537E+00 2.6580865E+00 -3.8985797E+00
  4.318E-02  4.575E-01  1.840E+00 7.4307793E+00 2.5197557E+00 -3.9014204E+00
  0.000E+00  3.962E-01  1.797E+00 7.5179018E+00 2.8487484E+00 -3.7608873E+00
  4.318E-02  4.163E-01  1.812E+00 7.4548232E+00 2.7111873E+00 -3.7709523E+00
  0.000E+00  3.572E-01  1.766E+00 7.5722982E+00 3.0327342E+00 -3.6142889E+00
  4.318E-02  3.765E-01  1.782E+00 7.5490781E+00 2.8955332E+00 -3.6309296E+00
  0.000E+00  3.198E-01  1.733E+00 7.5747435E+00 3.2091371E+00 -3.4586181E+00
  4.318E-02  3.383E-01  1.750E+00 7.5617289E+00 3.0730735E+00 -3.4822073E+00
  0.000E+00  2.841E-01  1.698E+00 7.6080930E+00 3.3774892E+00 -3.2943151E+00
  4.318E-02  3.018E-01  1.716E+00 7.6081310E+00 3.2427350E+00 -3.3246098E+00
  0.000E+00  2.502E-01  1.662E+00 7.5616895E+00 3.5375923E+00 -3.1219526E+00
  4.318E-02  2.669E-01  1.680E+00 7.5747801E+00 3.4044686E+00 -3.1588942E+00
  0.000E+00  2.182E-01  1.623E+00 7.5490372E+00 3.6886785E+00 -2.9415895E+00
  4.318E-02  2.340E-01  1.643E+00 7.5723333E+00 3.5576968E+00 -2.9852517E+00
  0.000E+00  1.881E-01  1.584E+00 7.4547811E+00 3.8309344E+00 -2.7543119E+00
  4.318E-02  2.029E-01  1.604E+00 7.5179353E+00 3.7020057E+00 -2.8041479E+00
  0.000E+00  1.600E-01  1.543E+00 7.4307351E+00 3.9634673E+00 -2.5598361E+00
  4.318E-02  1.738E-01  1.563E+00 7.4294854E+00 3.8375388E+00 -2.6164713E+00
  0.000E+00  1.340E-01  1.500E+00 7.2845994E+00 4.0853125E+00 -2.3583132E+00
  4.318E-02  1.467E-01  1.521E+00 7.3837242E+00 3.9625453E+00 -2.4211963E+00
  0.000E+00  1.101E-01  1.456E+00 7.2065529E+00 4.1992167E+00 -2.1534299E+00
  4.318E-02  1.218E-01  1.478E+00 7.2239542E+00 4.0784024E+00 -2.2209910E+00
  0.000E+00  8.849E-02  1.411E+00 7.1165218E+00 4.3016565E+00 -1.9413409E+00
  4.318E-02  9.903E-02  1.434E+00 7.1690042E+00 4.1857080E+00 -2.0166192E+00
  0.000E+00  6.913E-02  1.365E+00 6.9441979E+00 4.3900350E+00 -1.7206774E+00
  4.318E-02  7.852E-02  1.388E+00 7.0360424E+00 4.2792526E+00 -1.8029364E+00
  0.000E+00  5.207E-02  1.318E+00 6.8376352E+00 4.4704220E+00 -1.5001616E+00
  4.318E-02  6.031E-02  1.342E+00 6.8774010E+00 4.3615355E+00 -1.5847710E+00
  0.000E+00  3.738E-02  1.271E+00 6.7600117E+00 4.5434052E+00 -1.2806380E+00
  4.318E-02  4.443E-02  1.295E+00 6.8005036E+00 4.4376571E+00 -1.3690121E+00
  0.000E+00  2.507E-02  1.223E+00 6.6565540E+00 4.6026937E+00 -1.0543199E+00
  4.318E-02  3.092E-02  1.247E+00 6.7111269E+00 4.5034052E+00 -1.1503302E+00
  0.000E+00  1.519E-02  1.174E+00 6.5498596E+00 4.6473784E+00 -8.2074241E-01
  4.318E-02  1.983E-02  1.198E+00 6.6026632E+00 4.5542064E+00 -9.2343463E-01
  0.000E+00  7.761E-03  1.124E+00 6.4666822E+00 4.6805797E+00 -5.8502356E-01
  4.318E-02  1.117E-02  1.149E+00 6.5035933E+00 4.5922442E+00 -6.9186273E-01
  0.000E+00  2.796E-03  1.075E+00 6.4139720E+00 4.7036081E+00 -3.5039260E-01
  4.318E-02  4.969E-03  1.100E+00 6.4350608E+00 4.6199130E+00 -4.6022290E-01
  0.000E+00  3.108E-04  1.025E+00 6.3892878E+00 4.7155946E+00 -1.1671008E-01
  4.318E-02  1.243E-03  1.050E+00 6.3989319E+00 4.6372895E+00 -2.2982095E-01
  0.000E+00  3.108E-04  9.751E-01 6.3892880E+00 4.7155931E+00 1.1671102E-01
  4.318E-02  0.000E+00  1.000E+00 6.3881422E+00 4.6432827E+00 4.6473178E-07
  0.000E+00  2.796E-03  9.253E-01 6.4139727E+00 4.7036034E+00 3.5039354E-01
  4.318E-02  1.243E-03  9.502E-01 6.3989323E+00 4.6372866E+00 2.2982187E-01
  0.000E+00  7.761E-03  8.757E-01 6.4666832E+00 4.6805725E+00 5.8502450E-01
  4.318E-02  4.969E-03  9.004E-01 6.4350617E+00 4.6199067E+00 4.6022382E-01
  0.000E+00  1.519E-02  8.264E-01 6.5498610E+00 4.6473749E+00 8.2074335E-01
  4.318E-02  1.117E-02  8.510E-01 6.5035946E+00 4.5922379E+00 6.9186365E-01
  0.000E+00  2.507E-02  7.775E-01 6.6565558E+00 4.6027016E+00 1.0543208E+00
  4.318E-02  1.983E-02  8.019E-01 6.6026649E+00 4.5542082E+00 9.2343556E-01
  0.000E+00  3.738E-02  7.292E-01 6.7600140E+00 4.5434130E+00 1.2806389E+00
  4.318E-02  3.092E-02  7.532E-01 6.7111289E+00 4.5034156E+00 1.1503311E+00
  0.000E+00  5.207E-02  6.815E-01 6.8376378E+00 4.4704066E+00 1.5001624E+00
  4.318E-02  4.443E-02  7.052E-01 6.8005060E+00 4.4376546E+00 1.3690130E+00
  0.000E+00  6.913E-02  6.347E-01 6.9442009E+00 4.3900224E+00 1.7206783E+00
  4.318E-02  6.031E-02  6.580E-01 6.8774038E+00 4.3615144E+00 1.5847717E+00
  0.000E+00  8.849E-02  5.887E-01 7.1165247E+00 4.3016742E+00 1.9413419E+00
  4.318E-02  7.852E-02  6.116E-01 7.0360457E+00 4.2792586E+00 1.8029374E+00
  0.000E+00  1.101E-01  5.438E-01 7.2065565E+00 4.1992096E+00 2.1534307E+00
  4.318E-02  9.903E-02  5.661E-01 7.1690077E+00 4.1857193E+00 2.0166200E+00
  0.000E+00  1.340E-01  5.000E-01 7.2846032E+00 4.0852998E+00 2.3583139E+00
  4.318E-02  1.218E-01  5.217E-01 7.2239579E+00 4.0783825E+00 2.2209915E+00
  0.000E+00  1.600E-01  4.575E-01 7.4307392E+00 3.9634799E+00 2.5598373E+00
  4.318E-02  1.467E-01  4.786E-01 7.3837283E+00 3.9625511E+00 2.4211974E+00
  0.000E+00  1.881E-01  4.163E-01 7.4547854E+00 3.8309262E+00 2.7543125E+00
  4.318E-02  1.738E-01  4.367E-01 7.4294897E+00 3.8375409E+00 2.6164720E+00
  0.000E+00  2.182E-01  3.765E-01 7.5490417E+00 3.6886818E+00 2.9415904E+00
  4.318E-02  2.029E-01  3.962E-01 7.5179398E+00 3.7020004E+00 2.8041487E+00
  0.000E+00  2.502E-01  3.383E-01 7.5616942E+00 3.5375924E+00 3.1219533E+00
  4.318E-02  2.340E-01  3.572E-01 7.5723380E+00 3.5577023E+00 2.9852526E+00
  0.000E+00  2.841E-01  3.018E-01 7.6080979E+00 3.3774887E+00 3.2943160E+00
  4.318E-02  2.669E-01  3.198E-01 7.5747850E+00 3.4044648E+00 3.1588948E+00
  0.000E+00  3.198E-01  2.669E-01 7.5747485E+00 3.2091381E+00 3.4586189E+00
  4.318E-02  3.018E-01  2.841E-01 7.6081361E+00 3.2427378E+00 3.3246107E+00
  0.000E+00  3.572E-01  2.340E-01 7.5723033E+00 3.0327329E+00 3.6142896E+00
  4.318E-02  3.383E-01  2.502E-01 7.5617340E+00 3.0730718E+00 3.4822079E+00
  0.000E+00  3.962E-01  2.029E-01 7.5179070E+00 2.8487484E+00 3.7608881E+00
  4.318E-02  3.765E-01  2.182E-01 7.5490833E+00 2.8955334E+00 3.6309304E+00
  0.000E+00  4.367E-01  1.738E-01 7.4294590E+00 2.6580851E+00 3.8985804E+00
  4.318E-02  4.163E-01  1.881E-01 7.4548285E+00 2.7111860E+00 3.7709529E+00
  0.000E+00  4.786E-01  1.467E-01 7.3837006E+00 2.4597054E+00 4.0255781E+00
  4.318E-02  4.575E-01  1.600E-01 7.4307847E+00 2.5197553E+00 3.9014211E+00
  0.000E+00  5.217E-01  1.218E-01 7.2239327E+00 2.2563153E+00 4.1432640E+00
  4.318E-02  5.000E-01  1.340E-01 7.2846514E+00 2.3213878E+00 4.0213471E+00
  0.000E+00  5.661E-01  9.903E-02 7.1689840E+00 2.0486938E+00 4.2522912E+00
  4.318E-02  5.438E-01  1.101E-01 7.2066059E+00 2.1197126E+00 4.1334686E+00
  0.000E+00  6.116E-01  7.852E-02 7.0360243E+00 1.8316110E+00 4.3473217E+00
  4.318E-02  5.887E-01  8.849E-02 7.1165756E+00 1.9109439E+00 4.2343162E+00
  0.000E+00  6.580E-01  6.031E-02 6.8773852E+00 1.6099762E+00 4.4309007E+00
  4.318E-02  6.347E-01  6.913E-02 6.9442533E+00 1.6937362E+00 4.3212984E+00
  0.000E+00  7.052E-01  4.443E-02 6.8004891E+00 1.3907863E+00 4.5082418E+00
  4.318E-02  6.815E-01  5.207E-02 6.8376918E+00 1.4766746E+00 4.4004260E+00
  0.000E+00  7.532E-01  3.092E-02 6.7111121E+00 1.1686264E+00 4.5750398E+00
  4.318E-02  7.292E-01  3.738E-02 6.7600678E+00 1.2605869E+00 4.4722743E+00
  0.000E+00  8.019E-01  1.983E-02 6.6026491E+00 9.3812191E-01 4.6266455E+00
  4.318E-02  7.775E-01  2.507E-02 6.6566104E+00 1.0378108E+00 4.5306331E+00
  0.000E+00  8.510E-01  1.117E-02 6.5035809E+00 7.0286798E-01 4.6652875E+00
  4.318E-02  8.264E-01  1.519E-02 6.5499175E+00 8.0788990E-01 4.5746153E+00
  0.000E+00  9.004E-01  4.969E-03 6.4350492E+00 4.6754473E-01 4.6933970E+00
  4.318E-02  8.757E-01  7.761E-03 6.4667418E+00 5.7586322E-01 4.6072979E+00
  4.318E-02  9.253E-01  2.796E-03 6.4140308E+00 3.4490685E-01 4.6299650E+00
  1.000E+01  1.050E+00  1.243E-03 6.3989190E+00 -2.3347857E-01 4.7110476E+00
  1.000E+01  1.000E+00  5.551E-16 6.3881288E+00 -1.9502794E-08 4.7171359E+00
  9.957E+00  1.025E+00  3.108E-04 6.3893063E+00 -1.1854638E-01 4.7897983E+00
  1.000E+01  9.502E-01  1.243E-03 6.3989188E+00 2.3347788E-01 4.7110476E+00
  9.957E+00  9.751E-01  3.108E-04 6.3893062E+00 1.1854611E-01 4.7897983E+00
  1.000E+01  9.004E-01  4.969E-03 6.4350492E+00 4.6754473E-01 4.6933970E+00
  9.957E+00  9.253E-01  2.796E-03 6.4139918E+00 3.5590496E-01 4.7776252E+00
  1.000E+01  8.510E-01  1.117E-02 6.5035809E+00 7.0286798E-01 4.6652875E+00
  9.957E+00  8.757E-01  7.761E-03 6.4667024E+00 5.9422909E-01 4.7542349E+00
  1.000E+01  8.019E-01  1.983E-02 6.6026491E+00 9.3812191E-01 4.6266455E+00
  9.957E+00  8.264E-01  1.519E-02 6.5498781E+00 8.3365717E-01 4.7205099E+00
  1.000E+01  7.532E-01  3.092E-02 6.7111121E+00 1.1686264E+00 4.5750398E+00
  9.957E+00  7.775E-01  2.507E-02 6.6565705E+00 1.0709095E+00 4.6751249E+00
  1.000E+01  7.052E-01  4.443E-02 6.8004891E+00 1.3907863E+00 4.5082418E+00
  9.957E+00  7.292E-01  3.738E-02 6.7600280E+00 1.3007889E+00 4.6149049E+00
  1.000E+01  6.580E-01  6.031E-02 6.8773852E+00 1.6099762E+00 4.4309007E+00
  9.957E+00  6.815E-01  5.207E-02 6.8376524E+00 1.5237683E+00 4.5407651E+00
  1.000E+01  6.116E-01  7.852E-02 7.0360243E+00 1.8316110E+00 4.3473217E+00
  9.957E+00  6.347E-01  6.913E-02 6.9442145E+00 1.7477542E+00 4.4591138E+00
  1.000E+01  5.661E-01  9.903E-02 7.1689840E+00 2.0486938E+00 4.2522912E+00
  9.957E+00  5.887E-01  8.849E-02 7.1165362E+00 1.9718888E+00 4.3693572E+00
  1.000E+01  5.217E-01  1.218E-01 7.2239327E+00 2.2563153E+00 4.1432640E+00
  9.957E+00  5.438E-01  1.101E-01 7.2065668E+00 2.1873154E+00 4.2652936E+00
  1.000E+01  4.786E-01  1.467E-01 7.3837006E+00 2.4597054E+00 4.0255781E+00
  9.957E+00  5.000E-01  1.340E-01 7.2846126E+00 2.3954232E+00 4.1495956E+00
  1.000E+01  4.367E-01  1.738E-01 7.4294590E+00 2.6580851E+00 3.8985804E+00
  9.957E+00  4.575E-01  1.600E-01 7.4307458E+00 2.6001176E+00 4.0258448E+00
  1.000E+01  3.962E-01  2.029E-01 7.5179070E+00 2.8487484E+00 3.7608881E+00
  9.957E+00  4.163E-01  1.881E-01 7.4547897E+00 2.7976528E+00 3.8912162E+00
  1.000E+01  3.572E-01  2.340E-01 7.5723033E+00 3.0327329E+00 3.6142896E+00
  9.957E+00  3.765E-01  2.182E-01 7.5490443E+00 2.9878781E+00 3.7467286E+00
  1.000E+01  3.198E-01  2.669E-01 7.5747485E+00 3.2091381E+00 3.4586189E+00
  9.957E+00  3.383E-01  2.502E-01 7.5616953E+00 3.1710783E+00 3.5932637E+00
  1.000E+01  2.841E-01  3.018E-01 7.6080979E+00 3.3774887E+00 3.2943160E+00
  9.957E+00  3.018E-01  2.841E-01 7.6080971E+00 3.3461550E+00 3.4306406E+00
  1.000E+01  2.502E-01  3.383E-01 7.5616942E+00 3.5375924E+00 3.1219533E+00
  9.957E+00  2.669E-01  3.198E-01 7.5747461E+00 3.5130397E+00 3.2596396E+00
  1.000E+01  2.182E-01  3.765E-01 7.5490417E+00 3.6886818E+00 2.9415904E+00
  9.957E+00  2.340E-01  3.572E-01 7.5722989E+00 3.6711647E+00 3.0804594E+00
  1.000E+01  1.881E-01  4.163E-01 7.4547854E+00 3.8309262E+00 2.7543125E+00
  9.957E+00  2.029E-01  3.962E-01 7.5179008E+00 3.8200654E+00 2.8935790E+00
  1.000E+01  1.600E-01  4.575E-01 7.4307392E+00 3.9634799E+00 2.5598373E+00
  9.957E+00  1.738E-01  4.367E-01 7.4294504E+00 3.9599292E+00 2.6999158E+00
  1.000E+01  1.340E-01  5.000E-01 7.2846032E+00 4.0852998E+00 2.3583139E+00
  9.957E+00  1.467E-01  4.786E-01 7.3836888E+00 4.0889262E+00 2.4984134E+00
  1.000E+01  1.101E-01  5.438E-01 7.2065565E+00 4.1992096E+00 2.1534307E+00
  9.957E+00  1.218E-01  5.217E-01 7.2239188E+00 4.2084515E+00 2.2918235E+00
  1.000E+01  8.849E-02  5.887E-01 7.1165247E+00 4.3016742E+00 1.9413419E+00
  9.957E+00  9.903E-02  5.661E-01 7.1689682E+00 4.3192111E+00 2.0809347E+00
  1.000E+01  6.913E-02  6.347E-01 6.9442009E+00 4.3900224E+00 1.7206783E+00
  9.957E+00  7.852E-02  6.116E-01 7.0360060E+00 4.4157336E+00 1.8604360E+00
  1.000E+01  5.207E-02  6.815E-01 6.8376378E+00 4.4704066E+00 1.5001624E+00
  9.957E+00  6.031E-02  6.580E-01 6.8773643E+00 4.5006129E+00 1.6353137E+00
  1.000E+01  3.738E-02  7.292E-01 6.7600140E+00 4.5434130E+00 1.2806389E+00
  9.957E+00  4.443E-02  7.052E-01 6.8004665E+00 4.5791814E+00 1.4126752E+00
  1.000E+01  2.507E-02  7.775E-01 6.6565558E+00 4.6027016E+00 1.0543208E+00
  9.957E+00  3.092E-02  7.532E-01 6.7110891E+00 4.6470396E+00 1.1870185E+00
  1.000E+01  1.519E-02  8.264E-01 6.5498610E+00 4.6473749E+00 8.2074335E-01
  9.957E+00  1.983E-02  8.019E-01 6.6026247E+00 4.6994521E+00 9.5288456E-01
  1.000E+01  7.761E-03  8.757E-01 6.4666832E+00 4.6805725E+00 5.8502450E-01
  9.957E+00  1.117E-02  8.510E-01 6.5035545E+00 4.7386948E+00 7.1392762E-01
  1.000E+01  2.796E-03  9.253E-01 6.4139727E+00 4.7036034E+00 3.5039354E-01
  9.957E+00  4.969E-03  9.004E-01 6.4350218E+00 4.7672464E+00 4.7490214E-01
  1.000E+01  3.108E-04  9.751E-01 6.3892880E+00 4.7155931E+00 1.1671102E-01
  9.957E+00  1.243E-03  9.502E-01 6.3988914E+00 4.7851794E+00 2.3715332E-01
  1.000E+01  3.108E-04  1.025E+00 6.3892878E+00 4.7155946E+00 -1.1671008E-01
  9.957E+00  0.000E+00  1.000E+00 6.3881024E+00 4.7913681E+00 4.7929370E-07
  1.000E+01  2.796E-03  1.075E+00 6.4139720E+00 4.7036081E+00 -3.5039260E-01
  9.957E+00  1.243E-03  1.050E+00 6.3988910E+00 4.7851824E+00 -2.3715237E-01
  1.000E+01  7.761E-03  1.124E+00 6.4666822E+00 4.6805797E+00 -5.8502356E-01
  9.957E+00  4.969E-03  1.100E+00 6.4350210E+00 4.7672529E+00 -4.7490119E-01
  1.000E+01  1.519E-02  1.174E+00 6.5498596E+00 4.6473784E+00 -8.2074241E-01
  9.957E+00  1.117E-02  1.149E+00 6.5035532E+00 4.7387014E+00 -7.1392667E-01
  1.000E+01  2.507E-02  1.223E+00 6.6565540E+00 4.6026937E+00 -1.0543199E+00
  9.957E+00  1.983E-02  1.198E+00 6.6026230E+00 4.6994502E+00 -9.5288359E-01
  1.000E+01  3.738E-02  1.271E+00 6.7600117E+00 4.5434052E+00 -1.2806380E+00
  9.957E+00  3.092E-02  1.247E+00 6.7110870E+00 4.6470288E+00 -1.1870176E+00
  1.000E+01  5.207E-02  1.318E+00 6.8376352E+00 4.4704220E+00 -1.5001616E+00
  9.957E+00  4.443E-02  1.295E+00 6.8004641E+00 4.5791839E+00 -1.4126743E+00
  1.000E+01  6.913E-02  1.365E+00 6.9441979E+00 4.3900350E+00 -1.7206774E+00
  9.957E+00  6.031E-02  1.342E+00 6.8773615E+00 4.5006347E+00 -1.6353130E+00
  1.000E+01  8.849E-02  1.411E+00 7.1165218E+00 4.3016565E+00 -1.9413409E+00
  9.957E+00  7.852E-02  1.388E+00 7.0360030E+00 4.4157276E+00 -1.8604352E+00
  1.000E+01  1.101E-01  1.456E+00 7.2065529E+00 4.1992167E+00 -2.1534299E+00
  9.957E+00  9.903E-02  1.434E+00 7.1689649E+00 4.3191996E+00 -2.0809337E+00
  1.000E+01  1.340E-01  1.500E+00 7.2845994E+00 4.0853125E+00 -2.3583132E+00
  9.957E+00  1.218E-01  1.478E+00 7.2239150E+00 4.2084720E+00 -2.2918229E+00
  1.000E+01  1.600E-01  1.543E+00 7.4307351E+00 3.9634673E+00 -2.5598361E+00
  9.957E+00  1.467E-01  1.521E+00 7.3836847E+00 4.0889202E+00 -2.4984123E+00
  1.000E+01  1.881E-01  1.584E+00 7.4547811E+00 3.8309344E+00 -2.7543119E+00
  9.957E+00  1.738E-01  1.563E+00 7.4294462E+00 3.9599270E+00 -2.6999151E+00
  1.000E+01  2.182E-01  1.623E+00 7.5490372E+00 3.6886785E+00 -2.9415895E+00
  9.957E+00  2.029E-01  1.604E+00 7.5178963E+00 3.8200708E+00 -2.8935782E+00
  1.000E+01  2.502E-01  1.662E+00 7.5616895E+00 3.5375923E+00 -3.1219526E+00
  9.957E+00  2.340E-01  1.643E+00 7.5722942E+00 3.6711590E+00 -3.0804584E+00
  1.000E+01  2.841E-01  1.698E+00 7.6080930E+00 3.3774892E+00 -3.2943151E+00
  9.957E+00  2.669E-01  1.680E+00 7.5747412E+00 3.5130436E+00 -3.2596390E+00
  1.000E+01  3.198E-01  1.733E+00 7.5747435E+00 3.2091371E+00 -3.4586181E+00
  9.957E+00  3.018E-01  1.716E+00 7.6080921E+00 3.3461521E+00 -3.4306397E+00
  1.000E+01  3.572E-01  1.766E+00 7.5722982E+00 3.0327342E+00 -3.6142889E+00
  9.957E+00  3.383E-01  1.750E+00 7.5616902E+00 3.1710801E+00 -3.5932631E+00
  1.000E+01  3.962E-01  1.797E+00 7.5179018E+00 2.8487484E+00 -3.7608873E+00
  9.957E+00  3.765E-01  1.782E+00 7.5490391E+00 2.9878778E+00 -3.7467278E+00
  1.000E+01  4.367E-01  1.826E+00 7.4294537E+00 2.6580865E+00 -3.8985797E+00
  9.957E+00  4.163E-01  1.812E+00 7.4547845E+00 2.7976541E+00 -3.8912156E+00
  1.000E+01  4.786E-01  1.853E+00 7.3836954E+00 2.4597057E+00 -4.0255773E+00
  9.957E+00  4.575E-01  1.840E+00 7.4307404E+00 2.6001180E+00 -4.0258441E+00
  1.000E+01  5.217E-01  1.878E+00 7.2239275E+00 2.2563163E+00 -4.1432633E+00
  9.957E+00  5.000E-01  1.866E+00 7.2846071E+00 2.3954245E+00 -4.1495950E+00
  1.000E+01  5.661E-01  1.901E+00 7.1689789E+00 2.0486934E+00 -4.2522905E+00
  9.957E+00  5.438E-01  1.890E+00 7.2065612E+00 2.1873157E+00 -4.2652931E+00
  1.000E+01  6.116E-01  1.921E+00 7.0360188E+00 1.8316128E+00 -4.3473213E+00
  9.957E+00  5.887E-01  1.912E+00 7.1165304E+00 1.9718893E+00 -4.3693564E+00
  1.000E+01  6.580E-01  1.940E+00 6.8773790E+00 1.6099783E+00 -4.4309006E+00
  9.957E+00  6.347E-01  1.931E+00 6.9442091E+00 1.7477547E+00 -4.4591130E+00
  1.000E+01  7.052E-01  1.956E+00 6.8004827E+00 1.3907887E+00 -4.5082420E+00
  9.957E+00  6.815E-01  1.948E+00 6.8376475E+00 1.5237677E+00 -4.5407641E+00
  1.000E+01  7.532E-01  1.969E+00 6.7111061E+00 1.1686273E+00 -4.5750399E+00
  9.957E+00  7.292E-01  1.963E+00 6.7600232E+00 1.3007889E+00 -4.6149039E+00
  1.000E+01  8.019E-01  1.980E+00 6.6026439E+00 9.3812110E-01 -4.6266452E+00
  9.957E+00  7.775E-01  1.975E+00 6.6565654E+00 1.0709105E+00 -4.6751242E+00
  1.000E+01  8.510E-01  1.989E+00 6.5035761E+00 7.0286576E-01 -4.6652867E+00
  9.957E+00  8.264E-01  1.985E+00 6.5498724E+00 8.3365961E-01 -4.7205095E+00
  1.000E+01  9.004E-01  1.995E+00 6.4350443E+00 4.6754271E-01 -4.6933957E+00
  9.957E+00  8.757E-01  1.992E+00 6.4666964E+00 5.9423126E-01 -4.7542349E+00
  1.000E+01  9.502E-01  1.999E+00 6.3989136E+00 2.3347737E-01 -4.7110461E+00
  9.957E+00  9.253E-01  1.997E+00 6.4139858E+00 3.5590727E-01 -4.7776254E+00
  1.000E+01  1.000E+00  2.000E+00 6.3881234E+00 2.4750497E-07 -4.7171343E+00
  9.957E+00  9.751E-01  2.000E+00 6.3893004E+00 1.1854713E-01 -4.7897988E+00
  1.000E+01  1.050E+00  1.999E+00 6.3989137E+00 -2.3347623E-01 -4.7110461E+00
  9.957E+00  1.025E+00  2.000E+00 6.3893005E+00 -1.1854637E-01 -4.7897988E+00
  1.000E+01  1.100E+00  1.995E+00 6.4350446E+00 -4.6754196E-01 -4.6933958E+00
  9.957E+00  1.075E+00  1.997E+00 6.4139861E+00 -3.5590612E-01 -4.7776255E+00
  1.000E+01  1.149E+00  1.989E+00 6.5035766E+00 -7.0286501E-01 -4.6652868E+00
  9.957E+00  1.124E+00  1.992E+00 6.4666968E+00 -5.9423074E-01 -4.7542350E+00
  1.000E+01  1.198E+00  1.980E+00 6.6026445E+00 -9.3812007E-01 -4.6266455E+00
  9.957E+00  1.174E+00  1.985E+00 6.5498729E+00 -8.3365852E-01 -4.7205097E+00