# TIME = 9.000000
VARIABLES = X, Y, Z, FX, FY, FZ
ZONE N=29232 E=58212 F=FEPOINT ET=TRIANGLE
  0.000E+00  9.502E-01  1.243E-03 1.0526890E+01 -1.1495431E+00 -2.3339834E+01
  0.000E+00  1.000E+00  0.000E+00 1.0516736E+01 8.3860286E-06 -2.3366587E+01
  4.318E-02  9.751E-01  3.108E-04 1.0633721E+01 -5.4079395E-01 -2.1987657E+01
  0.000E+00  1.050E+00  1.243E-03 1.0526888E+01 1.1495436E+00 -2.3339831E+01
  4.318E-02  1.025E+00  3.108E-04 1.0633719E+01 5.4080250E-01 -2.1987656E+01
  0.000E+00  1.100E+00  4.969E-03 1.0563851E+01 2.3048815E+00 -2.3262921E+01
  4.318E-02  1.075E+00  2.796E-03 1.0659097E+01 1.6251990E+00 -2.1938919E+01
  0.000E+00  1.149E+00  1.117E-02 1.0640781E+01 3.4726888E+00 -2.3140490E+01
  4.318E-02  1.124E+00  7.761E-03 1.0717027E+01 2.7187037E+00 -2.1844767E+01
  0.000E+00  1.198E+00  1.983E-02 1.0757076E+01 4.6475622E+00 -2.2966518E+01
  4.318E-02  1.174E+00  1.519E-02 1.0812627E+01 3.8238318E+00 -2.1705280E+01
  0.000E+00  1.247E+00  3.092E-02 1.0878273E+01 5.8006980E+00 -2.2718615E+01
  4.318E-02  1.223E+00  2.507E-02 1.0934616E+01 4.9222315E+00 -2.1506164E+01
  0.000E+00  1.295E+00  4.443E-02 1.0955372E+01 6.9059539E+00 -2.2381259E+01
  4.318E-02  1.271E+00  3.738E-02 1.1040400E+01 5.9834939E+00 -2.1227699E+01
  0.000E+00  1.342E+00  6.031E-02 1.0999306E+01 7.9902316E+00 -2.1987140E+01
  4.318E-02  1.318E+00  5.207E-02 1.1093587E+01 7.0070754E+00 -2.0877928E+01
  0.000E+00  1.388E+00  7.852E-02 1.1180777E+01 9.0888253E+00 -2.1571934E+01
  4.318E-02  1.365E+00  6.913E-02 1.1184714E+01 8.0349621E+00 -2.0498970E+01
  0.000E+00  1.434E+00  9.903E-02 1.1332495E+01 1.0167457E+01 -2.1103873E+01
  4.318E-02  1.411E+00  8.849E-02 1.1392702E+01 9.0663591E+00 -2.0089020E+01
  0.000E+00  1.478E+00  1.218E-01 1.1347051E+01 1.1197226E+01 -2.0558727E+01
  4.318E-02  1.456E+00  1.101E-01 1.1474034E+01 1.0056749E+01 -1.9609459E+01
  0.000E+00  1.521E+00  1.467E-01 1.1540001E+01 1.2204919E+01 -1.9972322E+01
  4.318E-02  1.500E+00  1.340E-01 1.1526883E+01 1.1011812E+01 -1.9073639E+01
  0.000E+00  1.563E+00  1.738E-01 1.1572023E+01 1.3188011E+01 -1.9342765E+01
  4.318E-02  1.543E+00  1.600E-01 1.1707875E+01 1.1952321E+01 -1.8505649E+01
  0.000E+00  1.604E+00  2.029E-01 1.1659138E+01 1.4133754E+01 -1.8659612E+01
  4.318E-02  1.584E+00  1.881E-01 1.1699143E+01 1.2859471E+01 -1.7885647E+01
  0.000E+00  1.643E+00  2.340E-01 1.1727377E+01 1.5047347E+01 -1.7934374E+01
  4.318E-02  1.623E+00  2.182E-01 1.1815795E+01 1.3733851E+01 -1.7222835E+01
  0.000E+00  1.680E+00  2.669E-01 1.1706387E+01 1.5922357E+01 -1.7162411E+01
  4.318E-02  1.662E+00  2.502E-01 1.1810280E+01 1.4576029E+01 -1.6518146E+01
  0.000E+00  1.716E+00  3.018E-01 1.1763122E+01 1.6759429E+01 -1.6349920E+01
  4.318E-02  1.698E+00  2.841E-01 1.1878840E+01 1.5381774E+01 -1.5772541E+01
  0.000E+00  1.750E+00  3.383E-01 1.1695870E+01 1.7555020E+01 -1.5495924E+01
  4.318E-02  1.733E+00  3.198E-01 1.1822853E+01 1.6149485E+01 -1.4987718E+01
  0.000E+00  1.782E+00  3.765E-01 1.1702437E+01 1.8307374E+01 -1.4603370E+01
  4.318E-02  1.766E+00  3.572E-01 1.1845427E+01 1.6878915E+01 -1.4166452E+01
  0.000E+00  1.812E+00  4.163E-01 1.1586375E+01 1.9015733E+01 -1.3676093E+01
  4.318E-02  1.797E+00  3.962E-01 1.1776755E+01 1.7564953E+01 -1.3308880E+01
  0.000E+00  1.840E+00  4.575E-01 1.1596579E+01 1.9677874E+01 -1.2713024E+01
  4.318E-02  1.826E+00  4.367E-01 1.1691889E+01 1.8211562E+01 -1.2420734E+01
  0.000E+00  1.866E+00  5.000E-01 1.1416417E+01 2.0284368E+01 -1.1714266E+01
  4.318E-02  1.853E+00  4.786E-01 1.1659888E+01 1.8807262E+01 -1.1495725E+01
  0.000E+00  1.890E+00  5.438E-01 1.1363864E+01 2.0856717E+01 -1.0699822E+01
  4.318E-02  1.878E+00  5.217E-01 1.1468876E+01 1.9359919E+01 -1.0547147E+01
  0.000E+00  1.912E+00  5.887E-01 1.1283905E+01 2.1367932E+01 -9.6469137E+00
  4.318E-02  1.901E+00  5.661E-01 1.1455063E+01 1.9875183E+01 -9.5794295E+00
  0.000E+00  1.931E+00  6.347E-01 1.1075951E+01 2.1806122E+01 -8.5510088E+00
  4.318E-02  1.921E+00  6.116E-01 1.1303479E+01 2.0319966E+01 -8.5647991E+00
  0.000E+00  1.948E+00  6.815E-01 1.0985294E+01 2.2214021E+01 -7.4593168E+00
  4.318E-02  1.940E+00  6.580E-01 1.1122827E+01 2.0711953E+01 -7.5294067E+00
  0.000E+00  1.963E+00  7.292E-01 1.0932805E+01 2.2588512E+01 -6.3698243E+00
  4.318E-02  1.956E+00  7.052E-01 1.1078751E+01 2.1082759E+01 -6.5076323E+00
  0.000E+00  1.975E+00  7.775E-01 1.0826425E+01 2.2883583E+01 -5.2384629E+00
  4.318E-02  1.969E+00  7.532E-01 1.1001827E+01 2.1403146E+01 -5.4680504E+00
  0.000E+00  1.985E+00  8.264E-01 1.0703307E+01 2.3093242E+01 -4.0683362E+00
  4.318E-02  1.980E+00  8.019E-01 1.0881782E+01 2.1641846E+01 -4.3832524E+00
  0.000E+00  1.992E+00  8.757E-01 1.0607433E+01 2.3240787E+01 -2.8923757E+00
  4.318E-02  1.989E+00  8.510E-01 1.0766326E+01 2.1809780E+01 -3.2761532E+00
  0.000E+00  1.997E+00  9.253E-01 1.0550070E+01 2.3341562E+01 -1.7294434E+00
  4.318E-02  1.995E+00  9.004E-01 1.0689112E+01 2.1926717E+01 -2.1742969E+00
  0.000E+00  2.000E+00  9.751E-01 1.0525345E+01 2.3394503E+01 -5.7560396E-01
  4.318E-02  1.999E+00  9.502E-01 1.0651368E+01 2.1999223E+01 -1.0841944E+00
  0.000E+00  2.000E+00  1.025E+00 1.0525345E+01 2.3394495E+01 5.7561107E-01
  4.318E-02  2.000E+00  1.000E+00 1.0640769E+01 2.2024170E+01 4.7154952E-06
  0.000E+00  1.997E+00  1.075E+00 1.0550072E+01 2.3341533E+01 1.7294496E+00
  4.318E-02  1.999E+00  1.050E+00 1.0651370E+01 2.1999202E+01 1.0842033E+00
  0.000E+00  1.992E+00  1.124E+00 1.0607437E+01 2.3240729E+01 2.8923804E+00
  4.318E-02  1.995E+00  1.100E+00 1.0689116E+01 2.1926665E+01 2.1743042E+00
  0.000E+00  1.985E+00  1.174E+00 1.0703312E+01 2.3093166E+01 4.0683381E+00
  4.318E-02  1.989E+00  1.149E+00 1.0766330E+01 2.1809698E+01 3.2761573E+00
  0.000E+00  1.975E+00  1.223E+00 1.0826430E+01 2.2883541E+01 5.2384592E+00
  4.318E-02  1.980E+00  1.198E+00 1.0881786E+01 2.1641776E+01 4.3832508E+00
  0.000E+00  1.963E+00  1.271E+00 1.0932809E+01 2.2588520E+01 6.3698122E+00
  4.318E-02  1.969E+00  1.247E+00 1.1001829E+01 2.1403135E+01 5.4680402E+00
  0.000E+00  1.948E+00  1.318E+00 1.0985296E+01 2.2213973E+01 7.4592979E+00
  4.318E-02  1.956E+00  1.295E+00 1.1078751E+01 2.1082747E+01 6.5076143E+00
  0.000E+00  1.931E+00  1.365E+00 1.1075955E+01 2.1806018E+01 8.5509875E+00
  4.318E-02  1.940E+00  1.342E+00 1.1122830E+01 2.0711834E+01 7.5293850E+00
  0.000E+00  1.912E+00  1.411E+00 1.1283911E+01 2.1367950E+01 9.6468916E+00
  4.318E-02  1.921E+00  1.388E+00 1.1303484E+01 2.0319916E+01 8.5647775E+00
  0.000E+00  1.890E+00  1.456E+00 1.1363870E+01 2.0856679E+01 1.0699797E+01
  4.318E-02  1.901E+00  1.434E+00 1.1455067E+01 1.9875209E+01 9.5794049E+00
  0.000E+00  1.866E+00  1.500E+00 1.1416424E+01 2.0284262E+01 1.1714239E+01
  4.318E-02  1.878E+00  1.478E+00 1.1468881E+01 1.9359800E+01 1.0547118E+01
  0.000E+00  1.840E+00  1.543E+00 1.1596586E+01 1.9677911E+01 1.2713001E+01
  4.318E-02  1.853E+00  1.521E+00 1.1659892E+01 1.8807243E+01 1.1495699E+01
  0.000E+00  1.812E+00  1.584E+00 1.1586382E+01 1.9015704E+01 1.3676067E+01
  4.318E-02  1.826E+00  1.563E+00 1.1691892E+01 1.8211571E+01 1.2420707E+01
  0.000E+00  1.782E+00  1.623E+00 1.1702444E+01 1.8307379E+01 1.4603348E+01
  4.318E-02  1.797E+00  1.604E+00 1.1776759E+01 1.7564921E+01 1.3308854E+01
  0.000E+00  1.750E+00  1.662E+00 1.1695876E+01 1.7555019E+01 1.5495910E+01
  4.318E-02  1.766E+00  1.643E+00 1.1845431E+01 1.6878937E+01 1.4166433E+01
  0.000E+00  1.716E+00  1.698E+00 1.1763128E+01 1.6759440E+01 1.6349915E+01
  4.318E-02  1.733E+00  1.680E+00 1.1822857E+01 1.6149470E+01 1.4987706E+01
  0.000E+00  1.680E+00  1.733E+00 1.1706394E+01 1.5922392E+01 1.7162412E+01
  4.318E-02  1.698E+00  1.716E+00 1.1878845E+01 1.5381808E+01 1.5772537E+01
  0.000E+00  1.643E+00  1.766E+00 1.1727385E+01 1.5047351E+01 1.7934381E+01
  4.318E-02  1.662E+00  1.750E+00 1.1810287E+01 1.4576040E+01 1.6518147E+01
  0.000E+00  1.604E+00  1.797E+00 1.1659146E+01 1.4133769E+01 1.8659625E+01
  4.318E-02  1.623E+00  1.782E+00 1.1815801E+01 1.3733859E+01 1.7222842E+01
  0.000E+00  1.563E+00  1.826E+00 1.1572031E+01 1.3188034E+01 1.9342780E+01
  4.318E-02  1.584E+00  1.812E+00 1.1699150E+01 1.2859487E+01 1.7885657E+01
  0.000E+00  1.521E+00  1.853E+00 1.1540009E+01 1.2204928E+01 1.9972339E+01
  4.318E-02  1.543E+00  1.840E+00 1.1707883E+01 1.1952339E+01 1.8505662E+01
  0.000E+00  1.478E+00  1.878E+00 1.1347058E+01 1.1197231E+01 2.0558745E+01
  4.318E-02  1.500E+00  1.866E+00 1.1526889E+01 1.1011812E+01 1.9073653E+01
  0.000E+00  1.434E+00  1.901E+00 1.1332503E+01 1.0167483E+01 2.1103893E+01
  4.318E-02  1.456E+00  1.890E+00 1.1474040E+01 1.0056766E+01 1.9609474E+01
  0.000E+00  1.388E+00  1.921E+00 1.1180785E+01 9.0888225E+00 2.1571954E+01
  4.318E-02  1.411E+00  1.912E+00 1.1392709E+01 9.0663689E+00 2.0089037E+01
  0.000E+00  1.342E+00  1.940E+00 1.0999313E+01 7.9902414E+00 2.1987160E+01
  4.318E-02  1.365E+00  1.931E+00 1.1184719E+01 8.0349580E+00 2.0498986E+01
  0.000E+00  1.295E+00  1.956E+00 1.0955380E+01 6.9059655E+00 2.2381278E+01
  4.318E-02  1.318E+00  1.948E+00 1.1093592E+01 7.0070876E+00 2.0877943E+01
  0.000E+00  1.247E+00  1.969E+00 1.0878279E+01 5.8006889E+00 2.2718631E+01
  4.318E-02  1.271E+00  1.963E+00 1.1040406E+01 5.9834917E+00 2.1227712E+01
  0.000E+00  1.198E+00  1.980E+00 1.0757080E+01 4.6475681E+00 2.2966532E+01
  4.318E-02  1.223E+00  1.975E+00 1.0934620E+01 4.9222324E+00 2.1506176E+01
  0.000E+00  1.149E+00  1.989E+00 1.0640785E+01 3.4726806E+00 2.3140501E+01
  4.318E-02  1.174E+00  1.985E+00 1.0812632E+01 3.8238381E+00 2.1705291E+01
  0.000E+00  1.100E+00  1.995E+00 1.0563854E+01 2.3048739E+00 2.3262928E+01
  4.318E-02  1.124E+00  1.992E+00 1.0717031E+01 2.7186968E+00 2.1844775E+01
  0.000E+00  1.050E+00  1.999E+00 1.0526892E+01 1.1495460E+00 2.3339835E+01
  4.318E-02  1.075E+00  1.997E+00 1.0659100E+01 1.6252027E+00 2.1938925E+01
  0.000E+00  1.000E+00  2.000E+00 1.0516739E+01 -4.5974734E-06 2.3366588E+01
  4.318E-02  1.025E+00  2.000E+00 1.0633722E+01 5.4079759E-01 2.1987659E+01
  0.000E+00  9.502E-01  1.999E+00 1.0526892E+01 -1.1495386E+00 2.3339832E+01
  4.318E-02  9.751E-01  2.000E+00 1.0633721E+01 -5.4079983E-01 2.1987657E+01
  0.000E+00  9.004E-01  1.995E+00 1.0563855E+01 -2.3048756E+00 2.3262922E+01
  4.318E-02  9.253E-01  1.997E+00 1.0659101E+01 -1.6251972E+00 2.1938921E+01
  0.000E+00  8.510E-01  1.989E+00 1.0640786E+01 -3.4726823E+00 2.3140492E+01
  4.318E-02  8.757E-01  1.992E+00 1.0717032E+01 -2.7187029E+00 2.1844768E+01
  0.000E+00  8.019E-01  1.980E+00 1.0757082E+01 -4.6475567E+00 2.2966521E+01
  4.318E-02  8.264E-01  1.985E+00 1.0812633E+01 -3.8238312E+00 2.1705282E+01
  0.000E+00  7.532E-01  1.969E+00 1.0878281E+01 -5.8006947E+00 2.2718618E+01
  4.318E-02  7.775E-01  1.975E+00 1.0934623E+01 -4.9222304E+00 2.1506165E+01
  0.000E+00  7.052E-01  1.956E+00 1.0955382E+01 -6.9059531E+00 2.2381263E+01
  4.318E-02  7.292E-01  1.963E+00 1.1040408E+01 -5.9834918E+00 2.1227700E+01
  0.000E+00  6.580E-01  1.940E+00 1.0999316E+01 -7.9902315E+00 2.1987144E+01
  4.318E-02  6.815E-01  1.948E+00 1.1093595E+01 -7.0070727E+00 2.0877929E+01
  0.000E+00  6.116E-01  1.921E+00 1.1180787E+01 -9.0888250E+00 2.1571938E+01
  4.318E-02  6.347E-01  1.931E+00 1.1184723E+01 -8.0349596E+00 2.0498972E+01
  0.000E+00  5.661E-01  1.901E+00 1.1332506E+01 -1.0167456E+01 2.1103876E+01
  4.318E-02  5.887E-01  1.912E+00 1.1392712E+01 -9.0663573E+00 2.0089021E+01
  0.000E+00  5.217E-01  1.878E+00 1.1347062E+01 -1.1197226E+01 2.0558730E+01
  4.318E-02  5.438E-01  1.890E+00 1.1474045E+01 -1.0056748E+01 1.9609461E+01
  0.000E+00  4.786E-01  1.853E+00 1.1540013E+01 -1.2204918E+01 1.9972325E+01
  4.318E-02  5.000E-01  1.866E+00 1.1526894E+01 -1.1011812E+01 1.9073641E+01
  0.000E+00  4.367E-01  1.826E+00 1.1572036E+01 -1.3188011E+01 1.9342767E+01
  4.318E-02  4.575E-01  1.840E+00 1.1707887E+01 -1.1952321E+01 1.8505651E+01
  0.000E+00  3.962E-01  1.797E+00 1.1659152E+01 -1.4133754E+01 1.8659614E+01
  4.318E-02  4.163E-01  1.812E+00 1.1699156E+01 -1.2859471E+01 1.7885648E+01
  0.000E+00  3.572E-01  1.766E+00 1.1727391E+01 -1.5047347E+01 1.7934375E+01
  4.318E-02  3.765E-01  1.782E+00 1.1815808E+01 -1.3733852E+01 1.7222836E+01
  0.000E+00  3.198E-01  1.733E+00 1.1706401E+01 -1.5922357E+01 1.7162412E+01
  4.318E-02  3.383E-01  1.750E+00 1.1810293E+01 -1.4576029E+01 1.6518147E+01
  0.000E+00  2.841E-01  1.698E+00 1.1763136E+01 -1.6759429E+01 1.6349921E+01
  4.318E-02  3.018E-01  1.716E+00 1.1878853E+01 -1.5381774E+01 1.5772542E+01
  0.000E+00  2.502E-01  1.662E+00 1.1695885E+01 -1.7555020E+01 1.5495925E+01
  4.318E-02  2.669E-01  1.680E+00 1.1822867E+01 -1.6149486E+01 1.4987719E+01
  0.000E+00  2.182E-01  1.623E+00 1.1702452E+01 -1.8307374E+01 1.4603370E+01
  4.318E-02  2.340E-01  1.643E+00 1.1845441E+01 -1.6878916E+01 1.4166452E+01
  0.000E+00  1.881E-01  1.584E+00 1.1586391E+01 -1.9015732E+01 1.3676092E+01
  4.318E-02  2.029E-01  1.604E+00 1.1776768E+01 -1.7564954E+01 1.3308880E+01
  0.000E+00  1.600E-01  1.543E+00 1.1596594E+01 -1.9677873E+01 1.2713022E+01
  4.318E-02  1.738E-01  1.563E+00 1.1691902E+01 -1.8211562E+01 1.2420734E+01
  0.000E+00  1.340E-01  1.500E+00 1.1416432E+01 -2.0284367E+01 1.1714264E+01
  4.318E-02  1.467E-01  1.521E+00 1.1659901E+01 -1.8807263E+01 1.1495724E+01
  0.000E+00  1.101E-01  1.456E+00 1.1363879E+01 -2.0856717E+01 1.0699820E+01
  4.318E-02  1.218E-01  1.478E+00 1.1468889E+01 -1.9359920E+01 1.0547146E+01
  0.000E+00  8.849E-02  1.411E+00 1.1283919E+01 -2.1367930E+01 9.6469113E+00
  4.318E-02  9.903E-02  1.434E+00 1.1455076E+01 -1.9875183E+01 9.5794276E+00
  0.000E+00  6.913E-02  1.365E+00 1.1075964E+01 -2.1806121E+01 8.5510067E+00
  4.318E-02  7.852E-02  1.388E+00 1.1303492E+01 -2.0319965E+01 8.5647971E+00
  0.000E+00  5.207E-02  1.318E+00 1.0985308E+01 -2.2214019E+01 7.4593147E+00
  4.318E-02  6.031E-02  1.342E+00 1.1122840E+01 -2.0711952E+01 7.5294043E+00
  0.000E+00  3.738E-02  1.271E+00 1.0932819E+01 -2.2588511E+01 6.3698216E+00
  4.318E-02  4.443E-02  1.295E+00 1.1078763E+01 -2.1082757E+01 6.5076296E+00
  0.000E+00  2.507E-02  1.223E+00 1.0826438E+01 -2.2883581E+01 5.2384598E+00
  4.318E-02  3.092E-02  1.247E+00 1.1001839E+01 -2.1403144E+01 5.4680478E+00
  0.000E+00  1.519E-02  1.174E+00 1.0703319E+01 -2.3093239E+01 4.0683333E+00
  4.318E-02  1.983E-02  1.198E+00 1.0881794E+01 -2.1641845E+01 4.3832496E+00
  0.000E+00  7.761E-03  1.124E+00 1.0607446E+01 -2.3240785E+01 2.8923728E+00
  4.318E-02  1.117E-02  1.149E+00 1.0766338E+01 -2.1809777E+01 3.2761500E+00
  0.000E+00  2.796E-03  1.075E+00 1.0550083E+01 -2.3341559E+01 1.7294402E+00
  4.318E-02  4.969E-03  1.100E+00 1.0689124E+01 -2.1926713E+01 2.1742938E+00
  0.000E+00  3.108E-04  1.025E+00 1.0525357E+01 -2.3394499E+01 5.7560077E-01
  4.318E-02  1.243E-03  1.050E+00 1.0651380E+01 -2.1999220E+01 1.0841916E+00
  0.000E+00  3.108E-04  9.751E-01 1.0525358E+01 -2.3394491E+01 -5.7561411E-01
  4.318E-02  0.000E+00  1.000E+00 1.0640781E+01 -2.2024167E+01 -7.7467512E-06
  0.000E+00  2.796E-03  9.253E-01 1.0550084E+01 -2.3341529E+01 -1.7294526E+00
  4.318E-02  1.243E-03  9.502E-01 1.0651381E+01 -2.1999198E+01 -1.0842065E+00
  0.000E+00  7.761E-03  8.757E-01 1.0607449E+01 -2.3240725E+01 -2.8923836E+00
  4.318E-02  4.969E-03  9.004E-01 1.0689127E+01 -2.1926661E+01 -2.1743071E+00
  0.000E+00  1.519E-02  8.264E-01 1.0703324E+01 -2.3093161E+01 -4.0683411E+00
  4.318E-02  1.117E-02  8.510E-01 1.0766341E+01 -2.1809695E+01 -3.2761600E+00
  0.000E+00  2.507E-02  7.775E-01 1.0826442E+01 -2.2883537E+01 -5.2384618E+00
  4.318E-02  1.983E-02  8.019E-01 1.0881796E+01 -2.1641773E+01 -4.3832539E+00
  0.000E+00  3.738E-02  7.292E-01 1.0932820E+01 -2.2588516E+01 -6.3698150E+00
  4.318E-02  3.092E-02  7.532E-01 1.1001839E+01 -2.1403132E+01 -5.4680433E+00
  0.000E+00  5.207E-02  6.815E-01 1.0985308E+01 -2.2213969E+01 -7.4593011E+00
  4.318E-02  4.443E-02  7.052E-01 1.1078761E+01 -2.1082743E+01 -6.5076170E+00
  0.000E+00  6.913E-02  6.347E-01 1.1075967E+01 -2.1806013E+01 -8.5509903E+00
  4.318E-02  6.031E-02  6.580E-01 1.1122840E+01 -2.0711831E+01 -7.5293878E+00
  0.000E+00  8.849E-02  5.887E-01 1.1283922E+01 -2.1367946E+01 -9.6468944E+00
  4.318E-02  7.852E-02  6.116E-01 1.1303494E+01 -2.0319913E+01 -8.5647804E+00
  0.000E+00  1.101E-01  5.438E-01 1.1363881E+01 -2.0856675E+01 -1.0699800E+01
  4.318E-02  9.903E-02  5.661E-01 1.1455078E+01 -1.9875205E+01 -9.5794074E+00
  0.000E+00  1.340E-01  5.000E-01 1.1416435E+01 -2.0284257E+01 -1.1714242E+01
  4.318E-02  1.218E-01  5.217E-01 1.1468891E+01 -1.9359796E+01 -1.0547121E+01
  0.000E+00  1.600E-01  4.575E-01 1.1596596E+01 -1.9677907E+01 -1.2713004E+01
  4.318E-02  1.467E-01  4.786E-01 1.1659902E+01 -1.8807239E+01 -1.1495701E+01
  0.000E+00  1.881E-01  4.163E-01 1.1586392E+01 -1.9015701E+01 -1.3676070E+01
  4.318E-02  1.738E-01  4.367E-01 1.1691902E+01 -1.8211567E+01 -1.2420709E+01
  0.000E+00  2.182E-01  3.765E-01 1.1702454E+01 -1.8307374E+01 -1.4603351E+01
  4.318E-02  2.029E-01  3.962E-01 1.1776769E+01 -1.7564917E+01 -1.3308856E+01
  0.000E+00  2.502E-01  3.383E-01 1.1695886E+01 -1.7555014E+01 -1.5495912E+01
  4.318E-02  2.340E-01  3.572E-01 1.1845441E+01 -1.6878932E+01 -1.4166435E+01
  0.000E+00  2.841E-01  3.018E-01 1.1763137E+01 -1.6759434E+01 -1.6349916E+01
  4.318E-02  2.669E-01  3.198E-01 1.1822866E+01 -1.6149466E+01 -1.4987708E+01
  0.000E+00  3.198E-01  2.669E-01 1.1706403E+01 -1.5922387E+01 -1.7162414E+01
  4.318E-02  3.018E-01  2.841E-01 1.1878854E+01 -1.5381804E+01 -1.5772539E+01
  0.000E+00  3.572E-01  2.340E-01 1.1727393E+01 -1.5047346E+01 -1.7934382E+01
  4.318E-02  3.383E-01  2.502E-01 1.1810295E+01 -1.4576035E+01 -1.6518149E+01
  0.000E+00  3.962E-01  2.029E-01 1.1659154E+01 -1.4133763E+01 -1.8659625E+01
  4.318E-02  3.765E-01  2.182E-01 1.1815810E+01 -1.3733854E+01 -1.7222843E+01
  0.000E+00  4.367E-01  1.738E-01 1.1572039E+01 -1.3188028E+01 -1.9342780E+01
  4.318E-02  4.163E-01  1.881E-01 1.1699157E+01 -1.2859482E+01 -1.7885658E+01
  0.000E+00  4.786E-01  1.467E-01 1.1540016E+01 -1.2204922E+01 -1.9972338E+01
  4.318E-02  4.575E-01  1.600E-01 1.1707890E+01 -1.1952335E+01 -1.8505663E+01
  0.000E+00  5.217E-01  1.218E-01 1.1347064E+01 -1.1197225E+01 -2.0558745E+01
  4.318E-02  5.000E-01  1.340E-01 1.1526896E+01 -1.1011807E+01 -1.9073654E+01
  0.000E+00  5.661E-01  9.903E-02 1.1332508E+01 -1.0167477E+01 -2.1103892E+01
  4.318E-02  5.438E-01  1.101E-01 1.1474046E+01 -1.0056762E+01 -1.9609475E+01
  0.000E+00  6.116E-01  7.852E-02 1.1180789E+01 -9.0888163E+00 -2.1571953E+01
  4.318E-02  5.887E-01  8.849E-02 1.1392714E+01 -9.0663646E+00 -2.0089036E+01
  0.000E+00  6.580E-01  6.031E-02 1.0999316E+01 -7.9902343E+00 -2.1987158E+01
  4.318E-02  6.347E-01  6.913E-02 1.1184724E+01 -8.0349546E+00 -2.0498986E+01
  0.000E+00  7.052E-01  4.443E-02 1.0955382E+01 -6.9059592E+00 -2.2381276E+01
  4.318E-02  6.815E-01  5.207E-02 1.1093596E+01 -7.0070845E+00 -2.0877943E+01
  0.000E+00  7.532E-01  3.092E-02 1.0878281E+01 -5.8006844E+00 -2.2718629E+01
  4.318E-02  7.292E-01  3.738E-02 1.1040409E+01 -5.9834876E+00 -2.1227713E+01
  0.000E+00  8.019E-01  1.983E-02 1.0757082E+01 -4.6475660E+00 -2.2966531E+01
  4.318E-02  7.775E-01  2.507E-02 1.0934622E+01 -4.9222272E+00 -2.1506176E+01
  0.000E+00  8.510E-01  1.117E-02 1.0640786E+01 -3.4726792E+00 -2.3140500E+01
  4.318E-02  8.264E-01  1.519E-02 1.0812632E+01 -3.8238322E+00 -2.1705290E+01
  0.000E+00  9.004E-01  4.969E-03 1.0563853E+01 -2.3048722E+00 -2.3262927E+01
  4.318E-02  8.757E-01  7.761E-03 1.0717031E+01 -2.7186914E+00 -2.1844773E+01
  4.318E-02  9.253E-01  2.796E-03 1.0659099E+01 -1.6251981E+00 -2.1938923E+01
  1.000E+01  1.050E+00  1.243E-03 1.0526888E+01 1.1495436E+00 -2.3339831E+01
  1.000E+01  1.000E+00  5.551E-16 1.0516736E+01 8.3860286E-06 -2.3366587E+01
  9.957E+00  1.025E+00  3.108E-04 1.0365818E+01 6.0532354E-01 -2.4603731E+01
  1.000E+01  9.502E-01  1.243E-03 1.0526890E+01 -1.1495431E+00 -2.3339834E+01
  9.957E+00  9.751E-01  3.108E-04 1.0365820E+01 -6.0531150E-01 -2.4603733E+01
  1.000E+01  9.004E-01  4.969E-03 1.0563853E+01 -2.3048722E+00 -2.3262927E+01
  9.957E+00  9.253E-01  2.796E-03 1.0389661E+01 -1.8180859E+00 -2.4546785E+01
  1.000E+01  8.510E-01  1.117E-02 1.0640786E+01 -3.4726792E+00 -2.3140500E+01
  9.957E+00  8.757E-01  7.761E-03 1.0445725E+01 -3.0395038E+00 -2.4439641E+01
  1.000E+01  8.019E-01  1.983E-02 1.0757082E+01 -4.6475660E+00 -2.2966531E+01
  9.957E+00  8.264E-01  1.519E-02 1.0540978E+01 -4.2745772E+00 -2.4286052E+01
  1.000E+01  7.532E-01  3.092E-02 1.0878281E+01 -5.8006844E+00 -2.2718629E+01
  9.957E+00  7.775E-01  2.507E-02 1.0664877E+01 -5.5059762E+00 -2.4070918E+01
  1.000E+01  7.052E-01  4.443E-02 1.0955382E+01 -6.9059592E+00 -2.2381276E+01
  9.957E+00  7.292E-01  3.738E-02 1.0772238E+01 -6.6985383E+00 -2.3765906E+01
  1.000E+01  6.580E-01  6.031E-02 1.0999316E+01 -7.9902343E+00 -2.1987158E+01
  9.957E+00  6.815E-01  5.207E-02 1.0824981E+01 -7.8462065E+00 -2.3373784E+01
  1.000E+01  6.116E-01  7.852E-02 1.1180789E+01 -9.0888163E+00 -2.1571953E+01
  9.957E+00  6.347E-01  6.913E-02 1.0916152E+01 -8.9940977E+00 -2.2944309E+01
  1.000E+01  5.661E-01  9.903E-02 1.1332508E+01 -1.0167477E+01 -2.1103892E+01
  9.957E+00  5.887E-01  8.849E-02 1.1124761E+01 -1.0147538E+01 -2.2485320E+01
  1.000E+01  5.217E-01  1.218E-01 1.1347064E+01 -1.1197225E+01 -2.0558745E+01
  9.957E+00  5.438E-01  1.101E-01 1.1203972E+01 -1.1257833E+01 -2.1951263E+01
  1.000E+01  4.786E-01  1.467E-01 1.1540016E+01 -1.2204922E+01 -1.9972338E+01
  9.957E+00  5.000E-01  1.340E-01 1.1258760E+01 -1.2327052E+01 -2.1349404E+01
  1.000E+01  4.367E-01  1.738E-01 1.1572039E+01 -1.3188028E+01 -1.9342780E+01
  9.957E+00  4.575E-01  1.600E-01 1.1441190E+01 -1.3378135E+01 -2.0713308E+01
  1.000E+01  3.962E-01  2.029E-01 1.1659154E+01 -1.4133763E+01 -1.8659625E+01
  9.957E+00  4.163E-01  1.881E-01 1.1431166E+01 -1.4394267E+01 -2.0021368E+01
  1.000E+01  3.572E-01  2.340E-01 1.1727393E+01 -1.5047346E+01 -1.7934382E+01
  9.957E+00  3.765E-01  2.182E-01 1.1547714E+01 -1.5373845E+01 -1.9280091E+01
  1.000E+01  3.198E-01  2.669E-01 1.1706403E+01 -1.5922387E+01 -1.7162414E+01
  9.957E+00  3.383E-01  2.502E-01 1.1541732E+01 -1.6316370E+01 -1.8491246E+01
  1.000E+01  2.841E-01  3.018E-01 1.1763137E+01 -1.6759434E+01 -1.6349916E+01
  9.957E+00  3.018E-01  2.841E-01 1.1610463E+01 -1.7219023E+01 -1.7656801E+01
  1.000E+01  2.502E-01  3.383E-01 1.1695886E+01 -1.7555014E+01 -1.5495912E+01
  9.957E+00  2.669E-01  3.198E-01 1.1555471E+01 -1.8078210E+01 -1.6777864E+01
  1.000E+01  2.182E-01  3.765E-01 1.1702454E+01 -1.8307374E+01 -1.4603351E+01
  9.957E+00  2.340E-01  3.572E-01 1.1576807E+01 -1.8895538E+01 -1.5858852E+01
  1.000E+01  1.881E-01  4.163E-01 1.1586392E+01 -1.9015701E+01 -1.3676070E+01
  9.957E+00  2.029E-01  3.962E-01 1.1510088E+01 -1.9663425E+01 -1.4898811E+01
  1.000E+01  1.600E-01  4.575E-01 1.1596596E+01 -1.9677907E+01 -1.2713004E+01
  9.957E+00  1.738E-01  4.367E-01 1.1422427E+01 -2.0388043E+01 -1.3904700E+01
  1.000E+01  1.340E-01  5.000E-01 1.1416435E+01 -2.0284257E+01 -1.1714242E+01
  9.957E+00  1.467E-01  4.786E-01 1.1393082E+01 -2.1054485E+01 -1.2869382E+01
  1.000E+01  1.101E-01  5.438E-01 1.1363881E+01 -2.0856675E+01 -1.0699800E+01
  9.957E+00  1.218E-01  5.217E-01 1.1199858E+01 -2.1674525E+01 -1.1808130E+01
  1.000E+01  8.849E-02  5.887E-01 1.1283922E+01 -2.1367946E+01 -9.6468944E+00
  9.957E+00  9.903E-02  5.661E-01 1.1186480E+01 -2.2251365E+01 -1.0724011E+01
  1.000E+01  6.913E-02  6.347E-01 1.1075967E+01 -2.1806013E+01 -8.5509903E+00
  9.957E+00  7.852E-02  6.116E-01 1.1035799E+01 -2.2746677E+01 -9.5874695E+00
  1.000E+01  5.207E-02  6.815E-01 1.0985308E+01 -2.2213969E+01 -7.4593011E+00
  9.957E+00  6.031E-02  6.580E-01 1.0854272E+01 -2.3189076E+01 -8.4313322E+00
  1.000E+01  3.738E-02  7.292E-01 1.0932820E+01 -2.2588516E+01 -6.3698150E+00
  9.957E+00  4.443E-02  7.052E-01 1.0811088E+01 -2.3608636E+01 -7.2883409E+00
  1.000E+01  2.507E-02  7.775E-01 1.0826442E+01 -2.2883537E+01 -5.2384618E+00
  9.957E+00  3.092E-02  7.532E-01 1.0733935E+01 -2.3964440E+01 -6.1205394E+00
  1.000E+01  1.519E-02  8.264E-01 1.0703324E+01 -2.3093161E+01 -4.0683411E+00
  9.957E+00  1.983E-02  8.019E-01 1.0611778E+01 -2.4223323E+01 -4.9022131E+00
  1.000E+01  7.761E-03  8.757E-01 1.0607449E+01 -2.3240725E+01 -2.8923836E+00
  9.957E+00  1.117E-02  8.510E-01 1.0495235E+01 -2.4406005E+01 -3.6631170E+00
  1.000E+01  2.796E-03  9.253E-01 1.0550084E+01 -2.3341529E+01 -1.7294526E+00
  9.957E+00  4.969E-03  9.004E-01 1.0419339E+01 -2.4537196E+01 -2.4322587E+00
  1.000E+01  3.108E-04  9.751E-01 1.0525358E+01 -2.3394491E+01 -5.7561411E-01
  9.957E+00  1.243E-03  9.502E-01 1.0383725E+01 -2.4621167E+01 -1.2136381E+00
  1.000E+01  3.108E-04  1.025E+00 1.0525357E+01 -2.3394499E+01 5.7560077E-01
  9.957E+00  0.000E+00  1.000E+00 1.0374092E+01 -2.4650726E+01 -5.9148278E-06
  1.000E+01  2.796E-03  1.075E+00 1.0550083E+01 -2.3341559E+01 1.7294402E+00
  9.957E+00  1.243E-03  1.050E+00 1.0383725E+01 -2.4621181E+01 1.2136268E+00
  1.000E+01  7.761E-03  1.124E+00 1.0607446E+01 -2.3240785E+01 2.8923728E+00
  9.957E+00  4.969E-03  1.100E+00 1.0419338E+01 -2.4537232E+01 2.4322485E+00
  1.000E+01  1.519E-02  1.174E+00 1.0703319E+01 -2.3093239E+01 4.0683333E+00
  9.957E+00  1.117E-02  1.149E+00 1.0495232E+01 -2.4406066E+01 3.6631084E+00
  1.000E+01  2.507E-02  1.223E+00 1.0826438E+01 -2.2883581E+01 5.2384598E+00
  9.957E+00  1.983E-02  1.198E+00 1.0611774E+01 -2.4223383E+01 4.9022071E+00
  1.000E+01  3.738E-02  1.271E+00 1.0932819E+01 -2.2588511E+01 6.3698216E+00
  9.957E+00  3.092E-02  1.247E+00 1.0733931E+01 -2.3964455E+01 6.1205394E+00
  1.000E+01  5.207E-02  1.318E+00 1.0985308E+01 -2.2214019E+01 7.4593147E+00
  9.957E+00  4.443E-02  1.295E+00 1.0811087E+01 -2.3608638E+01 7.2883490E+00
  1.000E+01  6.913E-02  1.365E+00 1.1075964E+01 -2.1806121E+01 8.5510067E+00
  9.957E+00  6.031E-02  1.342E+00 1.0854272E+01 -2.3189156E+01 8.4313460E+00
  1.000E+01  8.849E-02  1.411E+00 1.1283919E+01 -2.1367930E+01 9.6469113E+00
  9.957E+00  7.852E-02  1.388E+00 1.1035797E+01 -2.2746718E+01 9.5874846E+00
  1.000E+01  1.101E-01  1.456E+00 1.1363879E+01 -2.0856717E+01 1.0699820E+01
  9.957E+00  9.903E-02  1.434E+00 1.1186477E+01 -2.2251346E+01 1.0724028E+01
  1.000E+01  1.340E-01  1.500E+00 1.1416432E+01 -2.0284367E+01 1.1714264E+01
  9.957E+00  1.218E-01  1.478E+00 1.1199855E+01 -2.1674637E+01 1.1808151E+01
  1.000E+01  1.600E-01  1.543E+00 1.1596594E+01 -1.9677873E+01 1.2713022E+01
  9.957E+00  1.467E-01  1.521E+00 1.1393077E+01 -2.1054505E+01 1.2869398E+01
  1.000E+01  1.881E-01  1.584E+00 1.1586391E+01 -1.9015732E+01 1.3676092E+01
  9.957E+00  1.738E-01  1.563E+00 1.1422423E+01 -2.0388028E+01 1.3904718E+01
  1.000E+01  2.182E-01  1.623E+00 1.1702452E+01 -1.8307374E+01 1.4603370E+01
  9.957E+00  2.029E-01  1.604E+00 1.1510084E+01 -1.9663456E+01 1.4898831E+01
  1.000E+01  2.502E-01  1.662E+00 1.1695885E+01 -1.7555020E+01 1.5495925E+01
  9.957E+00  2.340E-01  1.643E+00 1.1576804E+01 -1.8895523E+01 1.5858866E+01
  1.000E+01  2.841E-01  1.698E+00 1.1763136E+01 -1.6759429E+01 1.6349921E+01
  9.957E+00  2.669E-01  1.680E+00 1.1555468E+01 -1.8078232E+01 1.6777872E+01
  1.000E+01  3.198E-01  1.733E+00 1.1706401E+01 -1.5922357E+01 1.7162412E+01
  9.957E+00  3.018E-01  1.716E+00 1.1610461E+01 -1.7218986E+01 1.7656800E+01
  1.000E+01  3.572E-01  1.766E+00 1.1727391E+01 -1.5047347E+01 1.7934375E+01
  9.957E+00  3.383E-01  1.750E+00 1.1541730E+01 -1.6316360E+01 1.8491241E+01
  1.000E+01  3.962E-01  1.797E+00 1.1659152E+01 -1.4133754E+01 1.8659614E+01
  9.957E+00  3.765E-01  1.782E+00 1.1547712E+01 -1.5373844E+01 1.9280079E+01
  1.000E+01  4.367E-01  1.826E+00 1.1572036E+01 -1.3188011E+01 1.9342767E+01
  9.957E+00  4.163E-01  1.812E+00 1.1431164E+01 -1.4394250E+01 2.0021351E+01
  1.000E+01  4.786E-01  1.853E+00 1.1540013E+01 -1.2204918E+01 1.9972325E+01
  9.957E+00  4.575E-01  1.840E+00 1.1441188E+01 -1.3378116E+01 2.0713289E+01
  1.000E+01  5.217E-01  1.878E+00 1.1347062E+01 -1.1197226E+01 2.0558730E+01
  9.957E+00  5.000E-01  1.866E+00 1.1258758E+01 -1.2327059E+01 2.1349386E+01
  1.000E+01  5.661E-01  1.901E+00 1.1332506E+01 -1.0167456E+01 2.1103876E+01
  9.957E+00  5.438E-01  1.890E+00 1.1203970E+01 -1.1257815E+01 2.1951245E+01
  1.000E+01  6.116E-01  1.921E+00 1.1180787E+01 -9.0888250E+00 2.1571938E+01
  9.957E+00  5.887E-01  1.912E+00 1.1124758E+01 -1.0147528E+01 2.2485301E+01
  1.000E+01  6.580E-01  1.940E+00 1.0999316E+01 -7.9902315E+00 2.1987144E+01
  9.957E+00  6.347E-01  1.931E+00 1.0916151E+01 -8.9941070E+00 2.2944292E+01
  1.000E+01  7.052E-01  1.956E+00 1.0955382E+01 -6.9059531E+00 2.2381263E+01
  9.957E+00  6.815E-01  1.948E+00 1.0824980E+01 -7.8461903E+00 2.3373768E+01
  1.000E+01  7.532E-01  1.969E+00 1.0878281E+01 -5.8006947E+00 2.2718618E+01
  9.957E+00  7.292E-01  1.963E+00 1.0772237E+01 -6.6985453E+00 2.3765892E+01
  1.000E+01  8.019E-01  1.980E+00 1.0757082E+01 -4.6475567E+00 2.2966521E+01
  9.957E+00  7.775E-01  1.975E+00 1.0664877E+01 -5.5059807E+00 2.4070908E+01
  1.000E+01  8.510E-01  1.989E+00 1.0640786E+01 -3.4726823E+00 2.3140492E+01
  9.957E+00  8.264E-01  1.985E+00 1.0540979E+01 -4.2745739E+00 2.4286044E+01
  1.000E+01  9.004E-01  1.995E+00 1.0563855E+01 -2.3048756E+00 2.3262922E+01
  9.957E+00  8.757E-01  1.992E+00 1.0445728E+01 -3.0395209E+00 2.4439637E+01
  1.000E+01  9.502E-01  1.999E+00 1.0526892E+01 -1.1495386E+00 2.3339832E+01
  9.957E+00  9.253E-01  1.997E+00 1.0389664E+01 -1.8180828E+00 2.4546785E+01
  1.000E+01  1.000E+00  2.000E+00 1.0516739E+01 -4.5974734E-06 2.3366588E+01
  9.957E+00  9.751E-01  2.000E+00 1.0365823E+01 -6.0531977E-01 2.4603736E+01
  1.000E+01  1.050E+00  1.999E+00 1.0526892E+01 1.1495460E+00 2.3339835E+01
  9.957E+00  1.025E+00  2.000E+00 1.0365823E+01 6.0531655E-01 2.4603738E+01
  1.000E+01  1.100E+00  1.995E+00 1.0563854E+01 2.3048739E+00 2.3262928E+01
  9.957E+00  1.075E+00  1.997E+00 1.0389663E+01 1.8180922E+00 2.4546790E+01
  1.000E+01  1.149E+00  1.989E+00 1.0640785E+01 3.4726806E+00 2.3140501E+01
  9.957E+00  1.124E+00  1.992E+00 1.0445727E+01 3.0395112E+00 2.4439646E+01