# TIME = 3.000000
variables = x, y, z
zone N=5762 E=11520 F=FEPOINT ET=TRIANGLE
 5.3960033E+00 1.4627395E+00 1.7484450E+00
 5.3960033E+00 1.4627395E+00 2.5155495E-01
 5.3960033E+00 5.3726043E-01 1.7484450E+00
 5.3960033E+00 5.3726048E-01 2.5155499E-01
 3.7763192E+00 9.9999996E-01 1.7359786E+00
 7.0056029E+00 9.9999996E-01 1.7179099E+00
 3.7763194E+00 9.9999996E-01 2.6402161E-01
 7.0056030E+00 9.9999996E-01 2.8208990E-01
 4.4987299E+00 1.9056014E+00 9.9999997E-01
 4.4987299E+00 9.4398342E-02 9.9999997E-01
 6.2900187E+00 1.8906559E+00 9.9999997E-01
 6.2900187E+00 1.0934405E-01 9.9999997E-01
 5.3403081E+00 1.4536481E+00 1.7523739E+00
 5.2787683E+00 1.4437178E+00 1.7569840E+00
 5.2142079E+00 1.4335216E+00 1.7621882E+00
 5.1468844E+00 1.4230735E+00 1.7681539E+00
 5.0770656E+00 1.4124082E+00 1.7749942E+00
 5.0050194E+00 1.4014910E+00 1.7828097E+00
 4.9310048E+00 1.3902422E+00 1.7916409E+00
 4.8553458E+00 1.3785297E+00 1.8014393E+00
 4.7784181E+00 1.3661649E+00 1.8120353E+00
 4.7006345E+00 1.3529062E+00 1.8231161E+00
 4.6224225E+00 1.3384702E+00 1.8342173E+00
 4.5442080E+00 1.3225552E+00 1.8447346E+00
 4.4664111E+00 1.3048725E+00 1.8539558E+00
 4.3894556E+00 1.2851830E+00 1.8611153E+00
 4.3137879E+00 1.2633328E+00 1.8654636E+00
 4.2398957E+00 1.2392825E+00 1.8663455E+00
 4.1683135E+00 1.2131213E+00 1.8632711E+00
 4.0996048E+00 1.1850635E+00 1.8559664E+00
 4.0343233E+00 1.1554261E+00 1.8443920E+00
 3.9729684E+00 1.1245963E+00 1.8287284E+00
 3.9159810E+00 1.0930139E+00 1.8093556E+00
 3.8637274E+00 1.0611513E+00 1.7868086E+00
 3.8165442E+00 1.0295695E+00 1.7617804E+00
 5.3340883E+00 5.7804858E-01 1.7704296E+00
 5.2706342E+00 5.8963653E-01 1.7754251E+00
 5.2045741E+00 6.0112720E-01 1.7808256E+00
 5.1361754E+00 6.1279235E-01 1.7869245E+00
 5.0654920E+00 6.2477201E-01 1.7939129E+00
 4.9927303E+00 6.3711923E-01 1.8018754E+00
 4.9181642E+00 6.4993094E-01 1.8108290E+00
 4.8421413E+00 6.6334856E-01 1.8206887E+00
 4.7650649E+00 6.7756550E-01 1.8312407E+00
 4.6873675E+00 6.9281713E-01 1.8421244E+00
 4.6094891E+00 7.0936368E-01 1.8528294E+00
 4.5318605E+00 7.2746385E-01 1.8627159E+00
 4.4549023E+00 7.4734323E-01 1.8710539E+00
 4.3790359E+00 7.6916142E-01 1.8770844E+00
 4.3047020E+00 7.9298398E-01 1.8800908E+00
 4.2323761E+00 8.1876471E-01 1.8794748E+00
 4.1625700E+00 8.4634377E-01 1.8748197E+00
 4.0958081E+00 8.7546492E-01 1.8659301E+00
 4.0325892E+00 9.0580447E-01 1.8528371E+00
 3.9733162E+00 9.3699929E-01 1.8357612E+00
 3.9181531E+00 9.6862084E-01 1.8150046E+00
 3.8667245E+00 9.9999996E-01 1.7907190E+00
 5.3320787E+00 6.1065684E-01 1.7873533E+00
 5.2664438E+00 6.2390569E-01 1.7925499E+00
 5.1989535E+00 6.3672448E-01 1.7979892E+00
 5.1292868E+00 6.4975462E-01 1.8041251E+00
 5.0575202E+00 6.6316453E-01 1.8111363E+00
 4.9838034E+00 6.7705517E-01 1.8191095E+00
 4.9084334E+00 6.9153307E-01 1.8280359E+00
 4.8317858E+00 7.0675153E-01 1.8377972E+00
 4.7542934E+00 7.2290479E-01 1.8481358E+00
 4.6764126E+00 7.4021673E-01 1.8586429E+00
 4.5985995E+00 7.5891866E-01 1.8687628E+00
 4.5212946E+00 7.7922123E-01 1.8778207E+00
 4.4449234E+00 8.0128417E-01 1.8850714E+00
 4.3699082E+00 8.2518839E-01 1.8897655E+00
 4.2966861E+00 8.5091675E-01 1.8912231E+00
 4.2257201E+00 8.7834818E-01 1.8889063E+00
 4.1574931E+00 9.0727019E-01 1.8824730E+00
 4.0924722E+00 9.3740700E-01 1.8718000E+00
 4.0310185E+00 9.6844713E-01 1.8569536E+00
 3.9731832E+00 9.9999996E-01 1.8380711E+00
 3.9181530E+00 1.0313791E+00 1.8150046E+00
 5.3306863E+00 6.4498767E-01 1.8033915E+00
 5.2636391E+00 6.5956692E-01 1.8084765E+00
 5.1948012E+00 6.7376382E-01 1.8138323E+00
 5.1239595E+00 6.8820433E-01 1.8198657E+00
 5.0511147E+00 7.0311986E-01 1.8267625E+00
 4.9764567E+00 7.1861897E-01 1.8345892E+00
 4.9003005E+00 7.3482465E-01 1.8433146E+00
 4.8230564E+00 7.5189341E-01 1.8527840E+00
 4.7451861E+00 7.7001437E-01 1.8626972E+00
 4.6671692E+00 7.8939111E-01 1.8726000E+00
 4.5894774E+00 8.1021775E-01 1.8818968E+00
 4.5125597E+00 8.3265051E-01 1.8898877E+00
 4.4368454E+00 8.5678042E-01 1.8958236E+00
 4.3627546E+00 8.8261234E-01 1.8989774E+00
 4.2907149E+00 9.1005603E-01 1.8987172E+00
 4.2211645E+00 9.3893429E-01 1.8945714E+00
 4.1545309E+00 9.6900760E-01 1.8862681E+00
 4.0911493E+00 9.9999996E-01 1.8737273E+00
 4.0310185E+00 1.0315528E+00 1.8569536E+00
 3.9733162E+00 1.0630006E+00 1.8357612E+00
 5.3294691E+00 6.8114621E-01 1.8183995E+00
 5.2611923E+00 6.9698823E-01 1.8232111E+00
 5.1911929E+00 7.1253601E-01 1.8283280E+00
 5.1192895E+00 7.2841681E-01 1.8341155E+00
 5.0455072E+00 7.4486070E-01 1.8407355E+00
 4.9700549E+00 7.6199083E-01 1.8482368E+00
 4.8932826E+00 7.7993431E-01 1.8565598E+00
 4.8156306E+00 7.9884674E-01 1.8655150E+00
 4.7375877E+00 8.1890309E-01 1.8747615E+00
 4.6596528E+00 8.4027819E-01 1.8838067E+00
 4.5823083E+00 8.6312112E-01 1.8920266E+00
 4.5060075E+00 8.8752860E-01 1.8987104E+00
 4.4311767E+00 9.1352298E-01 1.9031219E+00
 4.3582257E+00 9.4104038E-01 1.9045718E+00
 4.2875575E+00 9.6993496E-01 1.9024862E+00
 4.2195590E+00 9.9999996E-01 1.8964599E+00
 4.1545309E+00 1.0309923E+00 1.8862681E+00
 4.0924722E+00 1.0625929E+00 1.8718001E+00
 4.0325892E+00 1.0941955E+00 1.8528371E+00
 5.3283286E+00 7.1915773E-01 1.8321957E+00
 5.2589458E+00 7.3621798E-01 1.8365905E+00
 5.1879356E+00 7.5310765E-01 1.8413219E+00
 5.1151391E+00 7.7042348E-01 1.8467039E+00
 5.0406046E+00 7.8839001E-01 1.8528721E+00
 4.9645697E+00 8.0713296E-01 1.8598522E+00
 4.8874147E+00 8.2678040E-01 1.8675569E+00
 4.8096083E+00 8.4747892E-01 1.8757625E+00
 4.7316606E+00 8.6938196E-01 1.8840936E+00
 4.6540837E+00 8.9262783E-01 1.8920295E+00
 4.5773645E+00 9.1731495E-01 1.8989317E+00
 4.5019529E+00 9.4347916E-01 1.9040955E+00
 4.4282631E+00 9.7107973E-01 1.9068142E+00
 4.3566803E+00 9.9999996E-01 1.9064487E+00
 4.2875575E+00 1.0300650E+00 1.9024863E+00
 4.2211644E+00 1.0610656E+00 1.8945715E+00
 4.1574931E+00 1.0927297E+00 1.8824731E+00
 4.0958080E+00 1.1245350E+00 1.8659302E+00
 5.3272863E+00 7.5894127E-01 1.8445664E+00
 5.2569349E+00 7.7717825E-01 1.8484058E+00
 5.1850797E+00 7.9538285E-01 1.8526007E+00
 5.1115809E+00 8.1410271E-01 1.8574104E+00
 5.0365098E+00 8.3354980E-01 1.8629424E+00
 4.9601312E+00 8.5384786E-01 1.8691987E+00
 4.8828528E+00 8.7511957E-01 1.8760646E+00
 4.8051661E+00 8.9749634E-01 1.8832868E+00
 4.7275962E+00 9.2110317E-01 1.8904636E+00
 4.6506609E+00 9.4603655E-01 1.8970583E+00
 4.5748436E+00 9.7234230E-01 1.9024335E+00
 4.5005814E+00 9.9999997E-01 1.9059068E+00
 4.4282631E+00 1.0289202E+00 1.9068143E+00
 4.3582257E+00 1.0589596E+00 1.9045719E+00
 4.2907149E+00 1.0899439E+00 1.8987173E+00
 4.2257201E+00 1.1216518E+00 1.8889064E+00
 4.1625699E+00 1.1536562E+00 1.8748199E+00
 5.3263708E+00 8.0033977E-01 1.8552897E+00
 5.2552121E+00 8.1969762E-01 1.8584376E+00
 5.1826985E+00 8.3916348E-01 1.8619426E+00
 5.1087087E+00 8.5922429E-01 1.8660109E+00
 5.0333348E+00 8.8007300E-01 1.8707219E+00
 4.9568666E+00 9.0182652E-01 1.8760543E+00
 4.8797339E+00 9.2459692E-01 1.8818686E+00
 4.8024444E+00 9.4849458E-01 1.8878884E+00
 4.7255303E+00 9.7361137E-01 1.8936958E+00
 4.6495065E+00 9.9999998E-01 1.8987513E+00
 4.5748436E+00 1.0276577E+00 1.9024336E+00
 4.5019529E+00 1.0565208E+00 1.9040956E+00
 4.4311767E+00 1.0864770E+00 1.9031220E+00
 4.3627546E+00 1.1173876E+00 1.8989776E+00
 4.2966861E+00 1.1490832E+00 1.8912233E+00
 4.2323761E+00 1.1812352E+00 1.8794750E+00
 5.3256096E+00 8.4314524E-01 1.8641573E+00
 5.2538245E+00 8.6354283E-01 1.8664815E+00
 5.1808566E+00 8.8418501E-01 1.8691464E+00
 5.1066007E+00 9.0548812E-01 1.8723088E+00
 5.0311687E+00 9.2762025E-01 1.8760218E+00
 4.9548702E+00 9.5068699E-01 1.8802428E+00
 4.8781513E+00 9.7478511E-01 1.8848120E+00
 4.8015278E+00 1.0000000E+00 1.8894373E+00
 4.7255303E+00 1.0263886E+00 1.8936958E+00
 4.6506609E+00 1.0539634E+00 1.8970584E+00
 4.5773646E+00 1.0826850E+00 1.8989318E+00
 4.5060075E+00 1.1124714E+00 1.8987106E+00
 4.4368454E+00 1.1432195E+00 1.8958238E+00
 4.3699082E+00 1.1748116E+00 1.8897657E+00
 4.3047020E+00 1.2070160E+00 1.8800911E+00
 5.3250212E+00 8.8710110E-01 1.8709851E+00
 5.2528073E+00 9.0842870E-01 1.8723624E+00
 5.1796014E+00 9.3013052E-01 1.8740468E+00
 5.1053132E+00 9.5254210E-01 1.8761518E+00
 5.0300706E+00 9.7580180E-01 1.8787070E+00
 4.9541984E+00 9.9999999E-01 1.8816518E+00
 4.8781513E+00 1.0252149E+00 1.8848120E+00
 4.8024444E+00 1.0515054E+00 1.8878885E+00
 4.7275963E+00 1.0788968E+00 1.8904638E+00
 4.6540837E+00 1.1073722E+00 1.8920297E+00
 4.5823084E+00 1.1368789E+00 1.8920269E+00
 4.5125598E+00 1.1673495E+00 1.8898880E+00
 4.4449234E+00 1.1987158E+00 1.8850717E+00
 4.3790359E+00 1.2308386E+00 1.8770847E+00
 5.3246207E+00 9.3191022E-01 1.8756245E+00
 5.2521866E+00 9.5403156E-01 1.8759469E+00
 5.1789656E+00 9.7664596E-01 1.8765272E+00
 5.1048801E+00 9.9999997E-01 1.8774437E+00
 5.0300706E+00 1.0241982E+00 1.8787070E+00
 4.9548702E+00 1.0493130E+00 1.8802428E+00
 4.8797339E+00 1.0754031E+00 1.8818687E+00
 4.8051661E+00 1.1025037E+00 1.8832870E+00
 4.7316607E+00 1.1306181E+00 1.8840939E+00
 4.6596528E+00 1.1597218E+00 1.8838070E+00
 4.5894774E+00 1.1897823E+00 1.8818972E+00
 4.5212946E+00 1.2207788E+00 1.8778210E+00
 4.4549024E+00 1.2526568E+00 1.8710543E+00
 5.3244179E+00 9.7724430E-01 1.8779712E+00
 5.2519779E+00 9.9999995E-01 1.8771513E+00
 5.1789656E+00 1.0233540E+00 1.8765272E+00
 5.1053131E+00 1.0474578E+00 1.8761518E+00
 5.0311686E+00 1.0723797E+00 1.8760218E+00
 4.9568666E+00 1.0981735E+00 1.8760544E+00
 4.8828528E+00 1.1248804E+00 1.8760647E+00
 4.8096083E+00 1.1525211E+00 1.8757627E+00
 4.7375878E+00 1.1810969E+00 1.8747618E+00
 4.6671693E+00 1.2106089E+00 1.8726004E+00
 4.5985996E+00 1.2410814E+00 1.8687632E+00
 4.5318605E+00 1.2725362E+00 1.8627163E+00
 5.3244179E+00 1.0227556E+00 1.8779712E+00
 5.2521866E+00 1.0459683E+00 1.8759469E+00
 5.1796013E+00 1.0698694E+00 1.8740468E+00
 5.1066007E+00 1.0945118E+00 1.8723088E+00
 5.0333347E+00 1.1199270E+00 1.8707219E+00
 4.9601311E+00 1.1461521E+00 1.8691989E+00
 4.8874147E+00 1.1732196E+00 1.8675571E+00
 4.8156306E+00 1.2011533E+00 1.8655153E+00
 4.7451861E+00 1.2299857E+00 1.8626976E+00
 4.6764127E+00 1.2597833E+00 1.8586434E+00
 4.6094893E+00 1.2906364E+00 1.8528299E+00
 5.3246207E+00 1.0680897E+00 1.8756245E+00
 5.2528073E+00 1.0915712E+00 1.8723624E+00
 5.1808565E+00 1.1158149E+00 1.8691464E+00
 5.1087086E+00 1.1407757E+00 1.8660109E+00
 5.0365096E+00 1.1664502E+00 1.8629425E+00
 4.9645696E+00 1.1928670E+00 1.8598524E+00
 4.8932825E+00 1.2200657E+00 1.8565601E+00
 4.8230564E+00 1.2481066E+00 1.8527844E+00
 4.7542935E+00 1.2770953E+00 1.8481362E+00
 4.6873677E+00 1.3071830E+00 1.8421248E+00
 5.3250212E+00 1.1128988E+00 1.8709851E+00
 5.2538244E+00 1.1364571E+00 1.8664815E+00
 5.1826984E+00 1.1608364E+00 1.8619426E+00
 5.1115808E+00 1.1858972E+00 1.8574104E+00
 5.0406044E+00 1.2116100E+00 1.8528722E+00
 4.9700547E+00 1.2380092E+00 1.8482370E+00
 4.9003004E+00 1.2651754E+00 1.8433149E+00
 4.8317858E+00 1.2932485E+00 1.8377976E+00
 4.7650650E+00 1.3224346E+00 1.8312412E+00
 5.3256095E+00 1.1568547E+00 1.8641573E+00
 5.2552121E+00 1.1803023E+00 1.8584376E+00
 5.1850796E+00 1.2046171E+00 1.8526007E+00
 5.1151389E+00 1.2295765E+00 1.8467040E+00
 5.0455071E+00 1.2551393E+00 1.8407356E+00
 4.9764566E+00 1.2813810E+00 1.8345894E+00
 4.9084334E+00 1.3084670E+00 1.8280363E+00
 4.8421413E+00 1.3366515E+00 1.8206891E+00
 5.3263708E+00 1.1996601E+00 1.8552897E+00
 5.2569348E+00 1.2228217E+00 1.8484058E+00
 5.1879355E+00 1.2468923E+00 1.8413219E+00
 5.1192894E+00 1.2715831E+00 1.8341156E+00
 5.0511146E+00 1.2968801E+00 1.8267626E+00
 4.9838032E+00 1.3229448E+00 1.8191097E+00
 4.9181642E+00 1.3500691E+00 1.8108293E+00
 5.3272863E+00 1.2410586E+00 1.8445664E+00
 5.2589458E+00 1.2637819E+00 1.8365905E+00
 5.1911929E+00 1.2874639E+00 1.8283281E+00
 5.1239593E+00 1.3117956E+00 1.8198658E+00
 5.0575200E+00 1.3368354E+00 1.8111364E+00
 4.9927301E+00 1.3628808E+00 1.8018756E+00
 5.3283286E+00 1.2808422E+00 1.8321957E+00
 5.2611923E+00 1.3030117E+00 1.8232111E+00
 5.1948011E+00 1.3262361E+00 1.8138323E+00
 5.1292866E+00 1.3502453E+00 1.8041252E+00
 5.0654919E+00 1.3752280E+00 1.7939130E+00
 5.3294690E+00 1.3188537E+00 1.8183995E+00
 5.2636391E+00 1.3404330E+00 1.8084765E+00
 5.1989534E+00 1.3632754E+00 1.7979892E+00
 5.1361753E+00 1.3872076E+00 1.7869245E+00
 5.3306863E+00 1.3550122E+00 1.8033915E+00
 5.2664437E+00 1.3760942E+00 1.7925499E+00
 5.2045740E+00 1.3988727E+00 1.7808256E+00
 5.3320787E+00 1.3893431E+00 1.7873533E+00
 5.2706342E+00 1.4103634E+00 1.7754250E+00
 5.3340883E+00 1.4219513E+00 1.7704295E+00
 5.3961271E+00 1.4354530E+00 1.7646379E+00
 5.3962374E+00 1.4043732E+00 1.7815372E+00
 5.3962856E+00 1.3713586E+00 1.7977757E+00
 5.3963209E+00 1.3363041E+00 1.8131885E+00
 5.3963518E+00 1.2992984E+00 1.8275374E+00
 5.3963812E+00 1.2604619E+00 1.8405824E+00
 5.3964077E+00 1.2199376E+00 1.8520953E+00
 5.3964309E+00 1.1779080E+00 1.8618614E+00
 5.3964497E+00 1.1346072E+00 1.8696849E+00
 5.3964636E+00 1.0903107E+00 1.8754003E+00
 5.3964720E+00 1.0453297E+00 1.8788821E+00
 5.3964749E+00 9.9999995E-01 1.8800516E+00
 5.3964720E+00 9.5467017E-01 1.8788821E+00
 5.3964636E+00 9.0968917E-01 1.8754004E+00
 5.3964497E+00 8.6539269E-01 1.8696849E+00
 5.3964309E+00 8.2209192E-01 1.8618615E+00
 5.3964077E+00 7.8006229E-01 1.8520953E+00
 5.3963812E+00 7.3953800E-01 1.8405824E+00
 5.3963518E+00 7.0070153E-01 1.8275375E+00
 5.3963209E+00 6.6369576E-01 1.8131885E+00
 5.3962856E+00 6.2864135E-01 1.7977757E+00
 5.3962374E+00 5.9562671E-01 1.7815372E+00
 5.3961271E+00 5.6454694E-01 1.7646379E+00
 5.4517758E+00 5.4471208E-01 1.7550793E+00
 5.5133009E+00 5.5299839E-01 1.7625808E+00
 5.5777423E+00 5.6174872E-01 1.7705156E+00
 5.6448212E+00 5.7107994E-01 1.7787971E+00
 5.7142899E+00 5.8108493E-01 1.7872656E+00
 5.7858926E+00 5.9189787E-01 1.7957494E+00
 5.8594002E+00 6.0366133E-01 1.8040521E+00
 5.9345225E+00 6.1651559E-01 1.8119555E+00
 6.0109186E+00 6.3059203E-01 1.8192259E+00
 6.0881952E+00 6.4600587E-01 1.8256228E+00
 6.1659158E+00 6.6285246E-01 1.8309034E+00
 6.2436087E+00 6.8120347E-01 1.8348276E+00
 6.3207765E+00 7.0110434E-01 1.8371601E+00
 6.3969091E+00 7.2257096E-01 1.8376743E+00
 6.4714994E+00 7.4558648E-01 1.8361584E+00
 6.5440619E+00 7.7009761E-01 1.8324257E+00
 6.6141487E+00 7.9601283E-01 1.8263253E+00
 6.6813634E+00 8.2320267E-01 1.8177549E+00
 6.7453677E+00 8.5150311E-01 1.8066691E+00
 6.8058785E+00 8.8072162E-01 1.7930859E+00
 6.8626240E+00 9.1062498E-01 1.7771041E+00
 6.9153330E+00 9.4094413E-01 1.7589049E+00
 6.9636508E+00 9.7128650E-01 1.7388045E+00
 5.4582025E+00 1.4236839E+00 1.7734998E+00
 5.5215745E+00 1.4136496E+00 1.7815128E+00
 5.5874577E+00 1.4034645E+00 1.7897127E+00
 5.6555651E+00 1.3927461E+00 1.7981189E+00
 5.7258485E+00 1.3812574E+00 1.8066460E+00
 5.7981232E+00 1.3688664E+00 1.8151072E+00
 5.8721461E+00 1.3554403E+00 1.8232889E+00
 5.9476109E+00 1.3408561E+00 1.8309551E+00
 6.0241502E+00 1.3250029E+00 1.8378588E+00
 6.1013486E+00 1.3077885E+00 1.8437498E+00
 6.1787506E+00 1.2891442E+00 1.8483801E+00
 6.2558710E+00 1.2690278E+00 1.8515085E+00
 6.3322059E+00 1.2474261E+00 1.8529035E+00
 6.4072469E+00 1.2243577E+00 1.8523477E+00
 6.4804983E+00 1.1998753E+00 1.8496454E+00
 6.5514951E+00 1.1740663E+00 1.8446322E+00
 6.6198184E+00 1.1470510E+00 1.8371865E+00
 6.6851084E+00 1.1189761E+00 1.8272391E+00
 6.7470701E+00 1.0900042E+00 1.8147787E+00
 6.8054972E+00 1.0603150E+00 1.7998423E+00
 6.8603803E+00 1.0301451E+00 1.7824611E+00
 6.9122005E+00 9.9999996E-01 1.7625100E+00
 5.4603770E+00 1.3910273E+00 1.7905879E+00
 5.5258974E+00 1.3792453E+00 1.7989590E+00
 5.5931692E+00 1.3676034E+00 1.8072806E+00
 5.6625017E+00 1.3553796E+00 1.8157455E+00
 5.7338259E+00 1.3423247E+00 1.8242431E+00
 5.8070138E+00 1.3282826E+00 1.8325852E+00
 5.8818068E+00 1.3131345E+00 1.8405365E+00
 5.9578739E+00 1.2967711E+00 1.8478446E+00
 6.0348204E+00 1.2791018E+00 1.8542478E+00
 6.1122044E+00 1.2600586E+00 1.8594861E+00
 6.1895481E+00 1.2396002E+00 1.8633060E+00
 6.2663495E+00 1.2177153E+00 1.8654659E+00
 6.3420952E+00 1.1944241E+00 1.8657396E+00
 6.4162767E+00 1.1697799E+00 1.8639216E+00
 6.4884085E+00 1.1438695E+00 1.8598350E+00
 6.5580471E+00 1.1168097E+00 1.8533413E+00
 6.6248075E+00 1.0887393E+00 1.8443496E+00
 6.6883858E+00 1.0598042E+00 1.8328194E+00
 6.7486111E+00 1.0301537E+00 1.8187428E+00
 6.8056173E+00 9.9999996E-01 1.8020706E+00
 6.8603803E+00 9.6985477E-01 1.7824611E+00
 5.4618640E+00 1.3565900E+00 1.8067707E+00
 5.5287800E+00 1.3433582E+00 1.8151534E+00
 5.5973743E+00 1.3302045E+00 1.8234758E+00
 5.6678521E+00 1.3164344E+00 1.8318623E+00
 5.7402215E+00 1.3017547E+00 1.8402012E+00
 5.8143194E+00 1.2860227E+00 1.8482781E+00
 5.8898731E+00 1.2691270E+00 1.8558416E+00
 5.9665206E+00 1.2509775E+00 1.8626220E+00
 6.0438390E+00 1.2315055E+00 1.8683459E+00
 6.1213605E+00 1.2106695E+00 1.8727454E+00
 6.1985864E+00 1.1884583E+00 1.8755653E+00
 6.2750005E+00 1.1648926E+00 1.8765681E+00
 6.3500841E+00 1.1400264E+00 1.8755377E+00
 6.4233338E+00 1.1139462E+00 1.8722860E+00
 6.4942812E+00 1.0867675E+00 1.8666602E+00
 6.5625148E+00 1.0586250E+00 1.8585505E+00
 6.6277080E+00 1.0296573E+00 1.8478926E+00
 6.6896810E+00 9.9999996E-01 1.8346514E+00
 6.7486111E+00 9.6984623E-01 1.8187428E+00
 6.8054972E+00 9.3968487E-01 1.7998423E+00
 5.4631462E+00 1.3202996E+00 1.8219144E+00
 5.5312801E+00 1.3056631E+00 1.8301377E+00
 5.6010160E+00 1.2910126E+00 1.8382946E+00
 5.6725312E+00 1.2756644E+00 1.8464530E+00
 5.7458114E+00 1.2593452E+00 1.8544670E+00
 5.8206786E+00 1.2419195E+00 1.8621033E+00
 5.8968289E+00 1.2232944E+00 1.8690918E+00
 5.9738730E+00 1.2034007E+00 1.8751501E+00
 6.0513608E+00 1.1821956E+00 1.8799962E+00
 6.1288029E+00 1.1596669E+00 1.8833600E+00
 6.2056848E+00 1.1358348E+00 1.8849901E+00
 6.2814834E+00 1.1107530E+00 1.8846590E+00
 6.3556826E+00 1.0845073E+00 1.8821676E+00
 6.4277943E+00 1.0572116E+00 1.8773512E+00
 6.4973809E+00 1.0289981E+00 1.8700844E+00
 6.5640871E+00 9.9999996E-01 1.8602839E+00
 6.6277080E+00 9.7034263E-01 1.8478926E+00
 6.6883858E+00 9.4019572E-01 1.8328194E+00
 6.7470701E+00 9.0999572E-01 1.8147787E+00
 5.4643434E+00 1.2821380E+00 1.8358393E+00
 5.5335711E+00 1.2661256E+00 1.8437491E+00
 5.6043001E+00 1.2499769E+00 1.8515823E+00
 5.6766862E+00 1.2330537E+00 1.8593434E+00
 5.7506955E+00 1.2151071E+00 1.8668537E+00
 5.8261243E+00 1.1960218E+00 1.8738596E+00
 5.9026422E+00 1.1757254E+00 1.8800772E+00
 5.9798335E+00 1.1541743E+00 1.8852149E+00
 6.0572263E+00 1.1313544E+00 1.8889881E+00
 6.1343152E+00 1.1072846E+00 1.8911303E+00
 6.2105778E+00 1.0820171E+00 1.8914003E+00
 6.2854928E+00 1.0556363E+00 1.8895878E+00
 6.3585581E+00 1.0282542E+00 1.8855165E+00
 6.4293151E+00 9.9999996E-01 1.8790486E+00
 6.4973809E+00 9.7100186E-01 1.8700844E+00
 6.5625148E+00 9.4137491E-01 1.8585505E+00
 6.6248075E+00 9.1126061E-01 1.8443496E+00
 6.6851084E+00 8.8102385E-01 1.8272391E+00
 5.4654384E+00 1.2421888E+00 1.8483283E+00
 5.5356229E+00 1.2248284E+00 1.8557732E+00
 5.6071799E+00 1.2072004E+00 1.8631188E+00
 5.6802484E+00 1.1887316E+00 1.8703065E+00
 5.7547742E+00 1.1692065E+00 1.8771276E+00
 5.8305298E+00 1.1485337E+00 1.8833118E+00
 5.9071605E+00 1.1266665E+00 1.8885656E+00
 5.9842290E+00 1.1035891E+00 1.8925941E+00
 6.0612476E+00 1.0793181E+00 1.8951160E+00
 6.1377024E+00 1.0539037E+00 1.8958752E+00
 6.2130722E+00 1.0274279E+00 1.8946471E+00
 6.2868487E+00 9.9999996E-01 1.8912442E+00
 6.3585581E+00 9.7174567E-01 1.8855165E+00
 6.4277943E+00 9.4278832E-01 1.8773512E+00
 6.4942812E+00 9.1323247E-01 1.8666602E+00
 6.5580471E+00 8.8319021E-01 1.8533413E+00
 6.6198184E+00 8.5294890E-01 1.8371865E+00
 5.4664011E+00 1.2006093E+00 1.8591564E+00
 5.5373812E+00 1.1819450E+00 1.8659849E+00
 5.6095810E+00 1.1628847E+00 1.8726760E+00
 5.6831235E+00 1.1429335E+00 1.8791130E+00
 5.7579360E+00 1.1219158E+00 1.8850619E+00
 5.8337694E+00 1.0997686E+00 1.8902406E+00
 5.9102490E+00 1.0764729E+00 1.8943515E+00
 5.9869217E+00 1.0520428E+00 1.8971026E+00
 6.0632914E+00 1.0265255E+00 1.8982224E+00
 6.1388445E+00 9.9999996E-01 1.8974713E+00
 6.2130722E+00 9.7257205E-01 1.8946471E+00
 6.2854928E+00 9.4436358E-01 1.8895878E+00
 6.3556826E+00 9.1549265E-01 1.8821676E+00
 6.4233338E+00 8.8605371E-01 1.8722860E+00
 6.4884085E+00 8.5613044E-01 1.8598350E+00
 6.5514952E+00 8.2593366E-01 1.8446322E+00
 5.4672021E+00 1.1576091E+00 1.8681119E+00
 5.5387978E+00 1.1377120E+00 1.8741746E+00
 5.6114385E+00 1.1172998E+00 1.8800466E+00
 5.6852334E+00 1.0959662E+00 1.8855615E+00
 5.7600929E+00 1.0735812E+00 1.8904660E+00
 5.8357503E+00 1.0501128E+00 1.8944720E+00
 5.9118160E+00 1.0255711E+00 1.8972840E+00
 5.9878285E+00 9.9999996E-01 1.8986194E+00
 6.0632914E+00 9.7347443E-01 1.8982224E+00
 6.1377024E+00 9.4609625E-01 1.8958752E+00
 6.2105778E+00 9.1798282E-01 1.8914003E+00
 6.2814834E+00 8.8924696E-01 1.8846590E+00
 6.3500841E+00 8.5997356E-01 1.8755377E+00
 6.4162767E+00 8.3022001E-01 1.8639216E+00
 6.4804983E+00 8.0012463E-01 1.8496454E+00
 5.4678214E+00 1.1134467E+00 1.8750082E+00
 5.5398362E+00 1.0924191E+00 1.8801631E+00
 5.6127042E+00 1.0707693E+00 1.8850610E+00
 5.6865220E+00 1.0481898E+00 1.8894963E+00
 5.7611861E+00 1.0246000E+00 1.8932035E+00
 5.8364167E+00 9.9999996E-01 1.8958952E+00
 5.9118160E+00 9.7442879E-01 1.8972840E+00
 5.9869217E+00 9.4795710E-01 1.8971026E+00
 6.0612476E+00 9.2068178E-01 1.8951160E+00
 6.1343152E+00 8.9271529E-01 1.8911303E+00
 6.2056848E+00 8.6416510E-01 1.8849901E+00
 6.2750005E+00 8.3510735E-01 1.8765681E+00
 6.3420952E+00 8.0557584E-01 1.8657396E+00
 6.4072469E+00 7.7564217E-01 1.8523477E+00
 5.4682431E+00 1.0684221E+00 1.8796946E+00
 5.5404699E+00 1.0463958E+00 1.8838135E+00
 5.6133453E+00 1.0236554E+00 1.8875993E+00
 5.6869553E+00 9.9999995E-01 1.8908191E+00
 5.7611861E+00 9.7539988E-01 1.8932035E+00
 5.8357503E+00 9.4988714E-01 1.8944720E+00
 5.9102490E+00 9.2352702E-01 1.8943515E+00
 5.9842290E+00 8.9641083E-01 1.8925941E+00
 6.0572263E+00 8.6864547E-01 1.8889881E+00
 6.1288029E+00 8.4033300E-01 1.8833601E+00
 6.1985864E+00 8.1154165E-01 1.8755653E+00
 6.2663495E+00 7.8228460E-01 1.8654659E+00
 6.3322059E+00 7.5257384E-01 1.8529035E+00
 5.4684566E+00 1.0228670E+00 1.8820652E+00
 5.5406830E+00 9.9999995E-01 1.8850401E+00
 5.6133453E+00 9.7634446E-01 1.8875993E+00
 5.6865220E+00 9.5181007E-01 1.8894963E+00
 5.7600929E+00 9.2641868E-01 1.8904660E+00
 5.8337694E+00 9.0023131E-01 1.8902406E+00
 5.9071605E+00 8.7333343E-01 1.8885656E+00
 5.9798335E+00 8.4582563E-01 1.8852149E+00
 6.0513608E+00 8.1780429E-01 1.8799962E+00
 6.1213605E+00 7.8933039E-01 1.8727454E+00
 6.1895481E+00 7.6039970E-01 1.8633060E+00
 6.2558710E+00 7.3097214E-01 1.8515085E+00
 5.4684566E+00 9.7713285E-01 1.8820652E+00
 5.5404699E+00 9.5360414E-01 1.8838135E+00
 5.6127042E+00 9.2923061E-01 1.8850610E+00
 5.6852334E+00 9.0403374E-01 1.8855616E+00
 5.7579360E+00 8.7808410E-01 1.8850619E+00
 5.8305298E+00 8.5146619E-01 1.8833118E+00
 5.9026422E+00 8.2427453E-01 1.8800772E+00
 5.9738730E+00 7.9659926E-01 1.8751502E+00
 6.0438390E+00 7.6849445E-01 1.8683459E+00
 6.1122044E+00 7.3994134E-01 1.8594861E+00
 6.1787506E+00 7.1085570E-01 1.8483801E+00
 5.4682430E+00 9.3157777E-01 1.8796946E+00
 5.5398362E+00 9.0758079E-01 1.8801631E+00
 5.6114385E+00 8.8270011E-01 1.8800466E+00
 5.6831235E+00 8.5706643E-01 1.8791130E+00
 5.7547742E+00 8.3079343E-01 1.8771276E+00
 5.8261243E+00 8.0397816E-01 1.8738596E+00
 5.8968289E+00 7.7670550E-01 1.8690918E+00
 5.9665206E+00 7.4902245E-01 1.8626221E+00
 6.0348204E+00 7.2089808E-01 1.8542479E+00
 6.1013486E+00 6.9221139E-01 1.8437498E+00
 5.4678214E+00 8.8655321E-01 1.8750082E+00
 5.5387978E+00 8.6228790E-01 1.8741746E+00
 5.6095810E+00 8.3711518E-01 1.8726760E+00
 5.6802484E+00 8.1126832E-01 1.8703065E+00
 5.7506955E+00 7.8489277E-01 1.8668537E+00
 5.8206786E+00 7.5808043E-01 1.8621033E+00
 5.8898731E+00 7.3087295E-01 1.8558416E+00
 5.9578739E+00 7.0322880E-01 1.8478446E+00
 6.0241502E+00 6.7499700E-01 1.8378588E+00
 5.4672021E+00 8.4239080E-01 1.8681119E+00
 5.5373811E+00 8.1805491E-01 1.8659849E+00
 5.6071798E+00 7.9279950E-01 1.8631188E+00
 5.6766862E+00 7.6694624E-01 1.8593434E+00
 5.7458114E+00 7.4065467E-01 1.8544671E+00
 5.8143193E+00 7.1397720E-01 1.8482781E+00
 5.8818068E+00 6.8686543E-01 1.8405365E+00
 5.9476109E+00 6.5914377E-01 1.8309551E+00
 5.4664010E+00 7.9939057E-01 1.8591564E+00
 5.5356229E+00 7.7517151E-01 1.8557732E+00
 5.6043001E+00 7.5002302E-01 1.8515824E+00
 5.6725311E+00 7.2433547E-01 1.8464531E+00
 5.7402214E+00 6.9824525E-01 1.8402012E+00
 5.8070138E+00 6.7171727E-01 1.8325853E+00
 5.8721460E+00 6.4455963E-01 1.8232889E+00
 5.4654384E+00 7.5781108E-01 1.8483283E+00
 5.5335711E+00 7.3387433E-01 1.8437491E+00
 5.6010160E+00 7.0898733E-01 1.8382946E+00
 5.6678521E+00 6.8356554E-01 1.8318624E+00
 5.7338259E+00 6.5767524E-01 1.8242432E+00
 5.7981231E+00 6.3113351E-01 1.8151073E+00
 5.4643434E+00 7.1786192E-01 1.8358394E+00
 5.5312801E+00 6.9433684E-01 1.8301377E+00
 5.5973743E+00 6.6979541E-01 1.8234758E+00
 5.6625017E+00 6.4462034E-01 1.8157455E+00
 5.7258485E+00 6.1874245E-01 1.8066460E+00
 5.4631462E+00 6.7970025E-01 1.8219144E+00
 5.5287799E+00 6.5664167E-01 1.8151535E+00
 5.5931691E+00 6.3239646E-01 1.8072807E+00
 5.6555651E+00 6.0725382E-01 1.7981189E+00
 5.4618639E+00 6.4340994E-01 1.8067708E+00
 5.5258974E+00 6.2075456E-01 1.7989591E+00
 5.5874576E+00 5.9653538E-01 1.7897128E+00
 5.4603770E+00 6.0897256E-01 1.7905879E+00
 5.5215745E+00 5.8635032E-01 1.7815128E+00
 5.4582025E+00 5.7631597E-01 1.7734999E+00
 5.3616989E+00 1.4836983E+00 1.7339871E+00
 5.3235592E+00 1.5067004E+00 1.7172575E+00
 5.2837567E+00 1.5303408E+00 1.6990960E+00
 5.2424459E+00 1.5545000E+00 1.6794756E+00
 5.1997761E+00 1.5790780E+00 1.6583674E+00
 5.1559766E+00 1.6039752E+00 1.6357313E+00
 5.1112760E+00 1.6290975E+00 1.6115082E+00
 5.0659359E+00 1.6543220E+00 1.5856455E+00
 5.0202581E+00 1.6794974E+00 1.5580974E+00
 4.9745763E+00 1.7044392E+00 1.5288322E+00
 4.9292444E+00 1.7289313E+00 1.4978377E+00
 4.8846233E+00 1.7527300E+00 1.4651290E+00
 4.8410667E+00 1.7755713E+00 1.4307564E+00
 4.7989073E+00 1.7971827E+00 1.3948130E+00
 4.7584446E+00 1.8172969E+00 1.3574394E+00
 4.7199349E+00 1.8356679E+00 1.3188236E+00
 4.6835840E+00 1.8520860E+00 1.2791971E+00
 4.6495443E+00 1.8663897E+00 1.2388250E+00
 4.6179159E+00 1.8784740E+00 1.1979937E+00
 4.5887602E+00 1.8882913E+00 1.1569989E+00
 4.5621362E+00 1.8958447E+00 1.1161638E+00
 4.5381001E+00 1.9011856E+00 1.0758125E+00
 4.5167803E+00 1.9044117E+00 1.0364134E+00
 3.8071312E+00 1.0857857E+00 1.7518245E+00
 3.7983378E+00 1.1417001E+00 1.7377576E+00
 3.7925418E+00 1.1990547E+00 1.7205985E+00
 3.7906845E+00 1.2578513E+00 1.7005064E+00
 3.7932795E+00 1.3176950E+00 1.6774322E+00
 3.8007112E+00 1.3780094E+00 1.6513321E+00
 3.8132884E+00 1.4381022E+00 1.6222286E+00
 3.8312309E+00 1.4971944E+00 1.5902346E+00
 3.8546372E+00 1.5544502E+00 1.5555605E+00
 3.8834587E+00 1.6090167E+00 1.5185152E+00
 3.9174841E+00 1.6600721E+00 1.4795025E+00
 3.9563369E+00 1.7068779E+00 1.4390096E+00
 3.9994880E+00 1.7488314E+00 1.3975874E+00
 4.0462832E+00 1.7855107E+00 1.3558228E+00
 4.0959846E+00 1.8167058E+00 1.3143064E+00
 4.1478203E+00 1.8424302E+00 1.2735961E+00
 4.2010356E+00 1.8629087E+00 1.2341856E+00
 4.2549413E+00 1.8785449E+00 1.1964778E+00
 4.3089424E+00 1.8898711E+00 1.1607722E+00
 4.3625614E+00 1.8974933E+00 1.1272503E+00
 4.4154014E+00 1.9020430E+00 1.0959071E+00
 4.4670164E+00 1.9041481E+00 1.0663589E+00
 3.8571314E+00 1.1196509E+00 1.7765921E+00
 3.8512212E+00 1.1772933E+00 1.7622883E+00
 3.8482278E+00 1.2355529E+00 1.7446980E+00
 3.8492662E+00 1.2947396E+00 1.7240139E+00
 3.8548659E+00 1.3545324E+00 1.7001920E+00
 3.8653620E+00 1.4143403E+00 1.6731915E+00
 3.8809931E+00 1.4734319E+00 1.6430551E+00
 3.9018928E+00 1.5309918E+00 1.6099324E+00
 3.9280618E+00 1.5861698E+00 1.5740823E+00
 3.9593473E+00 1.6381318E+00 1.5358710E+00
 3.9954367E+00 1.6861130E+00 1.4957624E+00
 4.0358655E+00 1.7294720E+00 1.4542998E+00
 4.0800418E+00 1.7677385E+00 1.4120806E+00
 4.1272830E+00 1.8006474E+00 1.3697217E+00
 4.1768625E+00 1.8281546E+00 1.3278235E+00
 4.2280591E+00 1.8504295E+00 1.2869328E+00
 4.2802045E+00 1.8678263E+00 1.2475126E+00
 4.3327239E+00 1.8808380E+00 1.2099174E+00
 4.3851661E+00 1.8900457E+00 1.1743556E+00
 4.4371622E+00 1.8960740E+00 1.1407974E+00
 4.4883607E+00 1.8995741E+00 1.1085675E+00
 3.9120354E+00 1.1523684E+00 1.7985649E+00
 3.9088852E+00 1.2107812E+00 1.7837554E+00
 3.9087180E+00 1.2694717E+00 1.7655528E+00
 3.9126625E+00 1.3286807E+00 1.7440972E+00
 3.9212252E+00 1.3880665E+00 1.7193415E+00
 3.9346823E+00 1.4469991E+00 1.6912634E+00
 3.9531952E+00 1.5047102E+00 1.6599420E+00
 3.9768079E+00 1.5603663E+00 1.6255765E+00
 4.0054238E+00 1.6131285E+00 1.5884860E+00
 4.0387941E+00 1.6622108E+00 1.5491015E+00
 4.0765213E+00 1.7069357E+00 1.5079502E+00
 4.1180781E+00 1.7467851E+00 1.4656296E+00
 4.1628405E+00 1.7814381E+00 1.4227749E+00
 4.2101301E+00 1.8107907E+00 1.3800202E+00
 4.2592612E+00 1.8349534E+00 1.3379591E+00
 4.3095882E+00 1.8542266E+00 1.2971089E+00
 4.3605476E+00 1.8690590E+00 1.2578789E+00
 4.4116911E+00 1.8799993E+00 1.2205299E+00
 4.4626624E+00 1.8876614E+00 1.1850432E+00
 4.5130599E+00 1.8927129E+00 1.1508053E+00
 3.9715600E+00 1.1841692E+00 1.8170787E+00
 3.9711508E+00 1.2427866E+00 1.8015221E+00
 3.9738352E+00 1.3014102E+00 1.7825021E+00
 3.9806899E+00 1.3601725E+00 1.7600957E+00
 3.9921543E+00 1.4186688E+00 1.7342555E+00
 4.0084309E+00 1.4762328E+00 1.7049914E+00
 4.0295967E+00 1.5320786E+00 1.6724319E+00
 4.0556053E+00 1.5853824E+00 1.6368368E+00
 4.0862708E+00 1.6353504E+00 1.5985917E+00
 4.1212649E+00 1.6812785E+00 1.5581934E+00
 4.1601309E+00 1.7226066E+00 1.5162263E+00
 4.2023103E+00 1.7589597E+00 1.4733294E+00
 4.2471811E+00 1.7901724E+00 1.4301575E+00
 4.2941005E+00 1.8162908E+00 1.3873394E+00
 4.3424511E+00 1.8375538E+00 1.3454385E+00
 4.3916833E+00 1.8543558E+00 1.3049169E+00
 4.4413547E+00 1.8672036E+00 1.2660857E+00
 4.4911044E+00 1.8766845E+00 1.2289925E+00
 4.5405073E+00 1.8834719E+00 1.1931105E+00
 4.0353954E+00 1.2147812E+00 1.8316603E+00
 4.0377189E+00 1.2731247E+00 1.8151473E+00
 4.0432540E+00 1.3311956E+00 1.7951324E+00