# TIME = 1.900000
variables = x, y, z
zone N=5762 E=11520 F=FEPOINT ET=TRIANGLE
 5.2542630E+00 1.4621969E+00 1.7475757E+00
 5.2542630E+00 1.4621969E+00 2.5242435E-01
 5.2542630E+00 5.3780313E-01 1.7475757E+00
 5.2542631E+00 5.3780319E-01 2.5242443E-01
 3.6360618E+00 1.0000000E+00 1.7342079E+00
 6.8641410E+00 1.0000000E+00 1.7195146E+00
 3.6360619E+00 1.0000000E+00 2.6579222E-01
 6.8641410E+00 1.0000000E+00 2.8048545E-01
 4.3589973E+00 1.9039537E+00 1.0000000E+00
 4.3589973E+00 9.6046164E-02 1.0000000E+00
 6.1480651E+00 1.8936320E+00 1.0000000E+00
 6.1480651E+00 1.0636809E-01 1.0000000E+00
 5.1986122E+00 1.4533550E+00 1.7518336E+00
 5.1372595E+00 1.4437013E+00 1.7568556E+00
 5.0728996E+00 1.4337658E+00 1.7625117E+00
 5.0058929E+00 1.4235675E+00 1.7689114E+00
 4.9364439E+00 1.4130987E+00 1.7761254E+00
 4.8647974E+00 1.4023010E+00 1.7842001E+00
 4.7911877E+00 1.3910731E+00 1.7931275E+00
 4.7159176E+00 1.3792752E+00 1.8028186E+00
 4.6393314E+00 1.3667223E+00 1.8130848E+00
 4.5618094E+00 1.3531904E+00 1.8236211E+00
 4.4837557E+00 1.3384253E+00 1.8339995E+00
 4.4055907E+00 1.3221622E+00 1.8436763E+00
 4.3277501E+00 1.3041509E+00 1.8520157E+00
 4.2506889E+00 1.2841867E+00 1.8583329E+00
 4.1748908E+00 1.2621419E+00 1.8619538E+00
 4.1008751E+00 1.2379916E+00 1.8622834E+00
 4.0291948E+00 1.2118280E+00 1.8588717E+00
 3.9604167E+00 1.1838590E+00 1.8514617E+00
 3.8950831E+00 1.1543875E+00 1.8400086E+00
 3.8336685E+00 1.1237825E+00 1.8246690E+00
 3.7765658E+00 1.0924508E+00 1.8057760E+00
 3.7241124E+00 1.0608386E+00 1.7838117E+00
 3.6766252E+00 1.0294473E+00 1.7594030E+00
 5.1927400E+00 5.7809444E-01 1.7698157E+00
 5.1296501E+00 5.8924075E-01 1.7751579E+00
 5.0639196E+00 6.0042168E-01 1.7809968E+00
 4.9958392E+00 6.1186372E-01 1.7875417E+00
 4.9254707E+00 6.2368245E-01 1.7949081E+00
 4.8530130E+00 6.3594376E-01 1.8031229E+00
 4.7787365E+00 6.4875823E-01 1.8121533E+00
 4.7029684E+00 6.6227393E-01 1.8218784E+00
 4.6260830E+00 6.7667784E-01 1.8320708E+00
 4.5484837E+00 6.9218710E-01 1.8423834E+00
 4.4705936E+00 7.0903440E-01 1.8523471E+00
 4.3928468E+00 7.2744625E-01 1.8613846E+00
 4.3156879E+00 7.4761652E-01 1.8688410E+00
 4.2395758E+00 7.6967792E-01 1.8740338E+00
 4.1649920E+00 7.9367671E-01 1.8763154E+00
 4.0924457E+00 8.1955578E-01 1.8751411E+00
 4.0224683E+00 8.4715084E-01 1.8701290E+00
 3.9555886E+00 8.7620475E-01 1.8610974E+00
 3.8922972E+00 9.0639427E-01 1.8480739E+00
 3.8329925E+00 9.3737310E-01 1.8312687E+00
 3.7778794E+00 9.6876675E-01 1.8109924E+00
 3.7266505E+00 1.0000000E+00 1.7874314E+00
 5.1909950E+00 6.1048236E-01 1.7866655E+00
 5.1259639E+00 6.2315547E-01 1.7921818E+00
 5.0589081E+00 6.3563225E-01 1.7980602E+00
 4.9895576E+00 6.4845501E-01 1.8046533E+00
 4.9180345E+00 6.6173414E-01 1.8120502E+00
 4.8445195E+00 6.7556809E-01 1.8202746E+00
 4.7693148E+00 6.9007370E-01 1.8292678E+00
 4.6927808E+00 7.0540664E-01 1.8388774E+00
 4.6153233E+00 7.2175256E-01 1.8488362E+00
 4.5373742E+00 7.3931627E-01 1.8587536E+00
 4.4593798E+00 7.5830340E-01 1.8681182E+00
 4.3817923E+00 7.7889660E-01 1.8763194E+00
 4.3050693E+00 8.0122962E-01 1.8826850E+00
 4.2296769E+00 8.2536208E-01 1.8865382E+00
 4.1560976E+00 8.5126127E-01 1.8872628E+00
 4.0848312E+00 8.7879427E-01 1.8843695E+00
 4.0163852E+00 9.0773712E-01 1.8775485E+00
 3.9512441E+00 9.3779916E-01 1.8666950E+00
 3.8898055E+00 9.6866693E-01 1.8518943E+00
 3.8322371E+00 1.0000000E+00 1.8333403E+00
 3.7778794E+00 1.0312333E+00 1.8109924E+00
 5.1896255E+00 6.4464975E-01 1.8026673E+00
 5.1232754E+00 6.5860071E-01 1.8080864E+00
 5.0549151E+00 6.7245741E-01 1.8139031E+00
 4.9843858E+00 6.8671461E-01 1.8204106E+00
 4.9117512E+00 7.0153111E-01 1.8277032E+00
 4.8372432E+00 7.1700550E-01 1.8357816E+00
 4.7611887E+00 7.3326558E-01 1.8445638E+00
 4.6839842E+00 7.5046661E-01 1.8538632E+00
 4.6060664E+00 7.6878618E-01 1.8633735E+00
 4.5278942E+00 7.8840809E-01 1.8726633E+00
 4.4499354E+00 8.0950213E-01 1.8811855E+00
 4.3726577E+00 8.3219979E-01 1.8883058E+00
 4.2965280E+00 8.5657001E-01 1.8933481E+00
 4.2220149E+00 8.8259951E-01 1.8956554E+00
 4.1495949E+00 9.1018197E-01 1.8946563E+00
 4.0797482E+00 9.3912254E-01 1.8899266E+00
 4.0129422E+00 9.6915833E-01 1.8812306E+00
 3.9495752E+00 1.0000000E+00 1.8685264E+00
 3.8898055E+00 1.0313331E+00 1.8518943E+00
 3.8329925E+00 1.0626269E+00 1.8312687E+00
 5.1883890E+00 6.8071933E-01 1.8176804E+00
 5.1208245E+00 6.9595874E-01 1.8228723E+00
 5.0513188E+00 7.1119439E-01 1.8284785E+00
 4.9797234E+00 7.2692546E-01 1.8347567E+00
 4.9061333E+00 7.4330460E-01 1.8417788E+00
 4.8308043E+00 7.6044194E-01 1.8495275E+00
 4.7541005E+00 7.7846541E-01 1.8578930E+00
 4.6764495E+00 7.9752569E-01 1.8666559E+00
 4.5983173E+00 8.1778397E-01 1.8754735E+00
 4.5201853E+00 8.3939474E-01 1.8838805E+00
 4.4425374E+00 8.6248390E-01 1.8913048E+00
 4.3658507E+00 8.8712557E-01 1.8971035E+00
 4.2905937E+00 9.1332183E-01 1.9006128E+00
 4.2172286E+00 9.4098955E-01 1.9012121E+00
 4.1462127E+00 9.6996090E-01 1.8983873E+00
 4.0779891E+00 1.0000000E+00 1.8917844E+00
 4.0129422E+00 1.0308417E+00 1.8812306E+00
 3.9512441E+00 1.0622009E+00 1.8666950E+00
 3.8922972E+00 1.0936058E+00 1.8480739E+00
 5.1872254E+00 7.1869347E-01 1.8315058E+00
 5.1185682E+00 7.3521114E-01 1.8363334E+00
 5.0480586E+00 7.5183930E-01 1.8415841E+00
 4.9755676E+00 7.6904828E-01 1.8474705E+00
 4.9012139E+00 7.8699041E-01 1.8540432E+00
 4.8252856E+00 8.0577643E-01 1.8612629E+00
 4.7481784E+00 8.2553187E-01 1.8689929E+00
 4.6703497E+00 8.4639504E-01 1.8769827E+00
 4.5922888E+00 8.6850352E-01 1.8848593E+00
 4.5144942E+00 8.9197481E-01 1.8921333E+00
 4.4374590E+00 9.1688478E-01 1.8982212E+00
 4.3616613E+00 9.4324734E-01 1.9024873E+00
 4.2875626E+00 9.7099985E-01 1.9042972E+00
 4.2156061E+00 1.0000000E+00 1.9030803E+00
 4.1462127E+00 1.0300391E+00 1.8983873E+00
 4.0797482E+00 1.0608775E+00 1.8899266E+00
 4.0163852E+00 1.0922629E+00 1.8775486E+00
 3.9555885E+00 1.1237953E+00 1.8610974E+00
 5.1861773E+00 7.5848134E-01 1.8439194E+00
 5.1165629E+00 7.7625796E-01 1.8482420E+00
 5.0452147E+00 7.9426159E-01 1.8529814E+00
 4.9720185E+00 8.1292368E-01 1.8583041E+00
 4.8971188E+00 8.3238990E-01 1.8642384E+00
 4.8208339E+00 8.5276867E-01 1.8707226E+00
 4.7435882E+00 8.7417667E-01 1.8775946E+00
 4.6658637E+00 8.9673386E-01 1.8845775E+00
 4.5881673E+00 9.2054744E-01 1.8912760E+00
 4.5110070E+00 9.4569230E-01 1.8971880E+00
 4.4348771E+00 9.7219138E-01 1.9017338E+00
 4.3602481E+00 1.0000000E+00 1.9043005E+00
 4.2875626E+00 1.0290002E+00 1.9042972E+00
 4.2172286E+00 1.0590105E+00 1.9012121E+00
 4.1495949E+00 1.0898180E+00 1.8946563E+00
 4.0848312E+00 1.1212057E+00 1.8843696E+00
 4.0224683E+00 1.1528492E+00 1.8701291E+00
 5.1852613E+00 7.9991628E-01 1.8546900E+00
 5.1148523E+00 8.1890745E-01 1.8583642E+00
 5.0428507E+00 8.3823986E-01 1.8624325E+00
 4.9691607E+00 8.5829497E-01 1.8670168E+00
 4.8939507E+00 8.7920765E-01 1.8721229E+00
 4.8175663E+00 9.0107906E-01 1.8776682E+00
 4.7404561E+00 9.2401196E-01 1.8834682E+00
 4.6631203E+00 9.4810215E-01 1.8892262E+00
 4.5860759E+00 9.7342164E-01 1.8945342E+00
 4.5098326E+00 1.0000000E+00 1.8988908E+00
 4.4348771E+00 1.0278087E+00 1.9017338E+00
 4.3616613E+00 1.0567527E+00 1.9024874E+00
 4.2905937E+00 1.0866782E+00 1.9006129E+00
 4.2220149E+00 1.1174005E+00 1.8956555E+00
 4.1560976E+00 1.1487388E+00 1.8872628E+00
 4.0924457E+00 1.1804443E+00 1.8751412E+00
 5.1845027E+00 8.4278556E-01 1.8636034E+00
 5.1134775E+00 8.6291823E-01 1.8664874E+00
 5.0410253E+00 8.8349750E-01 1.8697264E+00
 4.9670663E+00 9.0484728E-01 1.8734017E+00
 4.8917919E+00 9.2708658E-01 1.8774980E+00
 4.8155702E+00 9.5030513E-01 1.8819142E+00
 4.7388683E+00 9.7458707E-01 1.8864482E+00
 4.6621972E+00 1.0000000E+00 1.8907915E+00
 4.5860759E+00 1.0265784E+00 1.8945342E+00
 4.5110070E+00 1.0543077E+00 1.8971881E+00
 4.4374590E+00 1.0831153E+00 1.8982213E+00
 4.3658507E+00 1.1128745E+00 1.8971036E+00
 4.2965280E+00 1.1434300E+00 1.8933482E+00
 4.2296769E+00 1.1746380E+00 1.8865384E+00
 4.1649920E+00 1.2063233E+00 1.8763155E+00
 5.1839167E+00 8.8682721E-01 1.8704703E+00
 5.1124707E+00 9.0799652E-01 1.8724297E+00
 5.0397821E+00 9.2970666E-01 1.8746910E+00
 4.9657877E+00 9.5221523E-01 1.8772996E+00
 4.8906980E+00 9.7562152E-01 1.8802223E+00
 4.8148989E+00 1.0000000E+00 1.8833430E+00
 4.7388683E+00 1.0254130E+00 1.8864483E+00
 4.6631203E+00 1.0518979E+00 1.8892263E+00
 4.5881673E+00 1.0794526E+00 1.8912761E+00
 4.5144942E+00 1.1080252E+00 1.8921335E+00
 4.4425374E+00 1.1375162E+00 1.8913050E+00
 4.3726577E+00 1.1678003E+00 1.8883060E+00
 4.3050693E+00 1.1987704E+00 1.8826852E+00
 4.2395758E+00 1.2303221E+00 1.8740340E+00
 5.1835182E+00 9.3173888E-01 1.8751382E+00
 5.1118564E+00 9.5381067E-01 1.8760531E+00
 5.0391525E+00 9.7650279E-01 1.8772046E+00
 4.9653578E+00 1.0000000E+00 1.8786103E+00
 4.8906980E+00 1.0243785E+00 1.8802224E+00
 4.8155702E+00 1.0496949E+00 1.8819143E+00
 4.7404561E+00 1.0759881E+00 1.8834683E+00
 4.6658637E+00 1.1032662E+00 1.8845777E+00
 4.5922889E+00 1.1314966E+00 1.8848595E+00
 4.5201853E+00 1.1606053E+00 1.8838807E+00
 4.4499355E+00 1.1904979E+00 1.8811857E+00
 4.3817923E+00 1.2211035E+00 1.8763196E+00
 4.3156879E+00 1.2523836E+00 1.8688412E+00
 5.1833163E+00 9.7718602E-01 1.8774998E+00
 5.1116499E+00 1.0000000E+00 1.8772708E+00
 5.0391525E+00 1.0234972E+00 1.8772047E+00
 4.9657876E+00 1.0477848E+00 1.8772996E+00
 4.8917919E+00 1.0729135E+00 1.8774981E+00
 4.8175663E+00 1.0989210E+00 1.8776684E+00
 4.7435882E+00 1.1258234E+00 1.8775947E+00
 4.6703497E+00 1.1536051E+00 1.8769830E+00
 4.5983173E+00 1.1822161E+00 1.8754737E+00
 4.5278943E+00 1.2115920E+00 1.8726636E+00
 4.4593798E+00 1.2416967E+00 1.8681185E+00
 4.3928469E+00 1.2725538E+00 1.8613848E+00
 5.1833163E+00 1.0228140E+00 1.8774998E+00
 5.1118564E+00 1.0461893E+00 1.8760531E+00
 5.0397820E+00 1.0702934E+00 1.8746910E+00
 4.9670662E+00 1.0951528E+00 1.8734018E+00
 4.8939507E+00 1.1207924E+00 1.8721230E+00
 4.8208339E+00 1.1472314E+00 1.8707228E+00
 4.7481784E+00 1.1744682E+00 1.8689931E+00
 4.6764496E+00 1.2024744E+00 1.8666562E+00
 4.6060665E+00 1.2312139E+00 1.8633738E+00
 4.5373743E+00 1.2606838E+00 1.8587539E+00
 4.4705937E+00 1.2909657E+00 1.8523474E+00
 5.1835182E+00 1.0682611E+00 1.8751382E+00
 5.1124706E+00 1.0920035E+00 1.8724297E+00
 5.0410252E+00 1.1165025E+00 1.8697265E+00
 4.9691606E+00 1.1417051E+00 1.8670169E+00
 4.8971188E+00 1.1676102E+00 1.8642385E+00
 4.8252856E+00 1.1942237E+00 1.8612632E+00
 4.7541005E+00 1.2215347E+00 1.8578933E+00
 4.6839843E+00 1.2495335E+00 1.8538636E+00
 4.6153234E+00 1.2782476E+00 1.8488366E+00
 4.5484838E+00 1.3078130E+00 1.8423837E+00
 5.1839167E+00 1.1131728E+00 1.8704703E+00
 5.1134775E+00 1.1370818E+00 1.8664874E+00
 5.0428506E+00 1.1617602E+00 1.8624326E+00
 4.9720184E+00 1.1870764E+00 1.8583043E+00
 4.9012139E+00 1.2130097E+00 1.8540434E+00
 4.8308043E+00 1.2395582E+00 1.8495278E+00
 4.7611888E+00 1.2667346E+00 1.8445641E+00
 4.6927809E+00 1.2945935E+00 1.8388778E+00
 4.6260831E+00 1.3233223E+00 1.8320712E+00
 5.1845027E+00 1.1572145E+00 1.8636034E+00
 5.1148522E+00 1.1810926E+00 1.8583642E+00
 5.0452146E+00 1.2057384E+00 1.8529814E+00
 4.9755675E+00 1.2309518E+00 1.8474706E+00
 4.9061333E+00 1.2566955E+00 1.8417790E+00
 4.8372432E+00 1.2829946E+00 1.8357819E+00
 4.7693148E+00 1.3099265E+00 1.8292681E+00
 4.7029685E+00 1.3377262E+00 1.8218788E+00
 5.1852613E+00 1.2000837E+00 1.8546900E+00
 5.1165628E+00 1.2237421E+00 1.8482420E+00
 5.0480585E+00 1.2481607E+00 1.8415841E+00
 4.9797233E+00 1.2730746E+00 1.8347569E+00
 4.9117511E+00 1.2984690E+00 1.8277035E+00
 4.8445195E+00 1.3244320E+00 1.8202749E+00
 4.7787366E+00 1.3512419E+00 1.8121536E+00
 5.1861773E+00 1.2415187E+00 1.8439194E+00
 5.1185681E+00 1.2647889E+00 1.8363334E+00
 5.0513187E+00 1.2888056E+00 1.8284785E+00
 4.9843857E+00 1.3132855E+00 1.8204107E+00
 4.9180344E+00 1.3382660E+00 1.8120504E+00
 4.8530130E+00 1.3640564E+00 1.8031232E+00
 5.1872253E+00 1.2813065E+00 1.8315058E+00
 5.1208245E+00 1.3040413E+00 1.8228724E+00
 5.0549150E+00 1.3275426E+00 1.8139031E+00
 4.9895575E+00 1.3515451E+00 1.8046534E+00
 4.9254707E+00 1.3763177E+00 1.7949083E+00
 5.1883889E+00 1.3192807E+00 1.8176804E+00
 5.1232753E+00 1.3413993E+00 1.8080864E+00
 5.0589080E+00 1.3643678E+00 1.7980603E+00
 4.9958391E+00 1.3881364E+00 1.7875419E+00
 5.1896255E+00 1.3553503E+00 1.8026673E+00
 5.1259638E+00 1.3768446E+00 1.7921818E+00
 5.0639195E+00 1.3995784E+00 1.7809968E+00
 5.1909950E+00 1.3895177E+00 1.7866655E+00
 5.1296501E+00 1.4107593E+00 1.7751579E+00
 5.1927400E+00 1.4219056E+00 1.7698157E+00
 5.2543235E+00 1.4349419E+00 1.7637403E+00
 5.2543687E+00 1.4039094E+00 1.7806130E+00
 5.2543824E+00 1.3710213E+00 1.7967912E+00
 5.2543951E+00 1.3360654E+00 1.8121671E+00
 5.2544069E+00 1.2991551E+00 1.8264883E+00
 5.2544189E+00 1.2603881E+00 1.8395216E+00
 5.2544295E+00 1.2199136E+00 1.8510326E+00
 5.2544387E+00 1.1779139E+00 1.8608036E+00
 5.2544462E+00 1.1346272E+00 1.8686349E+00
 5.2544517E+00 1.0903318E+00 1.8743582E+00
 5.2544551E+00 1.0453427E+00 1.8778457E+00
 5.2544562E+00 1.0000000E+00 1.8790173E+00
 5.2544551E+00 9.5465731E-01 1.8778457E+00
 5.2544517E+00 9.0966822E-01 1.8743582E+00
 5.2544462E+00 8.6537279E-01 1.8686349E+00
 5.2544388E+00 8.2208614E-01 1.8608036E+00
 5.2544295E+00 7.8008638E-01 1.8510326E+00
 5.2544189E+00 7.3961192E-01 1.8395216E+00
 5.2544069E+00 7.0084487E-01 1.8264884E+00
 5.2543951E+00 6.6393458E-01 1.8121671E+00
 5.2543824E+00 6.2897872E-01 1.7967912E+00
 5.2543687E+00 5.9609062E-01 1.7806131E+00
 5.2543235E+00 5.6505814E-01 1.7637403E+00
 5.3099442E+00 5.4541327E-01 1.7538741E+00
 5.3712772E+00 5.5383057E-01 1.7610817E+00
 5.4355617E+00 5.6266257E-01 1.7688214E+00
 5.5024408E+00 5.7198757E-01 1.7770236E+00
 5.5717291E+00 5.8190454E-01 1.7855659E+00
 5.6431940E+00 5.9254892E-01 1.7942939E+00
 5.7166180E+00 6.0407637E-01 1.8030137E+00
 5.7917086E+00 6.1664552E-01 1.8114877E+00
 5.8681214E+00 6.3041468E-01 1.8194457E+00
 5.9454594E+00 6.4552961E-01 1.8265949E+00
 6.0232822E+00 6.6211569E-01 1.8326336E+00
 6.1011140E+00 6.8026905E-01 1.8372630E+00
 6.1784524E+00 7.0005075E-01 1.8401983E+00
 6.2547807E+00 7.2148195E-01 1.8411771E+00
 6.3295816E+00 7.4454123E-01 1.8399684E+00
 6.4023546E+00 7.6916258E-01 1.8363811E+00
 6.4726324E+00 7.9523566E-01 1.8302737E+00
 6.5399967E+00 8.2260788E-01 1.8215630E+00
 6.6040893E+00 8.5109026E-01 1.8102300E+00
 6.6646196E+00 8.8046635E-01 1.7963219E+00
 6.7213402E+00 9.1049089E-01 1.7799592E+00
 6.7740011E+00 9.4087972E-01 1.7613448E+00
 6.8222780E+00 9.7126049E-01 1.7408056E+00
 5.3159163E+00 1.4231930E+00 1.7721190E+00
 5.3789551E+00 1.4132153E+00 1.7797388E+00
 5.4445870E+00 1.4030372E+00 1.7877163E+00
 5.5125224E+00 1.3923493E+00 1.7960685E+00
 5.5827101E+00 1.3809614E+00 1.8047120E+00
 5.6549687E+00 1.3687434E+00 1.8134699E+00
 5.7290440E+00 1.3555485E+00 1.8221236E+00
 5.8046208E+00 1.3412295E+00 1.8304134E+00
 5.8813245E+00 1.3256463E+00 1.8380494E+00
 5.9587333E+00 1.3086766E+00 1.8447245E+00
 6.0363855E+00 1.2902244E+00 1.8501281E+00
 6.1137891E+00 1.2702276E+00 1.8539596E+00
 6.1904321E+00 1.2486625E+00 1.8559385E+00
 6.2657962E+00 1.2255475E+00 1.8558147E+00
 6.3393716E+00 1.2009442E+00 1.8533757E+00
 6.4106753E+00 1.1749572E+00 1.8484564E+00
 6.4792666E+00 1.1477312E+00 1.8409473E+00
 6.5447624E+00 1.1194440E+00 1.8308012E+00
 6.6068468E+00 1.0902938E+00 1.8180369E+00
 6.6652870E+00 1.0604835E+00 1.8027330E+00
 6.7200097E+00 1.0302335E+00 1.7849844E+00
 6.7713960E+00 1.0000000E+00 1.7647499E+00
 5.3177261E+00 1.3907596E+00 1.7890808E+00
 5.3826972E+00 1.3791873E+00 1.7969866E+00
 5.4496428E+00 1.3676193E+00 1.8050694E+00
 5.5188339E+00 1.3554497E+00 1.8134972E+00
 5.5901618E+00 1.3425017E+00 1.8221479E+00
 5.6634624E+00 1.3286277E+00 1.8308341E+00
 5.7384524E+00 1.3136911E+00 1.8393104E+00
 5.8147836E+00 1.2975565E+00 1.8472937E+00
 5.8920497E+00 1.2801033E+00 1.8544730E+00
 5.9697991E+00 1.2612346E+00 1.8605253E+00
 6.0475440E+00 1.2408857E+00 1.8651307E+00
 6.1247727E+00 1.2190301E+00 1.8679869E+00
 6.2009601E+00 1.1956828E+00 1.8688198E+00
 6.2755839E+00 1.1709024E+00 1.8673933E+00
 6.3481404E+00 1.1447903E+00 1.8635176E+00
 6.4181638E+00 1.1174875E+00 1.8570574E+00
 6.4852416E+00 1.0891672E+00 1.8479388E+00
 6.5490336E+00 1.0600197E+00 1.8361524E+00
 6.6093041E+00 1.0302317E+00 1.8217430E+00
 6.6660392E+00 1.0000000E+00 1.8047566E+00
 6.7200097E+00 9.6976651E-01 1.7849844E+00
 5.3191252E+00 1.3565090E+00 1.8051891E+00
 5.3854092E+00 1.3435660E+00 1.8130887E+00
 5.4536510E+00 1.3305168E+00 1.8211764E+00
 5.5240118E+00 1.3168095E+00 1.8295450E+00
 5.5964408E+00 1.3022313E+00 1.8380688E+00
 5.6707250E+00 1.2866487E+00 1.8465304E+00
 5.7465567E+00 1.2699317E+00 1.8546621E+00
 5.8235520E+00 1.2519630E+00 1.8621579E+00
 5.9012724E+00 1.2326450E+00 1.8686882E+00
 5.9792375E+00 1.2119103E+00 1.8739181E+00
 6.0569363E+00 1.1897285E+00 1.8775235E+00
 6.1338404E+00 1.1661106E+00 1.8792061E+00
 6.2094169E+00 1.1411115E+00 1.8787044E+00
 6.2831457E+00 1.1148290E+00 1.8758035E+00
 6.3545365E+00 1.0874010E+00 1.8703423E+00
 6.4231489E+00 1.0589972E+00 1.8622206E+00
 6.4886133E+00 1.0298036E+00 1.8514015E+00
 6.5506677E+00 1.0000000E+00 1.8379034E+00
 6.6093041E+00 9.6976836E-01 1.8217430E+00
 6.6652871E+00 9.3951655E-01 1.8027330E+00
 5.3203853E+00 1.3203426E+00 1.8203021E+00
 5.3878794E+00 1.3060049E+00 1.8280601E+00
 5.4572595E+00 1.2914660E+00 1.8359957E+00
 5.5286779E+00 1.2761781E+00 1.8441554E+00
 5.6020535E+00 1.2599469E+00 1.8523814E+00
 5.6771505E+00 1.2426436E+00 1.8604349E+00
 5.7536248E+00 1.2241557E+00 1.8680249E+00
 5.8310610E+00 1.2043870E+00 1.8748263E+00
 5.9089910E+00 1.1832685E+00 1.8804961E+00
 5.9869101E+00 1.1607661E+00 1.8846937E+00
 6.0642901E+00 1.1368863E+00 1.8870978E+00
 6.1405934E+00 1.1116794E+00 1.8874219E+00
 6.2152881E+00 1.0852392E+00 1.8854250E+00
 6.2878657E+00 1.0576992E+00 1.8809204E+00
 6.3578605E+00 1.0292256E+00 1.8737814E+00
 6.4248735E+00 1.0000000E+00 1.8639447E+00
 6.4886133E+00 9.7019644E-01 1.8514015E+00
 6.5490336E+00 9.3998029E-01 1.8361524E+00
 6.6068468E+00 9.0970622E-01 1.8180369E+00
 5.3215711E+00 1.2822585E+00 1.8342226E+00
 5.3901531E+00 1.2665254E+00 1.8416937E+00
 5.4605305E+00 1.2504752E+00 1.8493236E+00
 5.5328365E+00 1.2335992E+00 1.8571039E+00
 5.6069677E+00 1.2157177E+00 1.8648492E+00
 5.6826568E+00 1.1967183E+00 1.8722982E+00
 5.7595289E+00 1.1765084E+00 1.8791411E+00
 5.8371389E+00 1.1550189E+00 1.8850385E+00
 5.9149944E+00 1.1322129E+00 1.8896406E+00
 5.9925729E+00 1.1080927E+00 1.8926084E+00
 6.0693365E+00 1.0827034E+00 1.8936315E+00
 6.1447479E+00 1.0561336E+00 1.8924432E+00
 6.2182858E+00 1.0285121E+00 1.8888302E+00
 6.2894650E+00 1.0000000E+00 1.8826397E+00
 6.3578605E+00 9.7077445E-01 1.8737814E+00
 6.4231489E+00 9.4100283E-01 1.8622206E+00
 6.4852416E+00 9.1083282E-01 1.8479388E+00
 6.5447624E+00 8.8055606E-01 1.8308012E+00
 5.3226406E+00 1.2423494E+00 1.8467228E+00
 5.3921754E+00 1.2252299E+00 1.8537570E+00
 5.4633849E+00 1.2076785E+00 1.8609157E+00
 5.5363890E+00 1.1892370E+00 1.8681374E+00
 5.6110589E+00 1.1697477E+00 1.8752108E+00
 5.6870987E+00 1.1491182E+00 1.8818559E+00
 5.7641050E+00 1.1272810E+00 1.8877484E+00
 5.8416083E+00 1.1041980E+00 1.8925412E+00
 5.9190982E+00 1.0798674E+00 1.8958851E+00
 5.9960422E+00 1.0543290E+00 1.8974509E+00
 6.0719018E+00 1.0276655E+00 1.8969468E+00
 6.1461493E+00 1.0000000E+00 1.8941333E+00
 6.2182858E+00 9.7148796E-01 1.8888302E+00
 6.2878657E+00 9.4230078E-01 1.8809204E+00
 6.3545365E+00 9.1259902E-01 1.8703423E+00
 6.4181638E+00 8.8251254E-01 1.8570574E+00
 6.4792666E+00 8.5226886E-01 1.8409473E+00
 5.3235755E+00 1.2007815E+00 1.8575701E+00
 5.3939006E+00 1.1823109E+00 1.8640125E+00
 5.4657577E+00 1.1632993E+00 1.8705296E+00
 5.5392493E+00 1.1433513E+00 1.8770107E+00
 5.6142238E+00 1.1223364E+00 1.8832225E+00
 5.6903588E+00 1.1001863E+00 1.8888704E+00
 5.7672272E+00 1.0768626E+00 1.8936222E+00
 5.8443415E+00 1.0523603E+00 1.8971303E+00
 5.9211805E+00 1.0267140E+00 1.8990539E+00
 5.9972105E+00 1.0000000E+00 1.8990813E+00
 6.0719018E+00 9.7233449E-01 1.8969468E+00
 6.1447479E+00 9.4386643E-01 1.8924432E+00
 6.2152881E+00 9.1476085E-01 1.8854250E+00
 6.2831457E+00 8.8517099E-01 1.8758035E+00
 6.3481405E+00 8.5520972E-01 1.8635176E+00
 6.4106753E+00 8.2504286E-01 1.8484564E+00
 5.3243502E+00 1.1577691E+00 1.8665476E+00
 5.3952872E+00 1.1380127E+00 1.8722436E+00
 5.4675900E+00 1.1176188E+00 1.8779498E+00
 5.5413455E+00 1.0962629E+00 1.8835133E+00
 5.6163804E+00 1.0738469E+00 1.8886834E+00
 5.6923502E+00 1.0503298E+00 1.8931573E+00
 5.7688099E+00 1.0257044E+00 1.8966013E+00
 5.8452611E+00 1.0000000E+00 1.8986750E+00
 5.9211805E+00 9.7328598E-01 1.8990539E+00
 5.9960422E+00 9.4567105E-01 1.8974509E+00
 6.0693365E+00 9.1729663E-01 1.8936315E+00
 6.1405934E+00 8.8832059E-01 1.8874219E+00
 6.2094169E+00 8.5888853E-01 1.8787044E+00
 6.2755839E+00 8.2909758E-01 1.8673933E+00
 6.3393716E+00 7.9905583E-01 1.8533757E+00
 5.3249485E+00 1.1135756E+00 1.8734646E+00
 5.3963028E+00 1.0926325E+00 1.8782655E+00
 5.4688378E+00 1.0709700E+00 1.8830006E+00
 5.5426252E+00 1.0483437E+00 1.8874829E+00
 5.6174730E+00 1.0246908E+00 1.8914509E+00
 5.6930199E+00 1.0000000E+00 1.8945996E+00
 5.7688099E+00 9.7429558E-01 1.8966013E+00
 5.8443415E+00 9.4763968E-01 1.8971303E+00
 5.9190982E+00 9.2013266E-01 1.8958851E+00
 5.9925729E+00 8.9190735E-01 1.8926084E+00
 6.0642901E+00 8.6311375E-01 1.8870978E+00
 6.1338404E+00 8.3388941E-01 1.8792061E+00
 6.2009601E+00 8.0431718E-01 1.8688198E+00
 6.2657962E+00 7.7445251E-01 1.8558147E+00
 5.3253555E+00 1.0685055E+00 1.8781667E+00
 5.3969223E+00 1.0465065E+00 1.8819377E+00
 5.4694697E+00 1.0237239E+00 1.8855580E+00
 5.5430554E+00 1.0000000E+00 1.8888177E+00
 5.6174730E+00 9.7530919E-01 1.8914509E+00
 5.6923502E+00 9.4967018E-01 1.8931573E+00
 5.7672272E+00 9.2313742E-01 1.8936222E+00
 5.8416083E+00 8.9580202E-01 1.8925412E+00
 5.9149944E+00 8.6778713E-01 1.8896406E+00
 5.9869101E+00 8.3923396E-01 1.8846937E+00
 6.0569363E+00 8.1027156E-01 1.8775235E+00
 6.1247727E+00 7.8096990E-01 1.8679869E+00
 6.1904321E+00 7.5133753E-01 1.8559385E+00
 5.3255616E+00 1.0228959E+00 1.8805458E+00
 5.3971306E+00 1.0000000E+00 1.8831718E+00
 5.4694697E+00 9.7627606E-01 1.8855580E+00
 5.5426252E+00 9.5165626E-01 1.8874829E+00
 5.6163804E+00 9.2615314E-01 1.8886834E+00
 5.6903588E+00 8.9981367E-01 1.8888704E+00
 5.7641050E+00 8.7271897E-01 1.8877484E+00
 5.8371389E+00 8.4498113E-01 1.8850385E+00
 5.9089910E+00 8.1673148E-01 1.8804961E+00
 5.9792375E+00 7.8808972E-01 1.8739181E+00
 6.0475440E+00 7.5911427E-01 1.8651307E+00
 6.1137891E+00 7.2977245E-01 1.8539596E+00
 5.3255616E+00 9.7710410E-01 1.8805458E+00
 5.3969223E+00 9.5349354E-01 1.8819377E+00
 5.4688378E+00 9.2903001E-01 1.8830006E+00
 5.5413455E+00 9.0373708E-01 1.8835133E+00
 5.6142238E+00 8.7766361E-01 1.8832225E+00
 5.6870987E+00 8.5088182E-01 1.8818559E+00
 5.7595289E+00 8.2349162E-01 1.8791411E+00
 5.8310610E+00 7.9561297E-01 1.8748263E+00
 5.9012724E+00 7.6735505E-01 1.8686882E+00
 5.9697991E+00 7.3876540E-01 1.8605252E+00
 6.0363855E+00 7.0977561E-01 1.8501281E+00
 5.3253555E+00 9.3149450E-01 1.8781667E+00
 5.3963027E+00 9.0736746E-01 1.8782655E+00
 5.4675900E+00 8.8238124E-01 1.8779498E+00
 5.5392493E+00 8.5664870E-01 1.8770107E+00
 5.6110589E+00 8.3025228E-01 1.8752108E+00
 5.6826568E+00 8.0328167E-01 1.8722982E+00
 5.7536248E+00 7.7584434E-01 1.8680249E+00
 5.8235520E+00 7.4803706E-01 1.8621579E+00
 5.8920497E+00 7.1989673E-01 1.8544730E+00
 5.9587333E+00 6.9132342E-01 1.8447245E+00
 5.3249485E+00 8.8642445E-01 1.8734646E+00
 5.3952872E+00 8.6198728E-01 1.8722436E+00
 5.4657577E+00 8.3670068E-01 1.8705297E+00
 5.5363890E+00 8.1076305E-01 1.8681374E+00
 5.6069677E+00 7.8428230E-01 1.8648492E+00
 5.6771505E+00 7.5735644E-01 1.8604349E+00
 5.7465567E+00 7.3006834E-01 1.8546621E+00
 5.8147836E+00 7.0244351E-01 1.8472937E+00
 5.8813244E+00 6.7435368E-01 1.8380494E+00
 5.3243502E+00 8.4223094E-01 1.8665477E+00
 5.3939006E+00 8.1768909E-01 1.8640125E+00
 5.4633849E+00 7.9232148E-01 1.8609157E+00
 5.5328365E+00 7.6640081E-01 1.8571039E+00
 5.6020535E+00 7.4005316E-01 1.8523814E+00
 5.6707250E+00 7.1335133E-01 1.8465304E+00
 5.7384524E+00 6.8630893E-01 1.8393104E+00
 5.8046208E+00 6.5877051E-01 1.8304134E+00
 5.3235755E+00 7.9921852E-01 1.8575701E+00
 5.3921754E+00 7.7477010E-01 1.8537571E+00
 5.4605304E+00 7.4952481E-01 1.8493237E+00
 5.5286778E+00 7.2382194E-01 1.8441554E+00
 5.5964408E+00 6.9776874E-01 1.8380688E+00
 5.6634624E+00 6.7137231E-01 1.8308341E+00
 5.7290440E+00 6.4445147E-01 1.8221236E+00
 5.3226405E+00 7.5765063E-01 1.8467228E+00
 5.3901531E+00 7.3347460E-01 1.8416937E+00
 5.4572594E+00 7.0853399E-01 1.8359957E+00
 5.5240118E+00 6.8319048E-01 1.8295450E+00
 5.5901618E+00 6.5749834E-01 1.8221479E+00
 5.6549687E+00 6.3125659E-01 1.8134700E+00
 5.3215711E+00 7.1774151E-01 1.8342227E+00
 5.3878794E+00 6.9399513E-01 1.8280602E+00
 5.4536510E+00 6.6948324E-01 1.8211764E+00
 5.5188338E+00 6.4455025E-01 1.8134972E+00
 5.5827101E+00 6.1903863E-01 1.8047120E+00
 5.3203853E+00 6.7965736E-01 1.8203022E+00
 5.3854092E+00 6.5643404E-01 1.8130887E+00
 5.4496427E+00 6.3238071E-01 1.8050694E+00
 5.5125224E+00 6.0765074E-01 1.7960686E+00
 5.3191252E+00 6.4349100E-01 1.8051891E+00
 5.3826972E+00 6.2081269E-01 1.7969867E+00
 5.4445870E+00 5.9696276E-01 1.7877163E+00
 5.3177260E+00 6.0924036E-01 1.7890809E+00
 5.3789550E+00 5.8678466E-01 1.7797388E+00
 5.3159162E+00 5.7680698E-01 1.7721191E+00
 5.2198996E+00 1.4832304E+00 1.7333597E+00
 5.1818051E+00 1.5063648E+00 1.7169040E+00
 5.1421639E+00 1.5301563E+00 1.6990358E+00
 5.1010094E+00 1.5544947E+00 1.6797093E+00
 5.0585300E+00 1.5792783E+00 1.6588789E+00
 5.0149241E+00 1.6044044E+00 1.6364835E+00
 4.9704196E+00 1.6297679E+00 1.6124473E+00
 4.9252784E+00 1.6552263E+00 1.5867090E+00
 4.8798022E+00 1.6806097E+00 1.5592160E+00
 4.8343208E+00 1.7057149E+00 1.5299353E+00
 4.7891828E+00 1.7303110E+00 1.4988580E+00
 4.7447424E+00 1.7541431E+00 1.4660080E+00
 4.7013474E+00 1.7769416E+00 1.4314495E+00
 4.6593264E+00 1.7984339E+00 1.3952929E+00
 4.6189767E+00 1.8183583E+00 1.3576977E+00
 4.5805553E+00 1.8364785E+00 1.3188712E+00
 4.5442711E+00 1.8525978E+00 1.2790628E+00
 4.5102810E+00 1.8665693E+00 1.2385544E+00
 4.4786878E+00 1.8783033E+00 1.1976461E+00
 4.4495462E+00 1.8877686E+00 1.1566412E+00
 4.4228866E+00 1.8949865E+00 1.1158527E+00
 4.3987384E+00 1.9000215E+00 1.0756016E+00
 4.3772087E+00 1.9029820E+00 1.0363088E+00
 3.6669878E+00 1.0850373E+00 1.7495479E+00
 3.6579402E+00 1.1404416E+00 1.7356130E+00
 3.6520193E+00 1.1974818E+00 1.7186333E+00
 3.6500984E+00 1.2560653E+00 1.6986939E+00
 3.6526551E+00 1.3157563E+00 1.6756991E+00
 3.6600877E+00 1.3759495E+00 1.6495996E+00
 3.6727253E+00 1.4359274E+00 1.6204288E+00
 3.6907977E+00 1.4948874E+00 1.5883166E+00
 3.7144019E+00 1.5519768E+00 1.5534928E+00
 3.7434777E+00 1.6063343E+00 1.5162890E+00
 3.7777953E+00 1.6571402E+00 1.4771327E+00
 3.8169550E+00 1.7036695E+00 1.4365343E+00
 3.8604034E+00 1.7453438E+00 1.3950638E+00
 3.9074641E+00 1.7817735E+00 1.3533212E+00
 3.9573814E+00 1.8127843E+00 1.3119010E+00
 4.0093706E+00 1.8384219E+00 1.2713567E+00
 4.0626670E+00 1.8589354E+00 1.2321692E+00
 4.1165716E+00 1.8747396E+00 1.1947231E+00
 4.1704786E+00 1.8863651E+00 1.1592973E+00
 4.2239126E+00 1.8944037E+00 1.1260577E+00
 4.2764954E+00 1.8994603E+00 1.0950211E+00
 4.3278314E+00 1.9021271E+00 1.0658607E+00
 3.7171946E+00 1.1183105E+00 1.7736817E+00
 3.7108808E+00 1.1751218E+00 1.7594993E+00
 3.7076955E+00 1.2329337E+00 1.7420996E+00
 3.7086379E+00 1.2918933E+00 1.7215741E+00
 3.7141712E+00 1.3515755E+00 1.6978251E+00
 3.7246432E+00 1.4113308E+00 1.6708128E+00
 3.7403144E+00 1.4703908E+00 1.6405964E+00
 3.7613304E+00 1.5279139E+00 1.6073460E+00
 3.7876913E+00 1.5830340E+00 1.5713427E+00
 3.8192338E+00 1.6349102E+00 1.5329765E+00
 3.8556280E+00 1.6827816E+00 1.4927354E+00
 3.8963882E+00 1.7260209E+00 1.4511853E+00
 3.9408994E+00 1.7641803E+00 1.4089403E+00
 3.9884575E+00 1.7970225E+00 1.3666275E+00
 4.0383158E+00 1.8245307E+00 1.3248479E+00
 4.0897330E+00 1.8468964E+00 1.2841412E+00
 4.1420190E+00 1.8644862E+00 1.2449573E+00
 4.1945690E+00 1.8777943E+00 1.2076372E+00
 4.2469071E+00 1.8873908E+00 1.1723932E+00
 4.2986629E+00 1.8938755E+00 1.1392586E+00
 4.3495290E+00 1.8978688E+00 1.1076802E+00
 3.7722369E+00 1.1506616E+00 1.7950821E+00
 3.7686086E+00 1.2081361E+00 1.7804082E+00
 3.7682252E+00 1.2663251E+00 1.7624061E+00
 3.7720683E+00 1.3253001E+00 1.7411119E+00
 3.7805639E+00 1.3845956E+00 1.7164316E+00
 3.7939976E+00 1.4435118E+00 1.6883489E+00
 3.8125529E+00 1.5012392E+00 1.6569625E+00
 3.8362850E+00 1.5569188E+00 1.6224940E+00
 3.8650968E+00 1.6096977E+00 1.5852853E+00
 3.8987294E+00 1.6587858E+00 1.5457910E+00
 3.9367687E+00 1.7035116E+00 1.5045606E+00
 3.9786666E+00 1.7433706E+00 1.4622105E+00
 4.0237766E+00 1.7780618E+00 1.4193889E+00
 4.0713967E+00 1.8075023E+00 1.3767346E+00
 4.1208150E+00 1.8318203E+00 1.3348386E+00
 4.1713553E+00 1.8513273E+00 1.2942094E+00
 4.2224139E+00 1.8664731E+00 1.2552491E+00
 4.2735049E+00 1.8777967E+00 1.2182302E+00
 4.3242584E+00 1.8858846E+00 1.1832160E+00
 4.3743351E+00 1.8913722E+00 1.1497267E+00
 3.8318645E+00 1.1822273E+00 1.8131439E+00
 3.8309872E+00 1.2399122E+00 1.7977609E+00
 3.8334800E+00 1.2980304E+00 1.7789614E+00
 3.8402575E+00 1.3565629E+00 1.7567290E+00
 3.8516779E+00 1.4149849E+00 1.7309819E+00
 3.8679522E+00 1.4725592E+00 1.7017403E+00
 3.8891790E+00 1.5284589E+00 1.6691543E+00
 3.9153219E+00 1.5818369E+00 1.6335062E+00
 3.9461934E+00 1.6318877E+00 1.5952034E+00
 3.9814547E+00 1.6779058E+00 1.5547640E+00
 4.0206321E+00 1.7193371E+00 1.5127907E+00
 4.0631460E+00 1.7558185E+00 1.4699366E+00
 4.1083495E+00 1.7871987E+00 1.4268641E+00
 4.1555708E+00 1.8135364E+00 1.3842027E+00
 4.2041571E+00 1.8350783E+00 1.3425114E+00
 4.2535123E+00 1.8522186E+00 1.3022492E+00
 4.3031484E+00 1.8654534E+00 1.2637434E+00
 4.3526864E+00 1.8753417E+00 1.2271227E+00
 4.4017790E+00 1.8825211E+00 1.1919869E+00
 3.8958084E+00 1.2126774E+00 1.8274502E+00
 3.8977313E+00 1.2701385E+00 1.8111634E+00
 3.9031293E+00 1.3277280E+00 1.7913983E+00