# TIME = 7.000000
VARIABLES = X, Y, Z, FX, FY, FZ
ZONE N=29232 E=58212 F=FEPOINT ET=TRIANGLE
  0.000E+00  9.502E-01  1.243E-03 3.3454504E+00 5.4705288E-02 1.1002656E+00
  0.000E+00  1.000E+00  0.000E+00 3.3440349E+00 -1.5204621E-07 1.1016690E+00
  4.318E-02  9.751E-01  3.108E-04 3.3438431E+00 2.6730966E-02 1.0763837E+00
  0.000E+00  1.050E+00  1.243E-03 3.3454519E+00 -5.4705591E-02 1.1002656E+00
  4.318E-02  1.025E+00  3.108E-04 3.3438438E+00 -2.6731271E-02 1.0763837E+00
  0.000E+00  1.100E+00  4.969E-03 3.3509444E+00 -1.0946181E-01 1.0961673E+00
  4.318E-02  1.075E+00  2.796E-03 3.3472658E+00 -8.0216386E-02 1.0736749E+00
  0.000E+00  1.149E+00  1.117E-02 3.3628714E+00 -1.6427686E-01 1.0895564E+00
  4.318E-02  1.124E+00  7.761E-03 3.3561441E+00 -1.3377268E-01 1.0684267E+00
  0.000E+00  1.198E+00  1.983E-02 3.3806425E+00 -2.1879441E-01 1.0803120E+00
  4.318E-02  1.174E+00  1.519E-02 3.3717036E+00 -1.8727531E-01 1.0607171E+00
  0.000E+00  1.247E+00  3.092E-02 3.3971820E+00 -2.7229573E-01 1.0680149E+00
  4.318E-02  1.223E+00  2.507E-02 3.3899670E+00 -2.4015083E-01 1.0502463E+00
  0.000E+00  1.295E+00  4.443E-02 3.4042520E+00 -3.2460681E-01 1.0526986E+00
  4.318E-02  1.271E+00  3.738E-02 3.4018218E+00 -2.9180221E-01 1.0366801E+00
  0.000E+00  1.342E+00  6.031E-02 3.4153986E+00 -3.7648490E-01 1.0351137E+00
  4.318E-02  1.318E+00  5.207E-02 3.4050368E+00 -3.4261698E-01 1.0205112E+00
  0.000E+00  1.388E+00  7.852E-02 3.4494060E+00 -4.2801280E-01 1.0153792E+00
  4.318E-02  1.365E+00  6.913E-02 3.4338812E+00 -3.9325415E-01 1.0023538E+00
  0.000E+00  1.434E+00  9.903E-02 3.4575503E+00 -4.7814431E-01 9.9276534E-01
  4.318E-02  1.411E+00  8.849E-02 3.4598183E+00 -4.4302328E-01 9.8170216E-01
  0.000E+00  1.478E+00  1.218E-01 3.4752985E+00 -5.2689637E-01 9.6758601E-01
  4.318E-02  1.456E+00  1.101E-01 3.4571472E+00 -4.9127861E-01 9.5825841E-01
  0.000E+00  1.521E+00  1.467E-01 3.5012158E+00 -5.7452206E-01 9.4017574E-01
  4.318E-02  1.500E+00  1.340E-01 3.4915379E+00 -5.3839978E-01 9.3257397E-01
  0.000E+00  1.563E+00  1.738E-01 3.4977886E+00 -6.2067551E-01 9.1036181E-01
  4.318E-02  1.543E+00  1.600E-01 3.4907359E+00 -5.8426465E-01 9.0461580E-01
  0.000E+00  1.604E+00  2.029E-01 3.5190133E+00 -6.6527183E-01 8.7828206E-01
  4.318E-02  1.584E+00  1.881E-01 3.5222824E+00 -6.2860882E-01 8.7434332E-01
  0.000E+00  1.643E+00  2.340E-01 3.5265439E+00 -7.0823155E-01 8.4403766E-01
  4.318E-02  1.623E+00  2.182E-01 3.5127130E+00 -6.7141711E-01 8.4193003E-01
  0.000E+00  1.680E+00  2.669E-01 3.5279446E+00 -7.4941999E-01 8.0768371E-01
  4.318E-02  1.662E+00  2.502E-01 3.5293759E+00 -7.1254887E-01 8.0741699E-01
  0.000E+00  1.716E+00  3.018E-01 3.5292128E+00 -7.8874900E-01 7.6932337E-01
  4.318E-02  1.698E+00  2.841E-01 3.5292258E+00 -7.5190908E-01 7.7089434E-01
  0.000E+00  1.750E+00  3.383E-01 3.5293638E+00 -8.2611743E-01 7.2905147E-01
  4.318E-02  1.733E+00  3.198E-01 3.5279585E+00 -7.8940086E-01 7.3245542E-01
  0.000E+00  1.782E+00  3.765E-01 3.5127019E+00 -8.6142990E-01 6.8696712E-01
  4.318E-02  1.766E+00  3.572E-01 3.5265587E+00 -8.2493191E-01 6.9219934E-01
  0.000E+00  1.812E+00  4.163E-01 3.5222723E+00 -8.9459414E-01 6.4316758E-01
  4.318E-02  1.797E+00  3.962E-01 3.5190290E+00 -8.5840126E-01 6.5021216E-01
  0.000E+00  1.840E+00  4.575E-01 3.4907267E+00 -9.2556757E-01 5.9779637E-01
  4.318E-02  1.826E+00  4.367E-01 3.4978052E+00 -8.8975501E-01 6.0662545E-01
  0.000E+00  1.866E+00  5.000E-01 3.4915295E+00 -9.5417275E-01 5.5086904E-01
  4.318E-02  1.853E+00  4.786E-01 3.5012331E+00 -9.1889347E-01 5.6151655E-01
  0.000E+00  1.890E+00  5.438E-01 3.4571397E+00 -9.8045227E-01 5.0265633E-01
  4.318E-02  1.878E+00  5.217E-01 3.4753167E+00 -9.4568322E-01 5.1496887E-01
  0.000E+00  1.912E+00  5.887E-01 3.4598119E+00 -1.0044392E+00 4.5328352E-01
  4.318E-02  1.901E+00  5.661E-01 3.4575695E+00 -9.7029283E-01 4.6732057E-01
  0.000E+00  1.931E+00  6.347E-01 3.4338758E+00 -1.0255694E+00 4.0236187E-01
  4.318E-02  1.921E+00  6.116E-01 3.4494260E+00 -9.9239497E-01 4.1832418E-01
  0.000E+00  1.948E+00  6.815E-01 3.4050322E+00 -1.0441474E+00 3.5055211E-01
  4.318E-02  1.940E+00  6.580E-01 3.4154192E+00 -1.0116831E+00 3.6796272E-01
  0.000E+00  1.963E+00  7.292E-01 3.4018179E+00 -1.0606904E+00 2.9856061E-01
  4.318E-02  1.956E+00  7.052E-01 3.4042732E+00 -1.0288695E+00 3.1725851E-01
  0.000E+00  1.975E+00  7.775E-01 3.3899638E+00 -1.0745707E+00 2.4571297E-01
  4.318E-02  1.969E+00  7.532E-01 3.3972038E+00 -1.0438384E+00 2.6613102E-01
  0.000E+00  1.985E+00  8.264E-01 3.3717012E+00 -1.0852841E+00 1.9161267E-01
  4.318E-02  1.980E+00  8.019E-01 3.3806652E+00 -1.0558570E+00 2.1384054E-01
  0.000E+00  1.992E+00  8.757E-01 3.3561427E+00 -1.0931724E+00 1.3687070E-01
  4.318E-02  1.989E+00  8.510E-01 3.3628951E+00 -1.0648923E+00 1.6055716E-01
  0.000E+00  1.997E+00  9.253E-01 3.3472653E+00 -1.0985423E+00 8.2073894E-02
  4.318E-02  1.995E+00  9.004E-01 3.3509690E+00 -1.0713538E+00 1.0698318E-01
  0.000E+00  2.000E+00  9.751E-01 3.3438441E+00 -1.1013139E+00 2.7350009E-02
  4.318E-02  1.999E+00  9.502E-01 3.3454773E+00 -1.0753595E+00 5.3466680E-02
  0.000E+00  2.000E+00  1.025E+00 3.3438441E+00 -1.1013139E+00 -2.7350434E-02
  4.318E-02  2.000E+00  1.000E+00 3.3440611E+00 -1.0767311E+00 -2.1833876E-07
  0.000E+00  1.997E+00  1.075E+00 3.3472653E+00 -1.0985422E+00 -8.2074323E-02
  4.318E-02  1.999E+00  1.050E+00 3.3454774E+00 -1.0753594E+00 -5.3467114E-02
  0.000E+00  1.992E+00  1.124E+00 3.3561427E+00 -1.0931722E+00 -1.3687113E-01
  4.318E-02  1.995E+00  1.100E+00 3.3509690E+00 -1.0713537E+00 -1.0698361E-01
  0.000E+00  1.985E+00  1.174E+00 3.3717012E+00 -1.0852841E+00 -1.9161310E-01
  4.318E-02  1.989E+00  1.149E+00 3.3628952E+00 -1.0648922E+00 -1.6055758E-01
  0.000E+00  1.975E+00  1.223E+00 3.3899639E+00 -1.0745708E+00 -2.4571339E-01
  4.318E-02  1.980E+00  1.198E+00 3.3806652E+00 -1.0558571E+00 -2.1384097E-01
  0.000E+00  1.963E+00  1.271E+00 3.4018180E+00 -1.0606904E+00 -2.9856102E-01
  4.318E-02  1.969E+00  1.247E+00 3.3972039E+00 -1.0438386E+00 -2.6613146E-01
  0.000E+00  1.948E+00  1.318E+00 3.4050323E+00 -1.0441470E+00 -3.5055251E-01
  4.318E-02  1.956E+00  1.295E+00 3.4042733E+00 -1.0288693E+00 -3.1725894E-01
  0.000E+00  1.931E+00  1.365E+00 3.4338759E+00 -1.0255695E+00 -4.0236228E-01
  4.318E-02  1.940E+00  1.342E+00 3.4154194E+00 -1.0116828E+00 -3.6796315E-01
  0.000E+00  1.912E+00  1.411E+00 3.4598121E+00 -1.0044394E+00 -4.5328393E-01
  4.318E-02  1.921E+00  1.388E+00 3.4494261E+00 -9.9239527E-01 -4.1832461E-01
  0.000E+00  1.890E+00  1.456E+00 3.4571399E+00 -9.8045190E-01 -5.0265673E-01
  4.318E-02  1.901E+00  1.434E+00 3.4575696E+00 -9.7029269E-01 -4.6732099E-01
  0.000E+00  1.866E+00  1.500E+00 3.4915298E+00 -9.5417288E-01 -5.5086944E-01
  4.318E-02  1.878E+00  1.478E+00 3.4753169E+00 -9.4568309E-01 -5.1496929E-01
  0.000E+00  1.840E+00  1.543E+00 3.4907269E+00 -9.2556751E-01 -5.9779676E-01
  4.318E-02  1.853E+00  1.521E+00 3.5012333E+00 -9.1889364E-01 -5.6151697E-01
  0.000E+00  1.812E+00  1.584E+00 3.5222726E+00 -8.9459409E-01 -6.4316797E-01
  4.318E-02  1.826E+00  1.563E+00 3.4978054E+00 -8.8975487E-01 -6.0662586E-01
  0.000E+00  1.782E+00  1.623E+00 3.5127021E+00 -8.6142989E-01 -6.8696750E-01
  4.318E-02  1.797E+00  1.604E+00 3.5190292E+00 -8.5840134E-01 -6.5021257E-01
  0.000E+00  1.750E+00  1.662E+00 3.5293641E+00 -8.2611735E-01 -7.2905185E-01
  4.318E-02  1.766E+00  1.643E+00 3.5265589E+00 -8.2493186E-01 -6.9219974E-01
  0.000E+00  1.716E+00  1.698E+00 3.5292131E+00 -7.8874896E-01 -7.6932374E-01
  4.318E-02  1.733E+00  1.680E+00 3.5279588E+00 -7.8940088E-01 -7.3245582E-01
  0.000E+00  1.680E+00  1.733E+00 3.5279449E+00 -7.4941993E-01 -8.0768407E-01
  4.318E-02  1.698E+00  1.716E+00 3.5292261E+00 -7.5190902E-01 -7.7089472E-01
  0.000E+00  1.643E+00  1.766E+00 3.5265442E+00 -7.0823150E-01 -8.4403801E-01
  4.318E-02  1.662E+00  1.750E+00 3.5293762E+00 -7.1254882E-01 -8.0741737E-01
  0.000E+00  1.604E+00  1.797E+00 3.5190136E+00 -6.6527173E-01 -8.7828239E-01
  4.318E-02  1.623E+00  1.782E+00 3.5127133E+00 -6.7141704E-01 -8.4193041E-01
  0.000E+00  1.563E+00  1.826E+00 3.4977888E+00 -6.2067532E-01 -9.1036211E-01
  4.318E-02  1.584E+00  1.812E+00 3.5222827E+00 -6.2860879E-01 -8.7434371E-01
  0.000E+00  1.521E+00  1.853E+00 3.5012161E+00 -5.7452185E-01 -9.4017604E-01
  4.318E-02  1.543E+00  1.840E+00 3.4907362E+00 -5.8426464E-01 -9.0461618E-01
  0.000E+00  1.478E+00  1.878E+00 3.4752989E+00 -5.2689633E-01 -9.6758634E-01
  4.318E-02  1.500E+00  1.866E+00 3.4915383E+00 -5.3839976E-01 -9.3257432E-01
  0.000E+00  1.434E+00  1.901E+00 3.4575509E+00 -4.7814456E-01 -9.9276575E-01
  4.318E-02  1.456E+00  1.890E+00 3.4571475E+00 -4.9127838E-01 -9.5825872E-01
  0.000E+00  1.388E+00  1.921E+00 3.4494064E+00 -4.2801323E-01 -1.0153797E+00
  4.318E-02  1.411E+00  1.912E+00 3.4598186E+00 -4.4302284E-01 -9.8170241E-01
  0.000E+00  1.342E+00  1.940E+00 3.4153987E+00 -3.7648505E-01 -1.0351141E+00
  4.318E-02  1.365E+00  1.931E+00 3.4338816E+00 -3.9325369E-01 -1.0023541E+00
  0.000E+00  1.295E+00  1.956E+00 3.4042521E+00 -3.2460624E-01 -1.0526989E+00
  4.318E-02  1.318E+00  1.948E+00 3.4050373E+00 -3.4261687E-01 -1.0205115E+00
  0.000E+00  1.247E+00  1.969E+00 3.3971822E+00 -2.7229445E-01 -1.0680149E+00
  4.318E-02  1.271E+00  1.963E+00 3.4018222E+00 -2.9180261E-01 -1.0366805E+00
  0.000E+00  1.198E+00  1.980E+00 3.3806429E+00 -2.1879287E-01 -1.0803119E+00
  4.318E-02  1.223E+00  1.975E+00 3.3899673E+00 -2.4015156E-01 -1.0502468E+00
  0.000E+00  1.149E+00  1.989E+00 3.3628720E+00 -1.6427557E-01 -1.0895561E+00
  4.318E-02  1.174E+00  1.985E+00 3.3717038E+00 -1.8727600E-01 -1.0607177E+00
  0.000E+00  1.100E+00  1.995E+00 3.3509449E+00 -1.0946097E-01 -1.0961669E+00
  4.318E-02  1.124E+00  1.992E+00 3.3561444E+00 -1.3377308E-01 -1.0684273E+00
  0.000E+00  1.050E+00  1.999E+00 3.3454523E+00 -5.4705132E-02 -1.1002653E+00
  4.318E-02  1.075E+00  1.997E+00 3.3472662E+00 -8.0216489E-02 -1.0736755E+00
  0.000E+00  1.000E+00  2.000E+00 3.3440353E+00 4.3763854E-08 -1.1016686E+00
  4.318E-02  1.025E+00  2.000E+00 3.3438442E+00 -2.6731159E-02 -1.0763843E+00
  0.000E+00  9.502E-01  1.999E+00 3.3454508E+00 5.4705219E-02 -1.1002653E+00
  4.318E-02  9.751E-01  2.000E+00 3.3438435E+00 2.6731245E-02 -1.0763843E+00
  0.000E+00  9.004E-01  1.995E+00 3.3509420E+00 1.0946106E-01 -1.0961669E+00
  4.318E-02  9.253E-01  1.997E+00 3.3472640E+00 8.0216575E-02 -1.0736755E+00
  0.000E+00  8.510E-01  1.989E+00 3.3628677E+00 1.6427565E-01 -1.0895561E+00
  4.318E-02  8.757E-01  1.992E+00 3.3561409E+00 1.3377317E-01 -1.0684273E+00
  0.000E+00  8.019E-01  1.980E+00 3.3806372E+00 2.1879296E-01 -1.0803118E+00
  4.318E-02  8.264E-01  1.985E+00 3.3716988E+00 1.8727609E-01 -1.0607177E+00
  0.000E+00  7.532E-01  1.969E+00 3.3971751E+00 2.7229454E-01 -1.0680149E+00
  4.318E-02  7.775E-01  1.975E+00 3.3899609E+00 2.4015164E-01 -1.0502468E+00
  0.000E+00  7.052E-01  1.956E+00 3.4042436E+00 3.2460632E-01 -1.0526988E+00
  4.318E-02  7.292E-01  1.963E+00 3.4018144E+00 2.9180269E-01 -1.0366804E+00
  0.000E+00  6.580E-01  1.940E+00 3.4153889E+00 3.7648513E-01 -1.0351140E+00
  4.318E-02  6.815E-01  1.948E+00 3.4050281E+00 3.4261695E-01 -1.0205114E+00
  0.000E+00  6.116E-01  1.921E+00 3.4493953E+00 4.2801330E-01 -1.0153796E+00
  4.318E-02  6.347E-01  1.931E+00 3.4338711E+00 3.9325377E-01 -1.0023540E+00
  0.000E+00  5.661E-01  1.901E+00 3.4575385E+00 4.7814464E-01 -9.9276566E-01
  4.318E-02  5.887E-01  1.912E+00 3.4598069E+00 4.4302291E-01 -9.8170232E-01
  0.000E+00  5.217E-01  1.878E+00 3.4752854E+00 5.2689640E-01 -9.6758624E-01
  4.318E-02  5.438E-01  1.890E+00 3.4571345E+00 4.9127846E-01 -9.5825862E-01
  0.000E+00  4.786E-01  1.853E+00 3.5012014E+00 5.7452192E-01 -9.4017593E-01
  4.318E-02  5.000E-01  1.866E+00 3.4915242E+00 5.3839981E-01 -9.3257421E-01
  0.000E+00  4.367E-01  1.826E+00 3.4977730E+00 6.2067539E-01 -9.1036199E-01
  4.318E-02  4.575E-01  1.840E+00 3.4907210E+00 5.8426472E-01 -9.0461607E-01
  0.000E+00  3.962E-01  1.797E+00 3.5189967E+00 6.6527179E-01 -8.7828227E-01
  4.318E-02  4.163E-01  1.812E+00 3.5222664E+00 6.2860885E-01 -8.7434358E-01
  0.000E+00  3.572E-01  1.766E+00 3.5265264E+00 7.0823155E-01 -8.4403788E-01
  4.318E-02  3.765E-01  1.782E+00 3.5126959E+00 6.7141710E-01 -8.4193028E-01
  0.000E+00  3.198E-01  1.733E+00 3.5279262E+00 7.4941999E-01 -8.0768393E-01
  4.318E-02  3.383E-01  1.750E+00 3.5293579E+00 7.1254886E-01 -8.0741723E-01
  0.000E+00  2.841E-01  1.698E+00 3.5291935E+00 7.8874898E-01 -7.6932359E-01
  4.318E-02  3.018E-01  1.716E+00 3.5292069E+00 7.5190908E-01 -7.7089458E-01
  0.000E+00  2.502E-01  1.662E+00 3.5293436E+00 8.2611741E-01 -7.2905169E-01
  4.318E-02  2.669E-01  1.680E+00 3.5279387E+00 7.8940087E-01 -7.3245566E-01
  0.000E+00  2.182E-01  1.623E+00 3.5126809E+00 8.6142988E-01 -6.8696734E-01
  4.318E-02  2.340E-01  1.643E+00 3.5265380E+00 8.2493193E-01 -6.9219958E-01
  0.000E+00  1.881E-01  1.584E+00 3.5222506E+00 8.9459412E-01 -6.4316780E-01
  4.318E-02  2.029E-01  1.604E+00 3.5190076E+00 8.5840127E-01 -6.5021240E-01
  0.000E+00  1.600E-01  1.543E+00 3.4907043E+00 9.2556756E-01 -5.9779659E-01
  4.318E-02  1.738E-01  1.563E+00 3.4977831E+00 8.8975501E-01 -6.0662569E-01
  0.000E+00  1.340E-01  1.500E+00 3.4915065E+00 9.5417274E-01 -5.5086926E-01
  4.318E-02  1.467E-01  1.521E+00 3.5012104E+00 9.1889347E-01 -5.6151679E-01
  0.000E+00  1.101E-01  1.456E+00 3.4571162E+00 9.8045225E-01 -5.0265655E-01
  4.318E-02  1.218E-01  1.478E+00 3.4752934E+00 9.4568322E-01 -5.1496911E-01
  0.000E+00  8.849E-02  1.411E+00 3.4597879E+00 1.0044392E+00 -4.5328374E-01
  4.318E-02  9.903E-02  1.434E+00 3.4575456E+00 9.7029283E-01 -4.6732081E-01
  0.000E+00  6.913E-02  1.365E+00 3.4338513E+00 1.0255694E+00 -4.0236209E-01
  4.318E-02  7.852E-02  1.388E+00 3.4494017E+00 9.9239497E-01 -4.1832442E-01
  0.000E+00  5.207E-02  1.318E+00 3.4050073E+00 1.0441474E+00 -3.5055232E-01
  4.318E-02  6.031E-02  1.342E+00 3.4153945E+00 1.0116831E+00 -3.6796296E-01
  0.000E+00  3.738E-02  1.271E+00 3.4017926E+00 1.0606903E+00 -2.9856083E-01
  4.318E-02  4.443E-02  1.295E+00 3.4042481E+00 1.0288695E+00 -3.1725875E-01
  0.000E+00  2.507E-02  1.223E+00 3.3899383E+00 1.0745706E+00 -2.4571320E-01
  4.318E-02  3.092E-02  1.247E+00 3.3971784E+00 1.0438384E+00 -2.6613127E-01
  0.000E+00  1.519E-02  1.174E+00 3.3716754E+00 1.0852840E+00 -1.9161291E-01
  4.318E-02  1.983E-02  1.198E+00 3.3806396E+00 1.0558570E+00 -2.1384077E-01
  0.000E+00  7.761E-03  1.124E+00 3.3561167E+00 1.0931723E+00 -1.3687093E-01
  4.318E-02  1.117E-02  1.149E+00 3.3628693E+00 1.0648923E+00 -1.6055739E-01
  0.000E+00  2.796E-03  1.075E+00 3.3472392E+00 1.0985422E+00 -8.2074127E-02
  4.318E-02  4.969E-03  1.100E+00 3.3509430E+00 1.0713537E+00 -1.0698341E-01
  0.000E+00  3.108E-04  1.025E+00 3.3438180E+00 1.1013138E+00 -2.7350237E-02
  4.318E-02  1.243E-03  1.050E+00 3.3454513E+00 1.0753594E+00 -5.3466918E-02
  0.000E+00  3.108E-04  9.751E-01 3.3438180E+00 1.1013138E+00 2.7350205E-02
  4.318E-02  0.000E+00  1.000E+00 3.3440350E+00 1.0767310E+00 -2.2207129E-08
  0.000E+00  2.796E-03  9.253E-01 3.3472392E+00 1.0985421E+00 8.2074089E-02
  4.318E-02  1.243E-03  9.502E-01 3.3454512E+00 1.0753593E+00 5.3466875E-02
  0.000E+00  7.761E-03  8.757E-01 3.3561167E+00 1.0931721E+00 1.3687089E-01
  4.318E-02  4.969E-03  9.004E-01 3.3509430E+00 1.0713536E+00 1.0698337E-01
  0.000E+00  1.519E-02  8.264E-01 3.3716754E+00 1.0852840E+00 1.9161287E-01
  4.318E-02  1.117E-02  8.510E-01 3.3628692E+00 1.0648921E+00 1.6055735E-01
  0.000E+00  2.507E-02  7.775E-01 3.3899382E+00 1.0745707E+00 2.4571316E-01
  4.318E-02  1.983E-02  8.019E-01 3.3806395E+00 1.0558570E+00 2.1384073E-01
  0.000E+00  3.738E-02  7.292E-01 3.4017925E+00 1.0606903E+00 2.9856080E-01
  4.318E-02  3.092E-02  7.532E-01 3.3971783E+00 1.0438384E+00 2.6613121E-01
  0.000E+00  5.207E-02  6.815E-01 3.4050071E+00 1.0441469E+00 3.5055229E-01
  4.318E-02  4.443E-02  7.052E-01 3.4042480E+00 1.0288691E+00 3.1725869E-01
  0.000E+00  6.913E-02  6.347E-01 3.4338511E+00 1.0255694E+00 4.0236205E-01
  4.318E-02  6.031E-02  6.580E-01 3.4153944E+00 1.0116827E+00 3.6796290E-01
  0.000E+00  8.849E-02  5.887E-01 3.4597877E+00 1.0044392E+00 4.5328370E-01
  4.318E-02  7.852E-02  6.116E-01 3.4494015E+00 9.9239510E-01 4.1832436E-01
  0.000E+00  1.101E-01  5.438E-01 3.4571160E+00 9.8045175E-01 5.0265650E-01
  4.318E-02  9.903E-02  5.661E-01 3.4575455E+00 9.7029251E-01 4.6732075E-01
  0.000E+00  1.340E-01  5.000E-01 3.4915063E+00 9.5417272E-01 5.5086921E-01
  4.318E-02  1.218E-01  5.217E-01 3.4752932E+00 9.4568290E-01 5.1496905E-01
  0.000E+00  1.600E-01  4.575E-01 3.4907041E+00 9.2556734E-01 5.9779654E-01
  4.318E-02  1.467E-01  4.786E-01 3.5012102E+00 9.1889345E-01 5.6151672E-01
  0.000E+00  1.881E-01  4.163E-01 3.5222503E+00 8.9459392E-01 6.4316774E-01
  4.318E-02  1.738E-01  4.367E-01 3.4977829E+00 8.8975467E-01 6.0662561E-01
  0.000E+00  2.182E-01  3.765E-01 3.5126806E+00 8.6142972E-01 6.8696727E-01
  4.318E-02  2.029E-01  3.962E-01 3.5190074E+00 8.5840114E-01 6.5021232E-01
  0.000E+00  2.502E-01  3.383E-01 3.5293434E+00 8.2611719E-01 7.2905162E-01
  4.318E-02  2.340E-01  3.572E-01 3.5265378E+00 8.2493165E-01 6.9219949E-01
  0.000E+00  2.841E-01  3.018E-01 3.5291932E+00 7.8874879E-01 7.6932352E-01
  4.318E-02  2.669E-01  3.198E-01 3.5279384E+00 7.8940067E-01 7.3245557E-01
  0.000E+00  3.198E-01  2.669E-01 3.5279259E+00 7.4941974E-01 8.0768384E-01
  4.318E-02  3.018E-01  2.841E-01 3.5292066E+00 7.5190883E-01 7.7089447E-01
  0.000E+00  3.572E-01  2.340E-01 3.5265261E+00 7.0823130E-01 8.4403779E-01
  4.318E-02  3.383E-01  2.502E-01 3.5293576E+00 7.1254863E-01 8.0741712E-01
  0.000E+00  3.962E-01  2.029E-01 3.5189965E+00 6.6527157E-01 8.7828218E-01
  4.318E-02  3.765E-01  2.182E-01 3.5126956E+00 6.7141684E-01 8.4193015E-01
  0.000E+00  4.367E-01  1.738E-01 3.4977728E+00 6.2067524E-01 9.1036192E-01
  4.318E-02  4.163E-01  1.881E-01 3.5222661E+00 6.2860856E-01 8.7434344E-01
  0.000E+00  4.786E-01  1.467E-01 3.5012011E+00 5.7452179E-01 9.4017584E-01
  4.318E-02  4.575E-01  1.600E-01 3.4907206E+00 5.8426437E-01 9.0461591E-01
  0.000E+00  5.217E-01  1.218E-01 3.4752850E+00 5.2689609E-01 9.6758610E-01
  4.318E-02  5.000E-01  1.340E-01 3.4915238E+00 5.3839952E-01 9.3257407E-01
  0.000E+00  5.661E-01  9.903E-02 3.4575380E+00 4.7814402E-01 9.9276541E-01
  4.318E-02  5.438E-01  1.101E-01 3.4571343E+00 4.9127832E-01 9.5825851E-01
  0.000E+00  6.116E-01  7.852E-02 3.4493949E+00 4.2801251E-01 1.0153793E+00
  4.318E-02  5.887E-01  8.849E-02 3.4598066E+00 4.4302300E-01 9.8170225E-01
  0.000E+00  6.580E-01  6.031E-02 3.4153888E+00 3.7648461E-01 1.0351137E+00
  4.318E-02  6.347E-01  6.913E-02 3.4338708E+00 3.9325386E-01 1.0023539E+00
  0.000E+00  7.052E-01  4.443E-02 3.4042436E+00 3.2460651E-01 1.0526987E+00
  4.318E-02  6.815E-01  5.207E-02 3.4050277E+00 3.4261669E-01 1.0205113E+00
  0.000E+00  7.532E-01  3.092E-02 3.3971749E+00 2.7229543E-01 1.0680149E+00
  4.318E-02  7.292E-01  3.738E-02 3.4018140E+00 2.9180191E-01 1.0366802E+00
  0.000E+00  8.019E-01  1.983E-02 3.3806368E+00 2.1879411E-01 1.0803121E+00
  4.318E-02  7.775E-01  2.507E-02 3.3899606E+00 2.4015053E-01 1.0502464E+00
  0.000E+00  8.510E-01  1.117E-02 3.3628671E+00 1.6427656E-01 1.0895564E+00
  4.318E-02  8.264E-01  1.519E-02 3.3716986E+00 1.8727501E-01 1.0607172E+00
  0.000E+00  9.004E-01  4.969E-03 3.3509415E+00 1.0946151E-01 1.0961673E+00
  4.318E-02  8.757E-01  7.761E-03 3.3561405E+00 1.3377237E-01 1.0684267E+00
  4.318E-02  9.253E-01  2.796E-03 3.3472636E+00 8.0216082E-02 1.0736749E+00
  1.000E+01  1.050E+00  1.243E-03 3.3454519E+00 -5.4705591E-02 1.1002656E+00
  1.000E+01  1.000E+00  5.551E-16 3.3440349E+00 -1.5204621E-07 1.1016690E+00
  9.957E+00  1.025E+00  3.108E-04 3.3438341E+00 -2.7971560E-02 1.1263308E+00
  1.000E+01  9.502E-01  1.243E-03 3.3454504E+00 5.4705288E-02 1.1002656E+00
  9.957E+00  9.751E-01  3.108E-04 3.3438334E+00 2.7971257E-02 1.1263308E+00
  1.000E+01  9.004E-01  4.969E-03 3.3509415E+00 1.0946151E-01 1.0961673E+00
  9.957E+00  9.253E-01  2.796E-03 3.3472539E+00 8.3938051E-02 1.1234963E+00
  1.000E+01  8.510E-01  1.117E-02 3.3628671E+00 1.6427656E-01 1.0895564E+00
  9.957E+00  8.757E-01  7.761E-03 3.3561308E+00 1.3997944E-01 1.1180045E+00
  1.000E+01  8.019E-01  1.983E-02 3.3806368E+00 2.1879411E-01 1.0803121E+00
  9.957E+00  8.264E-01  1.519E-02 3.3716887E+00 1.9596487E-01 1.1099372E+00
  1.000E+01  7.532E-01  3.092E-02 3.3971749E+00 2.7229543E-01 1.0680149E+00
  9.957E+00  7.775E-01  2.507E-02 3.3899508E+00 2.5129426E-01 1.0989807E+00
  1.000E+01  7.052E-01  4.443E-02 3.4042436E+00 3.2460651E-01 1.0526987E+00
  9.957E+00  7.292E-01  3.738E-02 3.4018042E+00 3.0534272E-01 1.0847851E+00
  1.000E+01  6.580E-01  6.031E-02 3.4153888E+00 3.7648461E-01 1.0351137E+00
  9.957E+00  6.815E-01  5.207E-02 3.4050179E+00 3.5851547E-01 1.0678659E+00
  1.000E+01  6.116E-01  7.852E-02 3.4493949E+00 4.2801251E-01 1.0153793E+00
  9.957E+00  6.347E-01  6.913E-02 3.4338609E+00 4.1150205E-01 1.0488657E+00
  1.000E+01  5.661E-01  9.903E-02 3.4575380E+00 4.7814402E-01 9.9276541E-01
  9.957E+00  5.887E-01  8.849E-02 3.4597967E+00 4.6358030E-01 1.0272556E+00
  1.000E+01  5.217E-01  1.218E-01 3.4752850E+00 5.2689609E-01 9.6758610E-01
  9.957E+00  5.438E-01  1.101E-01 3.4571245E+00 5.1407469E-01 1.0027240E+00
  1.000E+01  4.786E-01  1.467E-01 3.5012011E+00 5.7452179E-01 9.4017584E-01
  9.957E+00  5.000E-01  1.340E-01 3.4915140E+00 5.6338267E-01 9.7584790E-01
  1.000E+01  4.367E-01  1.738E-01 3.4977728E+00 6.2067524E-01 9.1036192E-01
  9.957E+00  4.575E-01  1.600E-01 3.4907109E+00 6.1137589E-01 9.4659264E-01
  1.000E+01  3.962E-01  2.029E-01 3.5189965E+00 6.6527157E-01 8.7828218E-01
  9.957E+00  4.163E-01  1.881E-01 3.5222563E+00 6.5777757E-01 9.1491536E-01
  1.000E+01  3.572E-01  2.340E-01 3.5265261E+00 7.0823130E-01 8.4403779E-01
  9.957E+00  3.765E-01  2.182E-01 3.5126858E+00 7.0257210E-01 8.8099791E-01
  1.000E+01  3.198E-01  2.669E-01 3.5279259E+00 7.4941974E-01 8.0768384E-01
  9.957E+00  3.383E-01  2.502E-01 3.5293478E+00 7.4561250E-01 8.4488337E-01
  1.000E+01  2.841E-01  3.018E-01 3.5291932E+00 7.8874879E-01 7.6932352E-01
  9.957E+00  3.018E-01  2.841E-01 3.5291968E+00 7.8679913E-01 8.0666606E-01
  1.000E+01  2.502E-01  3.383E-01 3.5293434E+00 8.2611719E-01 7.2905162E-01
  9.957E+00  2.669E-01  3.198E-01 3.5279286E+00 8.2603077E-01 7.6644354E-01
  1.000E+01  2.182E-01  3.765E-01 3.5126806E+00 8.6142972E-01 6.8696727E-01
  9.957E+00  2.340E-01  3.572E-01 3.5265280E+00 8.6321054E-01 7.2431948E-01
  1.000E+01  1.881E-01  4.163E-01 3.5222503E+00 8.9459392E-01 6.4316774E-01
  9.957E+00  2.029E-01  3.962E-01 3.5189975E+00 8.9823305E-01 6.8038397E-01
  1.000E+01  1.600E-01  4.575E-01 3.4907041E+00 9.2556734E-01 5.9779654E-01
  9.957E+00  1.738E-01  4.367E-01 3.4977730E+00 9.3104135E-01 6.3477446E-01
  1.000E+01  1.340E-01  5.000E-01 3.4915063E+00 9.5417272E-01 5.5086921E-01
  9.957E+00  1.467E-01  4.786E-01 3.5012003E+00 9.6153235E-01 5.8757243E-01
  1.000E+01  1.101E-01  5.438E-01 3.4571160E+00 9.8045175E-01 5.0265650E-01
  9.957E+00  1.218E-01  5.217E-01 3.4752835E+00 9.8956516E-01 5.3886502E-01
  1.000E+01  8.849E-02  5.887E-01 3.4597877E+00 1.0044392E+00 4.5328370E-01
  9.957E+00  9.903E-02  5.661E-01 3.4575358E+00 1.0153169E+00 4.8900587E-01
  1.000E+01  6.913E-02  6.347E-01 3.4338511E+00 1.0255694E+00 4.0236205E-01
  9.957E+00  7.852E-02  6.116E-01 3.4493917E+00 1.0384450E+00 4.3773562E-01
  1.000E+01  5.207E-02  6.815E-01 3.4050071E+00 1.0441469E+00 3.5055229E-01
  9.957E+00  6.031E-02  6.580E-01 3.4153845E+00 1.0586273E+00 3.8503691E-01
  1.000E+01  3.738E-02  7.292E-01 3.4017925E+00 1.0606903E+00 2.9856080E-01
  9.957E+00  4.443E-02  7.052E-01 3.4042381E+00 1.0766112E+00 3.3197987E-01
  1.000E+01  2.507E-02  7.775E-01 3.3899382E+00 1.0745707E+00 2.4571316E-01
  9.957E+00  3.092E-02  7.532E-01 3.3971685E+00 1.0922752E+00 2.7848018E-01
  1.000E+01  1.519E-02  8.264E-01 3.3716754E+00 1.0852840E+00 1.9161287E-01
  9.957E+00  1.983E-02  8.019E-01 3.3806297E+00 1.1048516E+00 2.2376359E-01
  1.000E+01  7.761E-03  8.757E-01 3.3561167E+00 1.0931721E+00 1.3687089E-01
  9.957E+00  1.117E-02  8.510E-01 3.3628594E+00 1.1143061E+00 1.6800793E-01
  1.000E+01  2.796E-03  9.253E-01 3.3472392E+00 1.0985421E+00 8.2074089E-02
  9.957E+00  4.969E-03  9.004E-01 3.3509332E+00 1.1210674E+00 1.1194800E-01
  1.000E+01  3.108E-04  9.751E-01 3.3438180E+00 1.1013138E+00 2.7350205E-02
  9.957E+00  1.243E-03  9.502E-01 3.3454414E+00 1.1252590E+00 5.5948081E-02
  1.000E+01  3.108E-04  1.025E+00 3.3438180E+00 1.1013138E+00 -2.7350237E-02
  9.957E+00  0.000E+00  1.000E+00 3.3440252E+00 1.1266943E+00 -1.8103907E-08
  1.000E+01  2.796E-03  1.075E+00 3.3472392E+00 1.0985422E+00 -8.2074127E-02
  9.957E+00  1.243E-03  1.050E+00 3.3454415E+00 1.1252590E+00 -5.5948116E-02
  1.000E+01  7.761E-03  1.124E+00 3.3561167E+00 1.0931723E+00 -1.3687093E-01
  9.957E+00  4.969E-03  1.100E+00 3.3509333E+00 1.1210675E+00 -1.1194803E-01
  1.000E+01  1.519E-02  1.174E+00 3.3716754E+00 1.0852840E+00 -1.9161291E-01
  9.957E+00  1.117E-02  1.149E+00 3.3628595E+00 1.1143062E+00 -1.6800796E-01
  1.000E+01  2.507E-02  1.223E+00 3.3899383E+00 1.0745706E+00 -2.4571320E-01
  9.957E+00  1.983E-02  1.198E+00 3.3806298E+00 1.1048516E+00 -2.2376363E-01
  1.000E+01  3.738E-02  1.271E+00 3.4017926E+00 1.0606903E+00 -2.9856083E-01
  9.957E+00  3.092E-02  1.247E+00 3.3971686E+00 1.0922751E+00 -2.7848023E-01
  1.000E+01  5.207E-02  1.318E+00 3.4050073E+00 1.0441474E+00 -3.5055232E-01
  9.957E+00  4.443E-02  1.295E+00 3.4042382E+00 1.0766116E+00 -3.3197993E-01
  1.000E+01  6.913E-02  1.365E+00 3.4338513E+00 1.0255694E+00 -4.0236209E-01
  9.957E+00  6.031E-02  1.342E+00 3.4153847E+00 1.0586277E+00 -3.8503696E-01
  1.000E+01  8.849E-02  1.411E+00 3.4597879E+00 1.0044392E+00 -4.5328374E-01
  9.957E+00  7.852E-02  1.388E+00 3.4493919E+00 1.0384448E+00 -4.3773568E-01
  1.000E+01  1.101E-01  1.456E+00 3.4571162E+00 9.8045225E-01 -5.0265655E-01
  9.957E+00  9.903E-02  1.434E+00 3.4575359E+00 1.0153172E+00 -4.8900593E-01
  1.000E+01  1.340E-01  1.500E+00 3.4915065E+00 9.5417274E-01 -5.5086926E-01
  9.957E+00  1.218E-01  1.478E+00 3.4752836E+00 9.8956548E-01 -5.3886508E-01
  1.000E+01  1.600E-01  1.543E+00 3.4907043E+00 9.2556756E-01 -5.9779659E-01
  9.957E+00  1.467E-01  1.521E+00 3.5012005E+00 9.6153237E-01 -5.8757250E-01
  1.000E+01  1.881E-01  1.584E+00 3.5222506E+00 8.9459412E-01 -6.4316780E-01
  9.957E+00  1.738E-01  1.563E+00 3.4977732E+00 9.3104170E-01 -6.3477454E-01
  1.000E+01  2.182E-01  1.623E+00 3.5126809E+00 8.6142988E-01 -6.8696734E-01
  9.957E+00  2.029E-01  1.604E+00 3.5189978E+00 8.9823318E-01 -6.8038405E-01
  1.000E+01  2.502E-01  1.662E+00 3.5293436E+00 8.2611741E-01 -7.2905169E-01
  9.957E+00  2.340E-01  1.643E+00 3.5265282E+00 8.6321082E-01 -7.2431957E-01
  1.000E+01  2.841E-01  1.698E+00 3.5291935E+00 7.8874898E-01 -7.6932359E-01
  9.957E+00  2.669E-01  1.680E+00 3.5279289E+00 8.2603097E-01 -7.6644363E-01
  1.000E+01  3.198E-01  1.733E+00 3.5279262E+00 7.4941999E-01 -8.0768393E-01
  9.957E+00  3.018E-01  1.716E+00 3.5291970E+00 7.8679939E-01 -8.0666617E-01
  1.000E+01  3.572E-01  1.766E+00 3.5265264E+00 7.0823155E-01 -8.4403788E-01
  9.957E+00  3.383E-01  1.750E+00 3.5293480E+00 7.4561273E-01 -8.4488348E-01
  1.000E+01  3.962E-01  1.797E+00 3.5189967E+00 6.6527179E-01 -8.7828227E-01
  9.957E+00  3.765E-01  1.782E+00 3.5126861E+00 7.0257236E-01 -8.8099803E-01
  1.000E+01  4.367E-01  1.826E+00 3.4977730E+00 6.2067539E-01 -9.1036199E-01
  9.957E+00  4.163E-01  1.812E+00 3.5222566E+00 6.5777786E-01 -9.1491550E-01
  1.000E+01  4.786E-01  1.853E+00 3.5012014E+00 5.7452192E-01 -9.4017593E-01
  9.957E+00  4.575E-01  1.840E+00 3.4907113E+00 6.1137624E-01 -9.4659280E-01
  1.000E+01  5.217E-01  1.878E+00 3.4752854E+00 5.2689640E-01 -9.6758624E-01
  9.957E+00  5.000E-01  1.866E+00 3.4915143E+00 5.6338293E-01 -9.7584805E-01
  1.000E+01  5.661E-01  1.901E+00 3.4575385E+00 4.7814464E-01 -9.9276566E-01
  9.957E+00  5.438E-01  1.890E+00 3.4571246E+00 5.1407481E-01 -1.0027241E+00
  1.000E+01  6.116E-01  1.921E+00 3.4493953E+00 4.2801330E-01 -1.0153796E+00
  9.957E+00  5.887E-01  1.912E+00 3.4597970E+00 4.6358025E-01 -1.0272556E+00
  1.000E+01  6.580E-01  1.940E+00 3.4153889E+00 3.7648513E-01 -1.0351140E+00
  9.957E+00  6.347E-01  1.931E+00 3.4338614E+00 4.1150203E-01 -1.0488658E+00
  1.000E+01  7.052E-01  1.956E+00 3.4042436E+00 3.2460632E-01 -1.0526988E+00
  9.957E+00  6.815E-01  1.948E+00 3.4050186E+00 3.5851575E-01 -1.0678660E+00
  1.000E+01  7.532E-01  1.969E+00 3.3971751E+00 2.7229454E-01 -1.0680149E+00
  9.957E+00  7.292E-01  1.963E+00 3.4018048E+00 3.0534346E-01 -1.0847854E+00
  1.000E+01  8.019E-01  1.980E+00 3.3806372E+00 2.1879296E-01 -1.0803118E+00
  9.957E+00  7.775E-01  1.975E+00 3.3899512E+00 2.5129532E-01 -1.0989811E+00
  1.000E+01  8.510E-01  1.989E+00 3.3628677E+00 1.6427565E-01 -1.0895561E+00
  9.957E+00  8.264E-01  1.985E+00 3.3716889E+00 1.9596592E-01 -1.1099378E+00
  1.000E+01  9.004E-01  1.995E+00 3.3509420E+00 1.0946106E-01 -1.0961669E+00
  9.957E+00  8.757E-01  1.992E+00 3.3561309E+00 1.3998024E-01 -1.1180051E+00
  1.000E+01  9.502E-01  1.999E+00 3.3454508E+00 5.4705219E-02 -1.1002653E+00
  9.957E+00  9.253E-01  1.997E+00 3.3472541E+00 8.3938563E-02 -1.1234969E+00
  1.000E+01  1.000E+00  2.000E+00 3.3440353E+00 4.3763854E-08 -1.1016686E+00
  9.957E+00  9.751E-01  2.000E+00 3.3438336E+00 2.7971544E-02 -1.1263314E+00
  1.000E+01  1.050E+00  1.999E+00 3.3454523E+00 -5.4705132E-02 -1.1002653E+00
  9.957E+00  1.025E+00  2.000E+00 3.3438344E+00 -2.7971456E-02 -1.1263315E+00
  1.000E+01  1.100E+00  1.995E+00 3.3509449E+00 -1.0946097E-01 -1.0961669E+00
  9.957E+00  1.075E+00  1.997E+00 3.3472563E+00 -8.3938475E-02 -1.1234969E+00
  1.000E+01  1.149E+00  1.989E+00 3.3628720E+00 -1.6427557E-01 -1.0895561E+00
  9.957E+00  1.124E+00  1.992E+00 3.3561345E+00 -1.3998016E-01 -1.1180051E+00
  1.000E+01  1.198E+00  1.980E+00 3.3806429E+00 -2.1879287E-01 -1.0803119E+00
  9.957E+00  1.174E+00  1.985E+00 3.3716939E+00 -1.9596584E-01 -1.1099378E+00