# TIME = 2.000000
VARIABLES = X, Y, Z, FX, FY, FZ
ZONE N=29232 E=58212 F=FEPOINT ET=TRIANGLE
  0.000E+00  9.502E-01  1.243E-03 3.3542789E+00 3.8619487E-02 7.7670794E-01
  0.000E+00  1.000E+00  0.000E+00 3.3528643E+00 1.5490375E-06 7.7769862E-01
  4.318E-02  9.751E-01  3.108E-04 3.3526673E+00 1.8712790E-02 7.5343876E-01
  0.000E+00  1.050E+00  1.243E-03 3.3542780E+00 -3.8616389E-02 7.7670796E-01
  4.318E-02  1.025E+00  3.108E-04 3.3526668E+00 -1.8709497E-02 7.5343877E-01
  0.000E+00  1.100E+00  4.969E-03 3.3597664E+00 -7.7270043E-02 7.7381487E-01
  4.318E-02  1.075E+00  2.796E-03 3.3560850E+00 -5.6147831E-02 7.5154274E-01
  0.000E+00  1.149E+00  1.117E-02 3.3716953E+00 -1.1596511E-01 7.6914811E-01
  4.318E-02  1.124E+00  7.761E-03 3.3649625E+00 -9.3636035E-02 7.4786915E-01
  0.000E+00  1.198E+00  1.983E-02 3.3894741E+00 -1.5445035E-01 7.6262240E-01
  4.318E-02  1.174E+00  1.519E-02 3.3805285E+00 -1.3108663E-01 7.4247268E-01
  0.000E+00  1.247E+00  3.092E-02 3.4060108E+00 -1.9221871E-01 7.5394175E-01
  4.318E-02  1.223E+00  2.507E-02 3.3987973E+00 -1.6809802E-01 7.3514335E-01
  0.000E+00  1.295E+00  4.443E-02 3.4130475E+00 -2.2914734E-01 7.4312984E-01
  4.318E-02  1.271E+00  3.738E-02 3.4106344E+00 -2.0425222E-01 7.2564729E-01
  0.000E+00  1.342E+00  6.031E-02 3.4241648E+00 -2.6577029E-01 7.3071636E-01
  4.318E-02  1.318E+00  5.207E-02 3.4138024E+00 -2.3982067E-01 7.1432949E-01
  0.000E+00  1.388E+00  7.852E-02 3.4582035E+00 -3.0214548E-01 7.1678531E-01
  4.318E-02  1.365E+00  6.913E-02 3.4426619E+00 -2.7526499E-01 7.0161990E-01
  0.000E+00  1.434E+00  9.903E-02 3.4663144E+00 -3.3753446E-01 7.0082151E-01
  4.318E-02  1.411E+00  8.849E-02 3.4686110E+00 -3.1010208E-01 6.8716440E-01
  0.000E+00  1.478E+00  1.218E-01 3.4840494E+00 -3.7194960E-01 6.8304672E-01
  4.318E-02  1.456E+00  1.101E-01 3.4658771E+00 -3.4387973E-01 6.7075456E-01
  0.000E+00  1.521E+00  1.467E-01 3.5099870E+00 -4.0556980E-01 6.6369707E-01
  4.318E-02  1.500E+00  1.340E-01 3.5003035E+00 -3.7686336E-01 6.5277626E-01
  0.000E+00  1.563E+00  1.738E-01 3.5065075E+00 -4.3815088E-01 6.4265065E-01
  4.318E-02  1.543E+00  1.600E-01 3.4994553E+00 -4.0896745E-01 6.3320635E-01
  0.000E+00  1.604E+00  2.029E-01 3.5277538E+00 -4.6963274E-01 6.2000474E-01
  4.318E-02  1.584E+00  1.881E-01 3.5310399E+00 -4.4000710E-01 6.1201655E-01
  0.000E+00  1.643E+00  2.340E-01 3.5352753E+00 -4.9995922E-01 5.9583073E-01
  4.318E-02  1.623E+00  2.182E-01 3.5214210E+00 -4.6997167E-01 5.8932820E-01
  0.000E+00  1.680E+00  2.669E-01 3.5366700E+00 -5.2903526E-01 5.7016750E-01
  4.318E-02  1.662E+00  2.502E-01 3.5381045E+00 -4.9876275E-01 5.6517010E-01
  0.000E+00  1.716E+00  3.018E-01 3.5379345E+00 -5.5679868E-01 5.4308792E-01
  4.318E-02  1.698E+00  2.841E-01 3.5379441E+00 -5.2631378E-01 5.3960530E-01
  0.000E+00  1.750E+00  3.383E-01 3.5380943E+00 -5.8317808E-01 5.1465889E-01
  4.318E-02  1.733E+00  3.198E-01 3.5366791E+00 -5.5255693E-01 5.1269917E-01
  0.000E+00  1.782E+00  3.765E-01 3.5214104E+00 -6.0810610E-01 4.8495039E-01
  4.318E-02  1.766E+00  3.572E-01 3.5352839E+00 -5.7742764E-01 4.8452109E-01
  0.000E+00  1.812E+00  4.163E-01 3.5310289E+00 -6.3151766E-01 4.5403110E-01
  4.318E-02  1.797E+00  3.962E-01 3.5277619E+00 -6.0085521E-01 4.5513127E-01
  0.000E+00  1.840E+00  4.575E-01 3.4994436E+00 -6.5338261E-01 4.2200230E-01
  4.318E-02  1.826E+00  4.367E-01 3.5065151E+00 -6.2280194E-01 4.2462186E-01
  0.000E+00  1.866E+00  5.000E-01 3.5002912E+00 -6.7357580E-01 3.8887500E-01
  4.318E-02  1.853E+00  4.786E-01 3.5099938E+00 -6.4319799E-01 3.9304690E-01
  0.000E+00  1.890E+00  5.438E-01 3.4658644E+00 -6.9212718E-01 3.5484028E-01
  4.318E-02  1.878E+00  5.217E-01 3.4840556E+00 -6.6195000E-01 3.6046482E-01
  0.000E+00  1.912E+00  5.887E-01 3.4685980E+00 -7.0906019E-01 3.1998662E-01
  4.318E-02  1.901E+00  5.661E-01 3.4663200E+00 -6.7917595E-01 3.2711230E-01
  0.000E+00  1.931E+00  6.347E-01 3.4426484E+00 -7.2397659E-01 2.8403960E-01
  4.318E-02  1.921E+00  6.116E-01 3.4582087E+00 -6.9464684E-01 2.9281625E-01
  0.000E+00  1.948E+00  6.815E-01 3.4137882E+00 -7.3709125E-01 2.4746562E-01
  4.318E-02  1.940E+00  6.580E-01 3.4241695E+00 -7.0814798E-01 2.5756470E-01
  0.000E+00  1.963E+00  7.292E-01 3.4106197E+00 -7.4876936E-01 2.1076330E-01
  4.318E-02  1.956E+00  7.052E-01 3.4130513E+00 -7.2017796E-01 2.2207314E-01
  0.000E+00  1.975E+00  7.775E-01 3.3987820E+00 -7.5856778E-01 1.7345659E-01
  4.318E-02  1.969E+00  7.532E-01 3.4060138E+00 -7.3065571E-01 1.8628523E-01
  0.000E+00  1.985E+00  8.264E-01 3.3805126E+00 -7.6613069E-01 1.3526565E-01
  4.318E-02  1.980E+00  8.019E-01 3.3894764E+00 -7.3906838E-01 1.4968326E-01
  0.000E+00  1.992E+00  8.757E-01 3.3649462E+00 -7.7169926E-01 9.6621729E-02
  4.318E-02  1.989E+00  8.510E-01 3.3716972E+00 -7.4539282E-01 1.1238634E-01
  0.000E+00  1.997E+00  9.253E-01 3.3560683E+00 -7.7549004E-01 5.7939082E-02
  4.318E-02  1.995E+00  9.004E-01 3.3597681E+00 -7.4991566E-01 7.4886031E-02
  0.000E+00  2.000E+00  9.751E-01 3.3526497E+00 -7.7744658E-01 1.9307884E-02
  4.318E-02  1.999E+00  9.502E-01 3.3542793E+00 -7.5271953E-01 3.7425952E-02
  0.000E+00  2.000E+00  1.025E+00 3.3526497E+00 -7.7744657E-01 -1.9306771E-02
  4.318E-02  2.000E+00  1.000E+00 3.3528652E+00 -7.5367963E-01 5.8503956E-07
  0.000E+00  1.997E+00  1.075E+00 3.3560683E+00 -7.7549001E-01 -5.7937969E-02
  4.318E-02  1.999E+00  1.050E+00 3.3542793E+00 -7.5271951E-01 -3.7424782E-02
  0.000E+00  1.992E+00  1.124E+00 3.3649462E+00 -7.7169922E-01 -9.6620618E-02
  4.318E-02  1.995E+00  1.100E+00 3.3597680E+00 -7.4991561E-01 -7.4884861E-02
  0.000E+00  1.985E+00  1.174E+00 3.3805126E+00 -7.6613075E-01 -1.3526454E-01
  4.318E-02  1.989E+00  1.149E+00 3.3716972E+00 -7.4539280E-01 -1.1238517E-01
  0.000E+00  1.975E+00  1.223E+00 3.3987820E+00 -7.5856799E-01 -1.7345549E-01
  4.318E-02  1.980E+00  1.198E+00 3.3894763E+00 -7.3906851E-01 -1.4968209E-01
  0.000E+00  1.963E+00  1.271E+00 3.4106196E+00 -7.4876948E-01 -2.1076219E-01
  4.318E-02  1.969E+00  1.247E+00 3.4060137E+00 -7.3065591E-01 -1.8628406E-01
  0.000E+00  1.948E+00  1.318E+00 3.4137882E+00 -7.3709110E-01 -2.4746452E-01
  4.318E-02  1.956E+00  1.295E+00 3.4130512E+00 -7.2017792E-01 -2.2207198E-01
  0.000E+00  1.931E+00  1.365E+00 3.4426484E+00 -7.2397678E-01 -2.8403850E-01
  4.318E-02  1.940E+00  1.342E+00 3.4241694E+00 -7.0814794E-01 -2.5756354E-01
  0.000E+00  1.912E+00  1.411E+00 3.4685979E+00 -7.0906047E-01 -3.1998553E-01
  4.318E-02  1.921E+00  1.388E+00 3.4582086E+00 -6.9464718E-01 -2.9281510E-01
  0.000E+00  1.890E+00  1.456E+00 3.4658643E+00 -6.9212708E-01 -3.5483919E-01
  4.318E-02  1.901E+00  1.434E+00 3.4663199E+00 -6.7917600E-01 -3.2711116E-01
  0.000E+00  1.866E+00  1.500E+00 3.5002911E+00 -6.7357606E-01 -3.8887392E-01
  4.318E-02  1.878E+00  1.478E+00 3.4840555E+00 -6.6195009E-01 -3.6046368E-01
  0.000E+00  1.840E+00  1.543E+00 3.4994435E+00 -6.5338275E-01 -4.2200122E-01
  4.318E-02  1.853E+00  1.521E+00 3.5099937E+00 -6.4319831E-01 -3.9304577E-01
  0.000E+00  1.812E+00  1.584E+00 3.5310288E+00 -6.3151782E-01 -4.5403003E-01
  4.318E-02  1.826E+00  1.563E+00 3.5065150E+00 -6.2280205E-01 -4.2462073E-01
  0.000E+00  1.782E+00  1.623E+00 3.5214103E+00 -6.0810630E-01 -4.8494932E-01
  4.318E-02  1.797E+00  1.604E+00 3.5277617E+00 -6.0085550E-01 -4.5513016E-01
  0.000E+00  1.750E+00  1.662E+00 3.5380942E+00 -5.8317826E-01 -5.1465782E-01
  4.318E-02  1.766E+00  1.643E+00 3.5352837E+00 -5.7742784E-01 -4.8451998E-01
  0.000E+00  1.716E+00  1.698E+00 3.5379343E+00 -5.5679890E-01 -5.4308686E-01
  4.318E-02  1.733E+00  1.680E+00 3.5366789E+00 -5.5255719E-01 -5.1269808E-01
  0.000E+00  1.680E+00  1.733E+00 3.5366699E+00 -5.2903545E-01 -5.7016645E-01
  4.318E-02  1.698E+00  1.716E+00 3.5379439E+00 -5.2631400E-01 -5.3960421E-01
  0.000E+00  1.643E+00  1.766E+00 3.5352752E+00 -4.9995941E-01 -5.9582968E-01
  4.318E-02  1.662E+00  1.750E+00 3.5381043E+00 -4.9876300E-01 -5.6516902E-01
  0.000E+00  1.604E+00  1.797E+00 3.5277537E+00 -4.6963294E-01 -6.2000371E-01
  4.318E-02  1.623E+00  1.782E+00 3.5214209E+00 -4.6997193E-01 -5.8932713E-01
  0.000E+00  1.563E+00  1.826E+00 3.5065074E+00 -4.3815117E-01 -6.4264965E-01
  4.318E-02  1.584E+00  1.812E+00 3.5310398E+00 -4.4000734E-01 -6.1201548E-01
  0.000E+00  1.521E+00  1.853E+00 3.5099868E+00 -4.0557022E-01 -6.6369610E-01
  4.318E-02  1.543E+00  1.840E+00 3.4994551E+00 -4.0896760E-01 -6.3320527E-01
  0.000E+00  1.478E+00  1.878E+00 3.4840492E+00 -3.7194992E-01 -6.8304573E-01
  4.318E-02  1.500E+00  1.866E+00 3.5003033E+00 -3.7686349E-01 -6.5277520E-01
  0.000E+00  1.434E+00  1.901E+00 3.4663141E+00 -3.3753434E-01 -7.0082041E-01
  4.318E-02  1.456E+00  1.890E+00 3.4658769E+00 -3.4388003E-01 -6.7075355E-01
  0.000E+00  1.388E+00  1.921E+00 3.4582034E+00 -3.0214495E-01 -7.1678409E-01
  4.318E-02  1.411E+00  1.912E+00 3.4686108E+00 -3.1010272E-01 -6.8716349E-01
  0.000E+00  1.342E+00  1.940E+00 3.4241648E+00 -2.6576998E-01 -7.3071515E-01
  4.318E-02  1.365E+00  1.931E+00 3.4426618E+00 -2.7526572E-01 -7.0161904E-01
  0.000E+00  1.295E+00  1.956E+00 3.4130474E+00 -2.2914793E-01 -7.4312883E-01
  4.318E-02  1.318E+00  1.948E+00 3.4138023E+00 -2.3982100E-01 -7.1432859E-01
  0.000E+00  1.247E+00  1.969E+00 3.4060106E+00 -1.9222019E-01 -7.5394101E-01
  4.318E-02  1.271E+00  1.963E+00 3.4106344E+00 -2.0425189E-01 -7.2564625E-01
  0.000E+00  1.198E+00  1.980E+00 3.3894738E+00 -1.5445212E-01 -7.6262188E-01
  4.318E-02  1.223E+00  1.975E+00 3.3987973E+00 -1.6809727E-01 -7.3514215E-01
  0.000E+00  1.149E+00  1.989E+00 3.3716950E+00 -1.1596656E-01 -7.6914771E-01
  4.318E-02  1.174E+00  1.985E+00 3.3805283E+00 -1.3108592E-01 -7.4247139E-01
  0.000E+00  1.100E+00  1.995E+00 3.3597662E+00 -7.7270947E-02 -7.7381452E-01
  4.318E-02  1.124E+00  1.992E+00 3.3649623E+00 -9.3635640E-02 -7.4786783E-01
  0.000E+00  1.050E+00  1.999E+00 3.3542778E+00 -3.8616865E-02 -7.7670765E-01
  4.318E-02  1.075E+00  1.997E+00 3.3560847E+00 -5.6147752E-02 -7.5154141E-01
  0.000E+00  1.000E+00  2.000E+00 3.3528642E+00 1.3497930E-06 -7.7769832E-01
  4.318E-02  1.025E+00  2.000E+00 3.3526665E+00 -1.8709623E-02 -7.5343745E-01
  0.000E+00  9.502E-01  1.999E+00 3.3542788E+00 3.8619564E-02 -7.7670764E-01
  4.318E-02  9.751E-01  2.000E+00 3.3526670E+00 1.8712516E-02 -7.5343744E-01
  0.000E+00  9.004E-01  1.995E+00 3.3597680E+00 7.7273646E-02 -7.7381451E-01
  4.318E-02  9.253E-01  1.997E+00 3.3560861E+00 5.6150645E-02 -7.5154140E-01
  0.000E+00  8.510E-01  1.989E+00 3.3716978E+00 1.1596926E-01 -7.6914769E-01
  4.318E-02  8.757E-01  1.992E+00 3.3649646E+00 9.3638533E-02 -7.4786782E-01
  0.000E+00  8.019E-01  1.980E+00 3.3894774E+00 1.5445482E-01 -7.6262186E-01
  4.318E-02  8.264E-01  1.985E+00 3.3805315E+00 1.3108881E-01 -7.4247137E-01
  0.000E+00  7.532E-01  1.969E+00 3.4060152E+00 1.9222289E-01 -7.5394099E-01
  4.318E-02  7.775E-01  1.975E+00 3.3988014E+00 1.6810016E-01 -7.3514213E-01
  0.000E+00  7.052E-01  1.956E+00 3.4130528E+00 2.2915063E-01 -7.4312881E-01
  4.318E-02  7.292E-01  1.963E+00 3.4106393E+00 2.0425478E-01 -7.2564622E-01
  0.000E+00  6.580E-01  1.940E+00 3.4241710E+00 2.6577267E-01 -7.3071513E-01
  4.318E-02  6.815E-01  1.948E+00 3.4138081E+00 2.3982389E-01 -7.1432855E-01
  0.000E+00  6.116E-01  1.921E+00 3.4582104E+00 3.0214764E-01 -7.1678407E-01
  4.318E-02  6.347E-01  1.931E+00 3.4426684E+00 2.7526861E-01 -7.0161900E-01
  0.000E+00  5.661E-01  1.901E+00 3.4663220E+00 3.3753704E-01 -7.0082039E-01
  4.318E-02  5.887E-01  1.912E+00 3.4686183E+00 3.1010560E-01 -6.8716345E-01
  0.000E+00  5.217E-01  1.878E+00 3.4840579E+00 3.7195261E-01 -6.8304570E-01
  4.318E-02  5.438E-01  1.890E+00 3.4658852E+00 3.4388292E-01 -6.7075351E-01
  0.000E+00  4.786E-01  1.853E+00 3.5099962E+00 4.0557292E-01 -6.6369607E-01
  4.318E-02  5.000E-01  1.866E+00 3.5003123E+00 3.7686637E-01 -6.5277515E-01
  0.000E+00  4.367E-01  1.826E+00 3.5065175E+00 4.3815387E-01 -6.4264962E-01
  4.318E-02  4.575E-01  1.840E+00 3.4994648E+00 4.0897049E-01 -6.3320523E-01
  0.000E+00  3.962E-01  1.797E+00 3.5277644E+00 4.6963563E-01 -6.2000368E-01
  4.318E-02  4.163E-01  1.812E+00 3.5310502E+00 4.4001022E-01 -6.1201544E-01
  0.000E+00  3.572E-01  1.766E+00 3.5352866E+00 4.9996210E-01 -5.9582966E-01
  4.318E-02  3.765E-01  1.782E+00 3.5214319E+00 4.6997482E-01 -5.8932709E-01
  0.000E+00  3.198E-01  1.733E+00 3.5366819E+00 5.2903815E-01 -5.7016643E-01
  4.318E-02  3.383E-01  1.750E+00 3.5381160E+00 4.9876588E-01 -5.6516899E-01
  0.000E+00  2.841E-01  1.698E+00 3.5379469E+00 5.5680157E-01 -5.4308685E-01
  4.318E-02  3.018E-01  1.716E+00 3.5379562E+00 5.2631690E-01 -5.3960419E-01
  0.000E+00  2.502E-01  1.662E+00 3.5381073E+00 5.8318097E-01 -5.1465782E-01
  4.318E-02  2.669E-01  1.680E+00 3.5366918E+00 5.5256004E-01 -5.1269806E-01
  0.000E+00  2.182E-01  1.623E+00 3.5214238E+00 6.0810898E-01 -4.8494933E-01
  4.318E-02  2.340E-01  1.643E+00 3.5352971E+00 5.7743075E-01 -4.8451997E-01
  0.000E+00  1.881E-01  1.584E+00 3.5310428E+00 6.3152053E-01 -4.5403004E-01
  4.318E-02  2.029E-01  1.604E+00 3.5277755E+00 6.0085832E-01 -4.5513016E-01
  0.000E+00  1.600E-01  1.543E+00 3.4994580E+00 6.5338548E-01 -4.2200125E-01
  4.318E-02  1.738E-01  1.563E+00 3.5065292E+00 6.2280504E-01 -4.2462074E-01
  0.000E+00  1.340E-01  1.500E+00 3.5003060E+00 6.7357866E-01 -3.8887395E-01
  4.318E-02  1.467E-01  1.521E+00 3.5100083E+00 6.4320109E-01 -3.9304579E-01
  0.000E+00  1.101E-01  1.456E+00 3.4658795E+00 6.9213004E-01 -3.5483925E-01
  4.318E-02  1.218E-01  1.478E+00 3.4840705E+00 6.6195308E-01 -3.6046371E-01
  0.000E+00  8.849E-02  1.411E+00 3.4686134E+00 7.0906306E-01 -3.1998559E-01
  4.318E-02  9.903E-02  1.434E+00 3.4663352E+00 6.7917902E-01 -3.2711121E-01
  0.000E+00  6.913E-02  1.365E+00 3.4426641E+00 7.2397945E-01 -2.8403858E-01
  4.318E-02  7.852E-02  1.388E+00 3.4582242E+00 6.9464989E-01 -2.9281516E-01
  0.000E+00  5.207E-02  1.318E+00 3.4138041E+00 7.3709411E-01 -2.4746461E-01
  4.318E-02  6.031E-02  1.342E+00 3.4241852E+00 7.0815103E-01 -2.5756362E-01
  0.000E+00  3.738E-02  1.271E+00 3.4106358E+00 7.4877221E-01 -2.1076230E-01
  4.318E-02  4.443E-02  1.295E+00 3.4130673E+00 7.2018100E-01 -2.2207208E-01
  0.000E+00  2.507E-02  1.223E+00 3.3987983E+00 7.5857062E-01 -1.7345562E-01
  4.318E-02  3.092E-02  1.247E+00 3.4060299E+00 7.3065874E-01 -1.8628418E-01
  0.000E+00  1.519E-02  1.174E+00 3.3805290E+00 7.6613353E-01 -1.3526468E-01
  4.318E-02  1.983E-02  1.198E+00 3.3894927E+00 7.3907140E-01 -1.4968222E-01
  0.000E+00  7.761E-03  1.124E+00 3.3649627E+00 7.7170209E-01 -9.6620776E-02
  4.318E-02  1.117E-02  1.149E+00 3.3717137E+00 7.4539583E-01 -1.1238532E-01
  0.000E+00  2.796E-03  1.075E+00 3.3560849E+00 7.7549286E-01 -5.7938143E-02
  4.318E-02  4.969E-03  1.100E+00 3.3597846E+00 7.4991867E-01 -7.4885026E-02
  0.000E+00  3.108E-04  1.025E+00 3.3526663E+00 7.7744939E-01 -1.9306962E-02
  4.318E-02  1.243E-03  1.050E+00 3.3542959E+00 7.5272253E-01 -3.7424964E-02
  0.000E+00  3.108E-04  9.751E-01 3.3526664E+00 7.7744937E-01 1.9307677E-02
  4.318E-02  0.000E+00  1.000E+00 3.3528818E+00 7.5368263E-01 3.8590306E-07
  0.000E+00  2.796E-03  9.253E-01 3.3560849E+00 7.7549279E-01 5.7938860E-02
  4.318E-02  1.243E-03  9.502E-01 3.3542959E+00 7.5272250E-01 3.7425736E-02
  0.000E+00  7.761E-03  8.757E-01 3.3649628E+00 7.7170200E-01 9.6621492E-02
  4.318E-02  4.969E-03  9.004E-01 3.3597846E+00 7.4991860E-01 7.4885799E-02
  0.000E+00  1.519E-02  8.264E-01 3.3805291E+00 7.6613353E-01 1.3526539E-01
  4.318E-02  1.117E-02  8.510E-01 3.3717137E+00 7.4539578E-01 1.1238610E-01
  0.000E+00  2.507E-02  7.775E-01 3.3987983E+00 7.5857076E-01 1.7345633E-01
  4.318E-02  1.983E-02  8.019E-01 3.3894928E+00 7.3907148E-01 1.4968300E-01
  0.000E+00  3.738E-02  7.292E-01 3.4106358E+00 7.4877225E-01 2.1076302E-01
  4.318E-02  3.092E-02  7.532E-01 3.4060300E+00 7.3065888E-01 1.8628496E-01
  0.000E+00  5.207E-02  6.815E-01 3.4138042E+00 7.3709387E-01 2.4746533E-01
  4.318E-02  4.443E-02  7.052E-01 3.4130674E+00 7.2018088E-01 2.2207286E-01
  0.000E+00  6.913E-02  6.347E-01 3.4426641E+00 7.2397954E-01 2.8403930E-01
  4.318E-02  6.031E-02  6.580E-01 3.4241853E+00 7.0815089E-01 2.5756440E-01
  0.000E+00  8.849E-02  5.887E-01 3.4686134E+00 7.0906323E-01 3.1998631E-01
  4.318E-02  7.852E-02  6.116E-01 3.4582243E+00 6.9465013E-01 2.9281594E-01
  0.000E+00  1.101E-01  5.438E-01 3.4658796E+00 6.9212985E-01 3.5483997E-01
  4.318E-02  9.903E-02  5.661E-01 3.4663353E+00 6.7917895E-01 3.2711199E-01
  0.000E+00  1.340E-01  5.000E-01 3.5003060E+00 6.7357884E-01 3.8887468E-01
  4.318E-02  1.218E-01  5.217E-01 3.4840706E+00 6.6195303E-01 3.6046450E-01
  0.000E+00  1.600E-01  4.575E-01 3.4994581E+00 6.5338553E-01 4.2200198E-01
  4.318E-02  1.467E-01  4.786E-01 3.5100084E+00 6.4320125E-01 3.9304658E-01
  0.000E+00  1.881E-01  4.163E-01 3.5310429E+00 6.3152061E-01 4.5403079E-01
  4.318E-02  1.738E-01  4.367E-01 3.5065293E+00 6.2280498E-01 4.2462153E-01
  0.000E+00  2.182E-01  3.765E-01 3.5214239E+00 6.0810910E-01 4.8495007E-01
  4.318E-02  2.029E-01  3.962E-01 3.5277757E+00 6.0085843E-01 4.5513095E-01
  0.000E+00  2.502E-01  3.383E-01 3.5381074E+00 5.8318105E-01 5.1465857E-01
  4.318E-02  2.340E-01  3.572E-01 3.5352972E+00 5.7743078E-01 4.8452076E-01
  0.000E+00  2.841E-01  3.018E-01 3.5379470E+00 5.5680169E-01 5.4308761E-01
  4.318E-02  2.669E-01  3.198E-01 3.5366919E+00 5.5256013E-01 5.1269885E-01
  0.000E+00  3.198E-01  2.669E-01 3.5366820E+00 5.2903825E-01 5.7016720E-01
  4.318E-02  3.018E-01  2.841E-01 3.5379564E+00 5.2631696E-01 5.3960499E-01
  0.000E+00  3.572E-01  2.340E-01 3.5352867E+00 4.9996223E-01 5.9583044E-01
  4.318E-02  3.383E-01  2.502E-01 3.5381162E+00 4.9876595E-01 5.6516980E-01
  0.000E+00  3.962E-01  2.029E-01 3.5277646E+00 4.6963576E-01 6.2000446E-01
  4.318E-02  3.765E-01  2.182E-01 3.5214321E+00 4.6997488E-01 5.8932790E-01
  0.000E+00  4.367E-01  1.738E-01 3.5065176E+00 4.3815390E-01 6.4265038E-01
  4.318E-02  4.163E-01  1.881E-01 3.5310504E+00 4.4001032E-01 6.1201626E-01
  0.000E+00  4.786E-01  1.467E-01 3.5099963E+00 4.0557285E-01 6.6369682E-01
  4.318E-02  4.575E-01  1.600E-01 3.4994650E+00 4.0897067E-01 6.3320608E-01
  0.000E+00  5.217E-01  1.218E-01 3.4840581E+00 3.7195265E-01 6.8304648E-01
  4.318E-02  5.000E-01  1.340E-01 3.5003125E+00 3.7686661E-01 6.5277601E-01
  0.000E+00  5.661E-01  9.903E-02 3.4663222E+00 3.3753751E-01 7.0082128E-01
  4.318E-02  5.438E-01  1.101E-01 3.4658854E+00 3.4388298E-01 6.7075433E-01
  0.000E+00  6.116E-01  7.852E-02 3.4582106E+00 3.0214855E-01 7.1678511E-01
  4.318E-02  5.887E-01  8.849E-02 3.4686185E+00 3.1010534E-01 6.8716419E-01
  0.000E+00  6.580E-01  6.031E-02 3.4241711E+00 2.6577336E-01 7.3071617E-01
  4.318E-02  6.347E-01  6.913E-02 3.4426686E+00 2.7526826E-01 7.0161971E-01
  0.000E+00  7.052E-01  4.443E-02 3.4130529E+00 2.2915042E-01 7.4312968E-01
  4.318E-02  6.815E-01  5.207E-02 3.4138082E+00 2.3982394E-01 7.1432932E-01
  0.000E+00  7.532E-01  3.092E-02 3.4060154E+00 1.9222180E-01 7.5394161E-01
  4.318E-02  7.292E-01  3.738E-02 3.4106394E+00 2.0425550E-01 7.2564715E-01
  0.000E+00  8.019E-01  1.983E-02 3.3894777E+00 1.5445344E-01 7.6262230E-01
  4.318E-02  7.775E-01  2.507E-02 3.3988014E+00 1.6810130E-01 7.3514323E-01
  0.000E+00  8.510E-01  1.117E-02 3.3716980E+00 1.1596821E-01 7.6914803E-01
  4.318E-02  8.264E-01  1.519E-02 3.3805317E+00 1.3108991E-01 7.4247258E-01
  0.000E+00  9.004E-01  4.969E-03 3.3597682E+00 7.7273139E-02 7.7381482E-01
  4.318E-02  8.757E-01  7.761E-03 3.3649648E+00 9.3639324E-02 7.4786909E-01
  4.318E-02  9.253E-01  2.796E-03 3.3560864E+00 5.6151123E-02 7.5154270E-01
  1.000E+01  1.050E+00  1.243E-03 3.3542780E+00 -3.8616389E-02 7.7670796E-01
  1.000E+01  1.000E+00  5.551E-16 3.3528643E+00 1.5490375E-06 7.7769862E-01
  9.957E+00  1.025E+00  3.108E-04 3.3526646E+00 -1.9903625E-02 8.0151859E-01
  1.000E+01  9.502E-01  1.243E-03 3.3542789E+00 3.8619487E-02 7.7670794E-01
  9.957E+00  9.751E-01  3.108E-04 3.3526650E+00 1.9906527E-02 8.0151858E-01
  1.000E+01  9.004E-01  4.969E-03 3.3597682E+00 7.7273139E-02 7.7381482E-01
  9.957E+00  9.253E-01  2.796E-03 3.3560841E+00 5.9733779E-02 7.9950147E-01
  1.000E+01  8.510E-01  1.117E-02 3.3716980E+00 1.1596821E-01 7.6914803E-01
  9.957E+00  8.757E-01  7.761E-03 3.3649625E+00 9.9614178E-02 7.9559337E-01
  1.000E+01  8.019E-01  1.983E-02 3.3894777E+00 1.5445344E-01 7.6262230E-01
  9.957E+00  8.264E-01  1.519E-02 3.3805294E+00 1.3945472E-01 7.8985250E-01
  1.000E+01  7.532E-01  3.092E-02 3.4060154E+00 1.9222180E-01 7.5394161E-01
  9.957E+00  7.775E-01  2.507E-02 3.3987993E+00 1.7882824E-01 7.8205556E-01
  1.000E+01  7.052E-01  4.443E-02 3.4130529E+00 2.2915042E-01 7.4312968E-01
  9.957E+00  7.292E-01  3.738E-02 3.4106374E+00 2.1728993E-01 7.7195366E-01
  1.000E+01  6.580E-01  6.031E-02 3.4241711E+00 2.6577336E-01 7.3071617E-01
  9.957E+00  6.815E-01  5.207E-02 3.4138063E+00 2.5512826E-01 7.5991356E-01
  1.000E+01  6.116E-01  7.852E-02 3.4582106E+00 3.0214855E-01 7.1678511E-01
  9.957E+00  6.347E-01  6.913E-02 3.4426665E+00 2.9283418E-01 7.4639263E-01
  1.000E+01  5.661E-01  9.903E-02 3.4663222E+00 3.3753751E-01 7.0082128E-01
  9.957E+00  5.887E-01  8.849E-02 3.4686162E+00 3.2989402E-01 7.3101447E-01
  1.000E+01  5.217E-01  1.218E-01 3.4840581E+00 3.7195265E-01 6.8304648E-01
  9.957E+00  5.438E-01  1.101E-01 3.4658831E+00 3.6582698E-01 7.1355742E-01
  1.000E+01  4.786E-01  1.467E-01 3.5099963E+00 4.0557285E-01 6.6369682E-01
  9.957E+00  5.000E-01  1.340E-01 3.5003103E+00 4.0091565E-01 6.9443205E-01
  1.000E+01  4.367E-01  1.738E-01 3.5065176E+00 4.3815390E-01 6.4265038E-01
  9.957E+00  4.575E-01  1.600E-01 3.4994629E+00 4.3506853E-01 6.7361351E-01
  1.000E+01  3.962E-01  2.029E-01 3.5277646E+00 4.6963576E-01 6.2000446E-01
  9.957E+00  4.163E-01  1.881E-01 3.5310482E+00 4.6808876E-01 6.5107142E-01
  1.000E+01  3.572E-01  2.340E-01 3.5352867E+00 4.9996223E-01 5.9583044E-01
  9.957E+00  3.765E-01  2.182E-01 3.5214299E+00 4.9996529E-01 6.2693512E-01
  1.000E+01  3.198E-01  2.669E-01 3.5366820E+00 5.2903825E-01 5.7016720E-01
  9.957E+00  3.383E-01  2.502E-01 3.5381139E+00 5.3059363E-01 6.0123539E-01
  1.000E+01  2.841E-01  3.018E-01 3.5379470E+00 5.5680169E-01 5.4308761E-01
  9.957E+00  3.018E-01  2.841E-01 3.5379542E+00 5.5990278E-01 5.7403929E-01
  1.000E+01  2.502E-01  3.383E-01 3.5381074E+00 5.8318105E-01 5.1465857E-01
  9.957E+00  2.669E-01  3.198E-01 3.5366897E+00 5.8782071E-01 5.4541623E-01
  1.000E+01  2.182E-01  3.765E-01 3.5214239E+00 6.0810910E-01 4.8495007E-01
  9.957E+00  2.340E-01  3.572E-01 3.5352950E+00 6.1427851E-01 5.1543999E-01
  1.000E+01  1.881E-01  4.163E-01 3.5310429E+00 6.3152061E-01 4.5403079E-01
  9.957E+00  2.029E-01  3.962E-01 3.5277735E+00 6.3920111E-01 4.8417467E-01
  1.000E+01  1.600E-01  4.575E-01 3.4994581E+00 6.5338553E-01 4.2200198E-01
  9.957E+00  1.738E-01  4.367E-01 3.5065271E+00 6.6254804E-01 4.5171806E-01
  1.000E+01  1.340E-01  5.000E-01 3.5003060E+00 6.7357884E-01 3.8887468E-01
  9.957E+00  1.467E-01  4.786E-01 3.5100062E+00 6.8424597E-01 4.1812823E-01
  1.000E+01  1.101E-01  5.438E-01 3.4658796E+00 6.9212985E-01 3.5483997E-01
  9.957E+00  1.218E-01  5.217E-01 3.4840684E+00 7.0419462E-01 3.8346715E-01
  1.000E+01  8.849E-02  5.887E-01 3.4686134E+00 7.0906323E-01 3.1998631E-01
  9.957E+00  9.903E-02  5.661E-01 3.4663332E+00 7.2252000E-01 3.4798645E-01
  1.000E+01  6.913E-02  6.347E-01 3.4426641E+00 7.2397954E-01 2.8403930E-01
  9.957E+00  7.852E-02  6.116E-01 3.4582221E+00 7.3897830E-01 3.1150153E-01
  1.000E+01  5.207E-02  6.815E-01 3.4138042E+00 7.3709387E-01 2.4746533E-01
  9.957E+00  6.031E-02  6.580E-01 3.4241831E+00 7.5334036E-01 2.7400010E-01
  1.000E+01  3.738E-02  7.292E-01 3.4106358E+00 7.4877225E-01 2.1076302E-01
  9.957E+00  4.443E-02  7.052E-01 3.4130651E+00 7.6613797E-01 2.3624367E-01
  1.000E+01  2.507E-02  7.775E-01 3.3987983E+00 7.5857076E-01 1.7345633E-01
  9.957E+00  3.092E-02  7.532E-01 3.4060278E+00 7.7728468E-01 1.9817224E-01
  1.000E+01  1.519E-02  8.264E-01 3.3805291E+00 7.6613353E-01 1.3526539E-01
  9.957E+00  1.983E-02  8.019E-01 3.3894906E+00 7.8623425E-01 1.5923488E-01
  1.000E+01  7.761E-03  8.757E-01 3.3649628E+00 7.7170200E-01 9.6621492E-02
  9.957E+00  1.117E-02  8.510E-01 3.3717116E+00 7.9296221E-01 1.1955812E-01
  1.000E+01  2.796E-03  9.253E-01 3.3560849E+00 7.7549279E-01 5.7938860E-02
  9.957E+00  4.969E-03  9.004E-01 3.3597825E+00 7.9777366E-01 7.9664799E-02
  1.000E+01  3.108E-04  9.751E-01 3.3526664E+00 7.7744937E-01 1.9307677E-02
  9.957E+00  1.243E-03  9.502E-01 3.3542937E+00 8.0075645E-01 3.9814139E-02
  1.000E+01  3.108E-04  1.025E+00 3.3526663E+00 7.7744939E-01 -1.9306962E-02
  9.957E+00  0.000E+00  1.000E+00 3.3528796E+00 8.0177783E-01 3.2172698E-07
  1.000E+01  2.796E-03  1.075E+00 3.3560849E+00 7.7549286E-01 -5.7938143E-02
  9.957E+00  1.243E-03  1.050E+00 3.3542937E+00 8.0075649E-01 -3.9813496E-02
  1.000E+01  7.761E-03  1.124E+00 3.3649627E+00 7.7170209E-01 -9.6620776E-02
  9.957E+00  4.969E-03  1.100E+00 3.3597825E+00 7.9777374E-01 -7.9664158E-02
  1.000E+01  1.519E-02  1.174E+00 3.3805290E+00 7.6613353E-01 -1.3526468E-01
  9.957E+00  1.117E-02  1.149E+00 3.3717116E+00 7.9296226E-01 -1.1955748E-01
  1.000E+01  2.507E-02  1.223E+00 3.3987983E+00 7.5857062E-01 -1.7345562E-01
  9.957E+00  1.983E-02  1.198E+00 3.3894905E+00 7.8623416E-01 -1.5923424E-01
  1.000E+01  3.738E-02  1.271E+00 3.4106358E+00 7.4877221E-01 -2.1076230E-01
  9.957E+00  3.092E-02  1.247E+00 3.4060277E+00 7.7728453E-01 -1.9817159E-01
  1.000E+01  5.207E-02  1.318E+00 3.4138041E+00 7.3709411E-01 -2.4746461E-01
  9.957E+00  4.443E-02  1.295E+00 3.4130650E+00 7.6613810E-01 -2.3624303E-01
  1.000E+01  6.913E-02  1.365E+00 3.4426641E+00 7.2397945E-01 -2.8403858E-01
  9.957E+00  6.031E-02  1.342E+00 3.4241830E+00 7.5334050E-01 -2.7399945E-01
  1.000E+01  8.849E-02  1.411E+00 3.4686134E+00 7.0906306E-01 -3.1998559E-01
  9.957E+00  7.852E-02  1.388E+00 3.4582220E+00 7.3897805E-01 -3.1150088E-01
  1.000E+01  1.101E-01  1.456E+00 3.4658795E+00 6.9213004E-01 -3.5483925E-01
  9.957E+00  9.903E-02  1.434E+00 3.4663331E+00 7.2252007E-01 -3.4798580E-01
  1.000E+01  1.340E-01  1.500E+00 3.5003060E+00 6.7357866E-01 -3.8887395E-01
  9.957E+00  1.218E-01  1.478E+00 3.4840683E+00 7.0419468E-01 -3.8346650E-01
  1.000E+01  1.600E-01  1.543E+00 3.4994580E+00 6.5338548E-01 -4.2200125E-01
  9.957E+00  1.467E-01  1.521E+00 3.5100061E+00 6.8424580E-01 -4.1812757E-01
  1.000E+01  1.881E-01  1.584E+00 3.5310428E+00 6.3152053E-01 -4.5403004E-01
  9.957E+00  1.738E-01  1.563E+00 3.5065269E+00 6.6254809E-01 -4.5171741E-01
  1.000E+01  2.182E-01  1.623E+00 3.5214238E+00 6.0810898E-01 -4.8494933E-01
  9.957E+00  2.029E-01  1.604E+00 3.5277733E+00 6.3920099E-01 -4.8417401E-01
  1.000E+01  2.502E-01  1.662E+00 3.5381073E+00 5.8318097E-01 -5.1465782E-01
  9.957E+00  2.340E-01  1.643E+00 3.5352949E+00 6.1427848E-01 -5.1543933E-01
  1.000E+01  2.841E-01  1.698E+00 3.5379469E+00 5.5680157E-01 -5.4308685E-01
  9.957E+00  2.669E-01  1.680E+00 3.5366896E+00 5.8782062E-01 -5.4541556E-01
  1.000E+01  3.198E-01  1.733E+00 3.5366819E+00 5.2903815E-01 -5.7016643E-01
  9.957E+00  3.018E-01  1.716E+00 3.5379540E+00 5.5990272E-01 -5.7403862E-01
  1.000E+01  3.572E-01  1.766E+00 3.5352866E+00 4.9996210E-01 -5.9582966E-01
  9.957E+00  3.383E-01  1.750E+00 3.5381138E+00 5.3059355E-01 -6.0123472E-01
  1.000E+01  3.962E-01  1.797E+00 3.5277644E+00 4.6963563E-01 -6.2000368E-01
  9.957E+00  3.765E-01  1.782E+00 3.5214297E+00 4.9996523E-01 -6.2693444E-01
  1.000E+01  4.367E-01  1.826E+00 3.5065175E+00 4.3815387E-01 -6.4264962E-01
  9.957E+00  4.163E-01  1.812E+00 3.5310480E+00 4.6808864E-01 -6.5107072E-01
  1.000E+01  4.786E-01  1.853E+00 3.5099962E+00 4.0557292E-01 -6.6369607E-01
  9.957E+00  4.575E-01  1.840E+00 3.4994627E+00 4.3506834E-01 -6.7361279E-01
  1.000E+01  5.217E-01  1.878E+00 3.4840579E+00 3.7195261E-01 -6.8304570E-01
  9.957E+00  5.000E-01  1.866E+00 3.5003101E+00 4.0091541E-01 -6.9443131E-01
  1.000E+01  5.661E-01  1.901E+00 3.4663220E+00 3.3753704E-01 -7.0082039E-01
  9.957E+00  5.438E-01  1.890E+00 3.4658830E+00 3.6582693E-01 -7.1355672E-01
  1.000E+01  6.116E-01  1.921E+00 3.4582104E+00 3.0214764E-01 -7.1678407E-01
  9.957E+00  5.887E-01  1.912E+00 3.4686161E+00 3.2989426E-01 -7.3101385E-01
  1.000E+01  6.580E-01  1.940E+00 3.4241710E+00 2.6577267E-01 -7.3071513E-01
  9.957E+00  6.347E-01  1.931E+00 3.4426662E+00 2.9283450E-01 -7.4639206E-01
  1.000E+01  7.052E-01  1.956E+00 3.4130528E+00 2.2915063E-01 -7.4312881E-01
  9.957E+00  6.815E-01  1.948E+00 3.4138058E+00 2.5512820E-01 -7.5991291E-01
  1.000E+01  7.532E-01  1.969E+00 3.4060152E+00 1.9222289E-01 -7.5394099E-01
  9.957E+00  7.292E-01  1.963E+00 3.4106371E+00 2.1728923E-01 -7.7195284E-01
  1.000E+01  8.019E-01  1.980E+00 3.3894774E+00 1.5445482E-01 -7.6262186E-01
  9.957E+00  7.775E-01  1.975E+00 3.3987991E+00 1.7882712E-01 -7.8205458E-01
  1.000E+01  8.510E-01  1.989E+00 3.3716978E+00 1.1596926E-01 -7.6914769E-01
  9.957E+00  8.264E-01  1.985E+00 3.3805293E+00 1.3945362E-01 -7.8985142E-01
  1.000E+01  9.004E-01  1.995E+00 3.3597680E+00 7.7273646E-02 -7.7381451E-01
  9.957E+00  8.757E-01  1.992E+00 3.3649624E+00 9.9613369E-02 -7.9559223E-01
  1.000E+01  9.502E-01  1.999E+00 3.3542788E+00 3.8619564E-02 -7.7670764E-01
  9.957E+00  9.253E-01  1.997E+00 3.3560839E+00 5.9733285E-02 -7.9950031E-01
  1.000E+01  1.000E+00  2.000E+00 3.3528642E+00 1.3497930E-06 -7.7769832E-01
  9.957E+00  9.751E-01  2.000E+00 3.3526648E+00 1.9906248E-02 -8.0151739E-01
  1.000E+01  1.050E+00  1.999E+00 3.3542778E+00 -3.8616865E-02 -7.7670765E-01
  9.957E+00  1.025E+00  2.000E+00 3.3526644E+00 -1.9903745E-02 -8.0151739E-01
  1.000E+01  1.100E+00  1.995E+00 3.3597662E+00 -7.7270947E-02 -7.7381452E-01
  9.957E+00  1.075E+00  1.997E+00 3.3560826E+00 -5.9730782E-02 -7.9950031E-01
  1.000E+01  1.149E+00  1.989E+00 3.3716950E+00 -1.1596656E-01 -7.6914771E-01
  9.957E+00  1.124E+00  1.992E+00 3.3649601E+00 -9.9610867E-02 -7.9559224E-01
  1.000E+01  1.198E+00  1.980E+00 3.3894738E+00 -1.5445212E-01 -7.6262188E-01
  9.957E+00  1.174E+00  1.985E+00 3.3805261E+00 -1.3945112E-01 -7.8985143E-01