# TIME = 6.000000
VARIABLES = X, Y, Z, FX, FY, FZ
ZONE N=29232 E=58212 F=FEPOINT ET=TRIANGLE
  0.000E+00  9.502E-01  1.243E-03 3.3458744E+00 5.1164796E-02 1.0290507E+00
  0.000E+00  1.000E+00  0.000E+00 3.3444577E+00 5.2109431E-08 1.0303632E+00
  4.318E-02  9.751E-01  3.108E-04 3.3442657E+00 2.4962107E-02 1.0051463E+00
  0.000E+00  1.050E+00  1.243E-03 3.3458732E+00 -5.1164691E-02 1.0290507E+00
  4.318E-02  1.025E+00  3.108E-04 3.3442651E+00 -2.4961996E-02 1.0051463E+00
  0.000E+00  1.100E+00  4.969E-03 3.3513643E+00 -1.0237688E-01 1.0252176E+00
  4.318E-02  1.075E+00  2.796E-03 3.3476857E+00 -7.4907461E-02 1.0026169E+00
  0.000E+00  1.149E+00  1.117E-02 3.3632902E+00 -1.5364399E-01 1.0190346E+00
  4.318E-02  1.124E+00  7.761E-03 3.3565627E+00 -1.2491938E-01 9.9771601E-01
  0.000E+00  1.198E+00  1.983E-02 3.3810606E+00 -2.0463284E-01 1.0103886E+00
  4.318E-02  1.174E+00  1.519E-02 3.3721213E+00 -1.7488117E-01 9.9051672E-01
  0.000E+00  1.247E+00  3.092E-02 3.3975988E+00 -2.5467134E-01 9.9888753E-01
  4.318E-02  1.223E+00  2.507E-02 3.3903839E+00 -2.2425734E-01 9.8073892E-01
  0.000E+00  1.295E+00  4.443E-02 3.4046661E+00 -3.0359680E-01 9.8456274E-01
  4.318E-02  1.271E+00  3.738E-02 3.4022366E+00 -2.7249040E-01 9.6807060E-01
  0.000E+00  1.342E+00  6.031E-02 3.4158100E+00 -3.5211728E-01 9.6811608E-01
  4.318E-02  1.318E+00  5.207E-02 3.4054481E+00 -3.1994217E-01 9.5297188E-01
  0.000E+00  1.388E+00  7.852E-02 3.4498180E+00 -4.0031008E-01 9.4965897E-01
  4.318E-02  1.365E+00  6.913E-02 3.4342923E+00 -3.6722804E-01 9.3601624E-01
  0.000E+00  1.434E+00  9.903E-02 3.4579595E+00 -4.4719679E-01 9.2850883E-01
  4.318E-02  1.411E+00  8.849E-02 3.4602291E+00 -4.1370337E-01 9.1673139E-01
  0.000E+00  1.478E+00  1.218E-01 3.4757061E+00 -4.9279334E-01 9.0495930E-01
  4.318E-02  1.456E+00  1.101E-01 3.4575537E+00 -4.5876516E-01 8.9483928E-01
  0.000E+00  1.521E+00  1.467E-01 3.5016235E+00 -5.3733645E-01 8.7932322E-01
  4.318E-02  1.500E+00  1.340E-01 3.4919453E+00 -5.0276781E-01 8.7085476E-01
  0.000E+00  1.563E+00  1.738E-01 3.4981927E+00 -5.8050266E-01 8.5143906E-01
  4.318E-02  1.543E+00  1.600E-01 3.4911399E+00 -5.4559724E-01 8.4474697E-01
  0.000E+00  1.604E+00  2.029E-01 3.5194177E+00 -6.2221250E-01 8.2143575E-01
  4.318E-02  1.584E+00  1.881E-01 3.5226875E+00 -5.8700663E-01 8.1647804E-01
  0.000E+00  1.643E+00  2.340E-01 3.5269470E+00 -6.6239164E-01 7.8940787E-01
  4.318E-02  1.623E+00  2.182E-01 3.5131147E+00 -6.2698177E-01 7.8620998E-01
  0.000E+00  1.680E+00  2.669E-01 3.5283466E+00 -7.0091413E-01 7.5540698E-01
  4.318E-02  1.662E+00  2.502E-01 3.5297779E+00 -6.6539135E-01 7.5398113E-01
  0.000E+00  1.716E+00  3.018E-01 3.5296138E+00 -7.3769754E-01 7.1952956E-01
  4.318E-02  1.698E+00  2.841E-01 3.5296265E+00 -7.0214661E-01 7.1987566E-01
  0.000E+00  1.750E+00  3.383E-01 3.5297646E+00 -7.7264728E-01 6.8186429E-01
  4.318E-02  1.733E+00  3.198E-01 3.5283585E+00 -7.3715708E-01 6.8398074E-01
  0.000E+00  1.782E+00  3.765E-01 3.5131007E+00 -8.0567411E-01 6.4250387E-01
  4.318E-02  1.766E+00  3.572E-01 3.5269582E+00 -7.7033658E-01 6.4638892E-01
  0.000E+00  1.812E+00  4.163E-01 3.5226730E+00 -8.3669176E-01 6.0153928E-01
  4.318E-02  1.797E+00  3.962E-01 3.5194283E+00 -8.0159083E-01 6.0718056E-01
  0.000E+00  1.840E+00  4.575E-01 3.4911247E+00 -8.6566038E-01 5.5910473E-01
  4.318E-02  1.826E+00  4.367E-01 3.4982026E+00 -8.3086948E-01 5.6647852E-01
  0.000E+00  1.866E+00  5.000E-01 3.4919293E+00 -8.9241405E-01 5.1521477E-01
  4.318E-02  1.853E+00  4.786E-01 3.5016326E+00 -8.5807946E-01 5.2435502E-01
  0.000E+00  1.890E+00  5.438E-01 3.4575370E+00 -9.1699257E-01 4.7012261E-01
  4.318E-02  1.878E+00  5.217E-01 3.4757144E+00 -8.8309616E-01 4.8088794E-01
  0.000E+00  1.912E+00  5.887E-01 3.4602119E+00 -9.3942689E-01 4.2394542E-01
  4.318E-02  1.901E+00  5.661E-01 3.4579673E+00 -9.0607699E-01 4.3639306E-01
  0.000E+00  1.931E+00  6.347E-01 3.4342745E+00 -9.5918945E-01 3.7631968E-01
  4.318E-02  1.921E+00  6.116E-01 3.4498250E+00 -9.2671633E-01 3.9063935E-01
  0.000E+00  1.948E+00  6.815E-01 3.4054296E+00 -9.7656493E-01 3.2786329E-01
  4.318E-02  1.940E+00  6.580E-01 3.4158161E+00 -9.4472790E-01 3.4361092E-01
  0.000E+00  1.963E+00  7.292E-01 3.4022174E+00 -9.9203710E-01 2.7923684E-01
  4.318E-02  1.956E+00  7.052E-01 3.4046711E+00 -9.6077684E-01 2.9626236E-01
  0.000E+00  1.975E+00  7.775E-01 3.3903638E+00 -1.0050189E+00 2.2980966E-01
  4.318E-02  1.969E+00  7.532E-01 3.3976030E+00 -9.7475497E-01 2.4851847E-01
  0.000E+00  1.985E+00  8.264E-01 3.3721006E+00 -1.0150389E+00 1.7921097E-01
  4.318E-02  1.980E+00  8.019E-01 3.3810642E+00 -9.8597816E-01 1.9968859E-01
  0.000E+00  1.992E+00  8.757E-01 3.3565415E+00 -1.0224166E+00 1.2801215E-01
  4.318E-02  1.989E+00  8.510E-01 3.3632934E+00 -9.9441549E-01 1.4993158E-01
  0.000E+00  1.997E+00  9.253E-01 3.3476639E+00 -1.0274389E+00 7.6762012E-02
  4.318E-02  1.995E+00  9.004E-01 3.3513670E+00 -1.0004493E+00 9.9903195E-02
  0.000E+00  2.000E+00  9.751E-01 3.3442428E+00 -1.0300311E+00 2.5580034E-02
  4.318E-02  1.999E+00  9.502E-01 3.3458753E+00 -1.0041899E+00 4.9928451E-02
  0.000E+00  2.000E+00  1.025E+00 3.3442428E+00 -1.0300311E+00 -2.5580030E-02
  4.318E-02  2.000E+00  1.000E+00 3.3444592E+00 -1.0054708E+00 3.8033056E-10
  0.000E+00  1.997E+00  1.075E+00 3.3476639E+00 -1.0274389E+00 -7.6762013E-02
  4.318E-02  1.999E+00  1.050E+00 3.3458753E+00 -1.0041899E+00 -4.9928449E-02
  0.000E+00  1.992E+00  1.124E+00 3.3565414E+00 -1.0224165E+00 -1.2801216E-01
  4.318E-02  1.995E+00  1.100E+00 3.3513669E+00 -1.0004493E+00 -9.9903190E-02
  0.000E+00  1.985E+00  1.174E+00 3.3721005E+00 -1.0150389E+00 -1.7921098E-01
  4.318E-02  1.989E+00  1.149E+00 3.3632933E+00 -9.9441546E-01 -1.4993158E-01
  0.000E+00  1.975E+00  1.223E+00 3.3903638E+00 -1.0050191E+00 -2.2980967E-01
  4.318E-02  1.980E+00  1.198E+00 3.3810640E+00 -9.8597833E-01 -1.9968859E-01
  0.000E+00  1.963E+00  1.271E+00 3.4022173E+00 -9.9203719E-01 -2.7923684E-01
  4.318E-02  1.969E+00  1.247E+00 3.3976029E+00 -9.7475523E-01 -2.4851847E-01
  0.000E+00  1.948E+00  1.318E+00 3.4054295E+00 -9.7656467E-01 -3.2786328E-01
  4.318E-02  1.956E+00  1.295E+00 3.4046709E+00 -9.6077677E-01 -2.9626237E-01
  0.000E+00  1.931E+00  1.365E+00 3.4342744E+00 -9.5918963E-01 -3.7631969E-01
  4.318E-02  1.940E+00  1.342E+00 3.4158159E+00 -9.4472781E-01 -3.4361094E-01
  0.000E+00  1.912E+00  1.411E+00 3.4602117E+00 -9.3942720E-01 -4.2394543E-01
  4.318E-02  1.921E+00  1.388E+00 3.4498248E+00 -9.2671675E-01 -3.9063937E-01
  0.000E+00  1.890E+00  1.456E+00 3.4575368E+00 -9.1699239E-01 -4.7012261E-01
  4.318E-02  1.901E+00  1.434E+00 3.4579671E+00 -9.0607701E-01 -4.3639308E-01
  0.000E+00  1.866E+00  1.500E+00 3.4919291E+00 -8.9241436E-01 -5.1521479E-01
  4.318E-02  1.878E+00  1.478E+00 3.4757142E+00 -8.8309621E-01 -4.8088797E-01
  0.000E+00  1.840E+00  1.543E+00 3.4911245E+00 -8.6566051E-01 -5.5910474E-01
  4.318E-02  1.853E+00  1.521E+00 3.5016323E+00 -8.5807981E-01 -5.2435505E-01
  0.000E+00  1.812E+00  1.584E+00 3.5226728E+00 -8.3669192E-01 -6.0153931E-01
  4.318E-02  1.826E+00  1.563E+00 3.4982023E+00 -8.3086956E-01 -5.6647855E-01
  0.000E+00  1.782E+00  1.623E+00 3.5131005E+00 -8.0567432E-01 -6.4250390E-01
  4.318E-02  1.797E+00  1.604E+00 3.5194280E+00 -8.0159112E-01 -6.0718060E-01
  0.000E+00  1.750E+00  1.662E+00 3.5297643E+00 -7.7264744E-01 -6.8186432E-01
  4.318E-02  1.766E+00  1.643E+00 3.5269579E+00 -7.7033676E-01 -6.4638896E-01
  0.000E+00  1.716E+00  1.698E+00 3.5296135E+00 -7.3769776E-01 -7.1952960E-01
  4.318E-02  1.733E+00  1.680E+00 3.5283582E+00 -7.3715733E-01 -6.8398080E-01
  0.000E+00  1.680E+00  1.733E+00 3.5283463E+00 -7.0091434E-01 -7.5540702E-01
  4.318E-02  1.698E+00  1.716E+00 3.5296261E+00 -7.0214681E-01 -7.1987572E-01
  0.000E+00  1.643E+00  1.766E+00 3.5269466E+00 -6.6239185E-01 -7.8940792E-01
  4.318E-02  1.662E+00  1.750E+00 3.5297776E+00 -6.6539157E-01 -7.5398120E-01
  0.000E+00  1.604E+00  1.797E+00 3.5194173E+00 -6.2221267E-01 -8.2143579E-01
  4.318E-02  1.623E+00  1.782E+00 3.5131143E+00 -6.2698199E-01 -7.8621006E-01
  0.000E+00  1.563E+00  1.826E+00 3.4981923E+00 -5.8050278E-01 -8.5143910E-01
  4.318E-02  1.584E+00  1.812E+00 3.5226872E+00 -5.8700690E-01 -8.1647814E-01
  0.000E+00  1.521E+00  1.853E+00 3.5016231E+00 -5.3733664E-01 -8.7932328E-01
  4.318E-02  1.543E+00  1.840E+00 3.4911396E+00 -5.4559751E-01 -8.4474706E-01
  0.000E+00  1.478E+00  1.878E+00 3.4757058E+00 -4.9279365E-01 -9.0495940E-01
  4.318E-02  1.500E+00  1.866E+00 3.4919449E+00 -5.0276805E-01 -8.7085484E-01
  0.000E+00  1.434E+00  1.901E+00 3.4579594E+00 -4.4719724E-01 -9.2850898E-01
  4.318E-02  1.456E+00  1.890E+00 3.4575531E+00 -4.5876528E-01 -8.9483935E-01
  0.000E+00  1.388E+00  1.921E+00 3.4498177E+00 -4.0031058E-01 -9.4965915E-01
  4.318E-02  1.411E+00  1.912E+00 3.4602285E+00 -4.1370339E-01 -9.1673145E-01
  0.000E+00  1.342E+00  1.940E+00 3.4158093E+00 -3.5211762E-01 -9.6811625E-01
  4.318E-02  1.365E+00  1.931E+00 3.4342919E+00 -3.6722807E-01 -9.3601631E-01
  0.000E+00  1.295E+00  1.956E+00 3.4046652E+00 -3.0359674E-01 -9.8456283E-01
  4.318E-02  1.318E+00  1.948E+00 3.4054479E+00 -3.1994240E-01 -9.5297198E-01
  0.000E+00  1.247E+00  1.969E+00 3.3975982E+00 -2.5467081E-01 -9.9888750E-01
  4.318E-02  1.271E+00  1.963E+00 3.4022364E+00 -2.7249095E-01 -9.6807078E-01
  0.000E+00  1.198E+00  1.980E+00 3.3810602E+00 -2.0463204E-01 -1.0103885E+00
  4.318E-02  1.223E+00  1.975E+00 3.3903835E+00 -2.2425816E-01 -9.8073919E-01
  0.000E+00  1.149E+00  1.989E+00 3.3632900E+00 -1.5364328E-01 -1.0190344E+00
  4.318E-02  1.174E+00  1.985E+00 3.3721208E+00 -1.7488202E-01 -9.9051708E-01
  0.000E+00  1.100E+00  1.995E+00 3.3513641E+00 -1.0237646E-01 -1.0252173E+00
  4.318E-02  1.124E+00  1.992E+00 3.3565622E+00 -1.2492006E-01 -9.9771643E-01
  0.000E+00  1.050E+00  1.999E+00 3.3458729E+00 -5.1164590E-02 -1.0290504E+00
  4.318E-02  1.075E+00  1.997E+00 3.3476852E+00 -7.4907913E-02 -1.0026173E+00
  0.000E+00  1.000E+00  2.000E+00 3.3444573E+00 -1.1591475E-07 -1.0303629E+00
  4.318E-02  1.025E+00  2.000E+00 3.3442646E+00 -2.4962251E-02 -1.0051468E+00
  0.000E+00  9.502E-01  1.999E+00 3.3458741E+00 5.1164358E-02 -1.0290504E+00
  4.318E-02  9.751E-01  2.000E+00 3.3442652E+00 2.4962025E-02 -1.0051468E+00
  0.000E+00  9.004E-01  1.995E+00 3.3513664E+00 1.0237623E-01 -1.0252174E+00
  4.318E-02  9.253E-01  1.997E+00 3.3476869E+00 7.4907687E-02 -1.0026173E+00
  0.000E+00  8.510E-01  1.989E+00 3.3632935E+00 1.5364304E-01 -1.0190344E+00
  4.318E-02  8.757E-01  1.992E+00 3.3565651E+00 1.2491983E-01 -9.9771644E-01
  0.000E+00  8.019E-01  1.980E+00 3.3810648E+00 2.0463181E-01 -1.0103885E+00
  4.318E-02  8.264E-01  1.985E+00 3.3721248E+00 1.7488179E-01 -9.9051710E-01
  0.000E+00  7.532E-01  1.969E+00 3.3976039E+00 2.5467058E-01 -9.9888753E-01
  4.318E-02  7.775E-01  1.975E+00 3.3903886E+00 2.2425793E-01 -9.8073922E-01
  0.000E+00  7.052E-01  1.956E+00 3.4046720E+00 3.0359651E-01 -9.8456287E-01
  4.318E-02  7.292E-01  1.963E+00 3.4022426E+00 2.7249073E-01 -9.6807081E-01
  0.000E+00  6.580E-01  1.940E+00 3.4158172E+00 3.5211740E-01 -9.6811629E-01
  4.318E-02  6.815E-01  1.948E+00 3.4054552E+00 3.1994218E-01 -9.5297201E-01
  0.000E+00  6.116E-01  1.921E+00 3.4498266E+00 4.0031036E-01 -9.4965920E-01
  4.318E-02  6.347E-01  1.931E+00 3.4343003E+00 3.6722785E-01 -9.3601635E-01
  0.000E+00  5.661E-01  1.901E+00 3.4579693E+00 4.4719703E-01 -9.2850904E-01
  4.318E-02  5.887E-01  1.912E+00 3.4602380E+00 4.1370317E-01 -9.1673149E-01
  0.000E+00  5.217E-01  1.878E+00 3.4757167E+00 4.9279343E-01 -9.0495946E-01
  4.318E-02  5.438E-01  1.890E+00 3.4575636E+00 4.5876507E-01 -8.9483940E-01
  0.000E+00  4.786E-01  1.853E+00 3.5016349E+00 5.3733642E-01 -8.7932335E-01
  4.318E-02  5.000E-01  1.866E+00 3.4919563E+00 5.0276782E-01 -8.7085490E-01
  0.000E+00  4.367E-01  1.826E+00 3.4982050E+00 5.8050258E-01 -8.5143917E-01
  4.318E-02  4.575E-01  1.840E+00 3.4911519E+00 5.4559731E-01 -8.4474713E-01
  0.000E+00  3.962E-01  1.797E+00 3.5194309E+00 6.2221246E-01 -8.2143587E-01
  4.318E-02  4.163E-01  1.812E+00 3.5227004E+00 5.8700669E-01 -8.1647821E-01
  0.000E+00  3.572E-01  1.766E+00 3.5269610E+00 6.6239165E-01 -7.8940800E-01
  4.318E-02  3.765E-01  1.782E+00 3.5131283E+00 6.2698180E-01 -7.8621013E-01
  0.000E+00  3.198E-01  1.733E+00 3.5283614E+00 7.0091415E-01 -7.5540711E-01
  4.318E-02  3.383E-01  1.750E+00 3.5297923E+00 6.6539136E-01 -7.5398128E-01
  0.000E+00  2.841E-01  1.698E+00 3.5296294E+00 7.3769754E-01 -7.1952969E-01
  4.318E-02  3.018E-01  1.716E+00 3.5296417E+00 7.0214663E-01 -7.1987581E-01
  0.000E+00  2.502E-01  1.662E+00 3.5297808E+00 7.7264726E-01 -6.8186442E-01
  4.318E-02  2.669E-01  1.680E+00 3.5283744E+00 7.3715711E-01 -6.8398089E-01
  0.000E+00  2.182E-01  1.623E+00 3.5131176E+00 8.0567409E-01 -6.4250400E-01
  4.318E-02  2.340E-01  1.643E+00 3.5269747E+00 7.7033662E-01 -6.4638907E-01
  0.000E+00  1.881E-01  1.584E+00 3.5226905E+00 8.3669174E-01 -6.0153941E-01
  4.318E-02  2.029E-01  1.604E+00 3.5194454E+00 8.0159086E-01 -6.0718070E-01
  0.000E+00  1.600E-01  1.543E+00 3.4911427E+00 8.6566037E-01 -5.5910486E-01
  4.318E-02  1.738E-01  1.563E+00 3.4982203E+00 8.3086951E-01 -5.6647867E-01
  0.000E+00  1.340E-01  1.500E+00 3.4919478E+00 8.9241404E-01 -5.1521491E-01
  4.318E-02  1.467E-01  1.521E+00 3.5016508E+00 8.5807948E-01 -5.2435516E-01
  0.000E+00  1.101E-01  1.456E+00 3.4575559E+00 9.1699255E-01 -4.7012275E-01
  4.318E-02  1.218E-01  1.478E+00 3.4757331E+00 8.8309617E-01 -4.8088809E-01
  0.000E+00  8.849E-02  1.411E+00 3.4602312E+00 9.3942687E-01 -4.2394556E-01
  4.318E-02  9.903E-02  1.434E+00 3.4579864E+00 9.0607700E-01 -4.3639321E-01
  0.000E+00  6.913E-02  1.365E+00 3.4342942E+00 9.5918941E-01 -3.7631982E-01
  4.318E-02  7.852E-02  1.388E+00 3.4498445E+00 9.2671634E-01 -3.9063950E-01
  0.000E+00  5.207E-02  1.318E+00 3.4054497E+00 9.7656488E-01 -3.2786343E-01
  4.318E-02  6.031E-02  1.342E+00 3.4158360E+00 9.4472790E-01 -3.4361108E-01
  0.000E+00  3.738E-02  1.271E+00 3.4022377E+00 9.9203704E-01 -2.7923699E-01
  4.318E-02  4.443E-02  1.295E+00 3.4046913E+00 9.6077683E-01 -2.9626251E-01
  0.000E+00  2.507E-02  1.223E+00 3.3903844E+00 1.0050188E+00 -2.2980982E-01
  4.318E-02  3.092E-02  1.247E+00 3.3976234E+00 9.7475497E-01 -2.4851862E-01
  0.000E+00  1.519E-02  1.174E+00 3.3721213E+00 1.0150388E+00 -1.7921114E-01
  4.318E-02  1.983E-02  1.198E+00 3.3810848E+00 9.8597814E-01 -1.9968874E-01
  0.000E+00  7.761E-03  1.124E+00 3.3565624E+00 1.0224165E+00 -1.2801231E-01
  4.318E-02  1.117E-02  1.149E+00 3.3633142E+00 9.9441545E-01 -1.4993173E-01
  0.000E+00  2.796E-03  1.075E+00 3.3476849E+00 1.0274389E+00 -7.6762175E-02
  4.318E-02  4.969E-03  1.100E+00 3.3513879E+00 1.0004493E+00 -9.9903351E-02
  0.000E+00  3.108E-04  1.025E+00 3.3442639E+00 1.0300311E+00 -2.5580197E-02
  4.318E-02  1.243E-03  1.050E+00 3.3458963E+00 1.0041899E+00 -4.9928614E-02
  0.000E+00  3.108E-04  9.751E-01 3.3442639E+00 1.0300310E+00 2.5579864E-02
  4.318E-02  0.000E+00  1.000E+00 3.3444803E+00 1.0054707E+00 -1.6733294E-07
  0.000E+00  2.796E-03  9.253E-01 3.3476849E+00 1.0274388E+00 7.6761839E-02
  4.318E-02  1.243E-03  9.502E-01 3.3458964E+00 1.0041898E+00 4.9928280E-02
  0.000E+00  7.761E-03  8.757E-01 3.3565624E+00 1.0224164E+00 1.2801197E-01
  4.318E-02  4.969E-03  9.004E-01 3.3513879E+00 1.0004492E+00 9.9903021E-02
  0.000E+00  1.519E-02  8.264E-01 3.3721214E+00 1.0150388E+00 1.7921080E-01
  4.318E-02  1.117E-02  8.510E-01 3.3633142E+00 9.9441536E-01 1.4993140E-01
  0.000E+00  2.507E-02  7.775E-01 3.3903845E+00 1.0050190E+00 2.2980948E-01
  4.318E-02  1.983E-02  8.019E-01 3.3810849E+00 9.8597821E-01 1.9968841E-01
  0.000E+00  3.738E-02  7.292E-01 3.4022378E+00 9.9203709E-01 2.7923666E-01
  4.318E-02  3.092E-02  7.532E-01 3.3976235E+00 9.7475511E-01 2.4851829E-01
  0.000E+00  5.207E-02  6.815E-01 3.4054498E+00 9.7656457E-01 3.2786311E-01
  4.318E-02  4.443E-02  7.052E-01 3.4046914E+00 9.6077663E-01 2.9626218E-01
  0.000E+00  6.913E-02  6.347E-01 3.4342944E+00 9.5918952E-01 3.7631950E-01
  4.318E-02  6.031E-02  6.580E-01 3.4158361E+00 9.4472767E-01 3.4361074E-01
  0.000E+00  8.849E-02  5.887E-01 3.4602314E+00 9.3942708E-01 4.2394525E-01
  4.318E-02  7.852E-02  6.116E-01 3.4498447E+00 9.2671661E-01 3.9063917E-01
  0.000E+00  1.101E-01  5.438E-01 3.4575561E+00 9.1699226E-01 4.7012243E-01
  4.318E-02  9.903E-02  5.661E-01 3.4579866E+00 9.0607687E-01 4.3639288E-01
  0.000E+00  1.340E-01  5.000E-01 3.4919480E+00 8.9241422E-01 5.1521460E-01
  4.318E-02  1.218E-01  5.217E-01 3.4757334E+00 8.8309606E-01 4.8088777E-01
  0.000E+00  1.600E-01  4.575E-01 3.4911430E+00 8.6566038E-01 5.5910455E-01
  4.318E-02  1.467E-01  4.786E-01 3.5016510E+00 8.5807966E-01 5.2435484E-01
  0.000E+00  1.881E-01  4.163E-01 3.5226907E+00 8.3669179E-01 6.0153911E-01
  4.318E-02  1.738E-01  4.367E-01 3.4982206E+00 8.3086940E-01 5.6647834E-01
  0.000E+00  2.182E-01  3.765E-01 3.5131179E+00 8.0567419E-01 6.4250370E-01
  4.318E-02  2.029E-01  3.962E-01 3.5194457E+00 8.0159096E-01 6.0718039E-01
  0.000E+00  2.502E-01  3.383E-01 3.5297811E+00 7.7264731E-01 6.8186413E-01
  4.318E-02  2.340E-01  3.572E-01 3.5269750E+00 7.7033660E-01 6.4638875E-01
  0.000E+00  2.841E-01  3.018E-01 3.5296297E+00 7.3769762E-01 7.1952940E-01
  4.318E-02  2.669E-01  3.198E-01 3.5283747E+00 7.3715717E-01 6.8398059E-01
  0.000E+00  3.198E-01  2.669E-01 3.5283618E+00 7.0091418E-01 7.5540682E-01
  4.318E-02  3.018E-01  2.841E-01 3.5296420E+00 7.0214666E-01 7.1987551E-01
  0.000E+00  3.572E-01  2.340E-01 3.5269613E+00 6.6239170E-01 7.8940772E-01
  4.318E-02  3.383E-01  2.502E-01 3.5297927E+00 6.6539143E-01 7.5398099E-01
  0.000E+00  3.962E-01  2.029E-01 3.5194313E+00 6.2221256E-01 8.2143561E-01
  4.318E-02  3.765E-01  2.182E-01 3.5131287E+00 6.2698184E-01 7.8620984E-01
  0.000E+00  4.367E-01  1.738E-01 3.4982054E+00 5.8050272E-01 8.5143893E-01
  4.318E-02  4.163E-01  1.881E-01 3.5227007E+00 5.8700671E-01 8.1647791E-01
  0.000E+00  4.786E-01  1.467E-01 3.5016353E+00 5.3733653E-01 8.7932310E-01
  4.318E-02  4.575E-01  1.600E-01 3.4911522E+00 5.4559732E-01 8.4474684E-01
  0.000E+00  5.217E-01  1.218E-01 3.4757170E+00 4.9279342E-01 9.0495918E-01
  4.318E-02  5.000E-01  1.340E-01 3.4919567E+00 5.0276791E-01 8.7085465E-01
  0.000E+00  5.661E-01  9.903E-02 3.4579695E+00 4.4719687E-01 9.2850871E-01
  4.318E-02  5.438E-01  1.101E-01 3.4575641E+00 4.5876525E-01 8.9483918E-01
  0.000E+00  6.116E-01  7.852E-02 3.4498269E+00 4.0031017E-01 9.4965886E-01
  4.318E-02  5.887E-01  8.849E-02 3.4602385E+00 4.1370347E-01 9.1673130E-01
  0.000E+00  6.580E-01  6.031E-02 3.4158179E+00 3.5211737E-01 9.6811599E-01
  4.318E-02  6.347E-01  6.913E-02 3.4343007E+00 3.6722814E-01 9.3601616E-01
  0.000E+00  7.052E-01  4.443E-02 3.4046729E+00 3.0359689E-01 9.8456266E-01
  4.318E-02  6.815E-01  5.207E-02 3.4054554E+00 3.1994228E-01 9.5297180E-01
  0.000E+00  7.532E-01  3.092E-02 3.3976046E+00 2.5467144E-01 9.9888747E-01
  4.318E-02  7.292E-01  3.738E-02 3.4022429E+00 2.7249050E-01 9.6807054E-01
  0.000E+00  8.019E-01  1.983E-02 3.3810652E+00 2.0463294E-01 1.0103886E+00
  4.318E-02  7.775E-01  2.507E-02 3.3903890E+00 2.2425745E-01 9.8073887E-01
  0.000E+00  8.510E-01  1.117E-02 3.3632937E+00 1.5364409E-01 1.0190346E+00
  4.318E-02  8.264E-01  1.519E-02 3.3721254E+00 1.7488128E-01 9.9051668E-01
  0.000E+00  9.004E-01  4.969E-03 3.3513666E+00 1.0237698E-01 1.0252176E+00
  4.318E-02  8.757E-01  7.761E-03 3.3565656E+00 1.2491949E-01 9.9771598E-01
  4.318E-02  9.253E-01  2.796E-03 3.3476874E+00 7.4907571E-02 1.0026169E+00
  1.000E+01  1.050E+00  1.243E-03 3.3458732E+00 -5.1164691E-02 1.0290507E+00
  1.000E+01  1.000E+00  5.551E-16 3.3444577E+00 5.2109431E-08 1.0303632E+00
  9.957E+00  1.025E+00  3.108E-04 3.3442568E+00 -2.6199883E-02 1.0549963E+00
  1.000E+01  9.502E-01  1.243E-03 3.3458744E+00 5.1164796E-02 1.0290507E+00
  9.957E+00  9.751E-01  3.108E-04 3.3442573E+00 2.6199982E-02 1.0549963E+00
  1.000E+01  9.004E-01  4.969E-03 3.3513666E+00 1.0237698E-01 1.0252176E+00
  9.957E+00  9.253E-01  2.796E-03 3.3476791E+00 7.8622304E-02 1.0523414E+00
  1.000E+01  8.510E-01  1.117E-02 3.3632937E+00 1.5364409E-01 1.0190346E+00
  9.957E+00  8.757E-01  7.761E-03 3.3565572E+00 1.3111449E-01 1.0471974E+00
  1.000E+01  8.019E-01  1.983E-02 3.3810652E+00 2.0463294E-01 1.0103886E+00
  9.957E+00  8.264E-01  1.519E-02 3.3721169E+00 1.8355425E-01 1.0396410E+00
  1.000E+01  7.532E-01  3.092E-02 3.3976046E+00 2.5467144E-01 9.9888747E-01
  9.957E+00  7.775E-01  2.507E-02 3.3903806E+00 2.3537952E-01 1.0293784E+00
  1.000E+01  7.052E-01  4.443E-02 3.4046729E+00 3.0359689E-01 9.8456266E-01
  9.957E+00  7.292E-01  3.738E-02 3.4022345E+00 2.8600499E-01 1.0160819E+00
  1.000E+01  6.580E-01  6.031E-02 3.4158179E+00 3.5211737E-01 9.6811599E-01
  9.957E+00  6.815E-01  5.207E-02 3.4054471E+00 3.3581016E-01 1.0002343E+00
  1.000E+01  6.116E-01  7.852E-02 3.4498269E+00 4.0031017E-01 9.4965886E-01
  9.957E+00  6.347E-01  6.913E-02 3.4342922E+00 3.8544086E-01 9.8243750E-01
  1.000E+01  5.661E-01  9.903E-02 3.4579695E+00 4.4719687E-01 9.2850871E-01
  9.957E+00  5.887E-01  8.849E-02 3.4602300E+00 4.3422082E-01 9.6219602E-01
  1.000E+01  5.217E-01  1.218E-01 3.4757170E+00 4.9279342E-01 9.0495918E-01
  9.957E+00  5.438E-01  1.101E-01 3.4575556E+00 4.8151731E-01 9.3921815E-01
  1.000E+01  4.786E-01  1.467E-01 3.5016353E+00 5.3733653E-01 8.7932310E-01
  9.957E+00  5.000E-01  1.340E-01 3.4919483E+00 5.2770250E-01 9.1404431E-01
  1.000E+01  4.367E-01  1.738E-01 3.4982054E+00 5.8050272E-01 8.5143893E-01
  9.957E+00  4.575E-01  1.600E-01 3.4911439E+00 5.7265614E-01 8.8664193E-01
  1.000E+01  3.962E-01  2.029E-01 3.5194313E+00 6.2221256E-01 8.2143561E-01
  9.957E+00  4.163E-01  1.881E-01 3.5226923E+00 6.1611901E-01 8.5697093E-01
  1.000E+01  3.572E-01  2.340E-01 3.5269613E+00 6.6239170E-01 7.8940772E-01
  9.957E+00  3.765E-01  2.182E-01 3.5131203E+00 6.5807652E-01 8.2520162E-01
  1.000E+01  3.198E-01  2.669E-01 3.5283618E+00 7.0091418E-01 7.5540682E-01
  9.957E+00  3.383E-01  2.502E-01 3.5297842E+00 6.9839102E-01 7.9137438E-01
  1.000E+01  2.841E-01  3.018E-01 3.5296297E+00 7.3769762E-01 7.1952940E-01
  9.957E+00  3.018E-01  2.841E-01 3.5296336E+00 7.3696913E-01 7.5557754E-01
  1.000E+01  2.502E-01  3.383E-01 3.5297811E+00 7.7264731E-01 6.8186413E-01
  9.957E+00  2.669E-01  3.198E-01 3.5283663E+00 7.7371605E-01 7.1790248E-01
  1.000E+01  2.182E-01  3.765E-01 3.5131179E+00 8.0567419E-01 6.4250370E-01
  9.957E+00  2.340E-01  3.572E-01 3.5269666E+00 8.0854106E-01 6.7844629E-01
  1.000E+01  1.881E-01  4.163E-01 3.5226907E+00 8.3669179E-01 6.0153911E-01
  9.957E+00  2.029E-01  3.962E-01 3.5194373E+00 8.4134542E-01 6.3729338E-01
  1.000E+01  1.600E-01  4.575E-01 3.4911430E+00 8.6566038E-01 5.5910455E-01
  9.957E+00  1.738E-01  4.367E-01 3.4982121E+00 8.7207579E-01 5.9457247E-01
  1.000E+01  1.340E-01  5.000E-01 3.4919480E+00 8.9241422E-01 5.1521460E-01
  9.957E+00  1.467E-01  4.786E-01 3.5016426E+00 9.0063564E-01 5.5035990E-01
  1.000E+01  1.101E-01  5.438E-01 3.4575561E+00 9.1699226E-01 4.7012243E-01
  9.957E+00  1.218E-01  5.217E-01 3.4757250E+00 9.2689297E-01 5.0473729E-01
  1.000E+01  8.849E-02  5.887E-01 3.4602314E+00 9.3942708E-01 4.2394525E-01
  9.957E+00  9.903E-02  5.661E-01 3.4579783E+00 9.5101371E-01 4.5803585E-01
  1.000E+01  6.913E-02  6.347E-01 3.4342944E+00 9.5918952E-01 3.7631950E-01
  9.957E+00  7.852E-02  6.116E-01 3.4498363E+00 9.7267692E-01 4.1001269E-01
  1.000E+01  5.207E-02  6.815E-01 3.4054498E+00 9.7656457E-01 3.2786311E-01
  9.957E+00  6.031E-02  6.580E-01 3.4158276E+00 9.9158100E-01 3.6065157E-01
  1.000E+01  3.738E-02  7.292E-01 3.4022378E+00 9.9203709E-01 2.7923666E-01
  9.957E+00  4.443E-02  7.052E-01 3.4046829E+00 1.0084258E+00 3.1095474E-01
  1.000E+01  2.507E-02  7.775E-01 3.3903845E+00 1.0050190E+00 2.2980948E-01
  9.957E+00  3.092E-02  7.532E-01 3.3976151E+00 1.0230977E+00 2.6084325E-01
  1.000E+01  1.519E-02  8.264E-01 3.3721214E+00 1.0150388E+00 1.7921080E-01
  9.957E+00  1.983E-02  8.019E-01 3.3810765E+00 1.0348775E+00 2.0959198E-01
  1.000E+01  7.761E-03  8.757E-01 3.3565624E+00 1.0224164E+00 1.2801197E-01
  9.957E+00  1.117E-02  8.510E-01 3.3633059E+00 1.0437332E+00 1.5736750E-01
  1.000E+01  2.796E-03  9.253E-01 3.3476849E+00 1.0274388E+00 7.6761839E-02
  9.957E+00  4.969E-03  9.004E-01 3.3513796E+00 1.0500663E+00 1.0485799E-01
  1.000E+01  3.108E-04  9.751E-01 3.3442639E+00 1.0300310E+00 2.5579864E-02
  9.957E+00  1.243E-03  9.502E-01 3.3458880E+00 1.0539924E+00 5.2404657E-02
  1.000E+01  3.108E-04  1.025E+00 3.3442639E+00 1.0300311E+00 -2.5580197E-02
  9.957E+00  0.000E+00  1.000E+00 3.3444719E+00 1.0553368E+00 -1.7463492E-07
  1.000E+01  2.796E-03  1.075E+00 3.3476849E+00 1.0274389E+00 -7.6762175E-02
  9.957E+00  1.243E-03  1.050E+00 3.3458880E+00 1.0539924E+00 -5.2405004E-02
  1.000E+01  7.761E-03  1.124E+00 3.3565624E+00 1.0224165E+00 -1.2801231E-01
  9.957E+00  4.969E-03  1.100E+00 3.3513795E+00 1.0500664E+00 -1.0485834E-01
  1.000E+01  1.519E-02  1.174E+00 3.3721213E+00 1.0150388E+00 -1.7921114E-01
  9.957E+00  1.117E-02  1.149E+00 3.3633058E+00 1.0437333E+00 -1.5736784E-01
  1.000E+01  2.507E-02  1.223E+00 3.3903844E+00 1.0050188E+00 -2.2980982E-01
  9.957E+00  1.983E-02  1.198E+00 3.3810764E+00 1.0348774E+00 -2.0959232E-01
  1.000E+01  3.738E-02  1.271E+00 3.4022377E+00 9.9203704E-01 -2.7923699E-01
  9.957E+00  3.092E-02  1.247E+00 3.3976149E+00 1.0230975E+00 -2.6084359E-01
  1.000E+01  5.207E-02  1.318E+00 3.4054497E+00 9.7656488E-01 -3.2786343E-01
  9.957E+00  4.443E-02  1.295E+00 3.4046828E+00 1.0084261E+00 -3.1095508E-01
  1.000E+01  6.913E-02  1.365E+00 3.4342942E+00 9.5918941E-01 -3.7631982E-01
  9.957E+00  6.031E-02  1.342E+00 3.4158275E+00 9.9158124E-01 -3.6065191E-01
  1.000E+01  8.849E-02  1.411E+00 3.4602312E+00 9.3942687E-01 -4.2394556E-01
  9.957E+00  7.852E-02  1.388E+00 3.4498361E+00 9.7267663E-01 -4.1001303E-01
  1.000E+01  1.101E-01  1.456E+00 3.4575559E+00 9.1699255E-01 -4.7012275E-01
  9.957E+00  9.903E-02  1.434E+00 3.4579781E+00 9.5101384E-01 -4.5803619E-01
  1.000E+01  1.340E-01  1.500E+00 3.4919478E+00 8.9241404E-01 -5.1521491E-01
  9.957E+00  1.218E-01  1.478E+00 3.4757248E+00 9.2689309E-01 -5.0473762E-01
  1.000E+01  1.600E-01  1.543E+00 3.4911427E+00 8.6566037E-01 -5.5910486E-01
  9.957E+00  1.467E-01  1.521E+00 3.5016423E+00 9.0063545E-01 -5.5036023E-01
  1.000E+01  1.881E-01  1.584E+00 3.5226905E+00 8.3669174E-01 -6.0153941E-01
  9.957E+00  1.738E-01  1.563E+00 3.4982118E+00 8.7207590E-01 -5.9457280E-01
  1.000E+01  2.182E-01  1.623E+00 3.5131176E+00 8.0567409E-01 -6.4250400E-01
  9.957E+00  2.029E-01  1.604E+00 3.5194370E+00 8.4134531E-01 -6.3729370E-01
  1.000E+01  2.502E-01  1.662E+00 3.5297808E+00 7.7264726E-01 -6.8186442E-01
  9.957E+00  2.340E-01  1.643E+00 3.5269663E+00 8.0854108E-01 -6.7844662E-01
  1.000E+01  2.841E-01  1.698E+00 3.5296294E+00 7.3769754E-01 -7.1952969E-01
  9.957E+00  2.669E-01  1.680E+00 3.5283660E+00 7.7371598E-01 -7.1790280E-01
  1.000E+01  3.198E-01  1.733E+00 3.5283614E+00 7.0091415E-01 -7.5540711E-01
  9.957E+00  3.018E-01  1.716E+00 3.5296332E+00 7.3696910E-01 -7.5557786E-01
  1.000E+01  3.572E-01  1.766E+00 3.5269610E+00 6.6239165E-01 -7.8940800E-01
  9.957E+00  3.383E-01  1.750E+00 3.5297839E+00 6.9839095E-01 -7.9137469E-01
  1.000E+01  3.962E-01  1.797E+00 3.5194309E+00 6.2221246E-01 -8.2143587E-01
  9.957E+00  3.765E-01  1.782E+00 3.5131199E+00 6.5807649E-01 -8.2520193E-01
  1.000E+01  4.367E-01  1.826E+00 3.4982050E+00 5.8050258E-01 -8.5143917E-01
  9.957E+00  4.163E-01  1.812E+00 3.5226920E+00 6.1611899E-01 -8.5697124E-01
  1.000E+01  4.786E-01  1.853E+00 3.5016349E+00 5.3733642E-01 -8.7932335E-01
  9.957E+00  4.575E-01  1.840E+00 3.4911435E+00 5.7265612E-01 -8.8664224E-01
  1.000E+01  5.217E-01  1.878E+00 3.4757167E+00 4.9279343E-01 -9.0495946E-01
  9.957E+00  5.000E-01  1.866E+00 3.4919478E+00 5.2770238E-01 -9.1404459E-01
  1.000E+01  5.661E-01  1.901E+00 3.4579693E+00 4.4719703E-01 -9.2850904E-01
  9.957E+00  5.438E-01  1.890E+00 3.4575551E+00 4.8151710E-01 -9.3921839E-01
  1.000E+01  6.116E-01  1.921E+00 3.4498266E+00 4.0031036E-01 -9.4965920E-01
  9.957E+00  5.887E-01  1.912E+00 3.4602295E+00 4.3422056E-01 -9.6219621E-01
  1.000E+01  6.580E-01  1.940E+00 3.4158172E+00 3.5211740E-01 -9.6811629E-01
  9.957E+00  6.347E-01  1.931E+00 3.4342919E+00 3.8544064E-01 -9.8243768E-01
  1.000E+01  7.052E-01  1.956E+00 3.4046720E+00 3.0359651E-01 -9.8456287E-01
  9.957E+00  6.815E-01  1.948E+00 3.4054470E+00 3.3581009E-01 -1.0002345E+00
  1.000E+01  7.532E-01  1.969E+00 3.3976039E+00 2.5467058E-01 -9.9888753E-01
  9.957E+00  7.292E-01  1.963E+00 3.4022344E+00 2.8600518E-01 -1.0160822E+00
  1.000E+01  8.019E-01  1.980E+00 3.3810648E+00 2.0463181E-01 -1.0103885E+00
  9.957E+00  7.775E-01  1.975E+00 3.3903803E+00 2.3537994E-01 -1.0293787E+00
  1.000E+01  8.510E-01  1.989E+00 3.3632935E+00 1.5364304E-01 -1.0190344E+00
  9.957E+00  8.264E-01  1.985E+00 3.3721164E+00 1.8355473E-01 -1.0396414E+00
  1.000E+01  9.004E-01  1.995E+00 3.3513664E+00 1.0237623E-01 -1.0252174E+00
  9.957E+00  8.757E-01  1.992E+00 3.3565566E+00 1.3111484E-01 -1.0471978E+00
  1.000E+01  9.502E-01  1.999E+00 3.3458741E+00 5.1164358E-02 -1.0290504E+00
  9.957E+00  9.253E-01  1.997E+00 3.3476785E+00 7.8622438E-02 -1.0523418E+00
  1.000E+01  1.000E+00  2.000E+00 3.3444573E+00 -1.1591475E-07 -1.0303629E+00
  9.957E+00  9.751E-01  2.000E+00 3.3442568E+00 2.6199909E-02 -1.0549968E+00
  1.000E+01  1.050E+00  1.999E+00 3.3458729E+00 -5.1164590E-02 -1.0290504E+00
  9.957E+00  1.025E+00  2.000E+00 3.3442562E+00 -2.6200147E-02 -1.0549968E+00
  1.000E+01  1.100E+00  1.995E+00 3.3513641E+00 -1.0237646E-01 -1.0252173E+00
  9.957E+00  1.075E+00  1.997E+00 3.3476767E+00 -7.8622676E-02 -1.0523418E+00
  1.000E+01  1.149E+00  1.989E+00 3.3632900E+00 -1.5364328E-01 -1.0190344E+00
  9.957E+00  1.124E+00  1.992E+00 3.3565537E+00 -1.3111508E-01 -1.0471978E+00
  1.000E+01  1.198E+00  1.980E+00 3.3810602E+00 -2.0463204E-01 -1.0103885E+00
  9.957E+00  1.174E+00  1.985E+00 3.3721123E+00 -1.8355496E-01 -1.0396414E+00