# TIME = 0.100000
variables = x, y, z
zone N=5762 E=11520 F=FEPOINT ET=TRIANGLE
 5.0090210E+00 1.4252615E+00 1.6880379E+00
 5.0090210E+00 1.4252615E+00 3.1196213E-01
 5.0090210E+00 5.7473847E-01 1.6880379E+00
 5.0090210E+00 5.7473848E-01 3.1196215E-01
 3.5213514E+00 1.0000000E+00 1.6703347E+00
 6.4960880E+00 1.0000000E+00 1.6694419E+00
 3.5213514E+00 1.0000000E+00 3.2966528E-01
 6.4960880E+00 1.0000000E+00 3.3055813E-01
 4.1854908E+00 1.8295870E+00 1.0000000E+00
 4.1854908E+00 1.7041296E-01 1.0000000E+00
 5.8325389E+00 1.8294203E+00 1.0000000E+00
 5.8325389E+00 1.7057977E-01 1.0000000E+00
 4.9554552E+00 1.4172971E+00 1.6931020E+00
 4.8990158E+00 1.4090283E+00 1.6987922E+00
 4.8401668E+00 1.4005222E+00 1.7050979E+00
 4.7790436E+00 1.3917351E+00 1.7120180E+00
 4.7157118E+00 1.3825740E+00 1.7195449E+00
 4.6503458E+00 1.3729371E+00 1.7276059E+00
 4.5831484E+00 1.3626896E+00 1.7360768E+00
 4.5143717E+00 1.3516733E+00 1.7447687E+00
 4.4443117E+00 1.3397111E+00 1.7534274E+00
 4.3733072E+00 1.3266168E+00 1.7617368E+00
 4.3017378E+00 1.3122085E+00 1.7693291E+00
 4.2300208E+00 1.2963231E+00 1.7758019E+00
 4.1586062E+00 1.2788325E+00 1.7807401E+00
 4.0879702E+00 1.2596573E+00 1.7837428E+00
 4.0186058E+00 1.2387785E+00 1.7844504E+00
 3.9510086E+00 1.2162439E+00 1.7825706E+00
 3.8856603E+00 1.1921681E+00 1.7778987E+00
 3.8230111E+00 1.1667277E+00 1.7703310E+00
 3.7634599E+00 1.1401499E+00 1.7598680E+00
 3.7073396E+00 1.1126987E+00 1.7466103E+00
 3.6549031E+00 1.0846562E+00 1.7307432E+00
 3.6063167E+00 1.0563096E+00 1.7125229E+00
 3.5616322E+00 1.0279138E+00 1.6922466E+00
 4.9536554E+00 6.1047886E-01 1.7090718E+00
 4.8959681E+00 6.1982111E-01 1.7149255E+00
 4.8358629E+00 6.2947074E-01 1.7214065E+00
 4.7734402E+00 6.3949541E-01 1.7285136E+00
 4.7088370E+00 6.4998138E-01 1.7362140E+00
 4.6422404E+00 6.6104373E-01 1.7444211E+00
 4.5738881E+00 6.7282234E-01 1.7529846E+00
 4.5040640E+00 6.8547807E-01 1.7616863E+00
 4.4330978E+00 6.9918421E-01 1.7702388E+00
 4.3613622E+00 7.1411483E-01 1.7782928E+00
 4.2892692E+00 7.3043067E-01 1.7854505E+00
 4.2172655E+00 7.4826293E-01 1.7912868E+00
 4.1458265E+00 7.6769898E-01 1.7953747E+00
 4.0754472E+00 7.8876924E-01 1.7973154E+00
 4.0066304E+00 8.1143980E-01 1.7967657E+00
 3.9398709E+00 8.3560958E-01 1.7934643E+00
 3.8756385E+00 8.6111412E-01 1.7872486E+00
 3.8143591E+00 8.8773562E-01 1.7780650E+00
 3.7563972E+00 9.1521622E-01 1.7659670E+00
 3.7020411E+00 9.4327588E-01 1.7511051E+00
 3.6514994E+00 9.7162514E-01 1.7337146E+00
 3.6048606E+00 1.0000000E+00 1.7140612E+00
 4.9524862E+00 6.3993522E-01 1.7244962E+00
 4.8935343E+00 6.5044181E-01 1.7304540E+00
 4.8321835E+00 6.6132818E-01 1.7370238E+00
 4.7685156E+00 6.7267517E-01 1.7442134E+00
 4.7026998E+00 6.8457727E-01 1.7519725E+00
 4.6349544E+00 6.9715550E-01 1.7601941E+00
 4.5655492E+00 7.1055277E-01 1.7687016E+00
 4.4948031E+00 7.2492709E-01 1.7772460E+00
 4.4230804E+00 7.4044185E-01 1.7855072E+00
 4.3507870E+00 7.5725189E-01 1.7931050E+00
 4.2783662E+00 7.7548873E-01 1.7996160E+00
 4.2062907E+00 7.9524474E-01 1.8045993E+00
 4.1350567E+00 8.1656031E-01 1.8076252E+00
 4.0651707E+00 8.3941363E-01 1.8083064E+00
 3.9971374E+00 8.6371680E-01 1.8063267E+00
 3.9314424E+00 8.8931814E-01 1.8014643E+00
 3.8685340E+00 9.1600965E-01 1.7936060E+00
 3.8088056E+00 9.4354039E-01 1.7827516E+00
 3.7525799E+00 9.7163344E-01 1.7690078E+00
 3.7000973E+00 1.0000000E+00 1.7525736E+00
 3.6514994E+00 1.0283749E+00 1.7337146E+00
 4.9513050E+00 6.7126324E-01 1.7392594E+00
 4.8911962E+00 6.8298930E-01 1.7452107E+00
 4.8286806E+00 6.9518301E-01 1.7517689E+00
 4.7638805E+00 7.0792203E-01 1.7589217E+00
 4.6969888E+00 7.2130886E-01 1.7666046E+00
 4.6282576E+00 7.3546688E-01 1.7746874E+00
 4.5579907E+00 7.5053722E-01 1.7829662E+00
 4.4865412E+00 7.6666920E-01 1.7911614E+00
 4.4143067E+00 7.8400887E-01 1.7989230E+00
 4.3417245E+00 8.0268432E-01 1.8058446E+00
 4.2692636E+00 8.2279046E-01 1.8114853E+00
 4.1974178E+00 8.4437470E-01 1.8153983E+00
 4.1266951E+00 8.6742618E-01 1.8171620E+00
 4.0576051E+00 8.9186994E-01 1.8164129E+00
 3.9906439E+00 9.1756706E-01 1.8128719E+00
 3.9262770E+00 9.4432094E-01 1.8063647E+00
 3.8649221E+00 9.7188910E-01 1.7968318E+00
 3.8069307E+00 1.0000000E+00 1.7843266E+00
 3.7525799E+00 1.0283666E+00 1.7690078E+00
 3.7020411E+00 1.0567241E+00 1.7511051E+00
 4.9502210E+00 7.0448443E-01 1.7531782E+00
 4.8890270E+00 7.1748641E-01 1.7590149E+00
 4.8254553E+00 7.3103135E-01 1.7654325E+00
 4.7596515E+00 7.4520600E-01 1.7724067E+00
 4.6918407E+00 7.6011483E-01 1.7798542E+00
 4.6223085E+00 7.7588070E-01 1.7876212E+00
 4.5513927E+00 7.9263750E-01 1.7954764E+00
 4.4794798E+00 8.1051956E-01 1.8031125E+00
 4.4069982E+00 8.2964862E-01 1.8101536E+00
 4.3344112E+00 8.5011880E-01 1.8161749E+00
 4.2622084E+00 8.7198222E-01 1.8207271E+00
 4.1908961E+00 8.9523712E-01 1.8233686E+00
 4.1209849E+00 9.1982048E-01 1.8236982E+00
 4.0529769E+00 9.4560626E-01 1.8213864E+00
 3.9873498E+00 9.7241025E-01 1.8161997E+00
 3.9245390E+00 1.0000000E+00 1.8080167E+00
 3.8649221E+00 1.0281109E+00 1.7968318E+00
 3.8088056E+00 1.0564596E+00 1.7827516E+00
 3.7563972E+00 1.0847838E+00 1.7659670E+00
 4.9492136E+00 7.3952161E-01 1.7660225E+00
 4.8870431E+00 7.5382712E-01 1.7716174E+00
 4.8225452E+00 7.6874981E-01 1.7777545E+00
 4.7558942E+00 7.8437876E-01 1.7843942E+00
 4.6873484E+00 8.0081843E-01 1.7914335E+00
 4.6172265E+00 8.1818583E-01 1.7986952E+00
 4.5458994E+00 8.3660203E-01 1.8059227E+00
 4.4737843E+00 8.5617986E-01 1.8127845E+00
 4.4013356E+00 8.7701022E-01 1.8188860E+00
 4.3290369E+00 8.9914757E-01 1.8237928E+00
 4.2573905E+00 9.2259746E-01 1.8270583E+00
 4.1869059E+00 9.4730785E-01 1.8282579E+00
 4.1180872E+00 9.7316574E-01 1.8270215E+00
 4.0514189E+00 1.0000000E+00 1.8230628E+00
 3.9873498E+00 1.0275897E+00 1.8161997E+00
 3.9262770E+00 1.0556791E+00 1.8063647E+00
 3.8685340E+00 1.0839903E+00 1.7936060E+00
 3.8143591E+00 1.1122644E+00 1.7780650E+00
 4.9483095E+00 7.7627533E-01 1.7775716E+00
 4.8852863E+00 7.9188936E-01 1.7827868E+00
 4.8200126E+00 8.0818616E-01 1.7884907E+00
 4.7526914E+00 8.2525475E-01 1.7946283E+00
 4.6836144E+00 8.4319537E-01 1.8010768E+00
 4.6131328E+00 8.6211442E-01 1.8076369E+00
 4.5416475E+00 8.8211435E-01 1.8140302E+00
 4.4696017E+00 9.0328069E-01 1.8199072E+00
 4.3974705E+00 9.2566817E-01 1.8248629E+00
 4.3257499E+00 9.4928820E-01 1.8284636E+00
 4.2549462E+00 9.7409884E-01 1.8302768E+00
 4.1855628E+00 1.0000000E+00 1.8299060E+00
 4.1180872E+00 1.0268343E+00 1.8270215E+00
 4.0529769E+00 1.0543937E+00 1.8213864E+00
 3.9906439E+00 1.0824329E+00 1.8128719E+00
 3.9314424E+00 1.1106819E+00 1.8014643E+00
 3.8756385E+00 1.1388859E+00 1.7872486E+00
 4.9475236E+00 8.1459260E-01 1.7876054E+00
 4.8837910E+00 8.3149095E-01 1.7922950E+00
 4.8179102E+00 8.4912595E-01 1.7974072E+00
 4.7501145E+00 8.6758297E-01 1.8028707E+00
 4.6807271E+00 8.8695364E-01 1.8085443E+00
 4.6101289E+00 9.0732898E-01 1.8142097E+00
 4.5387469E+00 9.2878764E-01 1.8195716E+00
 4.4670447E+00 9.5138326E-01 1.8242701E+00
 4.3955100E+00 9.7513160E-01 1.8278996E+00
 4.3246435E+00 1.0000000E+00 1.8300376E+00
 4.2549462E+00 1.0259012E+00 1.8302768E+00
 4.1869059E+00 1.0526921E+00 1.8282579E+00
 4.1209849E+00 1.0801795E+00 1.8236982E+00
 4.0576051E+00 1.1081300E+00 1.8164129E+00
 3.9971374E+00 1.1362832E+00 1.8063267E+00
 3.9398709E+00 1.1643904E+00 1.7934643E+00
 4.9468726E+00 8.5427356E-01 1.7959183E+00
 4.8825897E+00 8.7240076E-01 1.7999348E+00
 4.8162867E+00 8.9130265E-01 1.8042965E+00
 4.7482256E+00 9.1105774E-01 1.8089174E+00
 4.6787589E+00 9.3174520E-01 1.8136399E+00
 4.6082934E+00 9.5343588E-01 1.8182306E+00
 4.5372762E+00 9.7618115E-01 1.8223845E+00
 4.4661842E+00 1.0000000E+00 1.8257396E+00
 4.3955100E+00 1.0248684E+00 1.8278996E+00
 4.3257499E+00 1.0507118E+00 1.8284636E+00
 4.2573905E+00 1.0774025E+00 1.8270583E+00
 4.1908961E+00 1.1047629E+00 1.8233686E+00
 4.1266951E+00 1.1325738E+00 1.8171620E+00
 4.0651707E+00 1.1605864E+00 1.8083064E+00
 4.0066304E+00 1.1885602E+00 1.7967657E+00
 4.9463704E+00 8.9507211E-01 1.8023286E+00
 4.8817104E+00 9.1433947E-01 1.8055290E+00
 4.8151812E+00 9.3440136E-01 1.8089898E+00
 4.7470723E+00 9.5532600E-01 1.8126116E+00
 4.6777616E+00 9.7717618E-01 1.8162239E+00
 4.6076760E+00 1.0000000E+00 1.8195842E+00
 4.5372762E+00 1.0238188E+00 1.8223845E+00
 4.4670447E+00 1.0486167E+00 1.8242701E+00
 4.3974705E+00 1.0743318E+00 1.8248629E+00
 4.3290369E+00 1.1008524E+00 1.8237928E+00
 4.2622084E+00 1.1280178E+00 1.8207271E+00
 4.1974178E+00 1.1556253E+00 1.8153983E+00
 4.1350567E+00 1.1834397E+00 1.8076252E+00
 4.0754472E+00 1.2112308E+00 1.7973154E+00
 4.9460288E+00 9.3670146E-01 1.8066892E+00
 4.8811738E+00 9.5698841E-01 1.8089424E+00
 4.8146212E+00 9.7806959E-01 1.8113675E+00
 4.7466844E+00 1.0000000E+00 1.8138543E+00
 4.6777616E+00 1.0228238E+00 1.8162239E+00
 4.6082934E+00 1.0465641E+00 1.8182306E+00
 4.5387469E+00 1.0712124E+00 1.8195716E+00
 4.4696017E+00 1.0967193E+00 1.8199072E+00
 4.4013356E+00 1.1229898E+00 1.8188861E+00
 4.3344112E+00 1.1498812E+00 1.8161749E+00
 4.2692636E+00 1.1772095E+00 1.8114853E+00
 4.2062907E+00 1.2047553E+00 1.8045993E+00
 4.1458265E+00 1.2323010E+00 1.7953747E+00
 4.9458560E+00 9.7884281E-01 1.8088963E+00
 4.8809935E+00 1.0000000E+00 1.8100899E+00
 4.8146212E+00 1.0219304E+00 1.8113675E+00
 4.7470723E+00 1.0446740E+00 1.8126116E+00
 4.6787589E+00 1.0682548E+00 1.8136399E+00
 4.6101289E+00 1.0926710E+00 1.8142097E+00
 4.5416475E+00 1.1178856E+00 1.8140302E+00
 4.4737843E+00 1.1438201E+00 1.8127845E+00
 4.4069982E+00 1.1703514E+00 1.8101536E+00
 4.3417245E+00 1.1973157E+00 1.8058446E+00
 4.2783662E+00 1.2245113E+00 1.7996160E+00
 4.2172655E+00 1.2517371E+00 1.7912868E+00
 4.9458560E+00 1.0211572E+00 1.8088963E+00
 4.8811738E+00 1.0430116E+00 1.8089424E+00
 4.8151812E+00 1.0655986E+00 1.8089898E+00
 4.7482256E+00 1.0889423E+00 1.8089174E+00
 4.6807271E+00 1.1130464E+00 1.8085443E+00
 4.6131328E+00 1.1378856E+00 1.8076369E+00
 4.5458994E+00 1.1633980E+00 1.8059227E+00
 4.4794798E+00 1.1894804E+00 1.8031125E+00
 4.4143067E+00 1.2159911E+00 1.7989230E+00
 4.3507870E+00 1.2427481E+00 1.7931050E+00
 4.2892692E+00 1.2695693E+00 1.7854505E+00
 4.9460288E+00 1.0632985E+00 1.8066892E+00
 4.8817104E+00 1.0856605E+00 1.8055290E+00
 4.8162867E+00 1.1086973E+00 1.8042965E+00
 4.7501145E+00 1.1324170E+00 1.8028707E+00
 4.6836144E+00 1.1568046E+00 1.8010768E+00
 4.6172265E+00 1.1818142E+00 1.7986952E+00
 4.5513927E+00 1.2073625E+00 1.7954764E+00
 4.4865412E+00 1.2333308E+00 1.7911614E+00
 4.4230804E+00 1.2595581E+00 1.7855072E+00
 4.3613622E+00 1.2858852E+00 1.7782928E+00
 4.9463704E+00 1.1049279E+00 1.8023286E+00
 4.8825897E+00 1.1275992E+00 1.7999348E+00
 4.8179102E+00 1.1508740E+00 1.7974072E+00
 4.7526914E+00 1.1747452E+00 1.7946283E+00
 4.6873484E+00 1.1991816E+00 1.7914335E+00
 4.6223085E+00 1.2241193E+00 1.7876212E+00
 4.5579907E+00 1.2494628E+00 1.7829662E+00
 4.4948031E+00 1.2750729E+00 1.7772460E+00
 4.4330978E+00 1.3008158E+00 1.7702388E+00
 4.9468726E+00 1.1457264E+00 1.7959183E+00
 4.8837910E+00 1.1685090E+00 1.7922951E+00
 4.8200126E+00 1.1918138E+00 1.7884907E+00
 4.7558942E+00 1.2156212E+00 1.7843942E+00
 4.6918407E+00 1.2398852E+00 1.7798542E+00
 4.6282576E+00 1.2645331E+00 1.7746875E+00
 4.5655492E+00 1.2894472E+00 1.7687016E+00
 4.5040640E+00 1.3145219E+00 1.7616863E+00
 4.9475236E+00 1.1854074E+00 1.7876054E+00
 4.8852863E+00 1.2081106E+00 1.7827868E+00
 4.8225452E+00 1.2312502E+00 1.7777545E+00
 4.7596515E+00 1.2547940E+00 1.7724067E+00
 4.6969888E+00 1.2786911E+00 1.7666046E+00
 4.6349544E+00 1.3028445E+00 1.7601941E+00
 4.5738881E+00 1.3271777E+00 1.7529846E+00
 4.9483095E+00 1.2237247E+00 1.7775716E+00
 4.8870431E+00 1.2461729E+00 1.7716174E+00
 4.8254553E+00 1.2689687E+00 1.7654325E+00
 4.7638805E+00 1.2920780E+00 1.7589217E+00
 4.7026998E+00 1.3154227E+00 1.7519725E+00
 4.6422404E+00 1.3389563E+00 1.7444211E+00
 4.9492136E+00 1.2604784E+00 1.7660225E+00
 4.8890270E+00 1.2825136E+00 1.7590149E+00
 4.8286806E+00 1.3048170E+00 1.7517689E+00
 4.7685156E+00 1.3273248E+00 1.7442134E+00
 4.7088370E+00 1.3500186E+00 1.7362140E+00
 4.9502210E+00 1.2955156E+00 1.7531782E+00
 4.8911962E+00 1.3170107E+00 1.7452107E+00
 4.8321835E+00 1.3386718E+00 1.7370238E+00
 4.7734403E+00 1.3605046E+00 1.7285136E+00
 4.9513050E+00 1.3287368E+00 1.7392594E+00
 4.8935343E+00 1.3495582E+00 1.7304540E+00
 4.8358629E+00 1.3705293E+00 1.7214065E+00
 4.9524862E+00 1.3600648E+00 1.7244962E+00
 4.8959681E+00 1.3801789E+00 1.7149255E+00
 4.9536554E+00 1.3895211E+00 1.7090718E+00
 5.0090212E+00 1.3989110E+00 1.7035737E+00
 5.0090212E+00 1.3704921E+00 1.7189836E+00
 5.0090212E+00 1.3403277E+00 1.7337525E+00
 5.0090212E+00 1.3082889E+00 1.7477932E+00
 5.0090212E+00 1.2744680E+00 1.7608696E+00
 5.0090213E+00 1.2389359E+00 1.7727768E+00
 5.0090213E+00 1.2018224E+00 1.7833007E+00
 5.0090213E+00 1.1632985E+00 1.7922385E+00
 5.0090213E+00 1.1235807E+00 1.7994057E+00
 5.0090213E+00 1.0829267E+00 1.8046458E+00
 5.0090213E+00 1.0416277E+00 1.8078397E+00
 5.0090213E+00 1.0000000E+00 1.8089129E+00
 5.0090213E+00 9.5837225E-01 1.8078397E+00
 5.0090213E+00 9.1707334E-01 1.8046458E+00
 5.0090213E+00 8.7641928E-01 1.7994057E+00
 5.0090213E+00 8.3670153E-01 1.7922385E+00
 5.0090213E+00 7.9817756E-01 1.7833007E+00
 5.0090213E+00 7.6106407E-01 1.7727768E+00
 5.0090212E+00 7.2553203E-01 1.7608696E+00
 5.0090212E+00 6.9171106E-01 1.7477932E+00
 5.0090212E+00 6.5967225E-01 1.7337525E+00
 5.0090212E+00 6.2950789E-01 1.7189836E+00
 5.0090212E+00 6.0108899E-01 1.7035737E+00
 5.0625861E+00 5.8264836E-01 1.6931928E+00
 5.1190230E+00 5.9086395E-01 1.6989769E+00
 5.1778677E+00 5.9932105E-01 1.7053746E+00
 5.2389858E+00 6.0806651E-01 1.7123797E+00
 5.3023123E+00 6.1719613E-01 1.7199782E+00
 5.3676741E+00 6.2681504E-01 1.7280905E+00
 5.4348698E+00 6.3706065E-01 1.7365846E+00
 5.5036480E+00 6.4809319E-01 1.7452638E+00
 5.5737127E+00 6.6009076E-01 1.7538672E+00
 5.6447238E+00 6.7323874E-01 1.7620739E+00
 5.7162984E+00 6.8771626E-01 1.7695145E+00
 5.7880145E+00 7.0368137E-01 1.7757900E+00
 5.8594161E+00 7.2125529E-01 1.7804942E+00
 5.9300217E+00 7.4050901E-01 1.7832407E+00
 5.9993348E+00 7.6145315E-01 1.7836891E+00
 6.0668595E+00 7.8403283E-01 1.7815686E+00
 6.1321178E+00 8.0812893E-01 1.7766952E+00
 6.1946675E+00 8.3356373E-01 1.7689821E+00
 6.2541198E+00 8.6011258E-01 1.7584411E+00
 6.3101538E+00 8.8751691E-01 1.7451763E+00
 6.3625268E+00 9.1550191E-01 1.7293697E+00
 6.4110802E+00 9.4378863E-01 1.7112687E+00
 6.4557665E+00 9.7212896E-01 1.6911584E+00
 5.0643861E+00 1.3895739E+00 1.7091679E+00
 5.1220706E+00 1.3802820E+00 1.7151195E+00
 5.1821714E+00 1.3706779E+00 1.7216961E+00
 5.2445887E+00 1.3606911E+00 1.7288908E+00
 5.3091867E+00 1.3502324E+00 1.7366639E+00
 5.3757792E+00 1.3391839E+00 1.7449212E+00
 5.4441301E+00 1.3274034E+00 1.7535042E+00
 5.5139563E+00 1.3147285E+00 1.7621867E+00
 5.5849277E+00 1.3009860E+00 1.7706746E+00
 5.6566699E+00 1.2860033E+00 1.7786144E+00
 5.7287674E+00 1.2696234E+00 1.7856078E+00
 5.8007684E+00 1.2517205E+00 1.7912345E+00
 5.8721918E+00 1.2322145E+00 1.7950785E+00
 5.9425374E+00 1.2110829E+00 1.7967570E+00
 6.0112995E+00 1.1883666E+00 1.7959474E+00
 6.0779841E+00 1.1641720E+00 1.7924099E+00
 6.1421257E+00 1.1386660E+00 1.7860020E+00
 6.2033070E+00 1.1120653E+00 1.7766853E+00
 6.2611733E+00 1.0846238E+00 1.7645218E+00
 6.3154471E+00 1.0566153E+00 1.7496638E+00
 6.3659297E+00 1.0283216E+00 1.7323407E+00
 6.4125385E+00 1.0000000E+00 1.7128096E+00
 5.0655555E+00 1.3601147E+00 1.7245963E+00
 5.1245044E+00 1.3496551E+00 1.7306562E+00
 5.1858506E+00 1.3388105E+00 1.7373251E+00
 5.2495130E+00 1.3274971E+00 1.7446047E+00
 5.3153236E+00 1.3156179E+00 1.7524374E+00
 5.3830651E+00 1.3030494E+00 1.7607079E+00
 5.4524692E+00 1.2896468E+00 1.7692312E+00
 5.5232177E+00 1.2752514E+00 1.7777500E+00
 5.5949460E+00 1.2597005E+00 1.7859379E+00
 5.6672460E+00 1.2428418E+00 1.7934108E+00
 5.7396706E+00 1.2245479E+00 1.7997464E+00
 5.8117417E+00 1.2047326E+00 1.8045102E+00
 5.8829577E+00 1.1833624E+00 1.8072847E+00
 5.9528071E+00 1.1604660E+00 1.8077005E+00
 6.0207831E+00 1.1361371E+00 1.8054624E+00
 6.0864015E+00 1.1105308E+00 1.8003701E+00
 6.1492192E+00 1.0838552E+00 1.7923290E+00
 6.2088512E+00 1.0563587E+00 1.7813522E+00
 6.2649844E+00 1.0283130E+00 1.7675529E+00
 6.3173883E+00 1.0000000E+00 1.7511291E+00
 6.3659297E+00 9.7167835E-01 1.7323407E+00
 5.0667364E+00 1.3287832E+00 1.7393637E+00
 5.1268423E+00 1.3171002E+00 1.7454211E+00
 5.1893533E+00 1.3049438E+00 1.7520817E+00
 5.2541477E+00 1.2922338E+00 1.7593266E+00
 5.3210341E+00 1.2788653E+00 1.7670837E+00
 5.3897615E+00 1.2647129E+00 1.7752139E+00
 5.4600277E+00 1.2496343E+00 1.7835045E+00
 5.5314801E+00 1.2334802E+00 1.7916680E+00
 5.6037204E+00 1.2161060E+00 1.7993480E+00
 5.6763092E+00 1.1973869E+00 1.8061356E+00
 5.7487731E+00 1.1772328E+00 1.8115918E+00
 5.8206132E+00 1.1556023E+00 1.8152778E+00
 5.8913159E+00 1.1325128E+00 1.8167859E+00
 5.9603675E+00 1.1080451E+00 1.8157713E+00
 6.0272698E+00 1.0823421E+00 1.8119759E+00
 6.0915599E+00 1.0556018E+00 1.8052462E+00
 6.1528256E+00 1.0280653E+00 1.7955396E+00
 6.2107229E+00 1.0000000E+00 1.7829209E+00
 6.2649844E+00 9.7168702E-01 1.7675528E+00
 6.3154471E+00 9.4338467E-01 1.7496638E+00
 5.0678204E+00 1.2955581E+00 1.7532865E+00
 5.1290114E+00 1.2825948E+00 1.7592329E+00
 5.1925783E+00 1.2690824E+00 1.7657559E+00
 5.2583764E+00 1.2549317E+00 1.7728242E+00
 5.3261818E+00 1.2400365E+00 1.7803460E+00
 5.3957105E+00 1.2242723E+00 1.7881586E+00
 5.4666258E+00 1.2075047E+00 1.7960220E+00
 5.5385419E+00 1.1896003E+00 1.8036205E+00
 5.6110296E+00 1.1704396E+00 1.8105730E+00
 5.6836229E+00 1.1499322E+00 1.8164528E+00
 5.7558282E+00 1.1280313E+00 1.8208140E+00
 5.8271338E+00 1.1047445E+00 1.8232242E+00
 5.8970237E+00 1.0801405E+00 1.8232972E+00
 5.9649921E+00 1.0543498E+00 1.8207226E+00
 6.0305604E+00 1.0275589E+00 1.8152875E+00
 6.0932956E+00 1.0000000E+00 1.8068899E+00
 6.1528256E+00 9.7193471E-01 1.7955396E+00
 6.2088512E+00 9.4364131E-01 1.7813522E+00
 6.2611733E+00 9.1537618E-01 1.7645218E+00
 5.0688279E+00 1.2605166E+00 1.7661345E+00
 5.1309952E+00 1.2462447E+00 1.7718425E+00
 5.1954881E+00 1.2313493E+00 1.7780877E+00
 5.2621333E+00 1.2157391E+00 1.7848228E+00
 5.3306739E+00 1.1993081E+00 1.7919364E+00
 5.4007924E+00 1.1819386E+00 1.7992419E+00
 5.4721192E+00 1.1635097E+00 1.8064739E+00
 5.5442378E+00 1.1439101E+00 1.8132932E+00
 5.6166927E+00 1.1230520E+00 1.8193005E+00
 5.6889976E+00 1.1008852E+00 1.8240605E+00
 5.7606460E+00 1.0774094E+00 1.8271312E+00
 5.8311232E+00 1.0526820E+00 1.8280985E+00
 5.8999200E+00 1.0268208E+00 1.8266077E+00
 5.9665489E+00 1.0000000E+00 1.8223915E+00
 6.0305604E+00 9.7244108E-01 1.8152875E+00
 6.0915599E+00 9.4439819E-01 1.8052462E+00
 6.1492192E+00 9.1614478E-01 1.7923290E+00
 6.2033070E+00 8.8793469E-01 1.7766853E+00
 5.0697319E+00 1.2237579E+00 1.7776870E+00
 5.1327519E+00 1.2081722E+00 1.7830183E+00
 5.1980206E+00 1.1918970E+00 1.7888325E+00
 5.2653359E+00 1.1748416E+00 1.7950666E+00
 5.3344076E+00 1.1569049E+00 1.8015889E+00
 5.4048859E+00 1.1379802E+00 1.8081910E+00
 5.4763712E+00 1.1179661E+00 1.8145856E+00
 5.5484207E+00 1.0967793E+00 1.8204161E+00
 5.6205582E+00 1.0743688E+00 1.8252737E+00
 5.6922849E+00 1.0507278E+00 1.8287248E+00
 5.7630903E+00 1.0259032E+00 1.8303425E+00
 5.8324660E+00 1.0000000E+00 1.8297415E+00
 5.8999200E+00 9.7317916E-01 1.8266077E+00
 5.9649921E+00 9.4565021E-01 1.8207226E+00
 6.0272698E+00 9.1765792E-01 1.8119759E+00
 6.0864015E+00 8.8946923E-01 1.8003701E+00
 6.1421257E+00 8.6133404E-01 1.7860020E+00
 5.0705179E+00 1.1854353E+00 1.7877238E+00
 5.1342471E+00 1.1685595E+00 1.7925320E+00
 5.2001229E+00 1.1509401E+00 1.7977561E+00
 5.2679126E+00 1.1324906E+00 1.8033167E+00
 5.3372947E+00 1.1131190E+00 1.8090636E+00
 5.4078898E+00 1.0927347E+00 1.8147690E+00
 5.4792719E+00 1.0712608E+00 1.8201297E+00
 5.5509780E+00 1.0486468E+00 1.8247791E+00
 5.6225188E+00 1.0248807E+00 1.8283084E+00
 5.6933914E+00 1.0000000E+00 1.8302966E+00
 5.7630903E+00 9.7409678E-01 1.8303425E+00
 5.8311232E+00 9.4731798E-01 1.8280985E+00
 5.8970237E+00 9.1985949E-01 1.8232972E+00
 5.9603675E+00 8.9195491E-01 1.8157713E+00
 6.0207831E+00 8.6386285E-01 1.8054624E+00
 6.0779841E+00 8.3582801E-01 1.7924099E+00
 5.0711688E+00 1.1457486E+00 1.7960392E+00
 5.1354483E+00 1.1276378E+00 1.8001762E+00
 5.2017462E+00 1.1087453E+00 1.8046510E+00
 5.2698013E+00 1.0889919E+00 1.8093691E+00
 5.3392628E+00 1.0682988E+00 1.8141640E+00
 5.4097252E+00 1.0465961E+00 1.8187932E+00
 5.4807427E+00 1.0238350E+00 1.8229440E+00
 5.5518385E+00 1.0000000E+00 1.8262486E+00
 5.6225188E+00 9.7511932E-01 1.8283084E+00
 5.6922849E+00 9.4927220E-01 1.8287248E+00
 5.7606460E+00 9.2259062E-01 1.8271312E+00
 5.8271338E+00 8.9525547E-01 1.8232242E+00
 5.8913159E+00 8.6748717E-01 1.8167859E+00
 5.9528071E+00 8.3953397E-01 1.8077005E+00
 6.0112995E+00 8.1163344E-01 1.7959474E+00
 5.0716710E+00 1.1049440E+00 1.8024515E+00
 5.1363278E+00 1.0856866E+00 1.8057738E+00
 5.2028516E+00 1.0656277E+00 1.8093482E+00
 5.2709546E+00 1.0446990E+00 1.8130668E+00
 5.3402600E+00 1.0228385E+00 1.8167505E+00
 5.4103426E+00 1.0000000E+00 1.8201479E+00
 5.4807427E+00 9.7616495E-01 1.8229440E+00
 5.5509780E+00 9.5135324E-01 1.8247791E+00
 5.6205582E+00 9.2563115E-01 1.8252737E+00
 5.6889976E+00 8.9911479E-01 1.8240605E+00
 5.7558282E+00 8.7196865E-01 1.8208140E+00
 5.8206132E+00 8.4439766E-01 1.8152778E+00
 5.8829577E+00 8.1663762E-01 1.8072847E+00
 5.9425374E+00 7.8891712E-01 1.7967570E+00
 5.0720126E+00 1.0633083E+00 1.8068134E+00
 5.1368642E+00 1.0430247E+00 1.8091892E+00
 5.2034116E+00 1.0219401E+00 1.8117278E+00
 5.2713425E+00 1.0000000E+00 1.8143107E+00
 5.3402600E+00 9.7716145E-01 1.8167505E+00
 5.4097252E+00 9.5340386E-01 1.8187932E+00
 5.4792719E+00 9.2873915E-01 1.8201297E+00
 5.5484207E+00 9.0322066E-01 1.8204161E+00
 5.6166927E+00 8.7694796E-01 1.8193005E+00
 5.6836229E+00 8.5006775E-01 1.8164528E+00
 5.7487731E+00 8.2276718E-01 1.8115918E+00
 5.8117417E+00 7.9526739E-01 1.8045102E+00
 5.8721918E+00 7.6778545E-01 1.7950785E+00
 5.0721855E+00 1.0211605E+00 1.8090212E+00
 5.1370445E+00 1.0000000E+00 1.8103373E+00
 5.2034116E+00 9.7805985E-01 1.8117278E+00
 5.2709546E+00 9.5530097E-01 1.8130668E+00
 5.3392628E+00 9.3170123E-01 1.8141640E+00
 5.4078898E+00 9.0726531E-01 1.8147690E+00
 5.4763712E+00 8.8203393E-01 1.8145856E+00
 5.5442378E+00 8.5608984E-01 1.8132932E+00
 5.6110296E+00 8.2956042E-01 1.8105730E+00
 5.6763092E+00 8.0261306E-01 1.8061356E+00
 5.7396706E+00 7.7545206E-01 1.7997464E+00
 5.8007684E+00 7.4827949E-01 1.7912345E+00
 5.0721855E+00 9.7883954E-01 1.8090212E+00
 5.1368642E+00 9.5697528E-01 1.8091892E+00
 5.2028516E+00 9.3437230E-01 1.8093482E+00
 5.2698013E+00 9.1100807E-01 1.8093691E+00
 5.3372947E+00 8.8688104E-01 1.8090636E+00
 5.4048859E+00 8.6201983E-01 1.8081910E+00
 5.4721192E+00 8.3649028E-01 1.8064739E+00
 5.5385419E+00 8.1039969E-01 1.8036205E+00
 5.6037204E+00 7.8389395E-01 1.7993480E+00
 5.6672460E+00 7.5715821E-01 1.7934108E+00
 5.7287674E+00 7.3037664E-01 1.7856078E+00
 5.0720126E+00 9.3669169E-01 1.8068134E+00
 5.1363278E+00 9.1431343E-01 1.8057738E+00
 5.2017462E+00 8.9125472E-01 1.8046510E+00
 5.2679126E+00 8.6750940E-01 1.8033167E+00
 5.3344076E+00 8.4309512E-01 1.8015889E+00
 5.4007924E+00 8.1806137E-01 1.7992419E+00
 5.4666258E+00 7.9249528E-01 1.7960220E+00
 5.5314801E+00 7.6651980E-01 1.7916680E+00
 5.5949460E+00 7.4029946E-01 1.7859379E+00
 5.6566699E+00 7.1399667E-01 1.7786144E+00
 5.0716710E+00 8.9505600E-01 1.8024515E+00
 5.1354483E+00 8.7236221E-01 1.8001762E+00
 5.2001229E+00 8.4905991E-01 1.7977561E+00
 5.2653359E+00 8.2515836E-01 1.7950666E+00
 5.3306739E+00 8.0069186E-01 1.7919364E+00
 5.3957105E+00 7.7572774E-01 1.7881586E+00
 5.4600277E+00 7.5036569E-01 1.7835045E+00
 5.5232177E+00 7.2474859E-01 1.7777500E+00
 5.5849277E+00 6.9901398E-01 1.7706746E+00
 5.0711688E+00 8.5425137E-01 1.7960392E+00
 5.1342471E+00 8.3144050E-01 1.7925320E+00
 5.1980206E+00 8.0810299E-01 1.7888325E+00
 5.2621333E+00 7.8426091E-01 1.7848228E+00
 5.3261818E+00 7.5996352E-01 1.7803460E+00
 5.3897615E+00 7.3528711E-01 1.7752139E+00
 5.4524692E+00 7.1035322E-01 1.7692312E+00
 5.5139563E+00 6.8527145E-01 1.7621867E+00
 5.0705179E+00 8.1456466E-01 1.7877238E+00
 5.1327519E+00 7.9182776E-01 1.7830183E+00
 5.1954881E+00 7.6865071E-01 1.7780877E+00
 5.2583764E+00 7.4506825E-01 1.7728242E+00
 5.3210341E+00 7.2113469E-01 1.7670837E+00
 5.3830651E+00 6.9695064E-01 1.7607079E+00
 5.4441301E+00 6.7259664E-01 1.7535042E+00
 5.0697319E+00 7.7624205E-01 1.7776870E+00
 5.1309952E+00 7.5375524E-01 1.7718425E+00
 5.1925783E+00 7.3091764E-01 1.7657559E+00
 5.2541477E+00 7.0776617E-01 1.7593266E+00
 5.3153236E+00 6.8438209E-01 1.7524374E+00
 5.3757792E+00 6.6081611E-01 1.7449212E+00
 5.0688279E+00 7.3948344E-01 1.7661345E+00
 5.1290114E+00 7.1740519E-01 1.7592329E+00
 5.1893533E+00 6.9505616E-01 1.7520817E+00
 5.2495130E+00 6.7250287E-01 1.7446047E+00
 5.3091867E+00 6.4976758E-01 1.7366639E+00
 5.0678204E+00 7.0444185E-01 1.7532865E+00
 5.1268423E+00 6.8289977E-01 1.7454211E+00
 5.1858506E+00 6.6118953E-01 1.7373251E+00
 5.2445887E+00 6.3930885E-01 1.7288908E+00
 5.0667364E+00 6.7121676E-01 1.7393637E+00
 5.1245044E+00 6.5034486E-01 1.7306562E+00
 5.1821714E+00 6.2932205E-01 1.7216961E+00
 5.0655555E+00 6.3988530E-01 1.7245963E+00
 5.1220706E+00 6.1971795E-01 1.7151195E+00
 5.0643861E+00 6.1042608E-01 1.7091679E+00
 4.9758913E+00 1.4460710E+00 1.6747640E+00
 4.9409920E+00 1.4678063E+00 1.6602036E+00
 4.9047677E+00 1.4901043E+00 1.6444011E+00
 4.8671844E+00 1.5129315E+00 1.6272758E+00
 4.8284142E+00 1.5362182E+00 1.6087221E+00
 4.7886090E+00 1.5598583E+00 1.5886492E+00
 4.7479726E+00 1.5837206E+00 1.5669672E+00
 4.7067415E+00 1.6076424E+00 1.5435968E+00
 4.6651862E+00 1.6314302E+00 1.5184756E+00
 4.6236024E+00 1.6548621E+00 1.4915660E+00
 4.5823046E+00 1.6776927E+00 1.4628641E+00
 4.5416145E+00 1.6996616E+00 1.4324080E+00
 4.5018501E+00 1.7205049E+00 1.4002826E+00
 4.4633145E+00 1.7399677E+00 1.3666235E+00
 4.4262839E+00 1.7578180E+00 1.3316161E+00
 4.3909993E+00 1.7738588E+00 1.2954895E+00
 4.3576577E+00 1.7879388E+00 1.2585084E+00
 4.3264094E+00 1.7999581E+00 1.2209614E+00
 4.2973540E+00 1.8098716E+00 1.1831473E+00
 4.2705441E+00 1.8176865E+00 1.1453623E+00
 4.2459854E+00 1.8234587E+00 1.1078867E+00
 4.2236500E+00 1.8272856E+00 1.0709788E+00
 4.2034496E+00 1.8292888E+00 1.0348308E+00
 3.5502732E+00 1.0758777E+00 1.6826496E+00
 3.5412736E+00 1.1257736E+00 1.6703150E+00
 3.5355202E+00 1.1776566E+00 1.6552160E+00
 3.5335165E+00 1.2311321E+00 1.6371826E+00
 3.5357308E+00 1.2856683E+00 1.6161051E+00
 3.5425757E+00 1.3406260E+00 1.5919559E+00
 3.5543718E+00 1.3952806E+00 1.5648043E+00
 3.5713175E+00 1.4488500E+00 1.5348271E+00
 3.5934643E+00 1.5005352E+00 1.5023112E+00
 3.6207011E+00 1.5495675E+00 1.4676468E+00
 3.6527534E+00 1.5952573E+00 1.4313109E+00
 3.6891943E+00 1.6370391E+00 1.3938405E+00
 3.7294703E+00 1.6745038E+00 1.3558007E+00
 3.7729383E+00 1.7074191E+00 1.3177504E+00
 3.8189056E+00 1.7357294E+00 1.2802102E+00
 3.8666708E+00 1.7595422E+00 1.2436357E+00
 3.9155611E+00 1.7791007E+00 1.2084012E+00
 3.9649589E+00 1.7947502E+00 1.1747903E+00
 4.0143209E+00 1.8069007E+00 1.1429975E+00
 4.0631902E+00 1.8159940E+00 1.1131334E+00
 4.1111855E+00 1.8224765E+00 1.0852430E+00
 4.1580493E+00 1.8267668E+00 1.0592873E+00
 3.5971059E+00 1.1051272E+00 1.7027132E+00
 3.5904338E+00 1.1557372E+00 1.6900607E+00
 3.5871549E+00 1.2081440E+00 1.6745126E+00
 3.5877428E+00 1.2618813E+00 1.6558930E+00
 3.5926301E+00 1.3163666E+00 1.6341060E+00
 3.6021782E+00 1.3709145E+00 1.6091468E+00
 3.6166434E+00 1.4247662E+00 1.5811167E+00
 3.6361505E+00 1.4771250E+00 1.5502323E+00
 3.6606706E+00 1.5272012E+00 1.5168242E+00
 3.6900140E+00 1.5742616E+00 1.4813266E+00
 3.7238338E+00 1.6176781E+00 1.4442549E+00
 3.7616471E+00 1.6569671E+00 1.4061756E+00
 3.8028635E+00 1.6918155E+00 1.3676713E+00
 3.8468259E+00 1.7220906E+00 1.3293046E+00
 3.8928498E+00 1.7478314E+00 1.2915870E+00
 3.9402622E+00 1.7692266E+00 1.2549558E+00
 3.9884328E+00 1.7865821E+00 1.2197597E+00
 4.0367957E+00 1.8002841E+00 1.1862545E+00
 4.0848651E+00 1.8107637E+00 1.1546069E+00
 4.1322334E+00 1.8184665E+00 1.1249039E+00
 4.1786069E+00 1.8238227E+00 1.0971587E+00
 3.6480445E+00 1.1341038E+00 1.7205618E+00
 3.6438728E+00 1.1851805E+00 1.7074506E+00
 3.6432065E+00 1.2378031E+00 1.6913126E+00
 3.6464832E+00 1.2914617E+00 1.6719861E+00
 3.6540874E+00 1.3455253E+00 1.6493956E+00
 3.6663190E+00 1.3992740E+00 1.6235665E+00
 3.6833629E+00 1.4519318E+00 1.5946385E+00
 3.7052654E+00 1.5027065E+00 1.5628721E+00
 3.7319190E+00 1.5508393E+00 1.5286426E+00
 3.7630610E+00 1.5956532E+00 1.4924253E+00
 3.7982861E+00 1.6365984E+00 1.4547680E+00
 3.8370697E+00 1.6732848E+00 1.4162579E+00
 3.8788045E+00 1.7054995E+00 1.3774837E+00
 3.9228370E+00 1.7332058E+00 1.3390009E+00
 3.9685080E+00 1.7565271E+00 1.3013021E+00
 4.0151856E+00 1.7757181E+00 1.2647981E+00
 4.0622901E+00 1.7911291E+00 1.2298070E+00
 4.1093151E+00 1.8031698E+00 1.1965532E+00
 4.1558247E+00 1.8122771E+00 1.1651770E+00
 4.2015010E+00 1.8188822E+00 1.1357301E+00
 3.7029837E+00 1.1625216E+00 1.7359011E+00
 3.7014395E+00 1.2137685E+00 1.7221821E+00
 3.7034754E+00 1.2662789E+00 1.7053269E+00
 3.7094801E+00 1.3194997E+00 1.6851923E+00
 3.7197802E+00 1.3727644E+00 1.6617317E+00
 3.7346066E+00 1.4253339E+00 1.6350079E+00
 3.7540687E+00 1.4764334E+00 1.6052042E+00
 3.7781341E+00 1.5252967E+00 1.5726260E+00
 3.8066230E+00 1.5712159E+00 1.5376918E+00
 3.8392110E+00 1.6135879E+00 1.5009120E+00
 3.8754486E+00 1.6519536E+00 1.4628579E+00
 3.9147893E+00 1.6860216E+00 1.4241256E+00
 3.9566253E+00 1.7156760E+00 1.3852984E+00
 4.0003248E+00 1.7409668E+00 1.3469132E+00
 4.0452670E+00 1.7620867E+00 1.3094353E+00
 4.0908694E+00 1.7793382E+00 1.2732422E+00
 4.1366118E+00 1.7930978E+00 1.2386174E+00
 4.1820375E+00 1.8037830E+00 1.2057560E+00
 4.2268066E+00 1.8118168E+00 1.1747560E+00
 3.7617089E+00 1.1900669E+00 1.7484815E+00
 3.7628660E+00 1.2411702E+00 1.7340190E+00
 3.7676311E+00 1.2932259E+00 1.7163371E+00