# TIME = 0.000000
VARIABLES = X, Y, Z, FX, FY, FZ
ZONE N=29232 E=58212 F=FEPOINT ET=TRIANGLE
  0.000E+00  9.502E-01  1.243E-03 1.7905691E+00 8.3226344E-02 1.6837776E+00
  0.000E+00  1.000E+00  0.000E+00 1.7903251E+00 -2.9625812E-07 1.6860188E+00
  4.318E-02  9.751E-01  3.108E-04 1.7900086E+00 4.1603686E-02 1.6855187E+00
  0.000E+00  1.050E+00  1.243E-03 1.7905692E+00 -8.3227249E-02 1.6837773E+00
  4.318E-02  1.025E+00  3.108E-04 1.7900086E+00 -4.1604811E-02 1.6855186E+00
  0.000E+00  1.100E+00  4.969E-03 1.7929304E+00 -1.6673293E-01 1.6773509E+00
  4.318E-02  1.075E+00  2.796E-03 1.7916484E+00 -1.2492883E-01 1.6811268E+00
  0.000E+00  1.149E+00  1.117E-02 1.8002045E+00 -2.5094257E-01 1.6673293E+00
  4.318E-02  1.124E+00  7.761E-03 1.7960791E+00 -2.0873517E-01 1.6728166E+00
  0.000E+00  1.198E+00  1.983E-02 1.8122039E+00 -3.3555401E-01 1.6538421E+00
  4.318E-02  1.174E+00  1.519E-02 1.8054472E+00 -2.9331176E-01 1.6611365E+00
  0.000E+00  1.247E+00  3.092E-02 1.8241105E+00 -4.1847427E-01 1.6357346E+00
  4.318E-02  1.223E+00  2.507E-02 1.8187480E+00 -3.7741225E-01 1.6455417E+00
  0.000E+00  1.295E+00  4.443E-02 1.8280437E+00 -4.9762707E-01 1.6116835E+00
  4.318E-02  1.271E+00  3.738E-02 1.8276781E+00 -4.5856003E-01 1.6245239E+00
  0.000E+00  1.342E+00  6.031E-02 1.8224480E+00 -5.7485161E-01 1.5832841E+00
  4.318E-02  1.318E+00  5.207E-02 1.8252591E+00 -5.3619907E-01 1.5978540E+00
  0.000E+00  1.388E+00  7.852E-02 1.8361267E+00 -6.5398606E-01 1.5534448E+00
  4.318E-02  1.365E+00  6.913E-02 1.8249831E+00 -6.1418624E-01 1.5686063E+00
  0.000E+00  1.434E+00  9.903E-02 1.8599931E+00 -7.3251584E-01 1.5201654E+00
  4.318E-02  1.411E+00  8.849E-02 1.8506746E+00 -6.9370753E-01 1.5375576E+00
  0.000E+00  1.478E+00  1.218E-01 1.8533451E+00 -8.0677993E-01 1.4811120E+00
  4.318E-02  1.456E+00  1.101E-01 1.8585512E+00 -7.7018969E-01 1.5013503E+00
  0.000E+00  1.521E+00  1.467E-01 1.8612458E+00 -8.7891631E-01 1.4386219E+00
  4.318E-02  1.500E+00  1.340E-01 1.8514713E+00 -8.4293969E-01 1.4601856E+00
  0.000E+00  1.563E+00  1.738E-01 1.8818107E+00 -9.5006929E-01 1.3934885E+00
  4.318E-02  1.543E+00  1.600E-01 1.8756593E+00 -9.1479695E-01 1.4165683E+00
  0.000E+00  1.604E+00  2.029E-01 1.8641996E+00 -1.0182907E+00 1.3442954E+00
  4.318E-02  1.584E+00  1.881E-01 1.8700511E+00 -9.8461814E-01 1.3694467E+00
  0.000E+00  1.643E+00  2.340E-01 1.8905410E+00 -1.0839346E+00 1.2918042E+00
  4.318E-02  1.623E+00  2.182E-01 1.8838376E+00 -1.0514303E+00 1.3184622E+00
  0.000E+00  1.680E+00  2.669E-01 1.8744259E+00 -1.1470573E+00 1.2362296E+00
  4.318E-02  1.662E+00  2.502E-01 1.8775559E+00 -1.1159078E+00 1.2644842E+00
  0.000E+00  1.716E+00  3.018E-01 1.8893162E+00 -1.2072230E+00 1.1774937E+00
  4.318E-02  1.698E+00  2.841E-01 1.8893232E+00 -1.1775429E+00 1.2072709E+00
  0.000E+00  1.750E+00  3.383E-01 1.8775499E+00 -1.2644315E+00 1.1158616E+00
  4.318E-02  1.733E+00  3.198E-01 1.8744305E+00 -1.2362806E+00 1.1471039E+00
  0.000E+00  1.782E+00  3.765E-01 1.8838323E+00 -1.3184109E+00 1.0513857E+00
  4.318E-02  1.766E+00  3.572E-01 1.8905448E+00 -1.2918563E+00 1.0839779E+00
  0.000E+00  1.812E+00  4.163E-01 1.8700491E+00 -1.3693917E+00 9.8457637E-01
  4.318E-02  1.797E+00  3.962E-01 1.8641996E+00 -1.3443546E+00 1.0183312E+00
  0.000E+00  1.840E+00  4.575E-01 1.8756611E+00 -1.4165078E+00 9.1475792E-01
  4.318E-02  1.826E+00  4.367E-01 1.8818086E+00 -1.3935419E+00 9.5010692E-01
  0.000E+00  1.866E+00  5.000E-01 1.8514748E+00 -1.4601333E+00 8.4290374E-01
  4.318E-02  1.853E+00  4.786E-01 1.8612414E+00 -1.4386836E+00 8.7895102E-01
  0.000E+00  1.890E+00  5.438E-01 1.8585549E+00 -1.5012871E+00 7.7015671E-01
  4.318E-02  1.878E+00  5.217E-01 1.8533420E+00 -1.4811781E+00 8.0681148E-01
  0.000E+00  1.912E+00  5.887E-01 1.8506780E+00 -1.5374900E+00 6.9367751E-01
  4.318E-02  1.901E+00  5.661E-01 1.8599922E+00 -1.5202212E+00 7.3254423E-01
  0.000E+00  1.931E+00  6.347E-01 1.8249867E+00 -1.5685496E+00 6.1415935E-01
  4.318E-02  1.921E+00  6.116E-01 1.8361276E+00 -1.5535104E+00 6.5401106E-01
  0.000E+00  1.948E+00  6.815E-01 1.8252636E+00 -1.5977927E+00 5.3617506E-01
  4.318E-02  1.940E+00  6.580E-01 1.8224481E+00 -1.5833571E+00 5.7487353E-01
  0.000E+00  1.963E+00  7.292E-01 1.8276836E+00 -1.6244532E+00 4.5853849E-01
  4.318E-02  1.956E+00  7.052E-01 1.8280413E+00 -1.6117480E+00 4.9764510E-01
  0.000E+00  1.975E+00  7.775E-01 1.8187557E+00 -1.6454727E+00 3.7739400E-01
  4.318E-02  1.969E+00  7.532E-01 1.8241065E+00 -1.6357971E+00 4.1848922E-01
  0.000E+00  1.985E+00  8.264E-01 1.8054586E+00 -1.6610713E+00 2.9329662E-01
  4.318E-02  1.980E+00  8.019E-01 1.8121988E+00 -1.6539110E+00 3.3556647E-01
  0.000E+00  1.992E+00  8.757E-01 1.7960930E+00 -1.6727518E+00 2.0872297E-01
  4.318E-02  1.989E+00  8.510E-01 1.8001931E+00 -1.6673963E+00 2.5095235E-01
  0.000E+00  1.997E+00  9.253E-01 1.7916606E+00 -1.6810613E+00 1.2491935E-01
  4.318E-02  1.995E+00  9.004E-01 1.7929184E+00 -1.6774200E+00 1.6673854E-01
  0.000E+00  2.000E+00  9.751E-01 1.7900151E+00 -1.6854548E+00 4.1599423E-02
  4.318E-02  1.999E+00  9.502E-01 1.7905568E+00 -1.6838448E+00 8.3227795E-02
  0.000E+00  2.000E+00  1.025E+00 1.7900049E+00 -1.6854537E+00 -4.1604749E-02
  4.318E-02  2.000E+00  1.000E+00 1.7903170E+00 -1.6860861E+00 -4.0096045E-06
  0.000E+00  1.997E+00  1.075E+00 1.7916352E+00 -1.6810575E+00 -1.2492467E-01
  4.318E-02  1.999E+00  1.050E+00 1.7905668E+00 -1.6838423E+00 -8.3235160E-02
  0.000E+00  1.992E+00  1.124E+00 1.7960630E+00 -1.6727449E+00 -2.0872825E-01
  4.318E-02  1.995E+00  1.100E+00 1.7929332E+00 -1.6774141E+00 -1.6674448E-01
  0.000E+00  1.985E+00  1.174E+00 1.8054325E+00 -1.6610669E+00 -2.9330186E-01
  4.318E-02  1.989E+00  1.149E+00 1.8002103E+00 -1.6673934E+00 -2.5095728E-01
  0.000E+00  1.975E+00  1.223E+00 1.8187357E+00 -1.6454773E+00 -3.7739934E-01
  4.318E-02  1.980E+00  1.198E+00 1.8122109E+00 -1.6539100E+00 -3.3557129E-01
  0.000E+00  1.963E+00  1.271E+00 1.8276653E+00 -1.6244598E+00 -4.5854373E-01
  4.318E-02  1.969E+00  1.247E+00 1.8241146E+00 -1.6358007E+00 -4.1849389E-01
  0.000E+00  1.948E+00  1.318E+00 1.8252457E+00 -1.5977832E+00 -5.3618014E-01
  4.318E-02  1.956E+00  1.295E+00 1.8280516E+00 -1.6117484E+00 -4.9765009E-01
  0.000E+00  1.931E+00  1.365E+00 1.8249699E+00 -1.5685342E+00 -6.1416435E-01
  4.318E-02  1.940E+00  1.342E+00 1.8224577E+00 -1.5833395E+00 -5.7487837E-01
  0.000E+00  1.912E+00  1.411E+00 1.8506630E+00 -1.5374983E+00 -6.9368251E-01
  4.318E-02  1.921E+00  1.388E+00 1.8361366E+00 -1.5535057E+00 -6.5401578E-01
  0.000E+00  1.890E+00  1.456E+00 1.8585428E+00 -1.5012885E+00 -7.7016157E-01
  4.318E-02  1.901E+00  1.434E+00 1.8600000E+00 -1.5202324E+00 -7.3254879E-01
  0.000E+00  1.866E+00  1.500E+00 1.8514668E+00 -1.4601165E+00 -8.4290834E-01
  4.318E-02  1.878E+00  1.478E+00 1.8533480E+00 -1.4811652E+00 -8.0681559E-01
  0.000E+00  1.840E+00  1.543E+00 1.8756583E+00 -1.4165118E+00 -9.1476263E-01
  4.318E-02  1.853E+00  1.521E+00 1.8612451E+00 -1.4386762E+00 -8.7895501E-01
  0.000E+00  1.812E+00  1.584E+00 1.8700515E+00 -1.3693895E+00 -9.8458083E-01
  4.318E-02  1.826E+00  1.563E+00 1.8818096E+00 -1.3935478E+00 -9.5011089E-01
  0.000E+00  1.782E+00  1.623E+00 1.8838383E+00 -1.3184050E+00 -1.0513899E+00
  4.318E-02  1.797E+00  1.604E+00 1.8641983E+00 -1.3443453E+00 -1.0183350E+00
  0.000E+00  1.750E+00  1.662E+00 1.8775576E+00 -1.2644320E+00 -1.1158658E+00
  4.318E-02  1.766E+00  1.643E+00 1.8905422E+00 -1.2918560E+00 -1.0839819E+00
  0.000E+00  1.716E+00  1.698E+00 1.8893235E+00 -1.2072183E+00 -1.1774976E+00
  4.318E-02  1.733E+00  1.680E+00 1.8744277E+00 -1.2362774E+00 -1.1471078E+00
  0.000E+00  1.680E+00  1.733E+00 1.8744314E+00 -1.1470550E+00 -1.2362334E+00
  4.318E-02  1.698E+00  1.716E+00 1.8893210E+00 -1.1775386E+00 -1.2072748E+00
  0.000E+00  1.643E+00  1.766E+00 1.8905437E+00 -1.0839308E+00 -1.2918078E+00
  4.318E-02  1.662E+00  1.750E+00 1.8775550E+00 -1.1159048E+00 -1.2644880E+00
  0.000E+00  1.604E+00  1.797E+00 1.8641987E+00 -1.0182863E+00 -1.3442989E+00
  4.318E-02  1.623E+00  1.782E+00 1.8838384E+00 -1.0514250E+00 -1.3184658E+00
  0.000E+00  1.563E+00  1.826E+00 1.8818062E+00 -9.5006512E-01 -1.3934917E+00
  4.318E-02  1.584E+00  1.812E+00 1.8700538E+00 -9.8461330E-01 -1.3694500E+00
  0.000E+00  1.521E+00  1.853E+00 1.8612408E+00 -8.7891209E-01 -1.4386249E+00
  4.318E-02  1.543E+00  1.840E+00 1.8756634E+00 -9.1479237E-01 -1.4165711E+00
  0.000E+00  1.478E+00  1.878E+00 1.8533444E+00 -8.0677522E-01 -1.4811148E+00
  4.318E-02  1.500E+00  1.866E+00 1.8514744E+00 -8.4293538E-01 -1.4601879E+00
  0.000E+00  1.434E+00  1.901E+00 1.8599994E+00 -7.3251119E-01 -1.5201679E+00
  4.318E-02  1.456E+00  1.890E+00 1.8585512E+00 -7.7018555E-01 -1.5013523E+00
  0.000E+00  1.388E+00  1.921E+00 1.8361377E+00 -6.5398087E-01 -1.5534470E+00
  4.318E-02  1.411E+00  1.912E+00 1.8506712E+00 -6.9370302E-01 -1.5375595E+00
  0.000E+00  1.342E+00  1.940E+00 1.8224586E+00 -5.7484666E-01 -1.5832861E+00
  4.318E-02  1.365E+00  1.931E+00 1.8249786E+00 -6.1418120E-01 -1.5686083E+00
  0.000E+00  1.295E+00  1.956E+00 1.8280509E+00 -4.9762172E-01 -1.6116852E+00
  4.318E-02  1.318E+00  1.948E+00 1.8252559E+00 -5.3619378E-01 -1.5978558E+00
  0.000E+00  1.247E+00  1.969E+00 1.8241146E+00 -4.1846954E-01 -1.6357361E+00
  4.318E-02  1.271E+00  1.963E+00 1.8276769E+00 -4.5855417E-01 -1.6245253E+00
  0.000E+00  1.198E+00  1.980E+00 1.8122063E+00 -3.3555062E-01 -1.6538437E+00
  4.318E-02  1.223E+00  1.975E+00 1.8187482E+00 -3.7740612E-01 -1.6455427E+00
  0.000E+00  1.149E+00  1.989E+00 1.8002044E+00 -2.5094087E-01 -1.6673310E+00
  4.318E-02  1.174E+00  1.985E+00 1.8054483E+00 -2.9330455E-01 -1.6611370E+00
  0.000E+00  1.100E+00  1.995E+00 1.7929252E+00 -1.6673193E-01 -1.6773529E+00
  4.318E-02  1.124E+00  1.992E+00 1.7960819E+00 -2.0872706E-01 -1.6728166E+00
  0.000E+00  1.050E+00  1.999E+00 1.7905581E+00 -8.3224881E-02 -1.6837794E+00
  4.318E-02  1.075E+00  1.997E+00 1.7916540E+00 -1.2492036E-01 -1.6811262E+00
  0.000E+00  1.000E+00  2.000E+00 1.7903111E+00 4.8813210E-06 -1.6860207E+00
  4.318E-02  1.025E+00  2.000E+00 1.7900164E+00 -4.1598142E-02 -1.6855176E+00
  0.000E+00  9.502E-01  1.999E+00 1.7905580E+00 8.3234953E-02 -1.6837790E+00
  4.318E-02  9.751E-01  2.000E+00 1.7900164E+00 4.1607941E-02 -1.6855174E+00
  0.000E+00  9.004E-01  1.995E+00 1.7929251E+00 1.6674186E-01 -1.6773522E+00
  4.318E-02  9.253E-01  1.997E+00 1.7916539E+00 1.2493035E-01 -1.6811257E+00
  0.000E+00  8.510E-01  1.989E+00 1.8002042E+00 2.5095072E-01 -1.6673301E+00
  4.318E-02  8.757E-01  1.992E+00 1.7960818E+00 2.0873673E-01 -1.6728157E+00
  0.000E+00  8.019E-01  1.980E+00 1.8122060E+00 3.3556047E-01 -1.6538424E+00
  4.318E-02  8.264E-01  1.985E+00 1.8054481E+00 2.9331432E-01 -1.6611359E+00
  0.000E+00  7.532E-01  1.969E+00 1.8241144E+00 4.1847932E-01 -1.6357345E+00
  4.318E-02  7.775E-01  1.975E+00 1.8187479E+00 3.7741572E-01 -1.6455412E+00
  0.000E+00  7.052E-01  1.956E+00 1.8280505E+00 4.9763146E-01 -1.6116832E+00
  4.318E-02  7.292E-01  1.963E+00 1.8276766E+00 4.5856390E-01 -1.6245235E+00
  0.000E+00  6.580E-01  1.940E+00 1.8224582E+00 5.7485593E-01 -1.5832838E+00
  4.318E-02  6.815E-01  1.948E+00 1.8252556E+00 5.3620307E-01 -1.5978537E+00
  0.000E+00  6.116E-01  1.921E+00 1.8361373E+00 6.5399049E-01 -1.5534445E+00
  4.318E-02  6.347E-01  1.931E+00 1.8249782E+00 6.1419055E-01 -1.5686059E+00
  0.000E+00  5.661E-01  1.901E+00 1.8599990E+00 7.3252035E-01 -1.5201651E+00
  4.318E-02  5.887E-01  1.912E+00 1.8506707E+00 6.9371230E-01 -1.5375568E+00
  0.000E+00  5.217E-01  1.878E+00 1.8533439E+00 8.0678446E-01 -1.4811117E+00
  4.318E-02  5.438E-01  1.890E+00 1.8585506E+00 7.7019461E-01 -1.5013493E+00
  0.000E+00  4.786E-01  1.853E+00 1.8612402E+00 8.7892084E-01 -1.4386215E+00
  4.318E-02  5.000E-01  1.866E+00 1.8514738E+00 8.4294425E-01 -1.4601846E+00
  0.000E+00  4.367E-01  1.826E+00 1.8818056E+00 9.5007379E-01 -1.3934881E+00
  4.318E-02  4.575E-01  1.840E+00 1.8756628E+00 9.1480093E-01 -1.4165676E+00
  0.000E+00  3.962E-01  1.797E+00 1.8641981E+00 1.0182952E+00 -1.3442950E+00
  4.318E-02  4.163E-01  1.812E+00 1.8700531E+00 9.8462176E-01 -1.3694462E+00
  0.000E+00  3.572E-01  1.766E+00 1.8905430E+00 1.0839390E+00 -1.2918037E+00
  4.318E-02  3.765E-01  1.782E+00 1.8838377E+00 1.0514339E+00 -1.3184618E+00
  0.000E+00  3.198E-01  1.733E+00 1.8744306E+00 1.1470617E+00 -1.2362291E+00
  4.318E-02  3.383E-01  1.750E+00 1.8775542E+00 1.1159114E+00 -1.2644837E+00
  0.000E+00  2.841E-01  1.698E+00 1.8893227E+00 1.2072274E+00 -1.1774932E+00
  4.318E-02  3.018E-01  1.716E+00 1.8893202E+00 1.1775466E+00 -1.2072703E+00
  0.000E+00  2.502E-01  1.662E+00 1.8775568E+00 1.2644359E+00 -1.1158611E+00
  4.318E-02  2.669E-01  1.680E+00 1.8744268E+00 1.2362845E+00 -1.1471032E+00
  0.000E+00  2.182E-01  1.623E+00 1.8838374E+00 1.3184152E+00 -1.0513851E+00
  4.318E-02  2.340E-01  1.643E+00 1.8905413E+00 1.2918603E+00 -1.0839770E+00
  0.000E+00  1.881E-01  1.584E+00 1.8700506E+00 1.3693960E+00 -9.8457589E-01
  4.318E-02  2.029E-01  1.604E+00 1.8641973E+00 1.3443586E+00 -1.0183301E+00
  0.000E+00  1.600E-01  1.543E+00 1.8756574E+00 1.4165121E+00 -9.1475747E-01
  4.318E-02  1.738E-01  1.563E+00 1.8818086E+00 1.3935460E+00 -9.5010568E-01
  0.000E+00  1.340E-01  1.500E+00 1.8514659E+00 1.4601375E+00 -8.4290327E-01
  4.318E-02  1.467E-01  1.521E+00 1.8612440E+00 1.4386875E+00 -8.7894976E-01
  0.000E+00  1.101E-01  1.456E+00 1.8585418E+00 1.5012913E+00 -7.7015626E-01
  4.318E-02  1.218E-01  1.478E+00 1.8533470E+00 1.4811819E+00 -8.0681034E-01
  0.000E+00  8.849E-02  1.411E+00 1.8506620E+00 1.5374942E+00 -6.9367707E-01
  4.318E-02  9.903E-02  1.434E+00 1.8599989E+00 1.5202249E+00 -7.3254325E-01
  0.000E+00  6.913E-02  1.365E+00 1.8249688E+00 1.5685538E+00 -6.1415894E-01
  4.318E-02  7.852E-02  1.388E+00 1.8361355E+00 1.5535139E+00 -6.5401024E-01
  0.000E+00  5.207E-02  1.318E+00 1.8252446E+00 1.5977969E+00 -5.3617468E-01
  4.318E-02  6.031E-02  1.342E+00 1.8224566E+00 1.5833607E+00 -5.7487284E-01
  0.000E+00  3.738E-02  1.271E+00 1.8276642E+00 1.6244575E+00 -4.5853821E-01
  4.318E-02  4.443E-02  1.295E+00 1.8280504E+00 1.6117519E+00 -4.9764448E-01
  0.000E+00  2.507E-02  1.223E+00 1.8187346E+00 1.6454774E+00 -3.7739377E-01
  4.318E-02  3.092E-02  1.247E+00 1.8241134E+00 1.6357974E+00 -4.1848823E-01
  0.000E+00  1.519E-02  1.174E+00 1.8054313E+00 1.6610751E+00 -2.9329630E-01
  4.318E-02  1.983E-02  1.198E+00 1.8122097E+00 1.6539144E+00 -3.3556561E-01
  0.000E+00  7.761E-03  1.124E+00 1.7960618E+00 1.6727548E+00 -2.0872271E-01
  4.318E-02  1.117E-02  1.149E+00 1.8002091E+00 1.6674029E+00 -2.5095162E-01
  0.000E+00  2.796E-03  1.075E+00 1.7916340E+00 1.6810650E+00 -1.2491917E-01
  4.318E-02  4.969E-03  1.100E+00 1.7929319E+00 1.6774228E+00 -1.6673884E-01
  0.000E+00  3.108E-04  1.025E+00 1.7900037E+00 1.6854586E+00 -4.1599287E-02
  4.318E-02  1.243E-03  1.050E+00 1.7905656E+00 1.6838481E+00 -8.3229551E-02
  0.000E+00  3.108E-04  9.751E-01 1.7900139E+00 1.6854575E+00 4.1604832E-02
  4.318E-02  0.000E+00  1.000E+00 1.7903158E+00 1.6860896E+00 1.5536976E-06
  0.000E+00  2.796E-03  9.253E-01 1.7916595E+00 1.6810614E+00 1.2492469E-01
  4.318E-02  1.243E-03  9.502E-01 1.7905556E+00 1.6838461E+00 8.3233296E-02
  0.000E+00  7.761E-03  8.757E-01 1.7960918E+00 1.6727496E+00 2.0872824E-01
  4.318E-02  4.969E-03  9.004E-01 1.7929172E+00 1.6774184E+00 1.6674397E-01
  0.000E+00  1.519E-02  8.264E-01 1.8054574E+00 1.6610709E+00 2.9330180E-01
  4.318E-02  1.117E-02  8.510E-01 1.8001919E+00 1.6673939E+00 2.5095770E-01
  0.000E+00  2.507E-02  7.775E-01 1.8187546E+00 1.6454804E+00 3.7739910E-01
  4.318E-02  1.983E-02  8.019E-01 1.8121976E+00 1.6539137E+00 3.3557174E-01
  0.000E+00  3.738E-02  7.292E-01 1.8276825E+00 1.6244631E+00 4.5854344E-01
  4.318E-02  3.092E-02  7.532E-01 1.8241053E+00 1.6358076E+00 4.1849438E-01
  0.000E+00  5.207E-02  6.815E-01 1.8252625E+00 1.5977867E+00 5.3617987E-01
  4.318E-02  4.443E-02  7.052E-01 1.8280401E+00 1.6117516E+00 4.9765010E-01
  0.000E+00  6.913E-02  6.347E-01 1.8249856E+00 1.5685378E+00 6.1416403E-01
  4.318E-02  6.031E-02  6.580E-01 1.8224469E+00 1.5833432E+00 5.7487837E-01
  0.000E+00  8.849E-02  5.887E-01 1.8506769E+00 1.5375019E+00 6.9368214E-01
  4.318E-02  7.852E-02  6.116E-01 1.8361265E+00 1.5535094E+00 6.5401584E-01
  0.000E+00  1.101E-01  5.438E-01 1.8585539E+00 1.5012922E+00 7.7016115E-01
  4.318E-02  9.903E-02  5.661E-01 1.8599911E+00 1.5202361E+00 7.3254894E-01
  0.000E+00  1.340E-01  5.000E-01 1.8514738E+00 1.4601202E+00 8.4290787E-01
  4.318E-02  1.218E-01  5.217E-01 1.8533409E+00 1.4811688E+00 8.0681583E-01
  0.000E+00  1.600E-01  4.575E-01 1.8756601E+00 1.4165155E+00 9.1476211E-01
  4.318E-02  1.467E-01  4.786E-01 1.8612404E+00 1.4386797E+00 8.7895532E-01
  0.000E+00  1.881E-01  4.163E-01 1.8700482E+00 1.3693933E+00 9.8458029E-01
  4.318E-02  1.738E-01  4.367E-01 1.8818076E+00 1.3935513E+00 9.5011114E-01
  0.000E+00  2.182E-01  3.765E-01 1.8838314E+00 1.3184088E+00 1.0513894E+00
  4.318E-02  2.029E-01  3.962E-01 1.8641986E+00 1.3443489E+00 1.0183350E+00
  0.000E+00  2.502E-01  3.383E-01 1.8775491E+00 1.2644359E+00 1.1158652E+00
  4.318E-02  2.340E-01  3.572E-01 1.8905439E+00 1.2918597E+00 1.0839817E+00
  0.000E+00  2.841E-01  3.018E-01 1.8893154E+00 1.2072222E+00 1.1774970E+00
  4.318E-02  2.669E-01  3.198E-01 1.8744297E+00 1.2362814E+00 1.1471075E+00
  0.000E+00  3.198E-01  2.669E-01 1.8744252E+00 1.1470590E+00 1.2362328E+00
  4.318E-02  3.018E-01  2.841E-01 1.8893224E+00 1.1775427E+00 1.2072742E+00
  0.000E+00  3.572E-01  2.340E-01 1.8905403E+00 1.0839349E+00 1.2918072E+00
  4.318E-02  3.383E-01  2.502E-01 1.8775551E+00 1.1159091E+00 1.2644874E+00
  0.000E+00  3.962E-01  2.029E-01 1.8641989E+00 1.0182904E+00 1.3442982E+00
  4.318E-02  3.765E-01  2.182E-01 1.8838369E+00 1.0514294E+00 1.3184652E+00
  0.000E+00  4.367E-01  1.738E-01 1.8818101E+00 9.5006925E-01 1.3934911E+00
  4.318E-02  4.163E-01  1.881E-01 1.8700504E+00 9.8461775E-01 1.3694495E+00
  0.000E+00  4.786E-01  1.467E-01 1.8612452E+00 8.7891627E-01 1.4386243E+00
  4.318E-02  4.575E-01  1.600E-01 1.8756587E+00 9.1479655E-01 1.4165708E+00
  0.000E+00  5.217E-01  1.218E-01 1.8533446E+00 8.0677945E-01 1.4811142E+00
  4.318E-02  5.000E-01  1.340E-01 1.8514707E+00 8.4293906E-01 1.4601879E+00
  0.000E+00  5.661E-01  9.903E-02 1.8599926E+00 7.3251551E-01 1.5201673E+00
  4.318E-02  5.438E-01  1.101E-01 1.8585506E+00 7.7018894E-01 1.5013524E+00
  0.000E+00  6.116E-01  7.852E-02 1.8361263E+00 6.5398534E-01 1.5534465E+00
  4.318E-02  5.887E-01  8.849E-02 1.8506741E+00 6.9370663E-01 1.5375595E+00
  0.000E+00  6.580E-01  6.031E-02 1.8224476E+00 5.7485130E-01 1.5832857E+00
  4.318E-02  6.347E-01  6.913E-02 1.8249826E+00 6.1418534E-01 1.5686080E+00
  0.000E+00  7.052E-01  4.443E-02 1.8280434E+00 4.9762634E-01 1.6116848E+00
  4.318E-02  6.815E-01  5.207E-02 1.8252587E+00 5.3619827E-01 1.5978554E+00
  0.000E+00  7.532E-01  3.092E-02 1.8241103E+00 4.1847354E-01 1.6357356E+00
  4.318E-02  7.292E-01  3.738E-02 1.8276777E+00 4.5855883E-01 1.6245251E+00
  0.000E+00  8.019E-01  1.983E-02 1.8122037E+00 3.3555325E-01 1.6538430E+00
  4.318E-02  7.775E-01  2.507E-02 1.8187477E+00 3.7741123E-01 1.6455427E+00
  0.000E+00  8.510E-01  1.117E-02 1.8002043E+00 2.5094185E-01 1.6673299E+00
  4.318E-02  8.264E-01  1.519E-02 1.8054470E+00 2.9331061E-01 1.6611373E+00
  0.000E+00  9.004E-01  4.969E-03 1.7929303E+00 1.6673215E-01 1.6773514E+00
  4.318E-02  8.757E-01  7.761E-03 1.7960789E+00 2.0873415E-01 1.6728172E+00
  4.318E-02  9.253E-01  2.796E-03 1.7916483E+00 1.2492750E-01 1.6811271E+00
  1.000E+01  1.050E+00  1.243E-03 1.7905692E+00 -8.3227249E-02 1.6837773E+00
  1.000E+01  1.000E+00  5.551E-16 1.7903251E+00 -2.9625812E-07 1.6860188E+00
  9.957E+00  1.025E+00  3.108E-04 1.7900076E+00 -4.1601219E-02 1.6854103E+00
  1.000E+01  9.502E-01  1.243E-03 1.7905691E+00 8.3226344E-02 1.6837776E+00
  9.957E+00  9.751E-01  3.108E-04 1.7900076E+00 4.1600851E-02 1.6854104E+00
  1.000E+01  9.004E-01  4.969E-03 1.7929303E+00 1.6673215E-01 1.6773514E+00
  9.957E+00  9.253E-01  2.796E-03 1.7916477E+00 1.2491874E-01 1.6810191E+00
  1.000E+01  8.510E-01  1.117E-02 1.8002043E+00 2.5094185E-01 1.6673299E+00
  9.957E+00  8.757E-01  7.761E-03 1.7960789E+00 2.0872085E-01 1.6727097E+00
  1.000E+01  8.019E-01  1.983E-02 1.8122037E+00 3.3555325E-01 1.6538430E+00
  9.957E+00  8.264E-01  1.519E-02 1.8054469E+00 2.9329197E-01 1.6610307E+00
  1.000E+01  7.532E-01  3.092E-02 1.8241103E+00 4.1847354E-01 1.6357356E+00
  9.957E+00  7.775E-01  2.507E-02 1.8187468E+00 3.7738700E-01 1.6454371E+00
  1.000E+01  7.052E-01  4.443E-02 1.8280434E+00 4.9762634E-01 1.6116848E+00
  9.957E+00  7.292E-01  3.738E-02 1.8276768E+00 4.5852926E-01 1.6244208E+00
  1.000E+01  6.580E-01  6.031E-02 1.8224476E+00 5.7485130E-01 1.5832857E+00
  9.957E+00  6.815E-01  5.207E-02 1.8252580E+00 5.3616412E-01 1.5977529E+00
  1.000E+01  6.116E-01  7.852E-02 1.8361263E+00 6.5398534E-01 1.5534465E+00
  9.957E+00  6.347E-01  6.913E-02 1.8249818E+00 6.1414648E-01 1.5685073E+00
  1.000E+01  5.661E-01  9.903E-02 1.8599926E+00 7.3251551E-01 1.5201673E+00
  9.957E+00  5.887E-01  8.849E-02 1.8506733E+00 6.9366299E-01 1.5374605E+00
  1.000E+01  5.217E-01  1.218E-01 1.8533446E+00 8.0677945E-01 1.4811142E+00
  9.957E+00  5.438E-01  1.101E-01 1.8585501E+00 7.7014063E-01 1.5012555E+00
  1.000E+01  4.786E-01  1.467E-01 1.8612452E+00 8.7891627E-01 1.4386243E+00
  9.957E+00  5.000E-01  1.340E-01 1.8514703E+00 8.4288570E-01 1.4600939E+00
  1.000E+01  4.367E-01  1.738E-01 1.8818101E+00 9.5006925E-01 1.3934911E+00
  9.957E+00  4.575E-01  1.600E-01 1.8756589E+00 9.1473795E-01 1.4164799E+00
  1.000E+01  3.962E-01  2.029E-01 1.8641989E+00 1.0182904E+00 1.3442982E+00
  9.957E+00  4.163E-01  1.881E-01 1.8700495E+00 9.8455430E-01 1.3693618E+00
  1.000E+01  3.572E-01  2.340E-01 1.8905403E+00 1.0839349E+00 1.2918072E+00
  9.957E+00  3.765E-01  2.182E-01 1.8838348E+00 1.0513618E+00 1.3183806E+00
  1.000E+01  3.198E-01  2.669E-01 1.8744252E+00 1.1470590E+00 1.2362328E+00
  9.957E+00  3.383E-01  2.502E-01 1.8775548E+00 1.1158376E+00 1.2644061E+00
  1.000E+01  2.841E-01  3.018E-01 1.8893154E+00 1.2072222E+00 1.1774970E+00
  9.957E+00  3.018E-01  2.841E-01 1.8893202E+00 1.1774676E+00 1.2071965E+00
  1.000E+01  2.502E-01  3.383E-01 1.8775491E+00 1.2644359E+00 1.1158652E+00
  9.957E+00  2.669E-01  3.198E-01 1.8744302E+00 1.2362027E+00 1.1470336E+00
  1.000E+01  2.182E-01  3.765E-01 1.8838314E+00 1.3184088E+00 1.0513894E+00
  9.957E+00  2.340E-01  3.572E-01 1.8905424E+00 1.2917775E+00 1.0839119E+00
  1.000E+01  1.881E-01  4.163E-01 1.8700482E+00 1.3693933E+00 9.8458029E-01
  9.957E+00  2.029E-01  3.962E-01 1.8641998E+00 1.3442633E+00 1.0182693E+00
  1.000E+01  1.600E-01  4.575E-01 1.8756601E+00 1.4165155E+00 9.1476211E-01
  9.957E+00  1.738E-01  4.367E-01 1.8818069E+00 1.3934624E+00 9.5004967E-01
  1.000E+01  1.340E-01  5.000E-01 1.8514738E+00 1.4601202E+00 8.4290787E-01
  9.957E+00  1.467E-01  4.786E-01 1.8612410E+00 1.4385879E+00 8.7889828E-01
  1.000E+01  1.101E-01  5.438E-01 1.8585539E+00 1.5012922E+00 7.7016115E-01
  9.957E+00  1.218E-01  5.217E-01 1.8533406E+00 1.4810742E+00 8.0676342E-01
  1.000E+01  8.849E-02  5.887E-01 1.8506769E+00 1.5375019E+00 6.9368214E-01
  9.957E+00  9.903E-02  5.661E-01 1.8599913E+00 1.5201389E+00 7.3250140E-01
  1.000E+01  6.913E-02  6.347E-01 1.8249856E+00 1.5685378E+00 6.1416403E-01
  9.957E+00  7.852E-02  6.116E-01 1.8361265E+00 1.5534100E+00 6.5397340E-01
  1.000E+01  5.207E-02  6.815E-01 1.8252625E+00 1.5977867E+00 5.3617987E-01
  9.957E+00  6.031E-02  6.580E-01 1.8224471E+00 1.5832419E+00 5.7484080E-01
  1.000E+01  3.738E-02  7.292E-01 1.8276825E+00 1.6244631E+00 4.5854344E-01
  9.957E+00  4.443E-02  7.052E-01 1.8280404E+00 1.6116484E+00 4.9761779E-01
  1.000E+01  2.507E-02  7.775E-01 1.8187546E+00 1.6454804E+00 3.7739910E-01
  9.957E+00  3.092E-02  7.532E-01 1.8241053E+00 1.6357028E+00 4.1846722E-01
  1.000E+01  1.519E-02  8.264E-01 1.8054574E+00 1.6610709E+00 2.9330180E-01
  9.957E+00  1.983E-02  8.019E-01 1.8121980E+00 1.6538078E+00 3.3554955E-01
  1.000E+01  7.761E-03  8.757E-01 1.7960918E+00 1.6727496E+00 2.0872824E-01
  9.957E+00  1.117E-02  8.510E-01 1.8001931E+00 1.6672870E+00 2.5094065E-01
  1.000E+01  2.796E-03  9.253E-01 1.7916595E+00 1.6810614E+00 1.2492469E-01
  9.957E+00  4.969E-03  9.004E-01 1.7929190E+00 1.6773107E+00 1.6673365E-01
  1.000E+01  3.108E-04  9.751E-01 1.7900139E+00 1.6854575E+00 4.1604832E-02
  9.957E+00  1.243E-03  9.502E-01 1.7905575E+00 1.6837380E+00 8.3230160E-02
  1.000E+01  3.108E-04  1.025E+00 1.7900037E+00 1.6854586E+00 -4.1599287E-02
  9.957E+00  0.000E+00  1.000E+00 1.7903177E+00 1.6859816E+00 4.0145705E-06
  1.000E+01  2.796E-03  1.075E+00 1.7916340E+00 1.6810650E+00 -1.2491917E-01
  9.957E+00  1.243E-03  1.050E+00 1.7905675E+00 1.6837404E+00 -8.3222784E-02
  1.000E+01  7.761E-03  1.124E+00 1.7960618E+00 1.6727548E+00 -2.0872271E-01
  9.957E+00  4.969E-03  1.100E+00 1.7929337E+00 1.6773156E+00 -1.6672777E-01
  1.000E+01  1.519E-02  1.174E+00 1.8054313E+00 1.6610751E+00 -2.9329630E-01
  9.957E+00  1.117E-02  1.149E+00 1.8002103E+00 1.6672963E+00 -2.5093564E-01
  1.000E+01  2.507E-02  1.223E+00 1.8187346E+00 1.6454774E+00 -3.7739377E-01
  9.957E+00  1.983E-02  1.198E+00 1.8122101E+00 1.6538085E+00 -3.3554480E-01
  1.000E+01  3.738E-02  1.271E+00 1.8276642E+00 1.6244575E+00 -4.5853821E-01
  9.957E+00  3.092E-02  1.247E+00 1.8241134E+00 1.6356927E+00 -4.1846196E-01
  1.000E+01  5.207E-02  1.318E+00 1.8252446E+00 1.5977969E+00 -5.3617468E-01
  9.957E+00  4.443E-02  1.295E+00 1.8280508E+00 1.6116488E+00 -4.9761279E-01
  1.000E+01  6.913E-02  1.365E+00 1.8249688E+00 1.5685538E+00 -6.1415894E-01
  9.957E+00  6.031E-02  1.342E+00 1.8224567E+00 1.5832594E+00 -5.7483590E-01
  1.000E+01  8.849E-02  1.411E+00 1.8506620E+00 1.5374942E+00 -6.9367707E-01
  9.957E+00  7.852E-02  1.388E+00 1.8361355E+00 1.5534144E+00 -6.5396860E-01
  1.000E+01  1.101E-01  1.456E+00 1.8585418E+00 1.5012913E+00 -7.7015626E-01
  9.957E+00  9.903E-02  1.434E+00 1.8599991E+00 1.5201275E+00 -7.3249673E-01
  1.000E+01  1.340E-01  1.500E+00 1.8514659E+00 1.4601375E+00 -8.4290327E-01
  9.957E+00  1.218E-01  1.478E+00 1.8533467E+00 1.4810868E+00 -8.0675920E-01
  1.000E+01  1.600E-01  1.543E+00 1.8756574E+00 1.4165121E+00 -9.1475747E-01
  9.957E+00  1.467E-01  1.521E+00 1.8612447E+00 1.4385949E+00 -8.7889414E-01
  1.000E+01  1.881E-01  1.584E+00 1.8700506E+00 1.3693960E+00 -9.8457589E-01
  9.957E+00  1.738E-01  1.563E+00 1.8818079E+00 1.3934562E+00 -9.5004554E-01
  1.000E+01  2.182E-01  1.623E+00 1.8838374E+00 1.3184152E+00 -1.0513851E+00
  9.957E+00  2.029E-01  1.604E+00 1.8641985E+00 1.3442722E+00 -1.0182654E+00
  1.000E+01  2.502E-01  1.662E+00 1.8775568E+00 1.2644359E+00 -1.1158611E+00
  9.957E+00  2.340E-01  1.643E+00 1.8905398E+00 1.2917776E+00 -1.0839077E+00
  1.000E+01  2.841E-01  1.698E+00 1.8893227E+00 1.2072274E+00 -1.1774932E+00
  9.957E+00  2.669E-01  1.680E+00 1.8744273E+00 1.2362056E+00 -1.1470295E+00
  1.000E+01  3.198E-01  1.733E+00 1.8744306E+00 1.1470617E+00 -1.2362291E+00
  9.957E+00  3.018E-01  1.716E+00 1.8893180E+00 1.1774715E+00 -1.2071923E+00
  1.000E+01  3.572E-01  1.766E+00 1.8905430E+00 1.0839390E+00 -1.2918037E+00
  9.957E+00  3.383E-01  1.750E+00 1.8775539E+00 1.1158402E+00 -1.2644021E+00
  1.000E+01  3.962E-01  1.797E+00 1.8641981E+00 1.0182952E+00 -1.3442950E+00
  9.957E+00  3.765E-01  1.782E+00 1.8838356E+00 1.0513668E+00 -1.3183768E+00
  1.000E+01  4.367E-01  1.826E+00 1.8818056E+00 9.5007379E-01 -1.3934881E+00
  9.957E+00  4.163E-01  1.812E+00 1.8700523E+00 9.8455884E-01 -1.3693582E+00
  1.000E+01  4.786E-01  1.853E+00 1.8612402E+00 8.7892084E-01 -1.4386215E+00
  9.957E+00  4.575E-01  1.840E+00 1.8756630E+00 9.1474223E-01 -1.4164768E+00
  1.000E+01  5.217E-01  1.878E+00 1.8533439E+00 8.0678446E-01 -1.4811117E+00
  9.957E+00  5.000E-01  1.866E+00 1.8514734E+00 8.4288972E-01 -1.4600913E+00
  1.000E+01  5.661E-01  1.901E+00 1.8599990E+00 7.3252035E-01 -1.5201651E+00
  9.957E+00  5.438E-01  1.890E+00 1.8585501E+00 7.7014450E-01 -1.5012533E+00
  1.000E+01  6.116E-01  1.921E+00 1.8361373E+00 6.5399049E-01 -1.5534445E+00
  9.957E+00  5.887E-01  1.912E+00 1.8506700E+00 6.9366731E-01 -1.5374583E+00
  1.000E+01  6.580E-01  1.940E+00 1.8224582E+00 5.7485593E-01 -1.5832838E+00
  9.957E+00  6.347E-01  1.931E+00 1.8249774E+00 6.1415145E-01 -1.5685051E+00
  1.000E+01  7.052E-01  1.956E+00 1.8280505E+00 4.9763146E-01 -1.6116832E+00
  9.957E+00  6.815E-01  1.948E+00 1.8252548E+00 5.3616940E-01 -1.5977508E+00
  1.000E+01  7.532E-01  1.969E+00 1.8241144E+00 4.1847932E-01 -1.6357345E+00
  9.957E+00  7.292E-01  1.963E+00 1.8276754E+00 4.5853482E-01 -1.6244191E+00
  1.000E+01  8.019E-01  1.980E+00 1.8122060E+00 3.3556047E-01 -1.6538424E+00
  9.957E+00  7.775E-01  1.975E+00 1.8187464E+00 3.7739173E-01 -1.6454355E+00
  1.000E+01  8.510E-01  1.989E+00 1.8002042E+00 2.5095072E-01 -1.6673301E+00
  9.957E+00  8.264E-01  1.985E+00 1.8054474E+00 2.9329610E-01 -1.6610292E+00
  1.000E+01  9.004E-01  1.995E+00 1.7929251E+00 1.6674186E-01 -1.6773522E+00
  9.957E+00  8.757E-01  1.992E+00 1.7960815E+00 2.0872446E-01 -1.6727082E+00
  1.000E+01  9.502E-01  1.999E+00 1.7905580E+00 8.3234953E-02 -1.6837790E+00
  9.957E+00  9.253E-01  1.997E+00 1.7916538E+00 1.2492281E-01 -1.6810177E+00
  1.000E+01  1.000E+00  2.000E+00 1.7903111E+00 4.8813210E-06 -1.6860207E+00
  9.957E+00  9.751E-01  2.000E+00 1.7900166E+00 4.1605539E-02 -1.6854093E+00
  1.000E+01  1.050E+00  1.999E+00 1.7905581E+00 -8.3224881E-02 -1.6837794E+00
  9.957E+00  1.025E+00  2.000E+00 1.7900166E+00 -4.1595532E-02 -1.6854094E+00
  1.000E+01  1.100E+00  1.995E+00 1.7929252E+00 -1.6673193E-01 -1.6773529E+00
  9.957E+00  1.075E+00  1.997E+00 1.7916539E+00 -1.2491261E-01 -1.6810182E+00
  1.000E+01  1.149E+00  1.989E+00 1.8002044E+00 -2.5094087E-01 -1.6673310E+00
  9.957E+00  1.124E+00  1.992E+00 1.7960816E+00 -2.0871458E-01 -1.6727090E+00
  1.000E+01  1.198E+00  1.980E+00 1.8122063E+00 -3.3555062E-01 -1.6538437E+00
  9.957E+00  1.174E+00  1.985E+00 1.8054476E+00 -2.9328612E-01 -1.6610303E+00