# TIME = 8.500000
variables = x, y, z
zone N=5762 E=11520 F=FEPOINT ET=TRIANGLE
 6.0640449E+00 1.4619124E+00 1.7470272E+00
 6.0640449E+00 1.4619124E+00 2.5297282E-01
 6.0640449E+00 5.3808788E-01 1.7470272E+00
 6.0640450E+00 5.3808791E-01 2.5297278E-01
 4.4449175E+00 1.0000002E+00 1.7313354E+00
 7.6741220E+00 1.0000001E+00 1.7148283E+00
 4.4449172E+00 1.0000002E+00 2.6866404E-01
 7.6741220E+00 1.0000001E+00 2.8517173E-01
 5.1563254E+00 1.9129028E+00 9.9999995E-01
 5.1563254E+00 8.7097452E-02 9.9999995E-01
 6.9612298E+00 1.8933998E+00 9.9999995E-01
 6.9612298E+00 1.0660014E-01 9.9999995E-01
 6.0064566E+00 1.4529184E+00 1.7515544E+00
 5.9427689E+00 1.4431743E+00 1.7569784E+00
 5.8761650E+00 1.4333222E+00 1.7631409E+00
 5.8068975E+00 1.4233472E+00 1.7702060E+00
 5.7352392E+00 1.4132453E+00 1.7782602E+00
 5.6615068E+00 1.4029300E+00 1.7873516E+00
 5.5860620E+00 1.3922702E+00 1.7974293E+00
 5.5093322E+00 1.3810756E+00 1.8083254E+00
 5.4317752E+00 1.3691033E+00 1.8197359E+00
 5.3538488E+00 1.3560714E+00 1.8312232E+00
 5.2759857E+00 1.3416813E+00 1.8422332E+00
 5.1985809E+00 1.3256469E+00 1.8521307E+00
 5.1219966E+00 1.3077228E+00 1.8602458E+00
 5.0465786E+00 1.2877321E+00 1.8659257E+00
 4.9726795E+00 1.2655857E+00 1.8685861E+00
 4.9006790E+00 1.2412940E+00 1.8677565E+00
 4.8309924E+00 1.2149670E+00 1.8631138E+00
 4.7640628E+00 1.1868059E+00 1.8545015E+00
 4.7003373E+00 1.1570861E+00 1.8419319E+00
 4.6402303E+00 1.1261346E+00 1.8255724E+00
 4.5841202E+00 1.0943303E+00 1.8057320E+00
 4.5323254E+00 1.0620979E+00 1.7828277E+00
 4.4852483E+00 1.0300422E+00 1.7574650E+00
 5.9998042E+00 5.7951558E-01 1.7700759E+00
 5.9340829E+00 5.9112541E-01 1.7760240E+00
 5.8658860E+00 6.0243488E-01 1.7824977E+00
 5.7955260E+00 6.1368819E-01 1.7897485E+00
 5.7230565E+00 6.2511776E-01 1.7979660E+00
 5.6487610E+00 6.3687283E-01 1.8071935E+00
 5.5729990E+00 6.4912644E-01 1.8173594E+00
 5.4961981E+00 6.6207598E-01 1.8282545E+00
 5.4188155E+00 6.7595490E-01 1.8395301E+00
 5.3413039E+00 6.9101864E-01 1.8507076E+00
 5.2640867E+00 7.0752365E-01 1.8612030E+00
 5.1875472E+00 7.2570070E-01 1.8703676E+00
 5.1120359E+00 7.4572997E-01 1.8775358E+00
 5.0378878E+00 7.6772047E-01 1.8820784E+00
 4.9654454E+00 7.9169765E-01 1.8834506E+00
 4.8950750E+00 8.1759914E-01 1.8812328E+00
 4.8271698E+00 8.4527849E-01 1.8751568E+00
 4.7621285E+00 8.7451254E-01 1.8651141E+00
 4.7003148E+00 9.0500818E-01 1.8511421E+00
 4.6419836E+00 9.3640590E-01 1.8333801E+00
 4.5871886E+00 9.6827938E-01 1.8119907E+00
 4.5356431E+00 1.0000002E+00 1.7870333E+00
 5.9974616E+00 6.1284210E-01 1.7873145E+00
 5.9290701E+00 6.2636030E-01 1.7935883E+00
 5.8591458E+00 6.3915452E-01 1.8001884E+00
 5.7873974E+00 6.5183570E-01 1.8075292E+00
 5.7139221E+00 6.6471444E-01 1.8157937E+00
 5.6389052E+00 6.7802859E-01 1.8250311E+00
 5.5626884E+00 6.9197282E-01 1.8351377E+00
 5.4856851E+00 7.0675101E-01 1.8458672E+00
 5.4083471E+00 7.2258217E-01 1.8568294E+00
 5.3311199E+00 7.3969273E-01 1.8675100E+00
 5.2544171E+00 7.5829561E-01 1.8773005E+00
 5.1786103E+00 7.7856726E-01 1.8855436E+00
 5.1040377E+00 8.0062789E-01 1.8915832E+00
 5.0310216E+00 8.2452783E-01 1.8948167E+00
 4.9598877E+00 8.5024234E-01 1.8947388E+00
 4.8909728E+00 8.7767257E-01 1.8909756E+00
 4.8246113E+00 9.0664880E-01 1.8832977E+00
 4.7610816E+00 9.3692942E-01 1.8716067E+00
 4.7005132E+00 9.6819014E-01 1.8558837E+00
 4.6427664E+00 1.0000002E+00 1.8360949E+00
 4.5871885E+00 1.0317210E+00 1.8119908E+00
 5.9958884E+00 6.4774080E-01 1.8035177E+00
 5.9257952E+00 6.6276511E-01 1.8097331E+00
 5.8543203E+00 6.7705407E-01 1.8162965E+00
 5.7813367E+00 6.9119983E-01 1.8235696E+00
 5.7068738E+00 7.0560883E-01 1.8317406E+00
 5.6311328E+00 7.2055012E-01 1.8408309E+00
 5.5544373E+00 7.3623935E-01 1.8507072E+00
 5.4772013E+00 7.5287674E-01 1.8610845E+00
 5.3998732E+00 7.7066406E-01 1.8715358E+00
 5.3228930E+00 7.8979537E-01 1.8815162E+00
 5.2466644E+00 8.1043972E-01 1.8903991E+00
 5.1715468E+00 8.3272213E-01 1.8975252E+00
 5.0978636E+00 8.5670994E-01 1.9022534E+00
 5.0259176E+00 8.8240597E-01 1.9040102E+00
 4.9560021E+00 9.0974813E-01 1.9023276E+00
 4.8883901E+00 9.3860954E-01 1.8968648E+00
 4.8232880E+00 9.6879137E-01 1.8874014E+00
 4.7607430E+00 1.0000002E+00 1.8737940E+00
 4.7005132E+00 1.0318102E+00 1.8558838E+00
 4.6419836E+00 1.0635945E+00 1.8333802E+00
 5.9946743E+00 6.8424074E-01 1.8185429E+00
 5.9232708E+00 7.0059678E-01 1.8244798E+00
 5.8505606E+00 7.1628695E-01 1.8308119E+00
 5.7765111E+00 7.3189977E-01 1.8378558E+00
 5.7011934E+00 7.4785689E-01 1.8457660E+00
 5.6248202E+00 7.6444644E-01 1.8545328E+00
 5.5477278E+00 7.8188552E-01 1.8639870E+00
 5.4703336E+00 8.0036527E-01 1.8738077E+00
 5.3930866E+00 8.2006436E-01 1.8835355E+00
 5.3164204E+00 8.4114255E-01 1.8926018E+00
 5.2407277E+00 8.6372593E-01 1.9003704E+00
 5.1663518E+00 8.8789329E-01 1.9061877E+00
 5.0935951E+00 9.1366844E-01 1.9094331E+00
 5.0227265E+00 9.4101792E-01 1.9095630E+00
 4.9539766E+00 9.6984932E-01 1.9061393E+00
 4.8874990E+00 1.0000002E+00 1.8988345E+00
 4.8232880E+00 1.0312090E+00 1.8874014E+00
 4.7610816E+00 1.0630710E+00 1.8716068E+00
 4.7003147E+00 1.0949922E+00 1.8511423E+00
 5.9936428E+00 7.2236750E-01 1.8322441E+00
 5.9211393E+00 7.3991791E-01 1.8377265E+00
 5.8474114E+00 7.5692950E-01 1.8436566E+00
 5.7724876E+00 7.7397101E-01 1.8503026E+00
 5.6964856E+00 7.9145598E-01 1.8577761E+00
 5.6196431E+00 8.0966819E-01 1.8660298E+00
 5.5423115E+00 8.2881607E-01 1.8748589E+00
 5.4649148E+00 8.4907340E-01 1.8839097E+00
 5.3879003E+00 8.7059226E-01 1.8926971E+00
 5.3116924E+00 8.9349739E-01 1.9006381E+00
 5.2366679E+00 9.1787559E-01 1.9070955E+00
 5.1631479E+00 9.4376725E-01 1.9114293E+00
 5.0914007E+00 9.7116295E-01 1.9130429E+00
 5.0216361E+00 1.0000002E+00 1.9114198E+00
 4.9539766E+00 1.0301511E+00 1.9061393E+00
 4.8883901E+00 1.0613909E+00 1.8968649E+00
 4.8246113E+00 1.0933516E+00 1.8832979E+00
 4.7621284E+00 1.1254879E+00 1.8651143E+00
 5.9927195E+00 7.6205664E-01 1.8444458E+00
 5.9192748E+00 7.8068903E-01 1.8493241E+00
 5.8447124E+00 7.9894416E-01 1.8546965E+00
 5.7691111E+00 8.1735515E-01 1.8607781E+00
 5.6926253E+00 8.3631309E-01 1.8676356E+00
 5.6155171E+00 8.5608327E-01 1.8751829E+00
 5.5381506E+00 8.7685622E-01 1.8831819E+00
 5.4609529E+00 8.9878349E-01 1.8912524E+00
 5.3843647E+00 9.2198874E-01 1.8988917E+00
 5.3087953E+00 9.4656428E-01 1.9055117E+00
 5.2345989E+00 9.7256422E-01 1.9104828E+00
 5.1620628E+00 1.0000002E+00 1.9131841E+00
 5.0914007E+00 1.0288375E+00 1.9130429E+00
 5.0227265E+00 1.0589825E+00 1.9095631E+00
 4.9560021E+00 1.0902523E+00 1.9023278E+00
 4.8909728E+00 1.1223278E+00 1.8909758E+00
 4.8271698E+00 1.1547219E+00 1.8751571E+00
 5.9918988E+00 8.0317212E-01 1.8549629E+00
 5.9176660E+00 8.2278816E-01 1.8591066E+00
 5.8424555E+00 8.4220073E-01 1.8637750E+00
 5.7663839E+00 8.6190176E-01 1.8691307E+00
 5.6896338E+00 8.8224726E-01 1.8751956E+00
 5.6124849E+00 9.0347531E-01 1.8818475E+00
 5.5353080E+00 9.2575273E-01 1.8888200E+00
 5.4585266E+00 9.4920654E-01 1.8957137E+00
 5.3825676E+00 9.7393385E-01 1.9020171E+00
 5.3078179E+00 1.0000002E+00 1.9071453E+00
 5.2345989E+00 1.0274362E+00 1.9104829E+00
 5.1631479E+00 1.0562332E+00 1.9114294E+00
 5.0935951E+00 1.0863320E+00 1.9094332E+00
 5.0259176E+00 1.1175944E+00 1.9040104E+00
 4.9598877E+00 1.1497581E+00 1.8947390E+00
 4.8950750E+00 1.1824013E+00 1.8812331E+00
 5.9912008E+00 8.4553004E-01 1.8636201E+00
 5.9163497E+00 8.6602629E-01 1.8669119E+00
 5.8406909E+00 8.8649677E-01 1.8707398E+00
 5.7643678E+00 9.0738520E-01 1.8752161E+00
 5.6875826E+00 9.2900424E-01 1.8803209E+00
 5.6106243E+00 9.5155879E-01 1.8859008E+00
 5.5338625E+00 9.7518950E-01 1.8916677E+00
 5.4577085E+00 1.0000002E+00 1.8972106E+00
 5.3825676E+00 1.0260666E+00 1.9020172E+00
 5.3087953E+00 1.0534361E+00 1.9055117E+00
 5.2366679E+00 1.0821248E+00 1.9070956E+00
 5.1663518E+00 1.1121071E+00 1.9061879E+00
 5.0978636E+00 1.1432905E+00 1.9022536E+00
 5.0310216E+00 1.1754726E+00 1.8948169E+00
 4.9654454E+00 1.2083028E+00 1.8834509E+00
 5.9906512E+00 8.8890430E-01 1.8702624E+00
 5.9153717E+00 9.1016390E-01 1.8725984E+00
 5.8394767E+00 9.3157445E-01 1.8754616E+00
 5.7631281E+00 9.5352417E-01 1.8789177E+00
 5.6865383E+00 9.7627642E-01 1.8829104E+00
 5.6099967E+00 1.0000002E+00 1.8872613E+00
 5.5338625E+00 1.0248109E+00 1.8916677E+00
 5.4585266E+00 1.0507939E+00 1.8957138E+00
 5.3843647E+00 1.0780117E+00 1.8988918E+00
 5.3116923E+00 1.1065030E+00 1.9006382E+00
 5.2407277E+00 1.1362745E+00 1.9003706E+00
 5.1715468E+00 1.1672783E+00 1.8975254E+00
 5.1040378E+00 1.1993725E+00 1.8915834E+00
 5.0378878E+00 1.2322800E+00 1.8820787E+00
 5.9902721E+00 9.3303273E-01 1.8747648E+00
 5.9147693E+00 9.5492323E-01 1.8760564E+00
 5.8388579E+00 9.7713686E-01 1.8778469E+00
 5.7627097E+00 1.0000002E+00 1.8801602E+00
 5.6865383E+00 1.0237239E+00 1.8829105E+00
 5.6106243E+00 1.0484416E+00 1.8859008E+00
 5.5353080E+00 1.0742477E+00 1.8888201E+00
 5.4609529E+00 1.1012169E+00 1.8912525E+00
 5.3879003E+00 1.1294082E+00 1.8926972E+00
 5.3164204E+00 1.1588579E+00 1.8926020E+00
 5.2466644E+00 1.1895607E+00 1.8903993E+00
 5.1786103E+00 1.2214332E+00 1.8855438E+00
 5.1120359E+00 1.2542705E+00 1.8775361E+00
 5.9900788E+00 9.7762542E-01 1.8770387E+00
 5.9145659E+00 1.0000002E+00 1.8772170E+00
 5.8388579E+00 1.0228635E+00 1.8778469E+00
 5.7631281E+00 1.0464762E+00 1.8789177E+00
 5.6875826E+00 1.0709961E+00 1.8803210E+00
 5.6124848E+00 1.0965251E+00 1.8818475E+00
 5.5381506E+00 1.1231442E+00 1.8831820E+00
 5.4649148E+00 1.1509270E+00 1.8839098E+00
 5.3930866E+00 1.1799361E+00 1.8835356E+00
 5.3228929E+00 1.2102051E+00 1.8815164E+00
 5.2544171E+00 1.2417048E+00 1.8773007E+00
 5.1875472E+00 1.2742997E+00 1.8703679E+00
 5.9900788E+00 1.0223749E+00 1.8770387E+00
 5.9147693E+00 1.0450771E+00 1.8760565E+00
 5.8394767E+00 1.0684259E+00 1.8754616E+00
 5.7643677E+00 1.0926151E+00 1.8752162E+00
 5.6896337E+00 1.1177531E+00 1.8751957E+00
 5.6155170E+00 1.1439171E+00 1.8751830E+00
 5.5423114E+00 1.1711843E+00 1.8748590E+00
 5.4703336E+00 1.1996351E+00 1.8738079E+00
 5.3998732E+00 1.2293364E+00 1.8715360E+00
 5.3311199E+00 1.2603077E+00 1.8675103E+00
 5.2640867E+00 1.2924768E+00 1.8612033E+00
 5.9902721E+00 1.0669676E+00 1.8747648E+00
 5.9153716E+00 1.0898364E+00 1.8725984E+00
 5.8406908E+00 1.1135036E+00 1.8707399E+00
 5.7663839E+00 1.1380986E+00 1.8691308E+00
 5.6926252E+00 1.1636873E+00 1.8676357E+00
 5.6196431E+00 1.1903322E+00 1.8660300E+00
 5.5477277E+00 1.2181149E+00 1.8639872E+00
 5.4772013E+00 1.2471237E+00 1.8610847E+00
 5.4083471E+00 1.2774183E+00 1.8568296E+00
 5.3413039E+00 1.3089818E+00 1.8507079E+00
 5.9906512E+00 1.1110960E+00 1.8702625E+00
 5.9163497E+00 1.1339740E+00 1.8669119E+00
 5.8424555E+00 1.1577996E+00 1.8637750E+00
 5.7691110E+00 1.1826452E+00 1.8607782E+00
 5.6964855E+00 1.2085444E+00 1.8577762E+00
 5.6248201E+00 1.2355539E+00 1.8545329E+00
 5.5544373E+00 1.2637611E+00 1.8507074E+00
 5.4856850E+00 1.2932494E+00 1.8458674E+00
 5.4188154E+00 1.3240455E+00 1.8395304E+00
 5.9912008E+00 1.1544703E+00 1.8636201E+00
 5.9176659E+00 1.1772122E+00 1.8591067E+00
 5.8447123E+00 1.2010562E+00 1.8546966E+00
 5.7724875E+00 1.2260293E+00 1.8503027E+00
 5.7011933E+00 1.2521435E+00 1.8457661E+00
 5.6311327E+00 1.2794503E+00 1.8408311E+00
 5.5626884E+00 1.3080276E+00 1.8351379E+00
 5.4961980E+00 1.3379244E+00 1.8282547E+00
 5.9918988E+00 1.1968282E+00 1.8549629E+00
 5.9192748E+00 1.2193113E+00 1.8493242E+00
 5.8474113E+00 1.2430708E+00 1.8436567E+00
 5.7765110E+00 1.2681006E+00 1.8378559E+00
 5.7068737E+00 1.2943915E+00 1.8317408E+00
 5.6389052E+00 1.3219718E+00 1.8250312E+00
 5.5729989E+00 1.3508740E+00 1.8173596E+00
 5.9927195E+00 1.2379437E+00 1.8444459E+00
 5.9211392E+00 1.2600824E+00 1.8377266E+00
 5.8505605E+00 1.2837134E+00 1.8308120E+00
 5.7813366E+00 1.3088005E+00 1.8235698E+00
 5.7139220E+00 1.3352859E+00 1.8157939E+00
 5.6487609E+00 1.3631275E+00 1.8071937E+00
 5.9936427E+00 1.2776328E+00 1.8322441E+00
 5.9232707E+00 1.2994035E+00 1.8244799E+00
 5.8543202E+00 1.3229463E+00 1.8162966E+00
 5.7873973E+00 1.3481647E+00 1.8075293E+00
 5.7230564E+00 1.3748826E+00 1.7979661E+00
 5.9946742E+00 1.3157596E+00 1.8185429E+00
 5.9257951E+00 1.3372352E+00 1.8097331E+00
 5.8591457E+00 1.3608458E+00 1.8001885E+00
 5.7955260E+00 1.3863122E+00 1.7897486E+00
 5.9958884E+00 1.3522595E+00 1.8035177E+00
 5.9290700E+00 1.3736400E+00 1.7935883E+00
 5.8658859E+00 1.3975654E+00 1.7824978E+00
 5.9974616E+00 1.3871582E+00 1.7873145E+00
 5.9340828E+00 1.4088749E+00 1.7760240E+00
 5.9998042E+00 1.4204847E+00 1.7700759E+00
 6.0642213E+00 1.4340784E+00 1.7635130E+00
 6.0644622E+00 1.4023980E+00 1.7806859E+00
 6.0646447E+00 1.3689027E+00 1.7970796E+00
 6.0647866E+00 1.3335299E+00 1.8125267E+00
 6.0648965E+00 1.2963672E+00 1.8268155E+00
 6.0649852E+00 1.2575460E+00 1.8397277E+00
 6.0650587E+00 1.2172022E+00 1.8510637E+00
 6.0651200E+00 1.1755095E+00 1.8606361E+00
 6.0651691E+00 1.1326810E+00 1.8682763E+00
 6.0652053E+00 1.0889645E+00 1.8738424E+00
 6.0652274E+00 1.0446378E+00 1.8772270E+00
 6.0652349E+00 1.0000002E+00 1.8783628E+00
 6.0652274E+00 9.5536251E-01 1.8772270E+00
 6.0652053E+00 9.1103578E-01 1.8738424E+00
 6.0651692E+00 8.6731932E-01 1.8682762E+00
 6.0651200E+00 8.2449078E-01 1.8606361E+00
 6.0650588E+00 7.8279809E-01 1.8510637E+00
 6.0649852E+00 7.4245433E-01 1.8397277E+00
 6.0648966E+00 7.0363308E-01 1.8268155E+00
 6.0647866E+00 6.6647045E-01 1.8125267E+00
 6.0646447E+00 6.3109756E-01 1.7970796E+00
 6.0644623E+00 5.9760230E-01 1.7806859E+00
 6.0642213E+00 5.6592191E-01 1.7635130E+00
 6.1216661E+00 5.4594592E-01 1.7534053E+00
 6.1850842E+00 5.5456262E-01 1.7607562E+00
 6.2510500E+00 5.6349213E-01 1.7686268E+00
 6.3192612E+00 5.7287312E-01 1.7769530E+00
 6.3894916E+00 5.8281036E-01 1.7855857E+00
 6.4615114E+00 5.9345046E-01 1.7943575E+00
 6.5351137E+00 6.0494260E-01 1.8030659E+00
 6.6100505E+00 6.1743866E-01 1.8114807E+00
 6.6860385E+00 6.3108614E-01 1.8193492E+00
 6.7627454E+00 6.4602155E-01 1.8264019E+00
 6.8397878E+00 6.6236458E-01 1.8323579E+00
 6.9167347E+00 6.8021249E-01 1.8369317E+00
 6.9931214E+00 6.9963547E-01 1.8398394E+00
 7.0684689E+00 7.2067205E-01 1.8408090E+00
 7.1423048E+00 7.4332566E-01 1.8395903E+00
 7.2141821E+00 7.6756183E-01 1.8359677E+00
 7.2836883E+00 7.9330762E-01 1.8297715E+00
 7.3504490E+00 8.2045280E-01 1.8208897E+00
 7.4141261E+00 8.4885364E-01 1.8092760E+00
 7.4744207E+00 8.7834027E-01 1.7949540E+00
 7.5310468E+00 9.0869816E-01 1.7780263E+00
 7.5837447E+00 9.3965275E-01 1.7586627E+00
 7.6321228E+00 9.7069756E-01 1.7371902E+00
 6.1286517E+00 1.4217228E+00 1.7721734E+00
 6.1939808E+00 1.4111843E+00 1.7801214E+00
 6.2613948E+00 1.4006867E+00 1.7883287E+00
 6.3305610E+00 1.3898904E+00 1.7967968E+00
 6.4014751E+00 1.3784992E+00 1.8054769E+00
 6.4739690E+00 1.3663270E+00 1.8142064E+00
 6.5478453E+00 1.3532100E+00 1.8227778E+00
 6.6228621E+00 1.3390088E+00 1.8309462E+00
 6.6987285E+00 1.3235981E+00 1.8384443E+00
 6.7751010E+00 1.3068687E+00 1.8449917E+00
 6.8515840E+00 1.2887316E+00 1.8503010E+00
 6.9277391E+00 1.2691216E+00 1.8540861E+00
 7.0031011E+00 1.2480018E+00 1.8560690E+00
 7.0771989E+00 1.2253656E+00 1.8559907E+00
 7.1495758E+00 1.2012377E+00 1.8536207E+00
 7.2198065E+00 1.1756746E+00 1.8487688E+00
 7.2875073E+00 1.1487637E+00 1.8412940E+00
 7.3523485E+00 1.1206251E+00 1.8311094E+00
 7.4140705E+00 1.0914180E+00 1.8181782E+00
 7.4725302E+00 1.0613526E+00 1.8024926E+00
 7.5277768E+00 1.0307071E+00 1.7840249E+00
 7.5802008E+00 1.0000001E+00 1.7626322E+00
 6.1313979E+00 1.3883902E+00 1.7895350E+00
 6.1992792E+00 1.3758884E+00 1.7979233E+00
 6.2682664E+00 1.3638089E+00 1.8062980E+00
 6.3386695E+00 1.3514773E+00 1.8148308E+00
 6.4104625E+00 1.3385430E+00 1.8234629E+00
 6.4835873E+00 1.3247595E+00 1.8320469E+00
 6.5578754E+00 1.3099628E+00 1.8403618E+00
 6.6330993E+00 1.2940242E+00 1.8481503E+00
 6.7089659E+00 1.2768404E+00 1.8551328E+00
 6.7851223E+00 1.2583282E+00 1.8610205E+00
 6.8611635E+00 1.2384273E+00 1.8655223E+00
 6.9366459E+00 1.2171028E+00 1.8683543E+00
 7.0111067E+00 1.1943468E+00 1.8692472E+00
 7.0840867E+00 1.1701784E+00 1.8679569E+00
 7.1551515E+00 1.1446415E+00 1.8642725E+00
 7.2239130E+00 1.1178035E+00 1.8580252E+00
 7.2900521E+00 1.0897572E+00 1.8490887E+00
 7.3533620E+00 1.0606320E+00 1.8373679E+00
 7.4138195E+00 1.0306169E+00 1.8227646E+00
 7.4716908E+00 1.0000001E+00 1.8051129E+00
 7.5277768E+00 9.6929316E-01 1.7840250E+00
 6.1332988E+00 1.3534292E+00 1.8058506E+00
 6.2027926E+00 1.3393450E+00 1.8142682E+00
 6.2732078E+00 1.3256793E+00 1.8226480E+00
 6.3447193E+00 1.3117931E+00 1.8310924E+00
 6.4173894E+00 1.2972623E+00 1.8395481E+00
 6.4911602E+00 1.2818321E+00 1.8478480E+00
 6.5658901E+00 1.2653368E+00 1.8557593E+00
 6.6413518E+00 1.2476641E+00 1.8630109E+00
 6.7172469E+00 1.2287318E+00 1.8693134E+00
 6.7932135E+00 1.2084822E+00 1.8743721E+00
 6.8688389E+00 1.1868822E+00 1.8778958E+00
 6.9436785E+00 1.1639238E+00 1.8796061E+00
 7.0172772E+00 1.1396224E+00 1.8792450E+00
 7.0891965E+00 1.1140147E+00 1.8765838E+00
 7.1590402E+00 1.0871549E+00 1.8714284E+00
 7.2264911E+00 1.0591169E+00 1.8636197E+00
 7.2913636E+00 1.0300076E+00 1.8530196E+00
 7.3536869E+00 1.0000001E+00 1.8394776E+00
 7.4138195E+00 9.6938342E-01 1.8227646E+00
 7.4725302E+00 9.3864766E-01 1.8024926E+00
 6.1347562E+00 1.3168371E+00 1.8209783E+00
 6.2054933E+00 1.3013245E+00 1.8291951E+00
 6.2770497E+00 1.2861628E+00 1.8373784E+00
 6.3495265E+00 1.2707293E+00 1.8455738E+00
 6.4229622E+00 1.2546043E+00 1.8536927E+00
 6.4973029E+00 1.2375324E+00 1.8615471E+00
 6.5724025E+00 1.2193624E+00 1.8688859E+00
 6.6480300E+00 1.1999998E+00 1.8754267E+00
 6.7238782E+00 1.1793852E+00 1.8808726E+00
 6.7995778E+00 1.1574859E+00 1.8849271E+00
 6.8747131E+00 1.1342933E+00 1.8873026E+00
 6.9488451E+00 1.1098209E+00 1.8877296E+00
 7.0215366E+00 1.0841004E+00 1.8859633E+00
 7.0923853E+00 1.0571778E+00 1.8817887E+00
 7.1610634E+00 1.0291141E+00 1.8750203E+00
 7.2273792E+00 1.0000001E+00 1.8654905E+00
 7.2913636E+00 9.6999267E-01 1.8530196E+00
 7.3533620E+00 9.3936834E-01 1.8373679E+00
 7.4140705E+00 9.0858229E-01 1.8181783E+00
 6.1359735E+00 1.2785989E+00 1.8347736E+00
 6.2077545E+00 1.2617805E+00 1.8426050E+00
 6.2802538E+00 1.2451973E+00 1.8504146E+00
 6.3535239E+00 1.2282613E+00 1.8581900E+00
 6.4275738E+00 1.2105768E+00 1.8658019E+00
 6.5023369E+00 1.1919093E+00 1.8730356E+00
 6.5776587E+00 1.1721279E+00 1.8796238E+00
 6.6532999E+00 1.1511608E+00 1.8852744E+00
 6.7289466E+00 1.1289717E+00 1.8896874E+00
 6.8042264E+00 1.1055507E+00 1.8925690E+00
 6.8787282E+00 1.0809093E+00 1.8936389E+00
 6.9520286E+00 1.0550753E+00 1.8926393E+00
 7.0237239E+00 1.0280885E+00 1.8893378E+00
 7.0934736E+00 1.0000001E+00 1.8835281E+00
 7.1610634E+00 9.7088619E-01 1.8750203E+00
 7.2264911E+00 9.4088343E-01 1.8636197E+00
 7.2900521E+00 9.1024308E-01 1.8490887E+00
 7.3523485E+00 8.7937514E-01 1.8311094E+00
 6.1370457E+00 1.2387844E+00 1.8470610E+00
 6.2097194E+00 1.2207617E+00 1.8543482E+00
 6.2829900E+00 1.2028314E+00 1.8616206E+00
 6.3568721E+00 1.1844562E+00 1.8688075E+00
 6.4313514E+00 1.1652786E+00 1.8757393E+00
 6.5063475E+00 1.1450957E+00 1.8821760E+00
 6.5816967E+00 1.1238032E+00 1.8878369E+00
 6.6571538E+00 1.1013536E+00 1.8924248E+00
 6.7324024E+00 1.0777325E+00 1.8956412E+00
 6.8070745E+00 1.0529487E+00 1.8971986E+00
 6.8807737E+00 1.0270265E+00 1.8968276E+00
 6.9531063E+00 1.0000001E+00 1.8942819E+00
 7.0237239E+00 9.7191176E-01 1.8893378E+00
 7.0923853E+00 9.4282250E-01 1.8817888E+00
 7.1590402E+00 9.1284540E-01 1.8714285E+00
 7.2239130E+00 8.8219684E-01 1.8580253E+00
 7.2875073E+00 8.5123663E-01 1.8412941E+00
 6.1379895E+00 1.1975322E+00 1.8576539E+00
 6.2114081E+00 1.1783958E+00 1.8642561E+00
 6.2852732E+00 1.1592021E+00 1.8708371E+00
 6.3595732E+00 1.1394713E+00 1.8772726E+00
 6.4342771E+00 1.1188950E+00 1.8833562E+00
 6.5092943E+00 1.0973084E+00 1.8888274E+00
 6.5844555E+00 1.0746369E+00 1.8933964E+00
 6.6595143E+00 1.0508563E+00 1.8967659E+00
 6.7341591E+00 1.0259706E+00 1.8986429E+00
 6.8080354E+00 1.0000001E+00 1.8987496E+00
 6.8807737E+00 9.7297378E-01 1.8968276E+00
 6.9520286E+00 9.4492499E-01 1.8926393E+00
 7.0215366E+00 9.1589987E-01 1.8859633E+00
 7.0891965E+00 8.8598563E-01 1.8765839E+00
 7.1551515E+00 8.5535882E-01 1.8642725E+00
 7.2198065E+00 8.2432568E-01 1.8487688E+00
 6.1387879E+00 1.1550283E+00 1.8663751E+00
 6.2127870E+00 1.1348757E+00 1.8721632E+00
 6.2870564E+00 1.1145171E+00 1.8779086E+00
 6.3615687E+00 1.0935371E+00 1.8834394E+00
 6.4362824E+00 1.0716832E+00 1.8885186E+00
 6.5111021E+00 1.0488324E+00 1.8928708E+00
 6.5858585E+00 1.0249396E+00 1.8962029E+00
 6.6603102E+00 1.0000001E+00 1.8982218E+00
 6.7341591E+00 9.7402971E-01 1.8986429E+00
 6.8070745E+00 9.4705161E-01 1.8971986E+00
 6.8787282E+00 9.1909103E-01 1.8936389E+00
 6.9488451E+00 8.9017936E-01 1.8877297E+00
 7.0172772E+00 8.6037791E-01 1.8792451E+00
 7.0840867E+00 8.2982190E-01 1.8679569E+00
 7.1495758E+00 7.9876257E-01 1.8536207E+00
 6.1394149E+00 1.1115004E+00 1.8730675E+00
 6.2138103E+00 1.0904444E+00 1.8779248E+00
 6.2882825E+00 1.0690388E+00 1.8827031E+00
 6.3627952E+00 1.0469392E+00 1.8871903E+00
 6.4373032E+00 1.0239533E+00 1.8911263E+00
 6.5117119E+00 1.0000001E+00 1.8942277E+00
 6.5858585E+00 9.7506074E-01 1.8962030E+00
 6.6595143E+00 9.4914397E-01 1.8967659E+00
 6.7324024E+00 9.2226779E-01 1.8956412E+00
 6.8042264E+00 8.9444956E-01 1.8925690E+00
 6.8747131E+00 8.6570694E-01 1.8873026E+00
 6.9436785E+00 8.3607653E-01 1.8796062E+00
 7.0111067E+00 8.0565344E-01 1.8692473E+00
 7.0771989E+00 7.7463471E-01 1.8559908E+00
 6.1398468E+00 1.0672126E+00 1.8776042E+00
 6.2144403E+00 1.0453832E+00 1.8814289E+00
 6.2889071E+00 1.0230686E+00 1.8851252E+00
 6.3632091E+00 1.0000001E+00 1.8884493E+00
 6.4373032E+00 9.7604703E-01 1.8911263E+00
 6.5111021E+00 9.5116787E-01 1.8928708E+00
 6.5844555E+00 9.2536338E-01 1.8933964E+00
 6.6571538E+00 8.9864673E-01 1.8924249E+00
 6.7289466E+00 8.7102860E-01 1.8896875E+00
 6.7995778E+00 8.4251435E-01 1.8849272E+00
 6.8688389E+00 8.1311803E-01 1.8778959E+00
 6.9366459E+00 7.8289745E-01 1.8683543E+00
 7.0031011E+00 7.5199846E-01 1.8560691E+00
 6.1400669E+00 1.0224570E+00 1.8798957E+00
 6.2146529E+00 1.0000002E+00 1.8826050E+00
 6.2889071E+00 9.7693170E-01 1.8851252E+00
 6.3627952E+00 9.5306109E-01 1.8871903E+00
 6.4362824E+00 9.2831709E-01 1.8885186E+00
 6.5092943E+00 9.0269193E-01 1.8888274E+00
 6.5816967E+00 8.7619704E-01 1.8878370E+00
 6.6532999E+00 8.4883952E-01 1.8852744E+00
 6.7238782E+00 8.2061506E-01 1.8808726E+00
 6.7932135E+00 7.9151807E-01 1.8743722E+00
 6.8611635E+00 7.6157297E-01 1.8655223E+00
 6.9277391E+00 7.3087865E-01 1.8540862E+00
 6.1400669E+00 9.7754335E-01 1.8798957E+00
 6.2144403E+00 9.5461715E-01 1.8814289E+00
 6.2882825E+00 9.3096146E-01 1.8827031E+00
 6.3615687E+00 9.0646320E-01 1.8834394E+00
 6.4342771E+00 8.8110534E-01 1.8833562E+00
 6.5063475E+00 8.5490462E-01 1.8821760E+00
 6.5776587E+00 8.2787240E-01 1.8796238E+00
 6.6480300E+00 8.0000053E-01 1.8754267E+00
 6.7172469E+00 7.7126851E-01 1.8693134E+00
 6.7851223E+00 7.4167209E-01 1.8610206E+00
 6.8515840E+00 7.1126870E-01 1.8503011E+00
 6.1398468E+00 9.3278772E-01 1.8776042E+00
 6.2138103E+00 9.0955595E-01 1.8779248E+00
 6.2870564E+00 8.8548315E-01 1.8779086E+00
 6.3595732E+00 8.6052903E-01 1.8772726E+00
 6.4313514E+00 8.3472168E-01 1.8757393E+00
 6.5023369E+00 8.0809098E-01 1.8730357E+00
 6.5724025E+00 7.8063792E-01 1.8688860E+00
 6.6413518E+00 7.5233614E-01 1.8630109E+00
 6.7089658E+00 7.2315991E-01 1.8551329E+00
 6.7751010E+00 6.9313152E-01 1.8449918E+00
 6.1394149E+00 8.8849994E-01 1.8730675E+00
 6.2127870E+00 8.6512459E-01 1.8721632E+00
 6.2852732E+00 8.4079820E-01 1.8708371E+00
 6.3568721E+00 8.1554411E-01 1.8688075E+00
 6.4275738E+00 7.8942346E-01 1.8658020E+00
 6.4973029E+00 7.6246788E-01 1.8615471E+00
 6.5658900E+00 7.3466353E-01 1.8557593E+00
 6.6330993E+00 7.0597607E-01 1.8481503E+00
 6.6987285E+00 6.7640220E-01 1.8384444E+00
 6.1387879E+00 8.4497204E-01 1.8663751E+00
 6.2114082E+00 8.2160448E-01 1.8642561E+00
 6.2829900E+00 7.9716891E-01 1.8616206E+00
 6.3535239E+00 7.7173902E-01 1.8581900E+00
 6.4229622E+00 7.4539598E-01 1.8536928E+00
 6.4911602E+00 7.1816820E-01 1.8478481E+00
 6.5578754E+00 6.9003752E-01 1.8403618E+00
 6.6228621E+00 6.6099146E-01 1.8309463E+00
 6.1379895E+00 8.0246808E-01 1.8576539E+00
 6.2097194E+00 7.7923856E-01 1.8543482E+00
 6.2802538E+00 7.5480296E-01 1.8504146E+00
 6.3495265E+00 7.2927095E-01 1.8455738E+00
 6.4173894E+00 7.0273798E-01 1.8395481E+00
 6.4835873E+00 6.7524077E-01 1.8320470E+00
 6.5478453E+00 6.4679031E-01 1.8227779E+00
 6.1370458E+00 7.6121592E-01 1.8470610E+00
 6.2077545E+00 7.3821975E-01 1.8426050E+00
 6.2770497E+00 7.1383752E-01 1.8373784E+00
 6.3447193E+00 6.8820715E-01 1.8310924E+00
 6.4104625E+00 6.6145723E-01 1.8234629E+00
 6.4739690E+00 6.3367327E-01 1.8142065E+00
 6.1359736E+00 7.2140142E-01 1.8347736E+00
 6.2054933E+00 6.9867580E-01 1.8291951E+00
 6.2732078E+00 6.7432094E-01 1.8226480E+00
 6.3386695E+00 6.4852298E-01 1.8148308E+00
 6.4014751E+00 6.2150108E-01 1.8054769E+00
 6.1347562E+00 6.8316320E-01 1.8209783E+00
 6.2027926E+00 6.6065525E-01 1.8142682E+00
 6.2682664E+00 6.3619136E-01 1.8062981E+00
 6.3305610E+00 6.1010986E-01 1.7967969E+00
 6.1332988E+00 6.4657114E-01 1.8058506E+00
 6.1992792E+00 6.2411189E-01 1.7979234E+00
 6.2613948E+00 5.9931362E-01 1.7883287E+00
 6.1313980E+00 6.1161007E-01 1.7895350E+00
 6.1939808E+00 5.8881600E-01 1.7801214E+00
 6.1286518E+00 5.7827748E-01 1.7721734E+00
 6.0286705E+00 1.4834621E+00 1.7325661E+00
 5.9893281E+00 1.5071553E+00 1.7158563E+00
 5.9483488E+00 1.5314294E+00 1.6978219E+00
 5.9059385E+00 1.5561520E+00 1.6784589E+00
 5.8622078E+00 1.5812542E+00 1.6577255E+00
 5.8174088E+00 1.6066585E+00 1.6355653E+00
 5.7717926E+00 1.6322795E+00 1.6119047E+00
 5.7256387E+00 1.6579988E+00 1.5866712E+00
 5.6792594E+00 1.6836651E+00 1.5597943E+00
 5.6329943E+00 1.7090901E+00 1.5312141E+00
 5.5871988E+00 1.7340499E+00 1.5008893E+00
 5.5422302E+00 1.7582908E+00 1.4688079E+00
 5.4984320E+00 1.7815392E+00 1.4349955E+00
 5.4561196E+00 1.8035159E+00 1.3995222E+00
 5.4155691E+00 1.8239512E+00 1.3625059E+00
 5.3770118E+00 1.8426005E+00 1.3241108E+00
 5.3406341E+00 1.8592567E+00 1.2845428E+00
 5.3065843E+00 1.8737593E+00 1.2440411E+00
 5.2749809E+00 1.8859995E+00 1.2028683E+00
 5.2459250E+00 1.8959222E+00 1.1612984E+00
 5.2195020E+00 1.9035195E+00 1.1196355E+00
 5.1957182E+00 1.9088303E+00 1.0781999E+00
 5.1745500E+00 1.9119349E+00 1.0375995E+00
 4.4758554E+00 1.0873272E+00 1.7472559E+00
 4.4672967E+00 1.1441723E+00 1.7329204E+00
 4.4617743E+00 1.2020216E+00 1.7154736E+00
 4.4601213E+00 1.2608459E+00 1.6951006E+00
 4.4628407E+00 1.3203143E+00 1.6718308E+00
 4.4702978E+00 1.3799178E+00 1.6456938E+00
 4.4827404E+00 1.4390305E+00 1.6167570E+00
 4.5003109E+00 1.4969607E+00 1.5851515E+00
 4.5230423E+00 1.5529843E+00 1.5510865E+00
 4.5508503E+00 1.6063772E+00 1.5148543E+00
 4.5835260E+00 1.6564517E+00 1.4768262E+00
 4.6207367E+00 1.7025947E+00 1.4374395E+00
 4.6620372E+00 1.7443036E+00 1.3971797E+00
 4.7068912E+00 1.7812162E+00 1.3565566E+00
 4.7547019E+00 1.8131302E+00 1.3160795E+00
 4.8048461E+00 1.8400100E+00 1.2762325E+00
 4.8567081E+00 1.8619800E+00 1.2374525E+00
 4.9097077E+00 1.8793062E+00 1.2001085E+00
 4.9633141E+00 1.8923702E+00 1.1644826E+00
 5.0170620E+00 1.9016380E+00 1.1307359E+00
 5.0705505E+00 1.9076273E+00 1.0988418E+00
 5.1233145E+00 1.9108765E+00 1.0684600E+00
 4.5257912E+00 1.1220310E+00 1.7722280E+00
 4.5203949E+00 1.1809783E+00 1.7575865E+00
 4.5178770E+00 1.2398952E+00 1.7396292E+00
 4.5191697E+00 1.2990488E+00 1.7186013E+00
 4.5248344E+00 1.3582544E+00 1.6945864E+00
 4.5352181E+00 1.4170689E+00 1.6676395E+00
 4.5505111E+00 1.4748988E+00 1.6378468E+00
 4.5707773E+00 1.5310699E+00 1.6053614E+00
 4.5959658E+00 1.5848810E+00 1.5704209E+00
 4.6259114E+00 1.6356477E+00 1.5333504E+00
 4.6603340E+00 1.6827439E+00 1.4945548E+00
 4.6988469E+00 1.7256400E+00 1.4545016E+00
 4.7409734E+00 1.7639359E+00 1.4136988E+00
 4.7861747E+00 1.7973836E+00 1.3726691E+00
 4.8338822E+00 1.8258984E+00 1.3319223E+00
 4.8835318E+00 1.8495558E+00 1.2919285E+00
 4.9345916E+00 1.8685767E+00 1.2530903E+00
 4.9865811E+00 1.8833050E+00 1.2157053E+00
 5.0390805E+00 1.8941800E+00 1.1799081E+00
 5.0917172E+00 1.9017040E+00 1.1455889E+00
 5.1441499E+00 1.9064105E+00 1.1121622E+00
 4.5802220E+00 1.1552983E+00 1.7944355E+00
 4.5777825E+00 1.2151898E+00 1.7792135E+00
 4.5782035E+00 1.2745894E+00 1.7605837E+00
 4.5823893E+00 1.3336900E+00 1.7387746E+00
 4.5909108E+00 1.3923310E+00 1.7138927E+00
 4.6040819E+00 1.4500905E+00 1.6860156E+00
 4.6220307E+00 1.5063919E+00 1.6552546E+00
 4.6447473E+00 1.5605840E+00 1.6217941E+00
 4.6721061E+00 1.6120014E+00 1.5859086E+00
 4.7038739E+00 1.6600148E+00 1.5479619E+00
 4.7397169E+00 1.7040740E+00 1.5083949E+00
 4.7792148E+00 1.7437447E+00 1.4677041E+00
 4.8218840E+00 1.7787356E+00 1.4264162E+00
 4.8672080E+00 1.8089135E+00 1.3850582E+00
 4.9146702E+00 1.8343043E+00 1.3441275E+00
 4.9637823E+00 1.8550831E+00 1.3040570E+00
 5.0141014E+00 1.8715551E+00 1.2651700E+00
 5.0652282E+00 1.8841312E+00 1.2276161E+00
 5.1167950E+00 1.8933004E+00 1.1912677E+00
 5.1684201E+00 1.8995897E+00 1.1556153E+00
 4.6388424E+00 1.1872975E+00 1.8133664E+00
 4.6391983E+00 1.2473588E+00 1.7973492E+00
 4.6424416E+00 1.3066445E+00 1.7778825E+00
 4.6494227E+00 1.3652369E+00 1.7551660E+00
 4.6606740E+00 1.4229292E+00 1.7293126E+00
 4.6764563E+00 1.4792921E+00 1.7004213E+00
 4.6968316E+00 1.5337610E+00 1.6686353E+00
 4.7217210E+00 1.5857146E+00 1.6341783E+00
 4.7509355E+00 1.6345375E+00 1.5973666E+00
 4.7841904E+00 1.6796705E+00 1.5586041E+00
 4.8211187E+00 1.7206532E+00 1.5183651E+00
 4.8612910E+00 1.7571550E+00 1.4771689E+00
 4.9042421E+00 1.7889955E+00 1.4355498E+00
 4.9495015E+00 1.8161505E+00 1.3940243E+00
 4.9966204E+00 1.8387461E+00 1.3530533E+00
 5.0451855E+00 1.8570442E+00 1.3129939E+00
 5.0948126E+00 1.8714230E+00 1.2740301E+00
 5.1451186E+00 1.8823511E+00 1.2360877E+00
 5.1956768E+00 1.8903481E+00 1.1987594E+00
 4.7013516E+00 1.2178999E+00 1.8286482E+00
 4.7043351E+00 1.2775648E+00 1.8116521E+00
 4.7102601E+00 1.3362284E+00 1.7912058E+00