# TIME = 4.800000
variables = x, y, z
zone N=5762 E=11520 F=FEPOINT ET=TRIANGLE
 5.6105085E+00 1.4619728E+00 1.7471580E+00
 5.6105085E+00 1.4619727E+00 2.5284201E-01
 5.6105085E+00 5.3802731E-01 1.7471580E+00
 5.6105085E+00 5.3802743E-01 2.5284221E-01
 3.9930558E+00 1.0000000E+00 1.7310546E+00
 7.2204296E+00 1.0000000E+00 1.7176774E+00
 3.9930556E+00 1.0000000E+00 2.6894504E-01
 7.2204296E+00 1.0000000E+00 2.8232256E-01
 4.7100693E+00 1.9096605E+00 9.9999999E-01
 4.7100693E+00 9.0339354E-02 9.9999998E-01
 6.5058249E+00 1.8944523E+00 9.9999999E-01
 6.5058249E+00 1.0554771E-01 9.9999998E-01
 5.5542351E+00 1.4530752E+00 1.7515323E+00
 5.4920273E+00 1.4434124E+00 1.7567497E+00
 5.4268557E+00 1.4335771E+00 1.7626726E+00
 5.3589216E+00 1.4235439E+00 1.7694634E+00
 5.2884952E+00 1.4133177E+00 1.7772041E+00
 5.2158778E+00 1.4028279E+00 1.7859426E+00
 5.1413765E+00 1.3919580E+00 1.7956433E+00
 5.0653508E+00 1.3805339E+00 1.8061661E+00
 4.9882010E+00 1.3683301E+00 1.8172426E+00
 4.9103515E+00 1.3550796E+00 1.8284696E+00
 4.8322307E+00 1.3404939E+00 1.8393184E+00
 4.7542584E+00 1.3242889E+00 1.8491630E+00
 4.6768482E+00 1.3062162E+00 1.8573231E+00
 4.6004180E+00 1.2860934E+00 1.8631199E+00
 4.5254065E+00 1.2638287E+00 1.8659352E+00
 4.4522830E+00 1.2394375E+00 1.8652673E+00
 4.3815450E+00 1.2130438E+00 1.8607740E+00
 4.3136995E+00 1.1848700E+00 1.8522962E+00
 4.2492365E+00 1.1552168E+00 1.8398602E+00
 4.1885986E+00 1.1244382E+00 1.8236627E+00
 4.1321839E+00 1.0929345E+00 1.8040571E+00
 4.0803059E+00 1.0611281E+00 1.7815086E+00
 4.0332934E+00 1.0295687E+00 1.7566323E+00
 5.5477695E+00 5.7884598E-01 1.7697691E+00
 5.4835733E+00 5.9029340E-01 1.7754733E+00
 5.4168189E+00 6.0151610E-01 1.7816730E+00
 5.3477812E+00 6.1280340E-01 1.7886386E+00
 5.2765144E+00 6.2436922E-01 1.7965494E+00
 5.2032621E+00 6.3632363E-01 1.8054407E+00
 5.1283260E+00 6.4880669E-01 1.8152511E+00
 5.0520763E+00 6.6199430E-01 1.8257984E+00
 4.9749294E+00 6.7610570E-01 1.8367691E+00
 4.8973208E+00 6.9138766E-01 1.8477166E+00
 4.8196836E+00 7.0809291E-01 1.8580770E+00
 4.7424367E+00 7.2645251E-01 1.8672039E+00
 4.6659899E+00 7.4664812E-01 1.8744157E+00
 4.5907551E+00 7.6878702E-01 1.8790533E+00
 4.5171611E+00 7.9288547E-01 1.8805381E+00
 4.4456613E+00 8.1886290E-01 1.8784238E+00
 4.3767278E+00 8.4654938E-01 1.8724317E+00
 4.3108286E+00 8.7570300E-01 1.8624654E+00
 4.2483919E+00 9.0602697E-01 1.8486002E+00
 4.1897308E+00 9.3717123E-01 1.8310367E+00
 4.1349063E+00 9.6870882E-01 1.8099984E+00
 4.0835216E+00 1.0000000E+00 1.7855563E+00
 5.5455574E+00 6.1168512E-01 1.7868016E+00
 5.4789027E+00 6.2494235E-01 1.7927977E+00
 5.4105650E+00 6.3757917E-01 1.7990979E+00
 5.3402124E+00 6.5027291E-01 1.8061426E+00
 5.2679177E+00 6.6329903E-01 1.8141023E+00
 5.1938318E+00 6.7683270E-01 1.8230143E+00
 5.1182570E+00 6.9102404E-01 1.8327852E+00
 5.0415743E+00 7.0605422E-01 1.8431956E+00
 4.9642180E+00 7.2213246E-01 1.8538885E+00
 4.8866363E+00 7.3948195E-01 1.8643761E+00
 4.8092692E+00 7.5831548E-01 1.8740614E+00
 4.7325379E+00 7.7880931E-01 1.8822804E+00
 4.6568505E+00 8.0107905E-01 1.8883531E+00
 4.5826139E+00 8.2516172E-01 1.8916436E+00
 4.5102465E+00 8.5100815E-01 1.8916157E+00
 4.4401803E+00 8.7848769E-01 1.8878788E+00
 4.3728473E+00 9.0740422E-01 1.8802131E+00
 4.3086316E+00 9.3751331E-01 1.8685649E+00
 4.2477652E+00 9.6851629E-01 1.8529941E+00
 4.1901330E+00 1.0000000E+00 1.8335503E+00
 4.1349063E+00 1.0312912E+00 1.8099984E+00
 5.5440821E+00 6.4618643E-01 1.8028911E+00
 5.4758816E+00 6.6087798E-01 1.8088195E+00
 5.4061084E+00 6.7495817E-01 1.8150743E+00
 5.3345640E+00 6.8910294E-01 1.8220486E+00
 5.2612377E+00 7.0366874E-01 1.8299169E+00
 5.1863032E+00 7.1884654E-01 1.8386904E+00
 5.1100649E+00 7.3480135E-01 1.8482478E+00
 5.0329274E+00 7.5171098E-01 1.8583312E+00
 4.9553432E+00 7.6977035E-01 1.8685426E+00
 4.8777746E+00 7.8917278E-01 1.8783568E+00
 4.8006686E+00 8.1008666E-01 1.8871500E+00
 4.7244482E+00 8.3263140E-01 1.8942480E+00
 4.6495188E+00 8.5685891E-01 1.8989812E+00
 4.5762783E+00 8.8274377E-01 1.9007442E+00
 4.5051262E+00 9.1018564E-01 1.8990479E+00
 4.4364551E+00 9.3902298E-01 1.8935556E+00
 4.3706100E+00 9.6904865E-01 1.8840893E+00
 4.3077793E+00 1.0000000E+00 1.8705898E+00
 4.2477652E+00 1.0314838E+00 1.8529942E+00
 4.1897308E+00 1.0628288E+00 1.8310368E+00
 5.5428748E+00 6.8242497E-01 1.8178958E+00
 5.4734151E+00 6.9842087E-01 1.8235596E+00
 5.4024484E+00 7.1388716E-01 1.8295941E+00
 5.3298416E+00 7.2950370E-01 1.8363458E+00
 5.2556097E+00 7.4563221E-01 1.8439569E+00
 5.1799394E+00 7.6247654E-01 1.8524125E+00
 5.1031616E+00 7.8020145E-01 1.8615578E+00
 5.0257022E+00 7.9897669E-01 1.8710987E+00
 4.9480327E+00 8.1897493E-01 1.8806004E+00
 4.8706263E+00 8.4035383E-01 1.8895079E+00
 4.7939343E+00 8.6323333E-01 1.8971808E+00
 4.7183773E+00 8.8767624E-01 1.9029466E+00
 4.6443517E+00 9.1367664E-01 1.9061572E+00
 4.5722364E+00 9.4115966E-01 1.9062468E+00
 4.5023923E+00 9.6999282E-01 1.9027745E+00
 4.4351305E+00 1.0000000E+00 1.8954461E+00
 4.3706100E+00 1.0309514E+00 1.8840893E+00
 4.3086316E+00 1.0624867E+00 1.8685649E+00
 4.2483918E+00 1.0939731E+00 1.8486003E+00
 5.5417761E+00 7.2043581E-01 1.8316510E+00
 5.4712035E+00 7.3764677E-01 1.8368899E+00
 5.3992156E+00 7.5446114E-01 1.8425460E+00
 5.3257187E+00 7.7153416E-01 1.8489109E+00
 5.2507575E+00 7.8921546E-01 1.8560877E+00
 5.1745433E+00 8.0770484E-01 1.8640295E+00
 5.0974313E+00 8.2716069E-01 1.8725497E+00
 5.0198690E+00 8.4773635E-01 1.8813206E+00
 4.9423417E+00 8.6957626E-01 1.8898781E+00
 4.8653286E+00 8.9279746E-01 1.8976474E+00
 4.7892791E+00 9.1747036E-01 1.9039847E+00
 4.7146041E+00 9.4360542E-01 1.9082322E+00
 4.6416800E+00 9.7115059E-01 1.9097741E+00
 4.5708479E+00 1.0000000E+00 1.9080880E+00
 4.5023923E+00 1.0300072E+00 1.9027746E+00
 4.4364551E+00 1.0609771E+00 1.8935557E+00
 4.3728473E+00 1.0925959E+00 1.8802133E+00
 4.3108285E+00 1.1242971E+00 1.8624656E+00
 5.5407626E+00 7.6014778E-01 1.8439574E+00
 5.4692162E+00 7.7850287E-01 1.8486272E+00
 5.3963768E+00 7.9662249E-01 1.8537513E+00
 5.3221821E+00 8.1511379E-01 1.8595608E+00
 5.2467022E+00 8.3430284E-01 1.8661181E+00
 5.1701726E+00 8.5437637E-01 1.8733445E+00
 5.0929702E+00 8.7547904E-01 1.8810233E+00
 5.0155583E+00 8.9774207E-01 1.8887993E+00
 4.9384302E+00 9.2127671E-01 1.8961884E+00
 4.8620639E+00 9.4615775E-01 1.9026084E+00
 4.7868985E+00 9.7240932E-01 1.9074248E+00
 4.7133240E+00 1.0000000E+00 1.9100059E+00
 4.6416800E+00 1.0288495E+00 1.9097742E+00
 4.5722364E+00 1.0588404E+00 1.9062469E+00
 4.5051262E+00 1.0898144E+00 1.8990481E+00
 4.4401803E+00 1.1215124E+00 1.8878791E+00
 4.3767278E+00 1.1534507E+00 1.8724320E+00
 5.5398618E+00 8.0141367E-01 1.8546062E+00
 5.4674989E+00 8.2084308E-01 1.8585725E+00
 5.3939955E+00 8.4020597E-01 1.8630123E+00
 5.3193138E+00 8.6004986E-01 1.8680972E+00
 5.2435456E+00 8.8066667E-01 1.8738499E+00
 5.1669469E+00 9.0222364E-01 1.8801619E+00
 5.0899107E+00 9.2484623E-01 1.8867913E+00
 5.0129098E+00 9.4863908E-01 1.8933633E+00
 4.9364372E+00 9.7367865E-01 1.8993838E+00
 4.8609608E+00 1.0000001E+00 1.9042758E+00
 4.7868985E+00 1.0275908E+00 1.9074249E+00
 4.7146042E+00 1.0563947E+00 1.9082323E+00
 4.6443518E+00 1.0863235E+00 1.9061574E+00
 4.5762783E+00 1.1172563E+00 1.9007444E+00
 4.5102465E+00 1.1489920E+00 1.8916160E+00
 4.4456613E+00 1.1811372E+00 1.8784241E+00
 5.5391052E+00 8.4403505E-01 1.8634000E+00
 5.4661059E+00 8.6445120E-01 1.8665354E+00
 5.3921436E+00 8.8497032E-01 1.8701432E+00
 5.3172000E+00 9.0606918E-01 1.8743393E+00
 5.2413847E+00 9.2799776E-01 1.8791102E+00
 5.1649687E+00 9.5089846E-01 1.8843218E+00
 5.0883548E+00 9.7487368E-01 1.8897129E+00
 5.0120164E+00 1.0000001E+00 1.8948980E+00
 4.9364372E+00 1.0263215E+00 1.8993839E+00
 4.8620639E+00 1.0538424E+00 1.9026085E+00
 4.7892791E+00 1.0825297E+00 1.9039849E+00
 4.7183773E+00 1.1123239E+00 1.9029468E+00
 4.6495188E+00 1.1431412E+00 1.8989815E+00
 4.5826139E+00 1.1748384E+00 1.8916439E+00
 4.5171611E+00 1.2071147E+00 1.8805385E+00
 5.5385172E+00 8.8776631E-01 1.8701643E+00
 5.4650805E+00 9.0905779E-01 1.8723513E+00
 5.3908777E+00 9.3061779E-01 1.8749895E+00
 5.3159057E+00 9.5284167E-01 1.8781450E+00
 5.2402871E+00 9.7593114E-01 1.8817733E+00
 5.1643021E+00 1.0000000E+00 1.8857204E+00
 5.0883548E+00 1.0251264E+00 1.8897130E+00
 5.0129098E+00 1.0513610E+00 1.8933634E+00
 4.9384302E+00 1.0787234E+00 1.8961885E+00
 4.8653286E+00 1.1072027E+00 1.8976476E+00
 4.7939343E+00 1.1367668E+00 1.8971810E+00
 4.7244483E+00 1.1673687E+00 1.8942484E+00
 4.6568505E+00 1.1989211E+00 1.8883535E+00
 4.5907551E+00 1.2312131E+00 1.8790537E+00
 5.5381157E+00 9.3232134E-01 1.8747573E+00
 5.4644533E+00 9.5435319E-01 1.8758940E+00
 5.3902353E+00 9.7681108E-01 1.8774413E+00
 5.3154699E+00 1.0000000E+00 1.8794239E+00
 5.2402871E+00 1.0240689E+00 1.8817733E+00
 5.1649686E+00 1.0491016E+00 1.8843218E+00
 5.0899107E+00 1.0751539E+00 1.8867914E+00
 5.0155583E+00 1.1022580E+00 1.8887995E+00
 4.9423417E+00 1.1304239E+00 1.8898783E+00
 4.8706263E+00 1.1596463E+00 1.8895082E+00
 4.8006687E+00 1.1899135E+00 1.8871504E+00
 4.7325379E+00 1.2211909E+00 1.8822808E+00
 4.6659900E+00 1.2533521E+00 1.8744162E+00
 5.5379121E+00 9.7738340E-01 1.8770796E+00
 5.4642423E+00 1.0000000E+00 1.8770839E+00
 5.3902353E+00 1.0231890E+00 1.8774413E+00
 5.3159057E+00 1.0471584E+00 1.8781450E+00
 5.2413846E+00 1.0720023E+00 1.8791102E+00
 5.1669468E+00 1.0977765E+00 1.8801621E+00
 5.0929702E+00 1.1245211E+00 1.8810234E+00
 5.0198690E+00 1.1522638E+00 1.8813208E+00
 4.9480327E+00 1.1810252E+00 1.8806007E+00
 4.8777746E+00 1.2108274E+00 1.8783572E+00
 4.8092693E+00 1.2416847E+00 1.8740619E+00
 4.7424368E+00 1.2735477E+00 1.8672044E+00
 5.5379121E+00 1.0226166E+00 1.8770796E+00
 5.4644533E+00 1.0456469E+00 1.8758940E+00
 5.3908776E+00 1.0693823E+00 1.8749896E+00
 5.3172000E+00 1.0939309E+00 1.8743394E+00
 5.2435456E+00 1.1193334E+00 1.8738500E+00
 5.1701726E+00 1.1456237E+00 1.8733447E+00
 5.0974313E+00 1.1728394E+00 1.8725499E+00
 5.0257021E+00 1.2010235E+00 1.8710989E+00
 4.9553432E+00 1.2302298E+00 1.8685430E+00
 4.8866363E+00 1.2605183E+00 1.8643765E+00
 4.8196836E+00 1.2919073E+00 1.8580775E+00
 5.5381156E+00 1.0676787E+00 1.8747573E+00
 5.4650805E+00 1.0909423E+00 1.8723514E+00
 5.3921436E+00 1.1150297E+00 1.8701433E+00
 5.3193138E+00 1.1399502E+00 1.8680973E+00
 5.2467022E+00 1.1656973E+00 1.8661183E+00
 5.1745433E+00 1.1922953E+00 1.8640297E+00
 5.1031615E+00 1.2197987E+00 1.8615580E+00
 5.0329273E+00 1.2482892E+00 1.8583315E+00
 4.9642179E+00 1.2778677E+00 1.8538889E+00
 4.8973209E+00 1.3086126E+00 1.8477171E+00
 5.5385171E+00 1.1122337E+00 1.8701643E+00
 5.4661058E+00 1.1355489E+00 1.8665355E+00
 5.3939954E+00 1.1597941E+00 1.8630124E+00
 5.3221821E+00 1.1848863E+00 1.8595610E+00
 5.2507574E+00 1.2107846E+00 1.8560879E+00
 5.1799394E+00 1.2375236E+00 1.8524127E+00
 5.1100649E+00 1.2651988E+00 1.8482481E+00
 5.0415742E+00 1.2939460E+00 1.8431960E+00
 4.9749293E+00 1.3238945E+00 1.8367695E+00
 5.5391051E+00 1.1559650E+00 1.8634001E+00
 5.4674989E+00 1.1791570E+00 1.8585726E+00
 5.3963768E+00 1.2033776E+00 1.8537515E+00
 5.3257186E+00 1.2284659E+00 1.8489111E+00
 5.2556097E+00 1.2543679E+00 1.8439571E+00
 5.1863031E+00 1.2811536E+00 1.8386907E+00
 5.1182569E+00 1.3089761E+00 1.8327855E+00
 5.0520762E+00 1.3380059E+00 1.8257988E+00
 5.5398618E+00 1.1985864E+00 1.8546063E+00
 5.4692162E+00 1.2214972E+00 1.8486273E+00
 5.3992156E+00 1.2455389E+00 1.8425462E+00
 5.3298415E+00 1.2704964E+00 1.8363460E+00
 5.2612377E+00 1.2963314E+00 1.8299171E+00
 5.1938317E+00 1.3231675E+00 1.8230146E+00
 5.1283260E+00 1.3511935E+00 1.8152515E+00
 5.5407626E+00 1.2398523E+00 1.8439575E+00
 5.4712034E+00 1.2623533E+00 1.8368900E+00
 5.4024483E+00 1.2861129E+00 1.8295942E+00
 5.3345639E+00 1.3108972E+00 1.8220488E+00
 5.2679176E+00 1.3367011E+00 1.8141025E+00
 5.2032621E+00 1.3636765E+00 1.8054410E+00
 5.5417760E+00 1.2795643E+00 1.8316511E+00
 5.4734151E+00 1.3015792E+00 1.8235597E+00
 5.4061083E+00 1.3250419E+00 1.8150745E+00
 5.3402123E+00 1.3497272E+00 1.8061428E+00
 5.2765143E+00 1.3756309E+00 1.7965496E+00
 5.5428747E+00 1.3175751E+00 1.8178959E+00
 5.4758816E+00 1.3391221E+00 1.8088196E+00
 5.4105649E+00 1.3624209E+00 1.7990980E+00
 5.3477812E+00 1.3871967E+00 1.7886388E+00
 5.5440820E+00 1.3538137E+00 1.8028912E+00
 5.4789027E+00 1.3750578E+00 1.7927978E+00
 5.4168188E+00 1.3984840E+00 1.7816732E+00
 5.5455574E+00 1.3883150E+00 1.7868017E+00
 5.4835733E+00 1.4097067E+00 1.7754734E+00
 5.5477695E+00 1.4211541E+00 1.7697692E+00
 5.6106587E+00 1.4345606E+00 1.7634066E+00
 5.6108265E+00 1.4033296E+00 1.7803698E+00
 5.6109260E+00 1.3702128E+00 1.7966336E+00
 5.6109968E+00 1.3351105E+00 1.8120352E+00
 5.6110534E+00 1.2980988E+00 1.8263499E+00
 5.6111029E+00 1.2593096E+00 1.8393402E+00
 5.6111467E+00 1.2188840E+00 1.8507869E+00
 5.6111846E+00 1.1770023E+00 1.8604836E+00
 5.6112155E+00 1.1338903E+00 1.8682433E+00
 5.6112383E+00 1.0898146E+00 1.8739077E+00
 5.6112523E+00 1.0450762E+00 1.8773566E+00
 5.6112570E+00 1.0000000E+00 1.8785148E+00
 5.6112523E+00 9.5492385E-01 1.8773566E+00
 5.6112383E+00 9.1018539E-01 1.8739077E+00
 5.6112155E+00 8.6610975E-01 1.8682432E+00
 5.6111846E+00 8.2299778E-01 1.8604836E+00
 5.6111467E+00 7.8111609E-01 1.8507869E+00
 5.6111029E+00 7.4069046E-01 1.8393402E+00
 5.6110534E+00 7.0190125E-01 1.8263498E+00
 5.6109969E+00 6.6488959E-01 1.8120352E+00
 5.6109260E+00 6.2978732E-01 1.7966335E+00
 5.6108265E+00 5.9667048E-01 1.7803697E+00
 5.6106587E+00 5.6543947E-01 1.7634065E+00
 5.6668569E+00 5.4572629E-01 1.7534970E+00
 5.7289815E+00 5.5419521E-01 1.7607907E+00
 5.7938795E+00 5.6301823E-01 1.7686199E+00
 5.8613117E+00 5.7232855E-01 1.7769322E+00
 5.9310381E+00 5.8222059E-01 1.7855835E+00
 6.0028000E+00 5.9283423E-01 1.7944082E+00
 6.0763700E+00 6.0431950E-01 1.8032056E+00
 6.1514787E+00 6.1683249E-01 1.8117447E+00
 6.2278126E+00 6.3052574E-01 1.8197678E+00
 6.3050037E+00 6.4554016E-01 1.8269976E+00
 6.3826320E+00 6.6199859E-01 1.8331436E+00
 6.4602323E+00 6.7999950E-01 1.8379095E+00
 6.5373072E+00 6.9961158E-01 1.8410010E+00
 6.6133446E+00 7.2086806E-01 1.8421362E+00
 6.6878370E+00 7.4376206E-01 1.8410571E+00
 6.7603013E+00 7.6824298E-01 1.8375440E+00
 6.8302933E+00 7.9421588E-01 1.8314287E+00
 6.8974165E+00 8.2154343E-01 1.8226066E+00
 6.9613217E+00 8.5005001E-01 1.8110444E+00
 7.0217025E+00 8.7952918E-01 1.7967868E+00
 7.0782606E+00 9.0973354E-01 1.7799697E+00
 7.1307335E+00 9.4038697E-01 1.7608054E+00
 7.1787772E+00 9.7104978E-01 1.7396443E+00
 5.6735893E+00 1.4224423E+00 1.7719999E+00
 5.7376095E+00 1.4121241E+00 1.7798669E+00
 5.8039944E+00 1.4018033E+00 1.7880130E+00
 5.8724459E+00 1.3911034E+00 1.7964739E+00
 5.9429326E+00 1.3797421E+00 1.8052003E+00
 6.0152700E+00 1.3675596E+00 1.8140204E+00
 6.0892389E+00 1.3544071E+00 1.8227183E+00
 6.1645659E+00 1.3401467E+00 1.8310431E+00
 6.2409183E+00 1.3246481E+00 1.8387199E+00
 6.3179083E+00 1.3077965E+00 1.8454590E+00
 6.3950976E+00 1.2894993E+00 1.8509622E+00
 6.4720094E+00 1.2696917E+00 1.8549320E+00
 6.5481424E+00 1.2483421E+00 1.8570791E+00
 6.6229901E+00 1.2254561E+00 1.8571342E+00
 6.6960606E+00 1.2010782E+00 1.8548598E+00
 6.7668942E+00 1.1752917E+00 1.8500639E+00
 6.8350771E+00 1.1482143E+00 1.8426118E+00
 6.9002506E+00 1.1199911E+00 1.8324342E+00
 6.9621193E+00 1.0907928E+00 1.8195276E+00
 7.0204955E+00 1.0608310E+00 1.8039334E+00
 7.0754169E+00 1.0303919E+00 1.7856738E+00
 7.1273595E+00 1.0000000E+00 1.7646228E+00
 5.6760647E+00 1.3895831E+00 1.7891589E+00
 5.7424728E+00 1.3773958E+00 1.7974371E+00
 5.8103527E+00 1.3655628E+00 1.8057360E+00
 5.8800338E+00 1.3533479E+00 1.8142709E+00
 5.9514739E+00 1.3404261E+00 1.8229772E+00
 6.0245851E+00 1.3265962E+00 1.8316883E+00
 6.0991570E+00 1.3117190E+00 1.8401677E+00
 6.1749079E+00 1.2956700E+00 1.8481471E+00
 6.2514855E+00 1.2783406E+00 1.8553354E+00
 6.3284802E+00 1.2596423E+00 1.8614308E+00
 6.4054349E+00 1.2395129E+00 1.8661289E+00
 6.4818596E+00 1.2179219E+00 1.8691320E+00
 6.5572484E+00 1.1948741E+00 1.8701581E+00
 6.6311005E+00 1.1704114E+00 1.8689532E+00
 6.7029400E+00 1.1446104E+00 1.8653025E+00
 6.7723361E+00 1.1175767E+00 1.8590432E+00
 6.8389191E+00 1.0894354E+00 1.8500704E+00
 6.9024132E+00 1.0603256E+00 1.8383330E+00
 6.9627136E+00 1.0304206E+00 1.8237997E+00
 7.0200628E+00 1.0000000E+00 1.8063717E+00
 7.0754169E+00 9.6960811E-01 1.7856738E+00
 5.6777209E+00 1.3550103E+00 1.8053597E+00
 5.7456315E+00 1.3413062E+00 1.8136611E+00
 5.8148861E+00 1.3279333E+00 1.8219680E+00
 5.8856936E+00 1.3141706E+00 1.8304312E+00
 5.9581034E+00 1.2996303E+00 1.8389873E+00
 6.0320142E+00 1.2841153E+00 1.8474448E+00
 6.1072200E+00 1.2674900E+00 1.8555510E+00
 6.1834191E+00 1.2496483E+00 1.8630189E+00
 6.2602380E+00 1.2305043E+00 1.8695436E+00
 6.3372451E+00 1.2099974E+00 1.8748142E+00
 6.4139658E+00 1.1880972E+00 1.8785229E+00
 6.4898997E+00 1.1648080E+00 1.8803762E+00
 6.5645402E+00 1.1401690E+00 1.8801041E+00
 6.6373975E+00 1.1142528E+00 1.8774721E+00
 6.7080210E+00 1.0871580E+00 1.8722913E+00
 6.7760249E+00 1.0589982E+00 1.8644251E+00
 6.8411291E+00 1.0298951E+00 1.8537838E+00
 6.9032510E+00 1.0000000E+00 1.8402924E+00
 6.9627136E+00 9.6957940E-01 1.8237997E+00
 7.0204955E+00 9.3916908E-01 1.8039334E+00
 5.6790525E+00 1.3186745E+00 1.8204673E+00
 5.7481923E+00 1.3035631E+00 1.8285868E+00
 5.8185949E+00 1.2887009E+00 1.8367189E+00
 5.8904137E+00 1.2733738E+00 1.8449561E+00
 5.9636798E+00 1.2572057E+00 1.8531978E+00
 6.0382878E+00 1.2400038E+00 1.8612305E+00
 6.1140115E+00 1.2216497E+00 1.8687810E+00
 6.1905299E+00 1.2020570E+00 1.8755478E+00
 6.2674474E+00 1.1811659E+00 1.8812152E+00
 6.3443137E+00 1.1589459E+00 1.8854679E+00
 6.4206417E+00 1.1353995E+00 1.8880009E+00
 6.4959273E+00 1.1105635E+00 1.8885307E+00
 6.5696718E+00 1.0845069E+00 1.8868050E+00
 6.6414080E+00 1.0573229E+00 1.8826129E+00
 6.7107291E+00 1.0291172E+00 1.8757900E+00
 6.7773347E+00 1.0000000E+00 1.8662156E+00
 6.8411291E+00 9.7010497E-01 1.8537838E+00
 6.9024132E+00 9.3967448E-01 1.8383330E+00
 6.9621193E+00 9.0920727E-01 1.8195276E+00
 5.6802501E+00 1.2805497E+00 1.8343196E+00
 5.7504757E+00 1.2641066E+00 1.8420888E+00
 5.8218614E+00 1.2477862E+00 1.8498801E+00
 5.8945270E+00 1.2309122E+00 1.8577215E+00
 5.9684822E+00 1.2131358E+00 1.8654720E+00
 6.0436040E+00 1.1942850E+00 1.8728930E+00
 6.1196471E+00 1.1742619E+00 1.8796948E+00
 6.1962701E+00 1.1530052E+00 1.8855643E+00
 6.2730592E+00 1.1304834E+00 1.8901809E+00
 6.3495514E+00 1.1066972E+00 1.8932311E+00
 6.4252546E+00 1.0816805E+00 1.8944192E+00
 6.4996711E+00 1.0554982E+00 1.8934783E+00
 6.5723229E+00 1.0282383E+00 1.8901781E+00
 6.6427844E+00 1.0000000E+00 1.8843313E+00
 6.7107291E+00 9.7088278E-01 1.8757900E+00
 6.7760249E+00 9.4100183E-01 1.8644250E+00
 6.8389191E+00 9.1056466E-01 1.8500704E+00
 6.9002506E+00 8.8000896E-01 1.8324342E+00
 5.6813495E+00 1.2407111E+00 1.8467156E+00
 5.7525235E+00 1.2229968E+00 1.8539811E+00
 5.8247264E+00 1.2052564E+00 1.8612688E+00
 5.8980525E+00 1.1868753E+00 1.8685408E+00
 5.9724933E+00 1.1675439E+00 1.8756174E+00
 6.0479081E+00 1.1471185E+00 1.8822377E+00
 6.1240335E+00 1.1255269E+00 1.8880994E+00
 6.2005114E+00 1.1027352E+00 1.8928838E+00
 6.2769158E+00 1.0787420E+00 1.8962713E+00
 6.3527787E+00 1.0535777E+00 1.8979572E+00
 6.4276131E+00 1.0273028E+00 1.8976611E+00
 6.5009408E+00 1.0000000E+00 1.8951373E+00
 6.5723229E+00 9.7176168E-01 1.8901781E+00
 6.6414080E+00 9.4267715E-01 1.8826129E+00
 6.7080210E+00 9.1284204E-01 1.8722913E+00
 6.7723361E+00 8.8242335E-01 1.8590432E+00
 6.8350771E+00 8.5178573E-01 1.8426118E+00
 5.6823257E+00 1.1993071E+00 1.8574441E+00
 5.7542924E+00 1.1803832E+00 1.8640602E+00
 5.8271287E+00 1.1612815E+00 1.8706827E+00
 5.9009105E+00 1.1414613E+00 1.8772124E+00
 5.9756144E+00 1.1206623E+00 1.8834350E+00
 6.0510837E+00 1.0987740E+00 1.8890728E+00
 6.1270410E+00 1.0757530E+00 1.8938162E+00
 6.2031169E+00 1.0515943E+00 1.8973467E+00
 6.2788807E+00 1.0263247E+00 1.8993530E+00
 6.3538690E+00 1.0000000E+00 1.8995446E+00
 6.4276131E+00 9.7269727E-01 1.8976612E+00
 6.4996711E+00 9.4450184E-01 1.8934783E+00
 6.5696718E+00 9.1549310E-01 1.8868050E+00
 6.6373975E+00 8.8574726E-01 1.8774721E+00
 6.7029400E+00 8.5538966E-01 1.8653025E+00
 6.7668942E+00 8.2470829E-01 1.8500638E+00
 5.6831458E+00 1.1565375E+00 1.8663051E+00
 5.7557272E+00 1.1364849E+00 1.8721317E+00
 5.8289965E+00 1.1161068E+00 1.8779321E+00
 5.9030162E+00 1.0949478E+00 1.8835530E+00
 5.9777504E+00 1.0728036E+00 1.8887524E+00
 6.0530308E+00 1.0496006E+00 1.8932418E+00
 6.1285704E+00 1.0253253E+00 1.8967104E+00
 6.2039958E+00 1.0000000E+00 1.8988468E+00
 6.2788807E+00 9.7367534E-01 1.8993530E+00
 6.3527787E+00 9.4642237E-01 1.8979572E+00
 6.4252546E+00 9.1831954E-01 1.8944192E+00
 6.4959273E+00 8.8943649E-01 1.8885307E+00
 6.5645402E+00 8.5983108E-01 1.8801041E+00
 6.6311005E+00 8.2958864E-01 1.8689532E+00
 6.6960606E+00 7.9892186E-01 1.8548598E+00
 5.6837832E+00 1.1126494E+00 1.8731217E+00
 5.7567832E+00 1.0915744E+00 1.8780278E+00
 5.8302730E+00 1.0700345E+00 1.8828594E+00
 5.9043053E+00 1.0476698E+00 1.8874185E+00
 5.9788350E+00 1.0243367E+00 1.8914441E+00
 6.0536867E+00 1.0000000E+00 1.8946431E+00
 6.1285704E+00 9.7467470E-01 1.8967104E+00
 6.2031169E+00 9.4840577E-01 1.8973467E+00
 6.2769158E+00 9.2125806E-01 1.8962713E+00
 6.3495514E+00 8.9330286E-01 1.8932312E+00
 6.4206417E+00 8.6460055E-01 1.8880009E+00
 6.4898997E+00 8.3519206E-01 1.8803762E+00
 6.5572484E+00 8.0512590E-01 1.8701581E+00
 6.6229901E+00 7.7454395E-01 1.8571342E+00
 5.6842186E+00 1.0679309E+00 1.8777507E+00
 5.7574291E+00 1.0459654E+00 1.8816196E+00
 5.8309206E+00 1.0234074E+00 1.8853521E+00
 5.9047393E+00 1.0000000E+00 1.8887175E+00
 5.9788350E+00 9.7566333E-01 1.8914441E+00
 6.0530308E+00 9.5039939E-01 1.8932418E+00
 6.1270410E+00 9.2424706E-01 1.8938162E+00
 6.2005114E+00 8.9726480E-01 1.8928838E+00
 6.2730592E+00 8.6951666E-01 1.8901809E+00
 6.3443137E+00 8.4105412E-01 1.8854679E+00
 6.4139658E+00 8.1190279E-01 1.8785229E+00
 6.4818596E+00 7.8207817E-01 1.8691320E+00
 6.5481424E+00 7.5165789E-01 1.8570791E+00
 5.6844394E+00 1.0227012E+00 1.8800913E+00
 5.7576465E+00 1.0000000E+00 1.8828260E+00
 5.8309206E+00 9.7659261E-01 1.8853521E+00
 5.9043053E+00 9.5233024E-01 1.8874185E+00
 5.9777504E+00 9.2719641E-01 1.8887524E+00
 6.0510837E+00 9.0122607E-01 1.8890728E+00
 6.1240335E+00 8.7447313E-01 1.8880994E+00
 6.1962700E+00 8.4699484E-01 1.8855643E+00
 6.2674474E+00 8.1883410E-01 1.8812152E+00
 6.3372451E+00 7.9000266E-01 1.8748142E+00
 6.4054349E+00 7.6048717E-01 1.8661289E+00
 6.4720094E+00 7.3030832E-01 1.8549320E+00
 5.6844394E+00 9.7729888E-01 1.8800913E+00
 5.7574291E+00 9.5403462E-01 1.8816196E+00
 5.8302730E+00 9.2996549E-01 1.8828593E+00
 5.9030162E+00 9.0505222E-01 1.8835529E+00
 5.9756144E+00 8.7933778E-01 1.8834350E+00
 6.0479081E+00 8.5288152E-01 1.8822377E+00
 6.1196471E+00 8.2573811E-01 1.8796948E+00
 6.1905299E+00 7.9794305E-01 1.8755479E+00
 6.2602380E+00 7.6949571E-01 1.8695436E+00
 6.3284802E+00 7.4035773E-01 1.8614309E+00
 6.3950975E+00 7.1050076E-01 1.8509622E+00
 5.6842186E+00 9.3206918E-01 1.8777507E+00
 5.7567832E+00 9.0842567E-01 1.8780278E+00
 5.8289965E+00 8.8389324E-01 1.8779321E+00
 5.9009105E+00 8.5853873E-01 1.8772124E+00
 5.9724933E+00 8.3245611E-01 1.8756174E+00
 6.0436040E+00 8.0571501E-01 1.8728930E+00
 6.1140115E+00 7.7835036E-01 1.8687810E+00
 6.1834191E+00 7.5035168E-01 1.8630189E+00
 6.2514855E+00 7.2165940E-01 1.8553354E+00
 6.3179083E+00 6.9220352E-01 1.8454590E+00
 5.6837832E+00 8.8735067E-01 1.8731217E+00
 5.7557272E+00 8.6351518E-01 1.8721317E+00
 5.8271287E+00 8.3871853E-01 1.8706827E+00
 5.8980525E+00 8.1312473E-01 1.8685408E+00
 5.9684822E+00 7.8686424E-01 1.8654720E+00
 6.0382878E+00 7.5999624E-01 1.8612305E+00
 6.1072200E+00 7.3251007E-01 1.8555510E+00
 6.1749079E+00 7.0433003E-01 1.8481471E+00
 6.2409183E+00 6.7535196E-01 1.8387199E+00
 5.6831458E+00 8.4346255E-01 1.8663051E+00
 5.7542924E+00 8.1961683E-01 1.8640602E+00
 5.8247264E+00 7.9474360E-01 1.8612688E+00
 5.8945270E+00 7.6908787E-01 1.8577215E+00
 5.9636798E+00 7.4279434E-01 1.8531978E+00
 6.0320142E+00 7.1588477E-01 1.8474448E+00
 6.0991570E+00 6.8828099E-01 1.8401678E+00
 6.1645659E+00 6.5985332E-01 1.8310431E+00
 5.6823257E+00 8.0069294E-01 1.8574441E+00
 5.7525235E+00 7.7700326E-01 1.8539811E+00
 5.8218614E+00 7.5221380E-01 1.8498801E+00
 5.8904137E+00 7.2662628E-01 1.8449561E+00
 5.9581034E+00 7.0036969E-01 1.8389873E+00
 6.0245851E+00 6.7340379E-01 1.8316883E+00
 6.0892389E+00 6.4559290E-01 1.8227184E+00
 5.6813495E+00 7.5928896E-01 1.8467155E+00
 5.7504757E+00 7.3589341E-01 1.8420888E+00
 5.8185949E+00 7.1129915E-01 1.8367188E+00
 5.8856936E+00 6.8582948E-01 1.8304312E+00
 5.9514739E+00 6.5957393E-01 1.8229772E+00
 6.0152700E+00 6.3244038E-01 1.8140204E+00
 5.6802501E+00 7.1945035E-01 1.8343195E+00
 5.7481923E+00 6.9643696E-01 1.8285867E+00
 5.8148861E+00 6.7206670E-01 1.8219679E+00
 5.8800338E+00 6.4665217E-01 1.8142709E+00
 5.9429326E+00 6.2025793E-01 1.8052003E+00
 5.6790525E+00 6.8132556E-01 1.8204673E+00
 5.7456315E+00 6.5869388E-01 1.8136610E+00
 5.8103527E+00 6.3443726E-01 1.8057360E+00
 5.8724459E+00 6.0889659E-01 1.7964739E+00
 5.6777209E+00 6.4498976E-01 1.8053597E+00
 5.7424728E+00 6.2260428E-01 1.7974371E+00
 5.8039944E+00 5.9819669E-01 1.7880130E+00
 5.6760648E+00 6.1041695E-01 1.7891589E+00
 5.7376095E+00 5.8787590E-01 1.7798669E+00
 5.6735893E+00 5.7755772E-01 1.7719999E+00
 5.5759054E+00 1.4831728E+00 1.7328755E+00
 5.5373987E+00 1.5064972E+00 1.7163607E+00
 5.4972263E+00 1.5304694E+00 1.6984777E+00
 5.4555658E+00 1.5549800E+00 1.6791921E+00
 5.4125361E+00 1.5799454E+00 1.6584572E+00
 5.3683880E+00 1.6052665E+00 1.6362206E+00
 5.3233639E+00 1.6308423E+00 1.6124115E+00
 5.2777333E+00 1.6565430E+00 1.5869594E+00
 5.2318021E+00 1.6822061E+00 1.5597992E+00
 5.1859077E+00 1.7076323E+00 1.5308801E+00
 5.1404072E+00 1.7325871E+00 1.5001738E+00
 5.0956627E+00 1.7568075E+00 1.4676843E+00
 5.0520258E+00 1.7800120E+00 1.4334557E+00
 5.0098238E+00 1.8019147E+00 1.3975801E+00
 4.9693474E+00 1.8222411E+00 1.3602001E+00
 4.9308421E+00 1.8407441E+00 1.3215078E+00
 4.8945034E+00 1.8572182E+00 1.2817380E+00
 4.8604771E+00 1.8715099E+00 1.2411578E+00
 4.8288665E+00 1.8835225E+00 1.2000561E+00
 4.7997523E+00 1.8932158E+00 1.1587334E+00
 4.7732200E+00 1.9006003E+00 1.1175170E+00
 4.7493250E+00 1.9057364E+00 1.0767220E+00
 4.7281372E+00 1.9087279E+00 1.0368690E+00
 4.0239135E+00 1.0859339E+00 1.7466773E+00
 4.0152633E+00 1.1419536E+00 1.7326505E+00
 4.0095863E+00 1.1992069E+00 1.7155142E+00
 4.0077986E+00 1.2577172E+00 1.6954314E+00
 4.0104423E+00 1.3171262E+00 1.6723949E+00
 4.0178993E+00 1.3768792E+00 1.6463926E+00
 4.0304452E+00 1.4363066E+00 1.6174639E+00
 4.0482594E+00 1.4946676E+00 1.5857315E+00
 4.0714070E+00 1.5511794E+00 1.5514131E+00
 4.0998180E+00 1.6050548E+00 1.5148221E+00
 4.1332756E+00 1.6555450E+00 1.4763595E+00
 4.1714169E+00 1.7019855E+00 1.4364986E+00
 4.2137464E+00 1.7438379E+00 1.3957642E+00
 4.2596615E+00 1.7807235E+00 1.3547059E+00
 4.3084886E+00 1.8124455E+00 1.3138692E+00
 4.3595250E+00 1.8389947E+00 1.2737663E+00
 4.4120817E+00 1.8605396E+00 1.2348517E+00
 4.4655221E+00 1.8774012E+00 1.1975022E+00
 4.5192809E+00 1.8900161E+00 1.1620052E+00
 4.5728743E+00 1.8988978E+00 1.1285310E+00
 4.6258849E+00 1.9046015E+00 1.0970512E+00
 4.6778609E+00 1.9076934E+00 1.0671802E+00
 4.0738062E+00 1.1200005E+00 1.7712250E+00
 4.0682254E+00 1.1779639E+00 1.7569157E+00
 4.0654688E+00 1.2362027E+00 1.7392950E+00
 4.0666168E+00 1.2950578E+00 1.7185898E+00
 4.0722580E+00 1.3542991E+00 1.6948247E+00
 4.0827321E+00 1.4134066E+00 1.6679956E+00
 4.0982431E+00 1.4717106E+00 1.6381574E+00
 4.1188858E+00 1.5284616E+00 1.6054611E+00
 4.1446353E+00 1.5828825E+00 1.5701629E+00
 4.1753319E+00 1.6342159E+00 1.5326198E+00
 4.2106763E+00 1.6817722E+00 1.4932765E+00
 4.2502380E+00 1.7249740E+00 1.4526456E+00
 4.2934764E+00 1.7633938E+00 1.4112819E+00
 4.3397729E+00 1.7967796E+00 1.3697528E+00
 4.3884710E+00 1.8250653E+00 1.3286070E+00
 4.4389195E+00 1.8483656E+00 1.2883453E+00
 4.4905129E+00 1.8669543E+00 1.2493952E+00
 4.5427242E+00 1.8812317E+00 1.2120829E+00
 4.5951147E+00 1.8916890E+00 1.1765787E+00
 4.6472958E+00 1.8988755E+00 1.1427857E+00
 4.6989001E+00 1.9033719E+00 1.1100304E+00
 4.1283697E+00 1.1527576E+00 1.7931479E+00
 4.1256698E+00 1.2115790E+00 1.7782937E+00
 4.1257961E+00 1.2702727E+00 1.7600327E+00
 4.1298460E+00 1.3291178E+00 1.7385653E+00
 4.1384054E+00 1.3878936E+00 1.7139222E+00
 4.1517625E+00 1.4460750E+00 1.6861159E+00
 4.1700487E+00 1.5029829E+00 1.6552308E+00
 4.1932774E+00 1.5578693E+00 1.6214581E+00
 4.2213393E+00 1.6099788E+00 1.5851013E+00
 4.2539948E+00 1.6586030E+00 1.5465669E+00
 4.2908766E+00 1.7031294E+00 1.5063461E+00
 4.3315056E+00 1.7430828E+00 1.4649895E+00
 4.3753189E+00 1.7781561E+00 1.4230778E+00
 4.4217068E+00 1.8082256E+00 1.3811880E+00
 4.4700547E+00 1.8333495E+00 1.3398613E+00
 4.5197858E+00 1.8537518E+00 1.2995716E+00
 4.5703962E+00 1.8697927E+00 1.2606887E+00
 4.6214628E+00 1.8819364E+00 1.2234189E+00
 4.6726079E+00 1.8907263E+00 1.1876586E+00
 4.7234032E+00 1.8967550E+00 1.1527877E+00
 4.1873381E+00 1.1844733E+00 1.8118814E+00
 4.1874018E+00 1.2434907E+00 1.7962545E+00
 4.1903542E+00 1.3021155E+00 1.7771737E+00
 4.1972555E+00 1.3605177E+00 1.7547945E+00
 4.2086363E+00 1.4184231E+00 1.7291452E+00
 4.2247177E+00 1.4752866E+00 1.7002626E+00
 4.2455547E+00 1.5304260E+00 1.6682711E+00
 4.2710818E+00 1.5831114E+00 1.6334109E+00
 4.3011139E+00 1.6326310E+00 1.5960377E+00
 4.3353456E+00 1.6783475E+00 1.5566080E+00
 4.3733612E+00 1.7197446E+00 1.5156554E+00
 4.4146575E+00 1.7564626E+00 1.4737608E+00
 4.4586761E+00 1.7883190E+00 1.4315180E+00
 4.5048436E+00 1.8153131E+00 1.3894989E+00
 4.5526135E+00 1.8376128E+00 1.3482174E+00
 4.6015018E+00 1.8555307E+00 1.3080898E+00
 4.6510985E+00 1.8694962E+00 1.2693673E+00
 4.7010194E+00 1.8800340E+00 1.2320083E+00
 4.7507916E+00 1.8877430E+00 1.1954844E+00
 4.2504229E+00 1.2149990E+00 1.8270039E+00
 4.2531518E+00 1.2737179E+00 1.8104084E+00
 4.2588653E+00 1.3318042E+00 1.7903512E+00