# TIME = 1.000000
VARIABLES = X, Y, Z, FX, FY, FZ
ZONE N=29232 E=58212 F=FEPOINT ET=TRIANGLE
  0.000E+00  9.502E-01  1.243E-03 3.3550039E+00 5.9882095E-02 1.2042563E+00
  0.000E+00  1.000E+00  0.000E+00 3.3535899E+00 6.4970434E-06 1.2057927E+00
  4.318E-02  9.751E-01  3.108E-04 3.3533916E+00 2.9347728E-02 1.1814859E+00
  0.000E+00  1.050E+00  1.243E-03 3.3550039E+00 -5.9869114E-02 1.2042570E+00
  4.318E-02  1.025E+00  3.108E-04 3.3533915E+00 -2.9334751E-02 1.1814862E+00
  0.000E+00  1.100E+00  4.969E-03 3.3604925E+00 -1.1980029E-01 1.1997717E+00
  4.318E-02  1.075E+00  2.796E-03 3.3568099E+00 -8.8042376E-02 1.1785133E+00
  0.000E+00  1.149E+00  1.117E-02 3.3724220E+00 -1.7979592E-01 1.1925363E+00
  4.318E-02  1.124E+00  7.761E-03 3.3656879E+00 -1.4682820E-01 1.1727529E+00
  0.000E+00  1.198E+00  1.983E-02 3.3902018E+00 -2.3946616E-01 1.1824188E+00
  4.318E-02  1.174E+00  1.519E-02 3.3812550E+00 -2.0555520E-01 1.1642909E+00
  0.000E+00  1.247E+00  3.092E-02 3.4067387E+00 -2.9802434E-01 1.1689598E+00
  4.318E-02  1.223E+00  2.507E-02 3.3995249E+00 -2.6359373E-01 1.1527981E+00
  0.000E+00  1.295E+00  4.443E-02 3.4137731E+00 -3.5527984E-01 1.1521962E+00
  4.318E-02  1.271E+00  3.738E-02 3.4113611E+00 -3.2028828E-01 1.1379073E+00
  0.000E+00  1.342E+00  6.031E-02 3.4248886E+00 -4.1206150E-01 1.1329496E+00
  4.318E-02  1.318E+00  5.207E-02 3.4145256E+00 -3.7606442E-01 1.1201598E+00
  0.000E+00  1.388E+00  7.852E-02 3.4589304E+00 -4.6845984E-01 1.1113504E+00
  4.318E-02  1.365E+00  6.913E-02 3.4433868E+00 -4.3164595E-01 1.1002299E+00
  0.000E+00  1.434E+00  9.903E-02 3.4670389E+00 -5.2332949E-01 1.0865993E+00
  4.318E-02  1.411E+00  8.849E-02 3.4693372E+00 -4.8627487E-01 1.0775620E+00
  0.000E+00  1.478E+00  1.218E-01 3.4847733E+00 -5.7668925E-01 1.0590404E+00
  4.318E-02  1.456E+00  1.101E-01 3.4665985E+00 -5.3924214E-01 1.0518293E+00
  0.000E+00  1.521E+00  1.467E-01 3.5107129E+00 -6.2881633E-01 1.0290398E+00
  4.318E-02  1.500E+00  1.340E-01 3.5010283E+00 -5.9096460E-01 1.0236373E+00
  0.000E+00  1.563E+00  1.738E-01 3.5072295E+00 -6.7933208E-01 9.9640821E-01
  4.318E-02  1.543E+00  1.600E-01 3.5001767E+00 -6.4130807E-01 9.9294946E-01
  0.000E+00  1.604E+00  2.029E-01 3.5284780E+00 -7.2814361E-01 9.6129671E-01
  4.318E-02  1.584E+00  1.881E-01 3.5317650E+00 -6.8998229E-01 9.5972135E-01
  0.000E+00  1.643E+00  2.340E-01 3.5359992E+00 -7.7516389E-01 9.2381598E-01
  4.318E-02  1.623E+00  2.182E-01 3.5221423E+00 -7.3697068E-01 9.2414329E-01
  0.000E+00  1.680E+00  2.669E-01 3.5373937E+00 -8.2024543E-01 8.8402626E-01
  4.318E-02  1.662E+00  2.502E-01 3.5388278E+00 -7.8211891E-01 8.8626052E-01
  0.000E+00  1.716E+00  3.018E-01 3.5386581E+00 -8.6329185E-01 8.4204056E-01
  4.318E-02  1.698E+00  2.841E-01 3.5386669E+00 -8.2532264E-01 8.4617188E-01
  0.000E+00  1.750E+00  3.383E-01 3.5388190E+00 -9.0419240E-01 7.9796257E-01
  4.318E-02  1.733E+00  3.198E-01 3.5374024E+00 -8.6647548E-01 8.0397985E-01
  0.000E+00  1.782E+00  3.765E-01 3.5221335E+00 -9.4284266E-01 7.5190083E-01
  4.318E-02  1.766E+00  3.572E-01 3.5360079E+00 -9.0547621E-01 7.5979325E-01
  0.000E+00  1.812E+00  4.163E-01 3.5317564E+00 -9.7914174E-01 7.0396181E-01
  4.318E-02  1.797E+00  3.962E-01 3.5284868E+00 -9.4221389E-01 7.1370647E-01
  0.000E+00  1.840E+00  4.575E-01 3.5001681E+00 -1.0130429E+00 6.5430255E-01
  4.318E-02  1.826E+00  4.367E-01 3.5072384E+00 -9.7662943E-01 6.6586398E-01
  0.000E+00  1.866E+00  5.000E-01 3.5010197E+00 -1.0443520E+00 6.0294006E-01
  4.318E-02  1.853E+00  4.786E-01 3.5107216E+00 -1.0086134E+00 6.1635067E-01
  0.000E+00  1.890E+00  5.438E-01 3.4665900E+00 -1.0731156E+00 5.5017071E-01
  4.318E-02  1.878E+00  5.217E-01 3.4847818E+00 -1.0380193E+00 5.6525806E-01
  0.000E+00  1.912E+00  5.887E-01 3.4693289E+00 -1.0993701E+00 4.9613169E-01
  4.318E-02  1.901E+00  5.661E-01 3.4670474E+00 -1.0650323E+00 5.1295743E-01
  0.000E+00  1.931E+00  6.347E-01 3.4433784E+00 -1.1224978E+00 4.4039728E-01
  4.318E-02  1.921E+00  6.116E-01 3.4589390E+00 -1.0892930E+00 4.5917703E-01
  0.000E+00  1.948E+00  6.815E-01 3.4145170E+00 -1.1428318E+00 3.8369080E-01
  4.318E-02  1.940E+00  6.580E-01 3.4248973E+00 -1.1104647E+00 4.0389809E-01
  0.000E+00  1.963E+00  7.292E-01 3.4113524E+00 -1.1609389E+00 3.2678560E-01
  4.318E-02  1.956E+00  7.052E-01 3.4137816E+00 -1.1293296E+00 3.4824312E-01
  0.000E+00  1.975E+00  7.775E-01 3.3995162E+00 -1.1761314E+00 2.6894329E-01
  4.318E-02  1.969E+00  7.532E-01 3.4067469E+00 -1.1457606E+00 2.9212363E-01
  0.000E+00  1.985E+00  8.264E-01 3.3812464E+00 -1.1878578E+00 2.0972977E-01
  4.318E-02  1.980E+00  8.019E-01 3.3902097E+00 -1.1589532E+00 2.3472743E-01
  0.000E+00  1.992E+00  8.757E-01 3.3656794E+00 -1.1964919E+00 1.4981393E-01
  4.318E-02  1.989E+00  8.510E-01 3.3724299E+00 -1.1688710E+00 1.7624131E-01
  0.000E+00  1.997E+00  9.253E-01 3.3568016E+00 -1.2023698E+00 8.9838129E-02
  4.318E-02  1.995E+00  9.004E-01 3.3605006E+00 -1.1759637E+00 1.1743625E-01
  0.000E+00  2.000E+00  9.751E-01 3.3533833E+00 -1.2054037E+00 2.9942150E-02
  4.318E-02  1.999E+00  9.502E-01 3.3550121E+00 -1.1803609E+00 5.8694331E-02
  0.000E+00  2.000E+00  1.025E+00 3.3533833E+00 -1.2054040E+00 -2.9928183E-02
  4.318E-02  2.000E+00  1.000E+00 3.3535982E+00 -1.1818669E+00 6.8337129E-06
  0.000E+00  1.997E+00  1.075E+00 3.3568017E+00 -1.2023707E+00 -8.9824193E-02
  4.318E-02  1.999E+00  1.050E+00 3.3550122E+00 -1.1803616E+00 -5.8680675E-02
  0.000E+00  1.992E+00  1.124E+00 3.3656796E+00 -1.1964936E+00 -1.4980005E-01
  4.318E-02  1.995E+00  1.100E+00 3.3605007E+00 -1.1759650E+00 -1.1742264E-01
  0.000E+00  1.985E+00  1.174E+00 3.3812467E+00 -1.1878602E+00 -2.0971599E-01
  4.318E-02  1.989E+00  1.149E+00 3.3724300E+00 -1.1688730E+00 -1.7622776E-01
  0.000E+00  1.975E+00  1.223E+00 3.3995166E+00 -1.1761348E+00 -2.6892962E-01
  4.318E-02  1.980E+00  1.198E+00 3.3902099E+00 -1.1589561E+00 -2.3471398E-01
  0.000E+00  1.963E+00  1.271E+00 3.4113528E+00 -1.1609427E+00 -3.2677206E-01
  4.318E-02  1.969E+00  1.247E+00 3.4067471E+00 -1.1457643E+00 -2.9211030E-01
  0.000E+00  1.948E+00  1.318E+00 3.4145174E+00 -1.1428359E+00 -3.8367742E-01
  4.318E-02  1.956E+00  1.295E+00 3.4137819E+00 -1.1293335E+00 -3.4822994E-01
  0.000E+00  1.931E+00  1.365E+00 3.4433788E+00 -1.1225030E+00 -4.4038410E-01
  4.318E-02  1.940E+00  1.342E+00 3.4248977E+00 -1.1104692E+00 -4.0388509E-01
  0.000E+00  1.912E+00  1.411E+00 3.4693294E+00 -1.0993761E+00 -4.9611874E-01
  4.318E-02  1.921E+00  1.388E+00 3.4589395E+00 -1.0892987E+00 -4.5916424E-01
  0.000E+00  1.890E+00  1.456E+00 3.4665905E+00 -1.0731216E+00 -5.5015799E-01
  4.318E-02  1.901E+00  1.434E+00 3.4670479E+00 -1.0650382E+00 -5.1294487E-01
  0.000E+00  1.866E+00  1.500E+00 3.5010202E+00 -1.0443592E+00 -6.0292763E-01
  4.318E-02  1.878E+00  1.478E+00 3.4847824E+00 -1.0380259E+00 -5.6524577E-01
  0.000E+00  1.840E+00  1.543E+00 3.5001687E+00 -1.0130504E+00 -6.5429042E-01
  4.318E-02  1.853E+00  1.521E+00 3.5107222E+00 -1.0086209E+00 -6.1633868E-01
  0.000E+00  1.812E+00  1.584E+00 3.5317571E+00 -9.7914978E-01 -7.0395002E-01
  4.318E-02  1.826E+00  1.563E+00 3.5072390E+00 -9.7663708E-01 -6.6585230E-01
  0.000E+00  1.782E+00  1.623E+00 3.5221343E+00 -9.4285126E-01 -7.5188940E-01
  4.318E-02  1.797E+00  1.604E+00 3.5284875E+00 -9.4222232E-01 -7.1369515E-01
  0.000E+00  1.750E+00  1.662E+00 3.5388198E+00 -9.0420143E-01 -7.9795153E-01
  4.318E-02  1.766E+00  1.643E+00 3.5360086E+00 -9.0548500E-01 -7.5978231E-01
  0.000E+00  1.716E+00  1.698E+00 3.5386589E+00 -8.6330138E-01 -8.4202994E-01
  4.318E-02  1.733E+00  1.680E+00 3.5374031E+00 -8.6648483E-01 -8.0396933E-01
  0.000E+00  1.680E+00  1.733E+00 3.5373945E+00 -8.2025537E-01 -8.8401609E-01
  4.318E-02  1.698E+00  1.716E+00 3.5386677E+00 -8.2533237E-01 -8.4616179E-01
  0.000E+00  1.643E+00  1.766E+00 3.5360000E+00 -7.7517425E-01 -9.2380630E-01
  4.318E-02  1.662E+00  1.750E+00 3.5388286E+00 -7.8212908E-01 -8.8625089E-01
  0.000E+00  1.604E+00  1.797E+00 3.5284789E+00 -7.2815434E-01 -9.6128753E-01
  4.318E-02  1.623E+00  1.782E+00 3.5221431E+00 -7.3698123E-01 -9.2413413E-01
  0.000E+00  1.563E+00  1.826E+00 3.5072305E+00 -6.7934315E-01 -9.9639953E-01
  4.318E-02  1.584E+00  1.812E+00 3.5317658E+00 -6.8999322E-01 -9.5971271E-01
  0.000E+00  1.521E+00  1.853E+00 3.5107139E+00 -6.2882769E-01 -1.0290316E+00
  4.318E-02  1.543E+00  1.840E+00 3.5001775E+00 -6.4131931E-01 -9.9294139E-01
  0.000E+00  1.478E+00  1.878E+00 3.4847741E+00 -5.7670090E-01 -1.0590329E+00
  4.318E-02  1.500E+00  1.866E+00 3.5010292E+00 -5.9097618E-01 -1.0236298E+00
  0.000E+00  1.434E+00  1.901E+00 3.4670396E+00 -5.2334146E-01 -1.0865924E+00
  4.318E-02  1.456E+00  1.890E+00 3.4665996E+00 -5.3925394E-01 -1.0518224E+00
  0.000E+00  1.388E+00  1.921E+00 3.4589313E+00 -4.6847210E-01 -1.1113441E+00
  4.318E-02  1.411E+00  1.912E+00 3.4693383E+00 -4.8628690E-01 -1.0775557E+00
  0.000E+00  1.342E+00  1.940E+00 3.4248898E+00 -4.1207388E-01 -1.1329439E+00
  4.318E-02  1.365E+00  1.931E+00 3.4433876E+00 -4.3165822E-01 -1.1002241E+00
  0.000E+00  1.295E+00  1.956E+00 3.4137745E+00 -3.5529227E-01 -1.1521911E+00
  4.318E-02  1.318E+00  1.948E+00 3.4145263E+00 -3.7607695E-01 -1.1201547E+00
  0.000E+00  1.247E+00  1.969E+00 3.4067400E+00 -2.9803688E-01 -1.1689553E+00
  4.318E-02  1.271E+00  1.963E+00 3.4113618E+00 -3.2030099E-01 -1.1379030E+00
  0.000E+00  1.198E+00  1.980E+00 3.3902027E+00 -2.3947892E-01 -1.1824150E+00
  4.318E-02  1.223E+00  1.975E+00 3.3995258E+00 -2.6360652E-01 -1.1527944E+00
  0.000E+00  1.149E+00  1.989E+00 3.3724227E+00 -1.7980889E-01 -1.1925332E+00
  4.318E-02  1.174E+00  1.985E+00 3.3812560E+00 -2.0556802E-01 -1.1642879E+00
  0.000E+00  1.100E+00  1.995E+00 3.3604932E+00 -1.1981337E-01 -1.1997693E+00
  4.318E-02  1.124E+00  1.992E+00 3.3656890E+00 -1.4684106E-01 -1.1727505E+00
  0.000E+00  1.050E+00  1.999E+00 3.3550047E+00 -5.9882199E-02 -1.2042554E+00
  4.318E-02  1.075E+00  1.997E+00 3.3568110E+00 -8.8055291E-02 -1.1785116E+00
  0.000E+00  1.000E+00  2.000E+00 3.3535908E+00 -6.5046258E-06 -1.2057918E+00
  4.318E-02  1.025E+00  2.000E+00 3.3533926E+00 -2.9347727E-02 -1.1814852E+00
  0.000E+00  9.502E-01  1.999E+00 3.3550048E+00 5.9869202E-02 -1.2042561E+00
  4.318E-02  9.751E-01  2.000E+00 3.3533926E+00 2.9334706E-02 -1.1814856E+00
  0.000E+00  9.004E-01  1.995E+00 3.3604934E+00 1.1980042E-01 -1.1997707E+00
  4.318E-02  9.253E-01  1.997E+00 3.3568111E+00 8.8042298E-02 -1.1785126E+00
  0.000E+00  8.510E-01  1.989E+00 3.3724229E+00 1.7979601E-01 -1.1925353E+00
  4.318E-02  8.757E-01  1.992E+00 3.3656892E+00 1.4682812E-01 -1.1727523E+00
  0.000E+00  8.019E-01  1.980E+00 3.3902030E+00 2.3946613E-01 -1.1824177E+00
  4.318E-02  8.264E-01  1.985E+00 3.3812563E+00 2.0555516E-01 -1.1642903E+00
  0.000E+00  7.532E-01  1.969E+00 3.4067403E+00 2.9802421E-01 -1.1689588E+00
  4.318E-02  7.775E-01  1.975E+00 3.3995261E+00 2.6359377E-01 -1.1527975E+00
  0.000E+00  7.052E-01  1.956E+00 3.4137749E+00 3.5527975E-01 -1.1521952E+00
  4.318E-02  7.292E-01  1.963E+00 3.4113622E+00 3.2028838E-01 -1.1379067E+00
  0.000E+00  6.580E-01  1.940E+00 3.4248903E+00 4.1206154E-01 -1.1329486E+00
  4.318E-02  6.815E-01  1.948E+00 3.4145267E+00 3.7606450E-01 -1.1201592E+00
  0.000E+00  6.116E-01  1.921E+00 3.4589318E+00 4.6845996E-01 -1.1113494E+00
  4.318E-02  6.347E-01  1.931E+00 3.4433882E+00 4.3164597E-01 -1.1002292E+00
  0.000E+00  5.661E-01  1.901E+00 3.4670402E+00 5.2332957E-01 -1.0865984E+00
  4.318E-02  5.887E-01  1.912E+00 3.4693389E+00 4.8627486E-01 -1.0775614E+00
  0.000E+00  5.217E-01  1.878E+00 3.4847748E+00 5.7668926E-01 -1.0590394E+00
  4.318E-02  5.438E-01  1.890E+00 3.4666002E+00 5.3924216E-01 -1.0518287E+00
  0.000E+00  4.786E-01  1.853E+00 3.5107146E+00 6.2881634E-01 -1.0290388E+00
  4.318E-02  5.000E-01  1.866E+00 3.5010299E+00 5.9096465E-01 -1.0236367E+00
  0.000E+00  4.367E-01  1.826E+00 3.5072313E+00 6.7933213E-01 -9.9640724E-01
  4.318E-02  4.575E-01  1.840E+00 3.5001782E+00 6.4130812E-01 -9.9294882E-01
  0.000E+00  3.962E-01  1.797E+00 3.5284798E+00 7.2814366E-01 -9.6129576E-01
  4.318E-02  4.163E-01  1.812E+00 3.5317666E+00 6.8998234E-01 -9.5972068E-01
  0.000E+00  3.572E-01  1.766E+00 3.5360009E+00 7.7516395E-01 -9.2381503E-01
  4.318E-02  3.765E-01  1.782E+00 3.5221440E+00 7.3697073E-01 -9.2414262E-01
  0.000E+00  3.198E-01  1.733E+00 3.5373954E+00 8.2024548E-01 -8.8402530E-01
  4.318E-02  3.383E-01  1.750E+00 3.5388295E+00 7.8211896E-01 -8.8625986E-01
  0.000E+00  2.841E-01  1.698E+00 3.5386599E+00 8.6329189E-01 -8.4203959E-01
  4.318E-02  3.018E-01  1.716E+00 3.5386687E+00 8.2532269E-01 -8.4617122E-01
  0.000E+00  2.502E-01  1.662E+00 3.5388208E+00 9.0419245E-01 -7.9796160E-01
  4.318E-02  2.669E-01  1.680E+00 3.5374042E+00 8.6647553E-01 -8.0397919E-01
  0.000E+00  2.182E-01  1.623E+00 3.5221354E+00 9.4284270E-01 -7.5189987E-01
  4.318E-02  2.340E-01  1.643E+00 3.5360097E+00 9.0547627E-01 -7.5979259E-01
  0.000E+00  1.881E-01  1.584E+00 3.5317582E+00 9.7914178E-01 -7.0396084E-01
  4.318E-02  2.029E-01  1.604E+00 3.5284886E+00 9.4221395E-01 -7.1370580E-01
  0.000E+00  1.600E-01  1.543E+00 3.5001699E+00 1.0130429E+00 -6.5430159E-01
  4.318E-02  1.738E-01  1.563E+00 3.5072402E+00 9.7662948E-01 -6.6586331E-01
  0.000E+00  1.340E-01  1.500E+00 3.5010214E+00 1.0443521E+00 -6.0293910E-01
  4.318E-02  1.467E-01  1.521E+00 3.5107234E+00 1.0086135E+00 -6.1635000E-01
  0.000E+00  1.101E-01  1.456E+00 3.4665917E+00 1.0731157E+00 -5.5016975E-01
  4.318E-02  1.218E-01  1.478E+00 3.4847836E+00 1.0380194E+00 -5.6525738E-01
  0.000E+00  8.849E-02  1.411E+00 3.4693306E+00 1.0993702E+00 -4.9613073E-01
  4.318E-02  9.903E-02  1.434E+00 3.4670492E+00 1.0650323E+00 -5.1295675E-01
  0.000E+00  6.913E-02  1.365E+00 3.4433801E+00 1.1224978E+00 -4.4039631E-01
  4.318E-02  7.852E-02  1.388E+00 3.4589407E+00 1.0892930E+00 -4.5917635E-01
  0.000E+00  5.207E-02  1.318E+00 3.4145187E+00 1.1428319E+00 -3.8368983E-01
  4.318E-02  6.031E-02  1.342E+00 3.4248990E+00 1.1104647E+00 -4.0389741E-01
  0.000E+00  3.738E-02  1.271E+00 3.4113541E+00 1.1609389E+00 -3.2678464E-01
  4.318E-02  4.443E-02  1.295E+00 3.4137832E+00 1.1293296E+00 -3.4824244E-01
  0.000E+00  2.507E-02  1.223E+00 3.3995179E+00 1.1761315E+00 -2.6894233E-01
  4.318E-02  3.092E-02  1.247E+00 3.4067484E+00 1.1457606E+00 -2.9212295E-01
  0.000E+00  1.519E-02  1.174E+00 3.3812480E+00 1.1878578E+00 -2.0972881E-01
  4.318E-02  1.983E-02  1.198E+00 3.3902112E+00 1.1589532E+00 -2.3472675E-01
  0.000E+00  7.761E-03  1.124E+00 3.3656810E+00 1.1964920E+00 -1.4981296E-01
  4.318E-02  1.117E-02  1.149E+00 3.3724314E+00 1.1688710E+00 -1.7624063E-01
  0.000E+00  2.796E-03  1.075E+00 3.3568030E+00 1.2023698E+00 -8.9837162E-02
  4.318E-02  4.969E-03  1.100E+00 3.3605020E+00 1.1759637E+00 -1.1743558E-01
  0.000E+00  3.108E-04  1.025E+00 3.3533847E+00 1.2054037E+00 -2.9941180E-02
  4.318E-02  1.243E-03  1.050E+00 3.3550135E+00 1.1803609E+00 -5.8693661E-02
  0.000E+00  3.108E-04  9.751E-01 3.3533846E+00 1.2054040E+00 2.9929152E-02
  4.318E-02  0.000E+00  1.000E+00 3.3535996E+00 1.1818668E+00 -6.1679787E-06
  0.000E+00  2.796E-03  9.253E-01 3.3568029E+00 1.2023707E+00 8.9825156E-02
  4.318E-02  1.243E-03  9.502E-01 3.3550135E+00 1.1803616E+00 5.8681341E-02
  0.000E+00  7.761E-03  8.757E-01 3.3656808E+00 1.1964935E+00 1.4980101E-01
  4.318E-02  4.969E-03  9.004E-01 3.3605019E+00 1.1759650E+00 1.1742330E-01
  0.000E+00  1.519E-02  8.264E-01 3.3812477E+00 1.1878602E+00 2.0971693E-01
  4.318E-02  1.117E-02  8.510E-01 3.3724313E+00 1.1688730E+00 1.7622843E-01
  0.000E+00  2.507E-02  7.775E-01 3.3995175E+00 1.1761347E+00 2.6893056E-01
  4.318E-02  1.983E-02  8.019E-01 3.3902110E+00 1.1589560E+00 2.3471465E-01
  0.000E+00  3.738E-02  7.292E-01 3.4113537E+00 1.1609427E+00 3.2677300E-01
  4.318E-02  3.092E-02  7.532E-01 3.4067482E+00 1.1457642E+00 2.9211096E-01
  0.000E+00  5.207E-02  6.815E-01 3.4145183E+00 1.1428359E+00 3.8367836E-01
  4.318E-02  4.443E-02  7.052E-01 3.4137829E+00 1.1293335E+00 3.4823060E-01
  0.000E+00  6.913E-02  6.347E-01 3.4433797E+00 1.1225029E+00 4.4038504E-01
  4.318E-02  6.031E-02  6.580E-01 3.4248986E+00 1.1104691E+00 4.0388574E-01
  0.000E+00  8.849E-02  5.887E-01 3.4693302E+00 1.0993760E+00 4.9611967E-01
  4.318E-02  7.852E-02  6.116E-01 3.4589403E+00 1.0892987E+00 4.5916489E-01
  0.000E+00  1.101E-01  5.438E-01 3.4665912E+00 1.0731215E+00 5.5015893E-01
  4.318E-02  9.903E-02  5.661E-01 3.4670486E+00 1.0650381E+00 5.1294553E-01
  0.000E+00  1.340E-01  5.000E-01 3.5010209E+00 1.0443591E+00 6.0292856E-01
  4.318E-02  1.218E-01  5.217E-01 3.4847831E+00 1.0380258E+00 5.6524642E-01
  0.000E+00  1.600E-01  4.575E-01 3.5001693E+00 1.0130503E+00 6.5429135E-01
  4.318E-02  1.467E-01  4.786E-01 3.5107228E+00 1.0086208E+00 6.1633933E-01
  0.000E+00  1.881E-01  4.163E-01 3.5317576E+00 9.7914972E-01 7.0395095E-01
  4.318E-02  1.738E-01  4.367E-01 3.5072396E+00 9.7663699E-01 6.6585295E-01
  0.000E+00  2.182E-01  3.765E-01 3.5221347E+00 9.4285120E-01 7.5189033E-01
  4.318E-02  2.029E-01  3.962E-01 3.5284880E+00 9.4222223E-01 7.1369579E-01
  0.000E+00  2.502E-01  3.383E-01 3.5388201E+00 9.0420137E-01 7.9795247E-01
  4.318E-02  2.340E-01  3.572E-01 3.5360090E+00 9.0548490E-01 7.5978295E-01
  0.000E+00  2.841E-01  3.018E-01 3.5386591E+00 8.6330132E-01 8.4203087E-01
  4.318E-02  2.669E-01  3.198E-01 3.5374035E+00 8.6648473E-01 8.0396996E-01
  0.000E+00  3.198E-01  2.669E-01 3.5373946E+00 8.2025530E-01 8.8401702E-01
  4.318E-02  3.018E-01  2.841E-01 3.5386679E+00 8.2533227E-01 8.4616242E-01
  0.000E+00  3.572E-01  2.340E-01 3.5360001E+00 7.7517418E-01 9.2380721E-01
  4.318E-02  3.383E-01  2.502E-01 3.5388287E+00 7.8212899E-01 8.8625152E-01
  0.000E+00  3.962E-01  2.029E-01 3.5284789E+00 7.2815427E-01 9.6128845E-01
  4.318E-02  3.765E-01  2.182E-01 3.5221432E+00 7.3698114E-01 9.2413478E-01
  0.000E+00  4.367E-01  1.738E-01 3.5072303E+00 6.7934308E-01 9.9640046E-01
  4.318E-02  4.163E-01  1.881E-01 3.5317658E+00 6.8999313E-01 9.5971334E-01
  0.000E+00  4.786E-01  1.467E-01 3.5107137E+00 6.2882766E-01 1.0290326E+00
  4.318E-02  4.575E-01  1.600E-01 3.5001775E+00 6.4131922E-01 9.9294200E-01
  0.000E+00  5.217E-01  1.218E-01 3.4847740E+00 5.7670087E-01 1.0590338E+00
  4.318E-02  5.000E-01  1.340E-01 3.5010290E+00 5.9097609E-01 1.0236304E+00
  0.000E+00  5.661E-01  9.903E-02 3.4670396E+00 5.2334136E-01 1.0865933E+00
  4.318E-02  5.438E-01  1.101E-01 3.4665992E+00 5.3925388E-01 1.0518230E+00
  0.000E+00  6.116E-01  7.852E-02 3.4589310E+00 4.6847196E-01 1.1113449E+00
  4.318E-02  5.887E-01  8.849E-02 3.4693378E+00 4.8628687E-01 1.0775563E+00
  0.000E+00  6.580E-01  6.031E-02 3.4248891E+00 4.1207382E-01 1.1329448E+00
  4.318E-02  6.347E-01  6.913E-02 3.4433873E+00 4.3165816E-01 1.1002248E+00
  0.000E+00  7.052E-01  4.443E-02 3.4137735E+00 3.5529235E-01 1.1521921E+00
  4.318E-02  6.815E-01  5.207E-02 3.4145261E+00 3.7607683E-01 1.1201554E+00
  0.000E+00  7.532E-01  3.092E-02 3.4067390E+00 2.9803699E-01 1.1689563E+00
  4.318E-02  7.292E-01  3.738E-02 3.4113615E+00 3.2030085E-01 1.1379035E+00
  0.000E+00  8.019E-01  1.983E-02 3.3902021E+00 2.3947893E-01 1.1824160E+00
  4.318E-02  7.775E-01  2.507E-02 3.3995252E+00 2.6360644E-01 1.1527949E+00
  0.000E+00  8.510E-01  1.117E-02 3.3724222E+00 1.7980879E-01 1.1925342E+00
  4.318E-02  8.264E-01  1.519E-02 3.3812552E+00 2.0556801E-01 1.1642885E+00
  0.000E+00  9.004E-01  4.969E-03 3.3604926E+00 1.1981323E-01 1.1997703E+00
  4.318E-02  8.757E-01  7.761E-03 3.3656881E+00 1.4684110E-01 1.1727511E+00
  4.318E-02  9.253E-01  2.796E-03 3.3568100E+00 8.8055327E-02 1.1785122E+00
  1.000E+01  1.050E+00  1.243E-03 3.3550039E+00 -5.9869114E-02 1.2042570E+00
  1.000E+01  1.000E+00  5.551E-16 3.3535899E+00 6.4970434E-06 1.2057927E+00
  9.957E+00  1.025E+00  3.108E-04 3.3533908E+00 -3.0524934E-02 1.2294158E+00
  1.000E+01  9.502E-01  1.243E-03 3.3550039E+00 5.9882095E-02 1.2042563E+00
  9.957E+00  9.751E-01  3.108E-04 3.3533909E+00 3.0537939E-02 1.2294155E+00
  1.000E+01  9.004E-01  4.969E-03 3.3604926E+00 1.1981323E-01 1.1997703E+00
  9.957E+00  9.253E-01  2.796E-03 3.3568093E+00 9.1626976E-02 1.2263212E+00
  1.000E+01  8.510E-01  1.117E-02 3.3724222E+00 1.7980879E-01 1.1925342E+00
  9.957E+00  8.757E-01  7.761E-03 3.3656873E+00 1.5279745E-01 1.2203263E+00
  1.000E+01  8.019E-01  1.983E-02 3.3902021E+00 2.3947893E-01 1.1824160E+00
  9.957E+00  8.264E-01  1.519E-02 3.3812545E+00 2.1390682E-01 1.2115204E+00
  1.000E+01  7.532E-01  3.092E-02 3.4067390E+00 2.9803699E-01 1.1689563E+00
  9.957E+00  7.775E-01  2.507E-02 3.3995245E+00 2.7429998E-01 1.1995607E+00
  1.000E+01  7.052E-01  4.443E-02 3.4137735E+00 3.5529235E-01 1.1521921E+00
  9.957E+00  7.292E-01  3.738E-02 3.4113609E+00 3.3329468E-01 1.1840654E+00
  1.000E+01  6.580E-01  6.031E-02 3.4248891E+00 4.1207382E-01 1.1329448E+00
  9.957E+00  6.815E-01  5.207E-02 3.4145255E+00 3.9133347E-01 1.1655972E+00
  1.000E+01  6.116E-01  7.852E-02 3.4589310E+00 4.6847196E-01 1.1113449E+00
  9.957E+00  6.347E-01  6.913E-02 3.4433866E+00 4.4916933E-01 1.1448579E+00
  1.000E+01  5.661E-01  9.903E-02 3.4670396E+00 5.2334136E-01 1.0865933E+00
  9.957E+00  5.887E-01  8.849E-02 3.4693370E+00 5.0601381E-01 1.1212696E+00
  1.000E+01  5.217E-01  1.218E-01 3.4847740E+00 5.7670087E-01 1.0590338E+00
  9.957E+00  5.438E-01  1.101E-01 3.4665984E+00 5.6112937E-01 1.0944924E+00
  1.000E+01  4.786E-01  1.467E-01 3.5107137E+00 6.2882766E-01 1.0290326E+00
  9.957E+00  5.000E-01  1.340E-01 3.5010283E+00 6.1495003E-01 1.0651564E+00
  1.000E+01  4.367E-01  1.738E-01 3.5072303E+00 6.7934308E-01 9.9640046E-01
  9.957E+00  4.575E-01  1.600E-01 3.5001768E+00 6.6733558E-01 1.0332233E+00
  1.000E+01  3.962E-01  2.029E-01 3.5284789E+00 7.2815427E-01 9.6128845E-01
  9.957E+00  4.163E-01  1.881E-01 3.5317652E+00 7.1798386E-01 9.9864656E-01
  1.000E+01  3.572E-01  2.340E-01 3.5360001E+00 7.7517418E-01 9.2380721E-01
  9.957E+00  3.765E-01  2.182E-01 3.5221424E+00 7.6687786E-01 9.6162459E-01
  1.000E+01  3.198E-01  2.669E-01 3.5373946E+00 8.2025530E-01 8.8401702E-01
  9.957E+00  3.383E-01  2.502E-01 3.5388280E+00 8.1385722E-01 9.2220455E-01
  1.000E+01  2.841E-01  3.018E-01 3.5386591E+00 8.6330132E-01 8.4203087E-01
  9.957E+00  3.018E-01  2.841E-01 3.5386672E+00 8.5881315E-01 8.8048925E-01
  1.000E+01  2.502E-01  3.383E-01 3.5388201E+00 9.0420137E-01 7.9795247E-01
  9.957E+00  2.669E-01  3.198E-01 3.5374028E+00 9.0163512E-01 8.3658525E-01
  1.000E+01  2.182E-01  3.765E-01 3.5221347E+00 9.4285120E-01 7.5189033E-01
  9.957E+00  2.340E-01  3.572E-01 3.5360083E+00 9.4221747E-01 7.9060572E-01
  1.000E+01  1.881E-01  4.163E-01 3.5317576E+00 9.7914972E-01 7.0395095E-01
  9.957E+00  2.029E-01  3.962E-01 3.5284872E+00 9.8044506E-01 7.4264893E-01
  1.000E+01  1.600E-01  4.575E-01 3.5001693E+00 1.0130503E+00 6.5429135E-01
  9.957E+00  1.738E-01  4.367E-01 3.5072388E+00 1.0162558E+00 6.9286500E-01
  1.000E+01  1.340E-01  5.000E-01 3.5010209E+00 1.0443591E+00 6.0292856E-01
  9.957E+00  1.467E-01  4.786E-01 3.5107220E+00 1.0495372E+00 6.4134280E-01
  1.000E+01  1.101E-01  5.438E-01 3.4665912E+00 1.0731215E+00 5.5015893E-01
  9.957E+00  1.218E-01  5.217E-01 3.4847824E+00 1.0801353E+00 5.8817741E-01
  1.000E+01  8.849E-02  5.887E-01 3.4693302E+00 1.0993760E+00 4.9611967E-01
  9.957E+00  9.903E-02  5.661E-01 3.4670481E+00 1.1082437E+00 5.3375498E-01
  1.000E+01  6.913E-02  6.347E-01 3.4433797E+00 1.1225029E+00 4.4038504E-01
  9.957E+00  7.852E-02  6.116E-01 3.4589396E+00 1.1334883E+00 4.7779234E-01
  1.000E+01  5.207E-02  6.815E-01 3.4145183E+00 1.1428359E+00 3.8367836E-01
  9.957E+00  6.031E-02  6.580E-01 3.4248978E+00 1.1555173E+00 4.2027035E-01
  1.000E+01  3.738E-02  7.292E-01 3.4113537E+00 1.1609427E+00 3.2677300E-01
  9.957E+00  4.443E-02  7.052E-01 3.4137821E+00 1.1751469E+00 3.6235741E-01
  1.000E+01  2.507E-02  7.775E-01 3.3995175E+00 1.1761347E+00 2.6893056E-01
  9.957E+00  3.092E-02  7.532E-01 3.4067474E+00 1.1922442E+00 3.0396138E-01
  1.000E+01  1.519E-02  8.264E-01 3.3812477E+00 1.1878602E+00 2.0971693E-01
  9.957E+00  1.983E-02  8.019E-01 3.3902103E+00 1.2059713E+00 2.4423697E-01
  1.000E+01  7.761E-03  8.757E-01 3.3656808E+00 1.1964935E+00 1.4980101E-01
  9.957E+00  1.117E-02  8.510E-01 3.3724306E+00 1.2162907E+00 1.8337835E-01
  1.000E+01  2.796E-03  9.253E-01 3.3568029E+00 1.2023707E+00 8.9825156E-02
  9.957E+00  4.969E-03  9.004E-01 3.3605012E+00 1.2236704E+00 1.2218769E-01
  1.000E+01  3.108E-04  9.751E-01 3.3533846E+00 1.2054040E+00 2.9929152E-02
  9.957E+00  1.243E-03  9.502E-01 3.3550128E+00 1.2282453E+00 6.1062615E-02
  1.000E+01  3.108E-04  1.025E+00 3.3533847E+00 1.2054037E+00 -2.9941180E-02
  9.957E+00  0.000E+00  1.000E+00 3.3535989E+00 1.2298117E+00 -5.8861716E-06
  1.000E+01  2.796E-03  1.075E+00 3.3568030E+00 1.2023698E+00 -8.9837162E-02
  9.957E+00  1.243E-03  1.050E+00 3.3550128E+00 1.2282447E+00 -6.1074373E-02
  1.000E+01  7.761E-03  1.124E+00 3.3656810E+00 1.1964920E+00 -1.4981296E-01
  9.957E+00  4.969E-03  1.100E+00 3.3605013E+00 1.2236692E+00 -1.2219941E-01
  1.000E+01  1.519E-02  1.174E+00 3.3812480E+00 1.1878578E+00 -2.0972881E-01
  9.957E+00  1.117E-02  1.149E+00 3.3724307E+00 1.2162887E+00 -1.8338999E-01
  1.000E+01  2.507E-02  1.223E+00 3.3995179E+00 1.1761315E+00 -2.6894233E-01
  9.957E+00  1.983E-02  1.198E+00 3.3902105E+00 1.2059685E+00 -2.4424852E-01
  1.000E+01  3.738E-02  1.271E+00 3.4113541E+00 1.1609389E+00 -3.2678464E-01
  9.957E+00  3.092E-02  1.247E+00 3.4067476E+00 1.1922406E+00 -3.0397280E-01
  1.000E+01  5.207E-02  1.318E+00 3.4145187E+00 1.1428319E+00 -3.8368983E-01
  9.957E+00  4.443E-02  1.295E+00 3.4137824E+00 1.1751430E+00 -3.6236868E-01
  1.000E+01  6.913E-02  1.365E+00 3.4433801E+00 1.1224978E+00 -4.4039631E-01
  9.957E+00  6.031E-02  1.342E+00 3.4248982E+00 1.1555129E+00 -4.2028145E-01
  1.000E+01  8.849E-02  1.411E+00 3.4693306E+00 1.0993702E+00 -4.9613073E-01
  9.957E+00  7.852E-02  1.388E+00 3.4589400E+00 1.1334826E+00 -4.7780323E-01
  1.000E+01  1.101E-01  1.456E+00 3.4665917E+00 1.0731157E+00 -5.5016975E-01
  9.957E+00  9.903E-02  1.434E+00 3.4670486E+00 1.1082379E+00 -5.3376565E-01
  1.000E+01  1.340E-01  1.500E+00 3.5010214E+00 1.0443521E+00 -6.0293910E-01
  9.957E+00  1.218E-01  1.478E+00 3.4847829E+00 1.0801289E+00 -5.8818781E-01
  1.000E+01  1.600E-01  1.543E+00 3.5001699E+00 1.0130429E+00 -6.5430159E-01
  9.957E+00  1.467E-01  1.521E+00 3.5107226E+00 1.0495299E+00 -6.4135291E-01
  1.000E+01  1.881E-01  1.584E+00 3.5317582E+00 9.7914178E-01 -7.0396084E-01
  9.957E+00  1.738E-01  1.563E+00 3.5072394E+00 1.0162483E+00 -6.9287481E-01
  1.000E+01  2.182E-01  1.623E+00 3.5221354E+00 9.4284270E-01 -7.5189987E-01
  9.957E+00  2.029E-01  1.604E+00 3.5284879E+00 9.8043680E-01 -7.4265838E-01
  1.000E+01  2.502E-01  1.662E+00 3.5388208E+00 9.0419245E-01 -7.9796160E-01
  9.957E+00  2.340E-01  1.643E+00 3.5360090E+00 9.4220886E-01 -7.9061480E-01
  1.000E+01  2.841E-01  1.698E+00 3.5386599E+00 8.6329189E-01 -8.4203959E-01
  9.957E+00  2.669E-01  1.680E+00 3.5374035E+00 9.0162594E-01 -8.3659392E-01
  1.000E+01  3.198E-01  1.733E+00 3.5373954E+00 8.2024548E-01 -8.8402530E-01
  9.957E+00  3.018E-01  1.716E+00 3.5386679E+00 8.5880360E-01 -8.8049750E-01
  1.000E+01  3.572E-01  1.766E+00 3.5360009E+00 7.7516395E-01 -9.2381503E-01
  9.957E+00  3.383E-01  1.750E+00 3.5388288E+00 8.1384722E-01 -9.2221233E-01
  1.000E+01  3.962E-01  1.797E+00 3.5284798E+00 7.2814366E-01 -9.6129576E-01
  9.957E+00  3.765E-01  1.782E+00 3.5221432E+00 7.6686748E-01 -9.6163189E-01
  1.000E+01  4.367E-01  1.826E+00 3.5072313E+00 6.7933213E-01 -9.9640724E-01
  9.957E+00  4.163E-01  1.812E+00 3.5317659E+00 7.1797310E-01 -9.9865335E-01
  1.000E+01  4.786E-01  1.853E+00 3.5107146E+00 6.2881634E-01 -1.0290388E+00
  9.957E+00  4.575E-01  1.840E+00 3.5001776E+00 6.6732451E-01 -1.0332295E+00
  1.000E+01  5.217E-01  1.878E+00 3.4847748E+00 5.7668926E-01 -1.0590394E+00
  9.957E+00  5.000E-01  1.866E+00 3.5010292E+00 6.1493865E-01 -1.0651621E+00
  1.000E+01  5.661E-01  1.901E+00 3.4670402E+00 5.2332957E-01 -1.0865984E+00
  9.957E+00  5.438E-01  1.890E+00 3.4665994E+00 5.6111771E-01 -1.0944975E+00
  1.000E+01  6.116E-01  1.921E+00 3.4589318E+00 4.6845996E-01 -1.1113494E+00
  9.957E+00  5.887E-01  1.912E+00 3.4693381E+00 5.0600180E-01 -1.1212741E+00
  1.000E+01  6.580E-01  1.940E+00 3.4248903E+00 4.1206154E-01 -1.1329486E+00
  9.957E+00  6.347E-01  1.931E+00 3.4433875E+00 4.4915708E-01 -1.1448617E+00
  1.000E+01  7.052E-01  1.956E+00 3.4137749E+00 3.5527975E-01 -1.1521952E+00
  9.957E+00  6.815E-01  1.948E+00 3.4145262E+00 3.9132112E-01 -1.1656005E+00
  1.000E+01  7.532E-01  1.969E+00 3.4067403E+00 2.9802421E-01 -1.1689588E+00
  9.957E+00  7.292E-01  1.963E+00 3.4113616E+00 3.3328226E-01 -1.1840680E+00
  1.000E+01  8.019E-01  1.980E+00 3.3902030E+00 2.3946613E-01 -1.1824177E+00
  9.957E+00  7.775E-01  1.975E+00 3.3995254E+00 2.7428740E-01 -1.1995627E+00
  1.000E+01  8.510E-01  1.989E+00 3.3724229E+00 1.7979601E-01 -1.1925353E+00
  9.957E+00  8.264E-01  1.985E+00 3.3812555E+00 2.1389403E-01 -1.2115217E+00
  1.000E+01  9.004E-01  1.995E+00 3.3604934E+00 1.1980042E-01 -1.1997707E+00
  9.957E+00  8.757E-01  1.992E+00 3.3656884E+00 1.5278448E-01 -1.2203269E+00
  1.000E+01  9.502E-01  1.999E+00 3.3550048E+00 5.9869202E-02 -1.2042561E+00
  9.957E+00  9.253E-01  1.997E+00 3.3568104E+00 9.1613935E-02 -1.2263210E+00
  1.000E+01  1.000E+00  2.000E+00 3.3535908E+00 -6.5046258E-06 -1.2057918E+00
  9.957E+00  9.751E-01  2.000E+00 3.3533919E+00 3.0524909E-02 -1.2294146E+00
  1.000E+01  1.050E+00  1.999E+00 3.3550047E+00 -5.9882199E-02 -1.2042554E+00
  9.957E+00  1.025E+00  2.000E+00 3.3533919E+00 -3.0537902E-02 -1.2294143E+00
  1.000E+01  1.100E+00  1.995E+00 3.3604932E+00 -1.1981337E-01 -1.1997693E+00
  9.957E+00  1.075E+00  1.997E+00 3.3568103E+00 -9.1626900E-02 -1.2263200E+00
  1.000E+01  1.149E+00  1.989E+00 3.3724227E+00 -1.7980889E-01 -1.1925332E+00
  9.957E+00  1.124E+00  1.992E+00 3.3656882E+00 -1.5279739E-01 -1.2203252E+00
  1.000E+01  1.198E+00  1.980E+00 3.3902027E+00 -2.3947892E-01 -1.1824150E+00
  9.957E+00  1.174E+00  1.985E+00 3.3812552E+00 -2.1390686E-01 -1.2115193E+00