# TIME = 0.200000
variables = x, y, z
zone N=5762 E=11520 F=FEPOINT ET=TRIANGLE
 5.1489619E+00 1.4359915E+00 1.7054330E+00
 5.1489619E+00 1.4359915E+00 2.9456700E-01
 5.1489620E+00 5.6400823E-01 1.7054332E+00
 5.1489620E+00 5.6400836E-01 2.9456708E-01
 4.1008722E+00 9.9999993E-01 1.5316916E+00
 6.1988528E+00 9.9999993E-01 1.5334829E+00
 4.1008722E+00 9.9999993E-01 4.6830847E-01
 6.1988528E+00 9.9999993E-01 4.6651709E-01
 4.5432989E+00 1.7785875E+00 1.0000000E+00
 4.5432989E+00 2.2141230E-01 1.0000000E+00
 5.7473100E+00 1.7508113E+00 1.0000000E+00
 5.7473100E+00 2.4918857E-01 1.0000000E+00
 5.1097966E+00 1.4282692E+00 1.7112402E+00
 5.0681611E+00 1.4196662E+00 1.7168841E+00
 5.0247459E+00 1.4103041E+00 1.7222373E+00
 4.9796204E+00 1.4001261E+00 1.7271951E+00
 4.9328463E+00 1.3890535E+00 1.7316609E+00
 4.8845547E+00 1.3770174E+00 1.7355012E+00
 4.8349114E+00 1.3639422E+00 1.7385591E+00
 4.7841283E+00 1.3497526E+00 1.7406485E+00
 4.7324634E+00 1.3343785E+00 1.7415569E+00
 4.6802228E+00 1.3177610E+00 1.7410513E+00
 4.6277601E+00 1.2998625E+00 1.7388896E+00
 4.5754722E+00 1.2806757E+00 1.7348378E+00
 4.5237911E+00 1.2602339E+00 1.7286906E+00
 4.4731702E+00 1.2386168E+00 1.7202935E+00
 4.4240649E+00 1.2159533E+00 1.7095630E+00
 4.3769098E+00 1.1924182E+00 1.6964987E+00
 4.3320939E+00 1.1682232E+00 1.6811886E+00
 4.2899403E+00 1.1436041E+00 1.6638027E+00
 4.2506902E+00 1.1188056E+00 1.6445790E+00
 4.2144964E+00 1.0940670E+00 1.6238036E+00
 4.1814228E+00 1.0696071E+00 1.6017874E+00
 4.1514516E+00 1.0456192E+00 1.5788466E+00
 4.1244786E+00 1.0222403E+00 1.5552659E+00
 5.1081055E+00 6.0033390E-01 1.7277266E+00
 5.0655588E+00 6.1007251E-01 1.7335037E+00
 5.0212418E+00 6.2060821E-01 1.7389160E+00
 4.9751887E+00 6.3202542E-01 1.7438793E+00
 4.9275087E+00 6.4438423E-01 1.7482705E+00
 4.8783464E+00 6.5775256E-01 1.7519462E+00
 4.8278938E+00 6.7219686E-01 1.7547335E+00
 4.7763889E+00 6.8778045E-01 1.7564311E+00
 4.7241179E+00 7.0455682E-01 1.7568122E+00
 4.6714152E+00 7.2256216E-01 1.7556329E+00
 4.6186610E+00 7.4180622E-01 1.7526468E+00
 4.5662753E+00 7.6226278E-01 1.7476234E+00
 4.5147070E+00 7.8386253E-01 1.7403720E+00
 4.4644174E+00 8.0648883E-01 1.7307632E+00
 4.4158593E+00 8.2997929E-01 1.7187476E+00
 4.3694524E+00 8.5413225E-01 1.7043653E+00
 4.3255605E+00 8.7871820E-01 1.6877463E+00
 4.2844725E+00 9.0349468E-01 1.6691002E+00
 4.2463906E+00 9.2822087E-01 1.6486982E+00
 4.2114260E+00 9.5267258E-01 1.6268505E+00
 4.1796058E+00 9.7665033E-01 1.6038869E+00
 4.1508459E+00 9.9999993E-01 1.5800931E+00
 5.1072055E+00 6.3057553E-01 1.7435706E+00
 5.0637479E+00 6.4150897E-01 1.7494004E+00
 5.0185074E+00 6.5329872E-01 1.7548033E+00
 4.9715399E+00 6.6601641E-01 1.7596790E+00
 4.9229670E+00 6.7972190E-01 1.7638957E+00
 4.8729603E+00 6.9447356E-01 1.7672946E+00
 4.8217369E+00 7.1032704E-01 1.7696886E+00
 4.7695631E+00 7.2732962E-01 1.7708622E+00
 4.7167534E+00 7.4551398E-01 1.7705768E+00
 4.6636702E+00 7.6488981E-01 1.7685816E+00
 4.6107190E+00 7.8543508E-01 1.7646303E+00
 4.5583397E+00 8.0708810E-01 1.7585028E+00
 4.5069940E+00 8.2974264E-01 1.7500293E+00
 4.4571459E+00 8.5324704E-01 1.7391117E+00
 4.4092389E+00 8.7740904E-01 1.7257397E+00
 4.3636728E+00 9.0200592E-01 1.7099967E+00
 4.3207809E+00 9.2679769E-01 1.6920553E+00
 4.2808145E+00 9.5154237E-01 1.6721628E+00
 4.2439346E+00 9.7601142E-01 1.6506198E+00
 4.2102100E+00 9.9999993E-01 1.6277557E+00
 4.1796058E+00 1.0233495E+00 1.6038869E+00
 5.1063401E+00 6.6272924E-01 1.7587310E+00
 5.0620229E+00 6.7491917E-01 1.7645120E+00
 5.0159240E+00 6.8801548E-01 1.7697953E+00
 4.9681185E+00 7.0208190E-01 1.7744653E+00
 4.9187506E+00 7.1716966E-01 1.7783779E+00
 4.8680162E+00 7.3332626E-01 1.7813616E+00
 4.8161596E+00 7.5059191E-01 1.7832164E+00
 4.7634745E+00 7.6899390E-01 1.7837159E+00
 4.7103026E+00 7.8853959E-01 1.7826142E+00
 4.6570314E+00 8.0920848E-01 1.7796596E+00
 4.6040865E+00 8.3094428E-01 1.7746135E+00
 4.5519220E+00 8.5364914E-01 1.7672738E+00
 4.5010039E+00 8.7718146E-01 1.7574991E+00
 4.4517903E+00 9.0135892E-01 1.7452284E+00
 4.4047073E+00 9.2596638E-01 1.7304939E+00
 4.3601267E+00 9.5076829E-01 1.7134224E+00
 4.3183461E+00 9.7552316E-01 1.6942262E+00
 4.2795756E+00 9.9999993E-01 1.6731839E+00
 4.2439346E+00 1.0239884E+00 1.6506198E+00
 4.2114260E+00 1.0473273E+00 1.6268506E+00
 5.1055341E+00 6.9681568E-01 1.7730162E+00
 5.0604158E+00 7.1031059E-01 1.7786370E+00
 5.0135384E+00 7.2474908E-01 1.7836749E+00
 4.9649921E+00 7.4018788E-01 1.7880041E+00
 4.9149461E+00 7.5666669E-01 1.7914689E+00
 4.8636216E+00 7.7421835E-01 1.7938868E+00
 4.8112897E+00 7.9286401E-01 1.7950483E+00
 4.7582703E+00 8.1260712E-01 1.7947201E+00
 4.7049299E+00 8.3342643E-01 1.7926553E+00
 4.6516760E+00 8.5526873E-01 1.7886081E+00
 4.5989488E+00 8.7804263E-01 1.7823557E+00
 4.5472084E+00 9.0161550E-01 1.7737215E+00
 4.4969168E+00 9.2581454E-01 1.7625988E+00
 4.4485172E+00 9.5043305E-01 1.7489678E+00
 4.4024105E+00 9.7524126E-01 1.7329039E+00
 4.3589342E+00 9.9999992E-01 1.7145747E+00
 4.3183461E+00 1.0244767E+00 1.6942262E+00
 4.2808145E+00 1.0484575E+00 1.6721628E+00
 4.2463906E+00 1.0717790E+00 1.6486982E+00
 5.1047871E+00 7.3276658E-01 1.7861987E+00
 5.0589472E+00 7.4758958E-01 1.7915301E+00
 5.0113867E+00 7.6338348E-01 1.7961857E+00
 4.9622152E+00 7.8019187E-01 1.8000286E+00
 4.9116266E+00 7.9804052E-01 1.8028941E+00
 4.8598678E+00 8.1694394E-01 1.8045915E+00
 4.8072355E+00 8.3690084E-01 1.8049057E+00
 4.7540735E+00 8.5788782E-01 1.8036026E+00
 4.7007683E+00 8.7985284E-01 1.8004405E+00
 4.6477420E+00 9.0270931E-01 1.7951875E+00
 4.5954421E+00 9.2633208E-01 1.7876440E+00
 4.5443263E+00 9.5055750E-01 1.7776658E+00
 4.4948442E+00 9.7518773E-01 1.7651855E+00
 4.4474159E+00 9.9999992E-01 1.7502259E+00
 4.4024105E+00 1.0247586E+00 1.7329039E+00
 4.3601267E+00 1.0492316E+00 1.7134224E+00
 4.3207809E+00 1.0732022E+00 1.6920553E+00
 4.2844725E+00 1.0965052E+00 1.6691002E+00
 5.1041161E+00 7.7047684E-01 1.7980506E+00
 5.0576463E+00 7.8662786E-01 1.8029540E+00
 5.0095138E+00 8.0376065E-01 1.8070808E+00
 4.9598478E+00 8.2190354E-01 1.8102859E+00
 4.9088674E+00 8.4106502E-01 1.8123977E+00
 4.8568442E+00 8.6123857E-01 1.8132216E+00
 4.8040979E+00 8.8239782E-01 1.8125423E+00
 4.7509921E+00 9.0449076E-01 1.8101307E+00
 4.6979284E+00 9.2743397E-01 1.8057579E+00
 4.6453367E+00 9.5110894E-01 1.7992134E+00
 4.5936636E+00 9.7536051E-01 1.7903275E+00
 4.5433565E+00 9.9999992E-01 1.7789936E+00
 4.4948442E+00 1.0248121E+00 1.7651855E+00
 4.4485172E+00 1.0495668E+00 1.7489678E+00
 4.4047073E+00 1.0740335E+00 1.7304939E+00
 4.3636728E+00 1.0979939E+00 1.7099967E+00
 4.3255604E+00 1.1212817E+00 1.6877463E+00
 5.1035329E+00 8.0978991E-01 1.8083467E+00
 5.0565390E+00 8.2723906E-01 1.8126768E+00
 5.0079590E+00 8.4566219E-01 1.8161253E+00
 4.9579430E+00 8.6506952E-01 1.8185410E+00
 4.9067339E+00 8.8544971E-01 1.8197498E+00
 4.8546256E+00 9.0677316E-01 1.8195577E+00
 4.8019575E+00 9.2898702E-01 1.8177547E+00
 4.7491084E+00 9.5201046E-01 1.8141238E+00
 4.6964881E+00 9.7573045E-01 1.8084560E+00
 4.6445272E+00 9.9999992E-01 1.8005687E+00
 4.5936636E+00 1.0246393E+00 1.7903275E+00
 4.5443263E+00 1.0494423E+00 1.7776658E+00
 4.4969168E+00 1.0741853E+00 1.7625988E+00
 4.4517903E+00 1.0986409E+00 1.7452284E+00
 4.4092389E+00 1.1225908E+00 1.7257397E+00
 4.3694524E+00 1.1458676E+00 1.7043654E+00
 5.1030497E+00 8.5050063E-01 1.8168761E+00
 5.0556493E+00 8.6918635E-01 1.8204875E+00
 5.0067584E+00 8.8881690E-01 1.8231111E+00
 4.9565468E+00 9.0938247E-01 1.8245938E+00
 4.9052796E+00 9.3085039E-01 1.8247631E+00
 4.8532700E+00 9.5316673E-01 1.8234307E+00
 4.8008723E+00 9.7625260E-01 1.8203984E+00
 4.7484745E+00 9.9999992E-01 1.8154679E+00
 4.6964881E+00 1.0242694E+00 1.8084560E+00
 4.6453367E+00 1.0488909E+00 1.7992134E+00
 4.5954421E+00 1.0736678E+00 1.7876440E+00
 4.5472084E+00 1.0983844E+00 1.7737215E+00
 4.5010039E+00 1.1228184E+00 1.7574991E+00
 4.4571458E+00 1.1467528E+00 1.7391117E+00
 4.4158593E+00 1.1700206E+00 1.7187477E+00
 5.1026769E+00 8.9235656E-01 1.8234529E+00
 5.0549981E+00 9.1218418E-01 1.8262061E+00
 5.0059409E+00 9.3290525E-01 1.8278689E+00
 4.9556943E+00 9.5448852E-01 1.8282904E+00
 4.9045427E+00 9.7687918E-01 1.8273042E+00
 4.8528140E+00 9.9999993E-01 1.8247339E+00
 4.8008723E+00 1.0237473E+00 1.8203984E+00
 4.7491084E+00 1.0479894E+00 1.8141239E+00
 4.6979284E+00 1.0725659E+00 1.8057579E+00
 4.6477420E+00 1.0972905E+00 1.7951875E+00
 4.5989488E+00 1.1219572E+00 1.7823557E+00
 4.5519220E+00 1.1463507E+00 1.7672739E+00
 4.5069940E+00 1.1702572E+00 1.7500294E+00
 4.4644174E+00 1.1935110E+00 1.7307633E+00
 5.1024234E+00 9.3506373E-01 1.8279266E+00
 5.0546007E+00 9.5590699E-01 1.8296950E+00
 5.0055267E+00 9.7757006E-01 1.8302788E+00
 4.9554076E+00 9.9999993E-01 1.8295336E+00
 4.9045427E+00 1.0231207E+00 1.8273042E+00
 4.8532700E+00 1.0468331E+00 1.8234307E+00
 4.8019575E+00 1.0710128E+00 1.8177547E+00
 4.7509921E+00 1.0955091E+00 1.8101307E+00
 4.7007683E+00 1.1201470E+00 1.8004405E+00
 4.6516760E+00 1.1447311E+00 1.7886082E+00
 4.6040865E+00 1.1690556E+00 1.7746136E+00
 4.5583397E+00 1.1929118E+00 1.7585029E+00
 4.5147069E+00 1.2161373E+00 1.7403721E+00
 5.1022951E+00 9.7829545E-01 1.8301908E+00
 5.0544671E+00 9.9999993E-01 1.8308677E+00
 5.0055267E+00 1.0224298E+00 1.8302788E+00
 4.9556943E+00 1.0455113E+00 1.8282903E+00
 4.9052796E+00 1.0691495E+00 1.8247631E+00
 4.8546256E+00 1.0932267E+00 1.8195577E+00
 4.8040979E+00 1.1176020E+00 1.8125423E+00
 4.7540735E+00 1.1421120E+00 1.8036027E+00
 4.7049299E+00 1.1665734E+00 1.7926554E+00
 4.6570314E+00 1.1907914E+00 1.7796597E+00
 4.6107189E+00 1.2145648E+00 1.7646304E+00
 4.5662753E+00 1.2377371E+00 1.7476235E+00
 5.1022951E+00 1.0217044E+00 1.8301908E+00
 5.0546007E+00 1.0440929E+00 1.8296949E+00
 5.0059409E+00 1.0670946E+00 1.8278689E+00
 4.9565468E+00 1.0906174E+00 1.8245938E+00
 4.9067339E+00 1.1145501E+00 1.8197498E+00
 4.8568442E+00 1.1387613E+00 1.8132216E+00
 4.8072355E+00 1.1630990E+00 1.8049058E+00
 4.7582703E+00 1.1873927E+00 1.7947202E+00
 4.7103026E+00 1.2114603E+00 1.7826143E+00
 4.6636701E+00 1.2351101E+00 1.7685817E+00
 4.6186609E+00 1.2581937E+00 1.7526469E+00
 5.1024234E+00 1.0649361E+00 1.8279265E+00
 5.0549981E+00 1.0878157E+00 1.8262060E+00
 5.0067584E+00 1.1111829E+00 1.8231111E+00
 4.9579430E+00 1.1349303E+00 1.8185410E+00
 4.9088674E+00 1.1589348E+00 1.8123976E+00
 4.8598678E+00 1.1830559E+00 1.8045915E+00
 4.8112897E+00 1.2071359E+00 1.7950483E+00
 4.7634745E+00 1.2310060E+00 1.7837160E+00
 4.7167534E+00 1.2544859E+00 1.7705769E+00
 4.6714151E+00 1.2774377E+00 1.7556331E+00
 5.1026769E+00 1.1076433E+00 1.8234528E+00
 5.0556493E+00 1.1308135E+00 1.8204874E+00
 5.0079590E+00 1.1543376E+00 1.8161252E+00
 4.9598478E+00 1.1780963E+00 1.8102858E+00
 4.9116266E+00 1.2019593E+00 1.8028941E+00
 4.8636216E+00 1.2257815E+00 1.7938868E+00
 4.8161596E+00 1.2494080E+00 1.7832165E+00
 4.7695630E+00 1.2726703E+00 1.7708622E+00
 4.7241178E+00 1.2954431E+00 1.7568123E+00
 5.1030497E+00 1.1494992E+00 1.8168760E+00
 5.0565390E+00 1.1727608E+00 1.8126767E+00
 5.0095138E+00 1.1962392E+00 1.8070807E+00
 4.9622152E+00 1.2198080E+00 1.8000286E+00
 4.9149461E+00 1.2433331E+00 1.7914688E+00
 4.8680162E+00 1.2666736E+00 1.7813616E+00
 4.8217369E+00 1.2896728E+00 1.7696887E+00
 4.7763889E+00 1.3122194E+00 1.7564312E+00
 5.1035329E+00 1.1902099E+00 1.8083465E+00
 5.0576463E+00 1.2133720E+00 1.8029539E+00
 5.0113867E+00 1.2366163E+00 1.7961856E+00
 4.9649921E+00 1.2598119E+00 1.7880040E+00
 4.9187507E+00 1.2828302E+00 1.7783778E+00
 4.8729603E+00 1.3055263E+00 1.7672946E+00
 4.8278938E+00 1.3278030E+00 1.7547335E+00
 5.1041161E+00 1.2295230E+00 1.7980505E+00
 5.0589472E+00 1.2524102E+00 1.7915300E+00
 5.0135384E+00 1.2752507E+00 1.7836748E+00
 4.9681185E+00 1.2979179E+00 1.7744652E+00
 4.9229670E+00 1.3202779E+00 1.7638957E+00
 4.8783464E+00 1.3422473E+00 1.7519462E+00
 5.1047871E+00 1.2672332E+00 1.7861986E+00
 5.0604158E+00 1.2896892E+00 1.7786369E+00
 5.0159240E+00 1.3119843E+00 1.7697952E+00
 4.9715399E+00 1.3339834E+00 1.7596789E+00
 4.9275087E+00 1.3556156E+00 1.7482704E+00
 5.1055341E+00 1.3031841E+00 1.7730161E+00
 5.0620229E+00 1.3250806E+00 1.7645119E+00
 5.0185074E+00 1.3467011E+00 1.7548032E+00
 4.9751887E+00 1.3679744E+00 1.7438792E+00
 5.1063401E+00 1.3372705E+00 1.7587308E+00
 5.0637479E+00 1.3584908E+00 1.7494003E+00
 5.0212418E+00 1.3793916E+00 1.7389159E+00
 5.1072055E+00 1.3694242E+00 1.7435705E+00
 5.0655588E+00 1.3899273E+00 1.7335035E+00
 5.1081055E+00 1.3996659E+00 1.7277264E+00
 5.1489623E+00 1.4092147E+00 1.7213319E+00
 5.1489622E+00 1.3800803E+00 1.7371297E+00
 5.1489622E+00 1.3491192E+00 1.7523047E+00
 5.1489623E+00 1.3162583E+00 1.7667183E+00
 5.1489624E+00 1.2815645E+00 1.7801449E+00
 5.1489625E+00 1.2451155E+00 1.7923701E+00
 5.1489626E+00 1.2070431E+00 1.8031750E+00
 5.1489627E+00 1.1675232E+00 1.8123515E+00
 5.1489628E+00 1.1267782E+00 1.8197099E+00
 5.1489629E+00 1.0850724E+00 1.8250899E+00
 5.1489629E+00 1.0427049E+00 1.8283690E+00
 5.1489629E+00 9.9999992E-01 1.8294708E+00
 5.1489629E+00 9.5729499E-01 1.8283691E+00
 5.1489629E+00 9.1492748E-01 1.8250899E+00
 5.1489628E+00 8.7322165E-01 1.8197100E+00
 5.1489627E+00 8.3247664E-01 1.8123516E+00
 5.1489626E+00 7.9295669E-01 1.8031752E+00
 5.1489625E+00 7.5488425E-01 1.7923702E+00
 5.1489624E+00 7.1843532E-01 1.7801451E+00
 5.1489623E+00 6.8374145E-01 1.7667185E+00
 5.1489622E+00 6.5088059E-01 1.7523049E+00
 5.1489622E+00 6.1991951E-01 1.7371299E+00
 5.1489623E+00 5.9078508E-01 1.7213320E+00
 5.1881036E+00 5.7285574E-01 1.7093716E+00
 5.2296561E+00 5.8260729E-01 1.7129990E+00
 5.2729215E+00 5.9311525E-01 1.7162163E+00
 5.3178169E+00 6.0442482E-01 1.7189211E+00
 5.3642668E+00 6.1659968E-01 1.7210256E+00
 5.4121241E+00 6.2968557E-01 1.7224201E+00
 5.4612068E+00 6.4372756E-01 1.7229894E+00
 5.5112902E+00 6.5876188E-01 1.7226122E+00
 5.5621095E+00 6.7481400E-01 1.7211649E+00
 5.6133644E+00 6.9189544E-01 1.7185264E+00
 5.6647245E+00 7.1000028E-01 1.7145825E+00
 5.7158389E+00 7.2910318E-01 1.7092319E+00
 5.7663463E+00 7.4915695E-01 1.7023914E+00
 5.8158863E+00 7.7009196E-01 1.6940010E+00
 5.8641114E+00 7.9181608E-01 1.6840293E+00
 5.9106981E+00 8.1421622E-01 1.6724760E+00
 5.9553570E+00 8.3716132E-01 1.6593742E+00
 5.9978401E+00 8.6050600E-01 1.6447902E+00
 6.0379469E+00 8.8409564E-01 1.6288216E+00
 6.0755269E+00 9.0777170E-01 1.6115938E+00
 6.1104817E+00 9.3137721E-01 1.5932532E+00
 6.1427648E+00 9.5476718E-01 1.5739618E+00
 6.1723940E+00 9.7781721E-01 1.5538810E+00
 5.1897920E+00 1.3985704E+00 1.7257320E+00
 5.2322504E+00 1.3877460E+00 1.7294006E+00
 5.2764082E+00 1.3761396E+00 1.7325821E+00
 5.3222182E+00 1.3636780E+00 1.7351935E+00
 5.3695565E+00 1.3503189E+00 1.7371249E+00
 5.4182624E+00 1.3360187E+00 1.7382606E+00
 5.4681281E+00 1.3207426E+00 1.7384762E+00
 5.5189036E+00 1.3044657E+00 1.7376432E+00
 5.5702986E+00 1.2871765E+00 1.7356331E+00
 5.6219881E+00 1.2688806E+00 1.7323223E+00
 5.6736201E+00 1.2496026E+00 1.7275982E+00
 5.7248263E+00 1.2293889E+00 1.7213649E+00
 5.7752334E+00 1.2083083E+00 1.7135489E+00
 5.8244760E+00 1.1864526E+00 1.7041045E+00
 5.8722084E+00 1.1639345E+00 1.6930180E+00
 5.9181165E+00 1.1408857E+00 1.6803102E+00
 5.9619264E+00 1.1174525E+00 1.6660374E+00
 6.0034114E+00 1.0937911E+00 1.6502900E+00
 6.0423970E+00 1.0700616E+00 1.6331885E+00
 6.0787612E+00 1.0464237E+00 1.6148797E+00
 6.1124354E+00 1.0230239E+00 1.5955283E+00
 6.1434347E+00 9.9999993E-01 1.5752867E+00
 5.1906904E+00 1.3683890E+00 1.7414879E+00
 5.2340558E+00 1.3564414E+00 1.7451176E+00
 5.2791298E+00 1.3436647E+00 1.7481947E+00
 5.3258433E+00 1.3300005E+00 1.7506222E+00
 5.3740593E+00 1.3154080E+00 1.7522840E+00
 5.4235899E+00 1.2998544E+00 1.7530542E+00
 5.4742026E+00 1.2833156E+00 1.7528007E+00
 5.5256204E+00 1.2657812E+00 1.7513890E+00
 5.5775266E+00 1.2472564E+00 1.7486875E+00
 5.6295720E+00 1.2277660E+00 1.7445730E+00
 5.6813841E+00 1.2073558E+00 1.7389376E+00
 5.7325796E+00 1.1860945E+00 1.7316941E+00
 5.7827766E+00 1.1640735E+00 1.7227830E+00
 5.8316088E+00 1.1414059E+00 1.7121764E+00
 5.8787370E+00 1.1182240E+00 1.6998824E+00
 5.9238608E+00 1.0946752E+00 1.6859460E+00
 5.9667263E+00 1.0709175E+00 1.6704487E+00
 6.0071322E+00 1.0471133E+00 1.6535057E+00
 6.0449318E+00 1.0234246E+00 1.6352616E+00
 6.0800383E+00 9.9999993E-01 1.6158791E+00
 6.1124354E+00 9.7697591E-01 1.5955283E+00
 5.1915545E+00 1.3363056E+00 1.7565618E+00
 5.2357756E+00 1.3231844E+00 1.7600543E+00
 5.2817013E+00 1.3091976E+00 1.7629215E+00
 5.3292424E+00 1.2942963E+00 1.7650531E+00
 5.3782393E+00 1.2784494E+00 1.7663243E+00
 5.4284799E+00 1.2616353E+00 1.7666016E+00
 5.4797049E+00 1.2438445E+00 1.7657469E+00
 5.5316109E+00 1.2250833E+00 1.7636223E+00
 5.5838569E+00 1.2053765E+00 1.7600964E+00
 5.6360719E+00 1.1847701E+00 1.7550503E+00
 5.6878675E+00 1.1633324E+00 1.7483849E+00
 5.7388504E+00 1.1411545E+00 1.7400269E+00
 5.7886365E+00 1.1183497E+00 1.7299345E+00
 5.8368646E+00 1.0950504E+00 1.7181019E+00
 5.8832086E+00 1.0714048E+00 1.7045619E+00
 5.9273877E+00 1.0475720E+00 1.6893853E+00
 5.9691730E+00 1.0237159E+00 1.6726795E+00
 6.0083920E+00 9.9999993E-01 1.6545839E+00
 6.0449318E+00 9.7657529E-01 1.6352616E+00
 6.0787612E+00 9.5357617E-01 1.6148797E+00
 5.1923596E+00 1.3023003E+00 1.7707643E+00
 5.2373781E+00 1.2879681E+00 1.7740128E+00
 5.2840757E+00 1.2727478E+00 1.7765511E+00
 5.3323480E+00 1.2565986E+00 1.7782609E+00
 5.3820104E+00 1.2395016E+00 1.7790093E+00
 5.4328253E+00 1.2214495E+00 1.7786573E+00
 5.4845077E+00 1.2024498E+00 1.7770635E+00
 5.5367294E+00 1.1825283E+00 1.7740902E+00
 5.5891274E+00 1.1617310E+00 1.7696100E+00
 5.6413137E+00 1.1401262E+00 1.7635129E+00
 5.6928891E+00 1.1178049E+00 1.7557133E+00
 5.7434563E+00 1.0948799E+00 1.7461559E+00
 5.7926358E+00 1.0714836E+00 1.7348212E+00
 5.8400783E+00 1.0477643E+00 1.7217284E+00
 5.8854766E+00 1.0238814E+00 1.7069364E+00
 5.9285748E+00 9.9999993E-01 1.6905427E+00
 5.9691730E+00 9.7628392E-01 1.6726795E+00
 6.0071322E+00 9.5288651E-01 1.6535057E+00
 6.0423969E+00 9.2993821E-01 1.6331885E+00
 5.1931056E+00 1.2664408E+00 1.7838690E+00
 5.2388424E+00 1.2508857E+00 1.7867512E+00
 5.2862172E+00 1.2344305E+00 1.7888327E+00
 5.3351063E+00 1.2170482E+00 1.7899865E+00
 5.3853002E+00 1.1987341E+00 1.7900747E+00
 5.4365364E+00 1.1794980E+00 1.7889552E+00
 5.4885051E+00 1.1593666E+00 1.7864867E+00
 5.5408562E+00 1.1383867E+00 1.7825359E+00
 5.5932091E+00 1.1166266E+00 1.7769839E+00
 5.6451638E+00 1.0941770E+00 1.7697345E+00
 5.6963163E+00 1.0711501E+00 1.7607198E+00
 5.7462727E+00 1.0476778E+00 1.7499070E+00
 5.7946642E+00 1.0239081E+00 1.7373015E+00
 5.8411597E+00 9.9999993E-01 1.7229494E+00
 5.8854766E+00 9.7611843E-01 1.7069364E+00
 5.9273877E+00 9.5242787E-01 1.6893853E+00
 5.9667263E+00 9.2908233E-01 1.6704487E+00
 6.0034114E+00 9.0620876E-01 1.6502900E+00
 5.1937758E+00 1.2288320E+00 1.7956499E+00
 5.2401394E+00 1.2120646E+00 1.7980359E+00
 5.2880810E+00 1.1944015E+00 1.7995252E+00
 5.3374575E+00 1.1758317E+00 1.7999851E+00
 5.3880343E+00 1.1563671E+00 1.7992752E+00
 5.4395250E+00 1.1360364E+00 1.7972537E+00
 5.4915982E+00 1.1148870E+00 1.7937839E+00
 5.5438857E+00 1.0929875E+00 1.7887409E+00
 5.5959939E+00 1.0704283E+00 1.7820195E+00
 5.6475176E+00 1.0473208E+00 1.7735413E+00
 5.6980544E+00 1.0237957E+00 1.7632608E+00
 5.7472204E+00 9.9999993E-01 1.7511700E+00
 5.7946642E+00 9.7609179E-01 1.7373015E+00
 5.8400783E+00 9.5223559E-01 1.7217284E+00
 5.8832086E+00 9.2859504E-01 1.7045619E+00
 5.9238608E+00 9.0532467E-01 1.6859459E+00
 5.9619264E+00 8.8254735E-01 1.6660374E+00
 5.1943583E+00 1.1896299E+00 1.8058832E+00
 5.2412434E+00 1.1716894E+00 1.8076387E+00
 5.2896282E+00 1.1528762E+00 1.8083994E+00
 5.3393490E+00 1.1331973E+00 1.8080298E+00
 5.3901482E+00 1.1126831E+00 1.8063905E+00
 5.4417178E+00 1.0913822E+00 1.8033443E+00
 5.4937079E+00 1.0693636E+00 1.7987631E+00
 5.5457374E+00 1.0467170E+00 1.7925355E+00
 5.5974061E+00 1.0235526E+00 1.7845743E+00
 5.6483097E+00 9.9999993E-01 1.7748229E+00
 5.6980544E+00 9.7620416E-01 1.7632608E+00
 5.7462727E+00 9.5232200E-01 1.7499070E+00
 5.7926358E+00 9.2851628E-01 1.7348212E+00
 5.8368646E+00 9.0494943E-01 1.7181019E+00
 5.8787370E+00 8.8177585E-01 1.6998824E+00
 5.9181165E+00 8.5911415E-01 1.6803102E+00
 5.1948409E+00 1.1490385E+00 1.8143602E+00
 5.2421304E+00 1.1299944E+00 1.8153518E+00
 5.2908228E+00 1.1101211E+00 1.8152524E+00
 5.3407355E+00 1.0894449E+00 1.8139270E+00
 5.3915890E+00 1.0680156E+00 1.8112411E+00
 5.4430574E+00 1.0459023E+00 1.8070664E+00
 5.4947775E+00 1.0231941E+00 1.8012881E+00
 5.5463604E+00 9.9999992E-01 1.7938127E+00
 5.5974061E+00 9.7644726E-01 1.7845743E+00
 5.6475176E+00 9.5267909E-01 1.7735413E+00
 5.6963163E+00 9.2884974E-01 1.7607198E+00
 5.7434563E+00 9.0511996E-01 1.7461559E+00
 5.7886365E+00 8.8165014E-01 1.7299345E+00
 5.8316088E+00 8.5859398E-01 1.7121764E+00
 5.8722084E+00 8.3606531E-01 1.6930180E+00
 5.1952132E+00 1.1073088E+00 1.8208962E+00
 5.2427797E+00 1.0872620E+00 1.8209984E+00
 5.2916364E+00 1.0664501E+00 1.8199190E+00
 5.3415820E+00 1.0449199E+00 1.8175279E+00
 5.3923190E+00 1.0227404E+00 1.8136995E+00
 5.4435080E+00 9.9999992E-01 1.8083186E+00
 5.4947775E+00 9.7680576E-01 1.8012882E+00
 5.5457374E+00 9.5328290E-01 1.7925356E+00
 5.5959939E+00 9.2957152E-01 1.7820195E+00
 5.6451638E+00 9.0582288E-01 1.7697345E+00
 5.6928891E+00 8.8219497E-01 1.7557133E+00
 5.7388504E+00 8.5884533E-01 1.7400269E+00
 5.7827766E+00 8.3592636E-01 1.7227830E+00
 5.8244760E+00 8.1354725E-01 1.7041045E+00
 5.1954665E+00 1.0647333E+00 1.8253418E+00
 5.2431758E+00 1.0438137E+00 1.8244432E+00
 5.2920484E+00 1.0222137E+00 1.8222826E+00
 5.3418667E+00 9.9999992E-01 1.8187389E+00
 5.3923190E+00 9.7725944E-01 1.8136995E+00
 5.4430574E+00 9.5409752E-01 1.8070664E+00
 5.4937079E+00 9.3063622E-01 1.7987631E+00
 5.5438857E+00 9.0701230E-01 1.7887409E+00
 5.5932091E+00 8.8337323E-01 1.7769840E+00
 5.6413138E+00 8.5987368E-01 1.7635129E+00
 5.6878675E+00 8.3666749E-01 1.7483849E+00
 5.7325796E+00 8.1390533E-01 1.7316941E+00
 5.7752334E+00 7.9169154E-01 1.7135489E+00
 5.1955947E+00 1.0216364E+00 1.8275919E+00
 5.2433090E+00 9.9999992E-01 1.8256011E+00
 5.2920484E+00 9.7778613E-01 1.8222826E+00
 5.3415820E+00 9.5507999E-01 1.8175279E+00
 5.3915890E+00 9.3198425E-01 1.8112411E+00
 5.4417178E+00 9.0861762E-01 1.8033443E+00
 5.4915982E+00 8.8511282E-01 1.7937840E+00
 5.5408562E+00 8.6161313E-01 1.7825359E+00
 5.5891274E+00 8.3826888E-01 1.7696100E+00
 5.6360719E+00 8.1522974E-01 1.7550504E+00
 5.6813841E+00 7.9264405E-01 1.7389376E+00
 5.7248263E+00 7.7061097E-01 1.7213650E+00
 5.1955947E+00 9.7836344E-01 1.8275919E+00
 5.2431758E+00 9.5618618E-01 1.8244432E+00
 5.2916364E+00 9.3354970E-01 1.8199191E+00
 5.3407355E+00 9.1055491E-01 1.8139271E+00
 5.3901482E+00 8.8731679E-01 1.8063906E+00
 5.4395250E+00 8.6396346E-01 1.7972538E+00
 5.4885051E+00 8.4063321E-01 1.7864868E+00
 5.5367294E+00 8.1747156E-01 1.7740902E+00
 5.5838569E+00 7.9462331E-01 1.7600964E+00
 5.6295720E+00 7.7223386E-01 1.7445731E+00
 5.6736201E+00 7.5039725E-01 1.7275983E+00
 5.1954665E+00 9.3526659E-01 1.8253419E+00
 5.2427797E+00 9.1273786E-01 1.8209985E+00
 5.2908228E+00 8.8987869E-01 1.8152524E+00
 5.3393490E+00 8.6680257E-01 1.8080299E+00
 5.3880343E+00 8.4363269E-01 1.7992753E+00
 5.4365364E+00 8.2050182E-01 1.7889553E+00
 5.4845077E+00 7.9754999E-01 1.7770636E+00
 5.5316109E+00 7.7491658E-01 1.7636224E+00
 5.5775266E+00 7.5274342E-01 1.7486876E+00
 5.6219881E+00 7.3111924E-01 1.7323223E+00
 5.1952132E+00 8.9269101E-01 1.8208962E+00
 5.2421304E+00 8.7000541E-01 1.8153519E+00
 5.2896282E+00 8.4712361E-01 1.8083995E+00
 5.3374575E+00 8.2416809E-01 1.7999852E+00
 5.3853002E+00 8.0126569E-01 1.7900748E+00
 5.4328253E+00 7.7855031E-01 1.7786574E+00
 5.4797049E+00 7.5615536E-01 1.7657470E+00
 5.5256204E+00 7.3421866E-01 1.7513891E+00
 5.5702987E+00 7.1282332E-01 1.7356331E+00
 5.1948409E+00 8.5096137E-01 1.8143603E+00
 5.2412434E+00 8.2831044E-01 1.8076388E+00
 5.2880810E+00 8.0559828E-01 1.7995253E+00
 5.3351063E+00 7.8295162E-01 1.7899866E+00
 5.3820104E+00 7.6049819E-01 1.7790094E+00
 5.4284799E+00 7.3836455E-01 1.7666017E+00
 5.4742027E+00 7.1668418E-01 1.7528008E+00
 5.5189036E+00 6.9553417E-01 1.7376433E+00
 5.1943583E+00 8.1036995E-01 1.8058834E+00
 5.2401394E+00 7.8793522E-01 1.7980360E+00
 5.2862172E+00 7.6556935E-01 1.7888328E+00
 5.3323480E+00 7.4340120E-01 1.7782610E+00
 5.3782394E+00 7.2155042E-01 1.7663244E+00
 5.4235899E+00 7.0014543E-01 1.7530543E+00
 5.4681281E+00 6.7925718E-01 1.7384763E+00
 5.1937758E+00 7.7116777E-01 1.7956500E+00
 5.2388424E+00 7.4911407E-01 1.7867514E+00
 5.2840757E+00 7.2725195E-01 1.7765513E+00
 5.3292424E+00 7.0570355E-01 1.7650533E+00
 5.3740593E+00 6.8459176E-01 1.7522842E+00
 5.4182624E+00 6.6398111E-01 1.7382607E+00
 5.1931056E+00 7.3355898E-01 1.7838692E+00
 5.2373781E+00 7.1203166E-01 1.7740130E+00
 5.2817013E+00 6.9080223E-01 1.7629216E+00
 5.3258433E+00 6.6999929E-01 1.7506224E+00
 5.3695565E+00 6.4968091E-01 1.7371250E+00
 5.1923596E+00 6.9769945E-01 1.7707645E+00
 5.2357756E+00 6.7681542E-01 1.7600544E+00
 5.2791298E+00 6.5633511E-01 1.7481949E+00
 5.3222182E+00 6.3632182E-01 1.7351937E+00
 5.1915545E+00 6.6369419E-01 1.7565620E+00
 5.2340558E+00 6.4355837E-01 1.7451177E+00
 5.2764082E+00 6.2386016E-01 1.7325822E+00
 5.1906904E+00 6.3161074E-01 1.7414881E+00
 5.2322504E+00 6.1225375E-01 1.7294007E+00
 5.1897920E+00 6.0142941E-01 1.7257322E+00
 5.1247412E+00 1.4575462E+00 1.6924109E+00
 5.0990224E+00 1.4799733E+00 1.6776294E+00
 5.0722995E+00 1.5027535E+00 1.6612587E+00
 5.0445752E+00 1.5257901E+00 1.6431937E+00
 5.0159624E+00 1.5489481E+00 1.6233379E+00
 4.9865750E+00 1.5720630E+00 1.6016191E+00
 4.9565640E+00 1.5949494E+00 1.5779857E+00
 4.9261060E+00 1.6174012E+00 1.5524147E+00
 4.8954034E+00 1.6391970E+00 1.5249175E+00
 4.8646789E+00 1.6601061E+00 1.4955445E+00
 4.8341698E+00 1.6798962E+00 1.4643897E+00
 4.8041200E+00 1.6983434E+00 1.4315927E+00
 4.7747708E+00 1.7152421E+00 1.3973374E+00
 4.7463525E+00 1.7304155E+00 1.3618487E+00
 4.7190746E+00 1.7437242E+00 1.3253860E+00
 4.6931190E+00 1.7550732E+00 1.2882330E+00
 4.6686333E+00 1.7644153E+00 1.2506867E+00
 4.6457282E+00 1.7717517E+00 1.2130456E+00
 4.6244752E+00 1.7771289E+00 1.1755975E+00
 4.6049085E+00 1.7806332E+00 1.1386095E+00
 4.5870265E+00 1.7823830E+00 1.1023190E+00
 4.5708001E+00 1.7825220E+00 1.0669291E+00
 4.5561592E+00 1.7812046E+00 1.0325697E+00
 4.1179225E+00 1.0608163E+00 1.5459862E+00
 4.1125974E+00 1.1004835E+00 1.5347391E+00
 4.1092006E+00 1.1416354E+00 1.5218294E+00
 4.1080198E+00 1.1841100E+00 1.5071772E+00
 4.1093220E+00 1.2276520E+00 1.4907167E+00
 4.1133594E+00 1.2719438E+00 1.4724166E+00
 4.1203508E+00 1.3166117E+00 1.4522831E+00
 4.1304668E+00 1.3612313E+00 1.4303662E+00
 4.1438148E+00 1.4053393E+00 1.4067649E+00
 4.1604252E+00 1.4484503E+00 1.3816295E+00
 4.1802420E+00 1.4900787E+00 1.3551611E+00
 4.2031168E+00 1.5297624E+00 1.3276068E+00
 4.2288117E+00 1.5670887E+00 1.2992509E+00
 4.2570083E+00 1.6017173E+00 1.2704024E+00
 4.2873238E+00 1.6333984E+00 1.2413798E+00
 4.3193323E+00 1.6619822E+00 1.2124944E+00
 4.3525897E+00 1.6874210E+00 1.1840358E+00
 4.3866560E+00 1.7097614E+00 1.1562586E+00
 4.4211168E+00 1.7291303E+00 1.1293742E+00
 4.4556003E+00 1.7457169E+00 1.1035456E+00
 4.4897812E+00 1.7597517E+00 1.0788921E+00
 4.5234237E+00 1.7714969E+00 1.0554496E+00
 4.1460570E+00 1.0853569E+00 1.5695548E+00
 4.1420169E+00 1.1261569E+00 1.5582441E+00
 4.1400334E+00 1.1683912E+00 1.5451584E+00
 4.1403892E+00 1.2118464E+00 1.5302013E+00
 4.1433465E+00 1.2562294E+00 1.5133057E+00
 4.1491432E+00 1.3011785E+00 1.4944431E+00
 4.1579745E+00 1.3462761E+00 1.4736292E+00
 4.1699775E+00 1.3910577E+00 1.4509306E+00
 4.1852159E+00 1.4350285E+00 1.4264695E+00
 4.2036681E+00 1.4776838E+00 1.4004250E+00
 4.2252199E+00 1.5185347E+00 1.3730305E+00
 4.2496646E+00 1.5571345E+00 1.3445661E+00
 4.2767093E+00 1.5931042E+00 1.3153473E+00
 4.3059902E+00 1.6261537E+00 1.2857087E+00
 4.3370927E+00 1.6560948E+00 1.2559867E+00
 4.3695758E+00 1.6828451E+00 1.2265024E+00
 4.4029962E+00 1.7064234E+00 1.1975461E+00
 4.4369299E+00 1.7269359E+00 1.1693660E+00
 4.4709920E+00 1.7445589E+00 1.1421620E+00
 4.5048447E+00 1.7595176E+00 1.1160817E+00
 4.5382316E+00 1.7720747E+00 1.0912045E+00
 4.1773610E+00 1.1104048E+00 1.5924056E+00
 4.1747738E+00 1.1522385E+00 1.5809464E+00
 4.1743589E+00 1.1954080E+00 1.5675877E+00
 4.1763921E+00 1.2396688E+00 1.5522275E+00
 4.1811220E+00 1.2846819E+00 1.5347994E+00
 4.1887631E+00 1.3300430E+00 1.5152823E+00
 4.1994783E+00 1.3752941E+00 1.4937065E+00
 4.2133622E+00 1.4199380E+00 1.4701607E+00
 4.2304271E+00 1.4634585E+00 1.4447953E+00
 4.2505949E+00 1.5053455E+00 1.4178223E+00
 4.2736932E+00 1.5451228E+00 1.3895098E+00
 4.2994601E+00 1.5823751E+00 1.3601712E+00
 4.3275575E+00 1.6167723E+00 1.3301504E+00
 4.3575886E+00 1.6480851E+00 1.2998030E+00
 4.3891228E+00 1.6761931E+00 1.2694774E+00
 4.4217196E+00 1.7010815E+00 1.2394973E+00
 4.4549513E+00 1.7228303E+00 1.2101477E+00
 4.4884246E+00 1.7415970E+00 1.1816647E+00
 4.5217880E+00 1.7575950E+00 1.1542329E+00
 4.5547763E+00 1.7710840E+00 1.1279589E+00
 4.2119217E+00 1.1358034E+00 1.6142298E+00
 4.2109405E+00 1.1785196E+00 1.6025178E+00
 4.2122334E+00 1.2224447E+00 1.5887820E+00
 4.2160586E+00 1.2672946E+00 1.5729157E+00
 4.2226424E+00 1.3126881E+00 1.5548588E+00
 4.2321674E+00 1.3581812E+00 1.5346027E+00
 4.2447551E+00 1.4032827E+00 1.5121986E+00
 4.2604498E+00 1.4474730E+00 1.4877622E+00
 4.2792089E+00 1.4902286E+00 1.4614769E+00
 4.3008968E+00 1.5310498E+00 1.4335903E+00
 4.3252868E+00 1.5694897E+00 1.4044053E+00
 4.3520718E+00 1.6051795E+00 1.3742661E+00
 4.3808805E+00 1.6378491E+00 1.3435401E+00
 4.4112999E+00 1.6673365E+00 1.3125970E+00
 4.4428994E+00 1.6935893E+00 1.2817899E+00
 4.4752539E+00 1.7166548E+00 1.2514378E+00
 4.5079665E+00 1.7366654E+00 1.2218135E+00
 4.5406769E+00 1.7538168E+00 1.1931376E+00
 4.5731127E+00 1.7683593E+00 1.1655510E+00
 4.2497358E+00 1.1613253E+00 1.6346989E+00
 4.2504883E+00 1.2047398E+00 1.6226181E+00
 4.2535924E+00 1.2492024E+00 1.6083920E+00