# TIME = 0.000000
VARIABLES = X, Y, Z, FX, FY, FZ
ZONE N=29232 E=58212 F=FEPOINT ET=TRIANGLE
  0.000E+00  9.502E-01  1.243E-03 6.7498533E+00 3.3412817E-02 6.7429016E-01
  0.000E+00  1.000E+00  0.000E+00 6.7397851E+00 -1.7675774E-06 6.7515836E-01
  4.318E-02  9.751E-01  3.108E-04 6.7411354E+00 1.6700565E-02 6.7494360E-01
  0.000E+00  1.050E+00  1.243E-03 6.7498534E+00 -3.3416418E-02 6.7429016E-01
  4.318E-02  1.025E+00  3.108E-04 6.7411354E+00 -1.6704416E-02 6.7494360E-01
  0.000E+00  1.100E+00  4.969E-03 6.7837309E+00 -6.6936605E-02 6.7177815E-01
  4.318E-02  1.075E+00  2.796E-03 6.7638593E+00 -5.0157262E-02 6.7323445E-01
  0.000E+00  1.149E+00  1.117E-02 6.8483784E+00 -1.0065487E-01 6.6778382E-01
  4.318E-02  1.124E+00  7.761E-03 6.8132540E+00 -8.3770547E-02 6.6996232E-01
  0.000E+00  1.198E+00  1.983E-02 6.9424209E+00 -1.3434838E-01 6.6227850E-01
  4.318E-02  1.174E+00  1.519E-02 6.8923092E+00 -1.1754103E-01 6.6524164E-01
  0.000E+00  1.247E+00  3.092E-02 7.0451110E+00 -1.6732354E-01 6.5488885E-01
  4.318E-02  1.223E+00  2.507E-02 6.9938017E+00 -1.5097529E-01 6.5885450E-01
  0.000E+00  1.295E+00  4.443E-02 7.1261299E+00 -1.9912146E-01 6.4535119E-01
  4.318E-02  1.271E+00  3.738E-02 7.0902324E+00 -1.8335320E-01 6.5037213E-01
  0.000E+00  1.342E+00  6.031E-02 7.1926529E+00 -2.3049892E-01 6.3432010E-01
  4.318E-02  1.318E+00  5.207E-02 7.1574069E+00 -2.1478561E-01 6.3996595E-01
  0.000E+00  1.388E+00  7.852E-02 7.3442305E+00 -2.6218403E-01 6.2233552E-01
  4.318E-02  1.365E+00  6.913E-02 7.2558446E+00 -2.4632956E-01 6.2847225E-01
  0.000E+00  1.434E+00  9.903E-02 7.4713627E+00 -2.9324050E-01 6.0873818E-01
  4.318E-02  1.411E+00  8.849E-02 7.4221667E+00 -2.7787739E-01 6.1579650E-01
  0.000E+00  1.478E+00  1.218E-01 7.5157995E+00 -3.2298528E-01 5.9318051E-01
  4.318E-02  1.456E+00  1.101E-01 7.5012363E+00 -3.0824935E-01 6.0117308E-01
  0.000E+00  1.521E+00  1.467E-01 7.6683914E+00 -3.5208140E-01 5.7629677E-01
  4.318E-02  1.500E+00  1.340E-01 7.5741785E+00 -3.3758745E-01 5.8488621E-01
  0.000E+00  1.563E+00  1.738E-01 7.7103392E+00 -3.8044428E-01 5.5810133E-01
  4.318E-02  1.543E+00  1.600E-01 7.7132331E+00 -3.6639690E-01 5.6739306E-01
  0.000E+00  1.604E+00  2.029E-01 7.7903422E+00 -4.0775150E-01 5.3838706E-01
  4.318E-02  1.584E+00  1.881E-01 7.7320461E+00 -3.9422294E-01 5.4842639E-01
  0.000E+00  1.643E+00  2.340E-01 7.8426145E+00 -4.3408698E-01 5.1737989E-01
  4.318E-02  1.623E+00  2.182E-01 7.8237557E+00 -4.2105025E-01 5.2804335E-01
  0.000E+00  1.680E+00  2.669E-01 7.8445524E+00 -4.5934387E-01 4.9507770E-01
  4.318E-02  1.662E+00  2.502E-01 7.8323201E+00 -4.4685779E-01 5.0639393E-01
  0.000E+00  1.716E+00  3.018E-01 7.8765843E+00 -4.8345967E-01 4.7154846E-01
  4.318E-02  1.698E+00  2.841E-01 7.8765858E+00 -4.7155127E-01 4.8346258E-01
  0.000E+00  1.750E+00  3.383E-01 7.8323221E+00 -5.0639074E-01 4.4685490E-01
  4.318E-02  1.733E+00  3.198E-01 7.8445559E+00 -4.9508093E-01 4.5934690E-01
  0.000E+00  1.782E+00  3.765E-01 7.8237609E+00 -5.2803963E-01 4.2104761E-01
  4.318E-02  1.766E+00  3.572E-01 7.8426199E+00 -5.1738273E-01 4.3408983E-01
  0.000E+00  1.812E+00  4.163E-01 7.7320542E+00 -5.4842265E-01 3.9422095E-01
  4.318E-02  1.797E+00  3.962E-01 7.7903504E+00 -5.3839101E-01 4.0775489E-01
  0.000E+00  1.840E+00  4.575E-01 7.7132402E+00 -5.6738774E-01 3.6639535E-01
  4.318E-02  1.826E+00  4.367E-01 7.7103523E+00 -5.5810555E-01 3.8044832E-01
  0.000E+00  1.866E+00  5.000E-01 7.5741842E+00 -5.8488235E-01 3.3758541E-01
  4.318E-02  1.853E+00  4.786E-01 7.6684096E+00 -5.7630139E-01 3.5208524E-01
  0.000E+00  1.890E+00  5.438E-01 7.5012445E+00 -6.0116979E-01 3.0824682E-01
  4.318E-02  1.878E+00  5.217E-01 7.5158212E+00 -5.9318694E-01 3.2298811E-01
  0.000E+00  1.912E+00  5.887E-01 7.4221788E+00 -6.1579223E-01 2.7787506E-01
  4.318E-02  1.901E+00  5.661E-01 7.4713853E+00 -6.0874307E-01 2.9324262E-01
  0.000E+00  1.931E+00  6.347E-01 7.2558581E+00 -6.2846948E-01 2.4632747E-01
  4.318E-02  1.921E+00  6.116E-01 7.3442496E+00 -6.2234033E-01 2.6218595E-01
  0.000E+00  1.948E+00  6.815E-01 7.1574212E+00 -6.3996340E-01 2.1478271E-01
  4.318E-02  1.940E+00  6.580E-01 7.1926694E+00 -6.3432634E-01 2.3049968E-01
  0.000E+00  1.963E+00  7.292E-01 7.0902507E+00 -6.5036871E-01 1.8335030E-01
  4.318E-02  1.956E+00  7.052E-01 7.1261481E+00 -6.4535672E-01 1.9912102E-01
  0.000E+00  1.975E+00  7.775E-01 6.9938220E+00 -6.5885139E-01 1.5097329E-01
  4.318E-02  1.969E+00  7.532E-01 7.0451338E+00 -6.5489411E-01 1.6732300E-01
  0.000E+00  1.985E+00  8.264E-01 6.8923280E+00 -6.6523907E-01 1.1753959E-01
  4.318E-02  1.980E+00  8.019E-01 6.9424449E+00 -6.6228420E-01 1.3434847E-01
  0.000E+00  1.992E+00  8.757E-01 6.8132706E+00 -6.6995982E-01 8.3768141E-02
  4.318E-02  1.989E+00  8.510E-01 6.8484009E+00 -6.6778951E-01 1.0065412E-01
  0.000E+00  1.997E+00  9.253E-01 6.7638773E+00 -6.7323237E-01 5.0153561E-02
  4.318E-02  1.995E+00  9.004E-01 6.7837540E+00 -6.7178378E-01 6.6934136E-02
  0.000E+00  2.000E+00  9.751E-01 6.7411557E+00 -6.7494207E-01 1.6700970E-02
  4.318E-02  1.999E+00  9.502E-01 6.7498803E+00 -6.7429619E-01 3.3412855E-02
  0.000E+00  2.000E+00  1.025E+00 6.7411550E+00 -6.7494193E-01 -1.6703043E-02
  4.318E-02  2.000E+00  1.000E+00 6.7398148E+00 -6.7516462E-01 -1.1790912E-06
  0.000E+00  1.997E+00  1.075E+00 6.7638753E+00 -6.7323188E-01 -5.0155627E-02
  4.318E-02  1.999E+00  1.050E+00 6.7498811E+00 -6.7429573E-01 -3.3415207E-02
  0.000E+00  1.992E+00  1.124E+00 6.8132673E+00 -6.6995918E-01 -8.3770203E-02
  4.318E-02  1.995E+00  1.100E+00 6.7837556E+00 -6.7178284E-01 -6.6936447E-02
  0.000E+00  1.985E+00  1.174E+00 6.8923241E+00 -6.6523924E-01 -1.1754166E-01
  4.318E-02  1.989E+00  1.149E+00 6.8484031E+00 -6.6778866E-01 -1.0065633E-01
  0.000E+00  1.975E+00  1.223E+00 6.9938185E+00 -6.5885330E-01 -1.5097535E-01
  4.318E-02  1.980E+00  1.198E+00 6.9424472E+00 -6.6228466E-01 -1.3435053E-01
  0.000E+00  1.963E+00  1.271E+00 7.0902482E+00 -6.5037057E-01 -1.8335235E-01
  4.318E-02  1.969E+00  1.247E+00 7.0451358E+00 -6.5489571E-01 -1.6732495E-01
  0.000E+00  1.948E+00  1.318E+00 7.1574190E+00 -6.3996237E-01 -2.1478475E-01
  4.318E-02  1.956E+00  1.295E+00 7.1261498E+00 -6.4535636E-01 -1.9912295E-01
  0.000E+00  1.931E+00  1.365E+00 7.2558553E+00 -6.2846918E-01 -2.4632952E-01
  4.318E-02  1.940E+00  1.342E+00 7.1926712E+00 -6.3432370E-01 -2.3050163E-01
  0.000E+00  1.912E+00  1.411E+00 7.4221749E+00 -6.1579572E-01 -2.7787712E-01
  4.318E-02  1.921E+00  1.388E+00 7.3442520E+00 -6.2234113E-01 -2.6218788E-01
  0.000E+00  1.890E+00  1.456E+00 7.5012397E+00 -6.0117047E-01 -3.0824887E-01
  4.318E-02  1.901E+00  1.434E+00 7.4713883E+00 -6.0874454E-01 -2.9324443E-01
  0.000E+00  1.866E+00  1.500E+00 7.5741791E+00 -5.8488239E-01 -3.3758747E-01
  4.318E-02  1.878E+00  1.478E+00 7.5158245E+00 -5.9318483E-01 -3.2298975E-01
  0.000E+00  1.840E+00  1.543E+00 7.7132356E+00 -5.6739066E-01 -3.6639743E-01
  4.318E-02  1.853E+00  1.521E+00 7.6684130E+00 -5.7630217E-01 -3.5208677E-01
  0.000E+00  1.812E+00  1.584E+00 7.7320508E+00 -5.4842355E-01 -3.9422301E-01
  4.318E-02  1.826E+00  1.563E+00 7.7103553E+00 -5.5810632E-01 -3.8044970E-01
  0.000E+00  1.782E+00  1.623E+00 7.8237595E+00 -5.2804157E-01 -4.2104969E-01
  4.318E-02  1.797E+00  1.604E+00 7.7903526E+00 -5.3839101E-01 -4.0775613E-01
  0.000E+00  1.750E+00  1.662E+00 7.8323230E+00 -5.0639249E-01 -4.4685698E-01
  4.318E-02  1.766E+00  1.643E+00 7.8426210E+00 -5.1738399E-01 -4.3409102E-01
  0.000E+00  1.716E+00  1.698E+00 7.8765870E+00 -4.8346131E-01 -4.7155056E-01
  4.318E-02  1.733E+00  1.680E+00 7.8445559E+00 -4.9508134E-01 -4.5934807E-01
  0.000E+00  1.680E+00  1.733E+00 7.8445557E+00 -4.5934571E-01 -4.9507981E-01
  4.318E-02  1.698E+00  1.716E+00 7.8765852E+00 -4.7155228E-01 -4.8346383E-01
  0.000E+00  1.643E+00  1.766E+00 7.8426171E+00 -4.3408859E-01 -5.1738202E-01
  4.318E-02  1.662E+00  1.750E+00 7.8323196E+00 -4.4685840E-01 -5.0639521E-01
  0.000E+00  1.604E+00  1.797E+00 7.7903458E+00 -4.0775324E-01 -5.3838921E-01
  4.318E-02  1.623E+00  1.782E+00 7.8237553E+00 -4.2105124E-01 -5.2804450E-01
  0.000E+00  1.563E+00  1.826E+00 7.7103486E+00 -3.8044590E-01 -5.5810351E-01
  4.318E-02  1.584E+00  1.812E+00 7.7320441E+00 -3.9422428E-01 -5.4842727E-01
  0.000E+00  1.521E+00  1.853E+00 7.6684096E+00 -3.5208313E-01 -5.7629899E-01
  4.318E-02  1.543E+00  1.840E+00 7.7132269E+00 -3.6639865E-01 -5.6739386E-01
  0.000E+00  1.478E+00  1.878E+00 7.5158215E+00 -3.2298697E-01 -5.9318278E-01
  4.318E-02  1.500E+00  1.866E+00 7.5741685E+00 -3.3758880E-01 -5.8488735E-01
  0.000E+00  1.434E+00  1.901E+00 7.4713797E+00 -2.9324236E-01 -6.0874050E-01
  4.318E-02  1.456E+00  1.890E+00 7.5012266E+00 -3.0825010E-01 -6.0117468E-01
  0.000E+00  1.388E+00  1.921E+00 7.3442373E+00 -2.6218575E-01 -6.2233790E-01
  4.318E-02  1.411E+00  1.912E+00 7.4221614E+00 -2.7787767E-01 -6.1579831E-01
  0.000E+00  1.342E+00  1.940E+00 7.1926528E+00 -2.3050071E-01 -6.3432256E-01
  4.318E-02  1.365E+00  1.931E+00 7.2558442E+00 -2.4633012E-01 -6.2847392E-01
  0.000E+00  1.295E+00  1.956E+00 7.1261286E+00 -1.9912326E-01 -6.4535372E-01
  4.318E-02  1.318E+00  1.948E+00 7.1574084E+00 -2.1478684E-01 -6.3996744E-01
  0.000E+00  1.247E+00  1.969E+00 7.0451117E+00 -1.6732540E-01 -6.5489146E-01
  4.318E-02  1.271E+00  1.963E+00 7.0902335E+00 -1.8335486E-01 -6.5037360E-01
  0.000E+00  1.198E+00  1.980E+00 6.9424232E+00 -1.3435025E-01 -6.6228121E-01
  4.318E-02  1.223E+00  1.975E+00 6.9938017E+00 -1.5097704E-01 -6.5885607E-01
  0.000E+00  1.149E+00  1.989E+00 6.8483813E+00 -1.0065680E-01 -6.6778665E-01
  4.318E-02  1.174E+00  1.985E+00 6.8923086E+00 -1.1754275E-01 -6.6524334E-01
  0.000E+00  1.100E+00  1.995E+00 6.7837344E+00 -6.6938511E-02 -6.7178109E-01
  4.318E-02  1.124E+00  1.992E+00 6.8132530E+00 -8.3772431E-02 -6.6996413E-01
  0.000E+00  1.050E+00  1.999E+00 6.7498580E+00 -3.3418278E-02 -6.7429321E-01
  4.318E-02  1.075E+00  1.997E+00 6.7638579E+00 -5.0159229E-02 -6.7323639E-01
  0.000E+00  1.000E+00  2.000E+00 6.7397903E+00 -3.7715751E-06 -6.7516153E-01
  4.318E-02  1.025E+00  2.000E+00 6.7411334E+00 -1.6706467E-02 -6.7494567E-01
  0.000E+00  9.502E-01  1.999E+00 6.7498579E+00 3.3410827E-02 -6.7429346E-01
  4.318E-02  9.751E-01  2.000E+00 6.7411334E+00 1.6698572E-02 -6.7494580E-01
  0.000E+00  9.004E-01  1.995E+00 6.7837342E+00 6.6931062E-02 -6.7178158E-01
  4.318E-02  9.253E-01  1.997E+00 6.7638577E+00 5.0151404E-02 -6.7323678E-01
  0.000E+00  8.510E-01  1.989E+00 6.8483810E+00 1.0064941E-01 -6.6778739E-01
  4.318E-02  8.757E-01  1.992E+00 6.8132528E+00 8.3764591E-02 -6.6996478E-01
  0.000E+00  8.019E-01  1.980E+00 6.9424227E+00 1.3434298E-01 -6.6228219E-01
  4.318E-02  8.264E-01  1.985E+00 6.8923082E+00 1.1753507E-01 -6.6524424E-01
  0.000E+00  7.532E-01  1.969E+00 7.0451111E+00 1.6731821E-01 -6.5489267E-01
  4.318E-02  7.775E-01  1.975E+00 6.9938013E+00 1.5096944E-01 -6.5885721E-01
  0.000E+00  7.052E-01  1.956E+00 7.1261279E+00 1.9911623E-01 -6.4535516E-01
  4.318E-02  7.292E-01  1.963E+00 7.0902330E+00 1.8334739E-01 -6.5037497E-01
  0.000E+00  6.580E-01  1.940E+00 7.1926520E+00 2.3049384E-01 -6.3432421E-01
  4.318E-02  6.815E-01  1.948E+00 7.1574079E+00 2.1477952E-01 -6.3996903E-01
  0.000E+00  6.116E-01  1.921E+00 7.3442365E+00 2.6217912E-01 -6.2233975E-01
  4.318E-02  6.347E-01  1.931E+00 7.2558435E+00 2.4632302E-01 -6.2847571E-01
  0.000E+00  5.661E-01  1.901E+00 7.4713788E+00 2.9323578E-01 -6.0874251E-01
  4.318E-02  5.887E-01  1.912E+00 7.4221607E+00 2.7787071E-01 -6.1580029E-01
  0.000E+00  5.217E-01  1.878E+00 7.5158205E+00 3.2298074E-01 -5.9318494E-01
  4.318E-02  5.438E-01  1.890E+00 7.5012259E+00 3.0824331E-01 -6.0117684E-01
  0.000E+00  4.786E-01  1.853E+00 7.6684085E+00 3.5207707E-01 -5.7630128E-01
  4.318E-02  5.000E-01  1.866E+00 7.5741677E+00 3.3758236E-01 -5.8488967E-01
  0.000E+00  4.367E-01  1.826E+00 7.7103476E+00 3.8044017E-01 -5.5810593E-01
  4.318E-02  4.575E-01  1.840E+00 7.7132260E+00 3.6639238E-01 -5.6739632E-01
  0.000E+00  3.962E-01  1.797E+00 7.7903447E+00 4.0774762E-01 -5.3839173E-01
  4.318E-02  4.163E-01  1.812E+00 7.7320431E+00 3.9421833E-01 -5.4842984E-01
  0.000E+00  3.572E-01  1.766E+00 7.8426159E+00 4.3408334E-01 -5.1738461E-01
  4.318E-02  3.765E-01  1.782E+00 7.8237543E+00 4.2104542E-01 -5.2804716E-01
  0.000E+00  3.198E-01  1.733E+00 7.8445545E+00 4.5934048E-01 -4.9508247E-01
  4.318E-02  3.383E-01  1.750E+00 7.8323186E+00 4.4685299E-01 -5.0639795E-01
  0.000E+00  2.841E-01  1.698E+00 7.8765858E+00 4.8345652E-01 -4.7155326E-01
  4.318E-02  3.018E-01  1.716E+00 7.8765841E+00 4.7154673E-01 -4.8346662E-01
  0.000E+00  2.502E-01  1.662E+00 7.8323218E+00 5.0638785E-01 -4.4685971E-01
  4.318E-02  2.669E-01  1.680E+00 7.8445548E+00 4.9507668E-01 -4.5935091E-01
  0.000E+00  2.182E-01  1.623E+00 7.8237582E+00 5.2803699E-01 -4.2105242E-01
  4.318E-02  2.340E-01  1.643E+00 7.8426199E+00 5.1737870E-01 -4.3409386E-01
  0.000E+00  1.881E-01  1.584E+00 7.7320495E+00 5.4842027E-01 -3.9422575E-01
  4.318E-02  2.029E-01  1.604E+00 7.7903515E+00 5.3838714E-01 -4.0775897E-01
  0.000E+00  1.600E-01  1.543E+00 7.7132343E+00 5.6738559E-01 -3.6640012E-01
  4.318E-02  1.738E-01  1.563E+00 7.7103542E+00 5.5810182E-01 -3.8045252E-01
  0.000E+00  1.340E-01  1.500E+00 7.5741779E+00 5.8488043E-01 -3.3759014E-01
  4.318E-02  1.467E-01  1.521E+00 7.6684119E+00 5.7629781E-01 -3.5208954E-01
  0.000E+00  1.101E-01  1.456E+00 7.5012384E+00 6.0116805E-01 -3.0825149E-01
  4.318E-02  1.218E-01  1.478E+00 7.5158235E+00 5.9318352E-01 -3.2299250E-01
  0.000E+00  8.849E-02  1.411E+00 7.4221736E+00 6.1579062E-01 -2.7787966E-01
  4.318E-02  9.903E-02  1.434E+00 7.4713873E+00 6.0873985E-01 -2.9324709E-01
  0.000E+00  6.913E-02  1.365E+00 7.2558541E+00 6.2846800E-01 -2.4633199E-01
  4.318E-02  7.852E-02  1.388E+00 7.3442510E+00 6.2233733E-01 -2.6219047E-01
  0.000E+00  5.207E-02  1.318E+00 7.1574178E+00 6.3996199E-01 -2.1478714E-01
  4.318E-02  6.031E-02  1.342E+00 7.1926702E+00 6.3432359E-01 -2.3050414E-01
  0.000E+00  3.738E-02  1.271E+00 7.0902470E+00 6.5036736E-01 -1.8335464E-01
  4.318E-02  4.443E-02  1.295E+00 7.1261488E+00 6.4535424E-01 -1.9912537E-01
  0.000E+00  2.507E-02  1.223E+00 6.9938174E+00 6.5885008E-01 -1.5097754E-01
  4.318E-02  3.092E-02  1.247E+00 7.0451348E+00 6.5489185E-01 -1.6732726E-01
  0.000E+00  1.519E-02  1.174E+00 6.8923230E+00 6.6523779E-01 -1.1754375E-01
  4.318E-02  1.983E-02  1.198E+00 6.9424462E+00 6.6228211E-01 -1.3435273E-01
  0.000E+00  7.761E-03  1.124E+00 6.8132662E+00 6.6995856E-01 -8.3772196E-02
  4.318E-02  1.117E-02  1.149E+00 6.8484022E+00 6.6778758E-01 -1.0065842E-01
  0.000E+00  2.796E-03  1.075E+00 6.7638742E+00 6.7323111E-01 -5.0157517E-02
  4.318E-02  4.969E-03  1.100E+00 6.7837547E+00 6.7178202E-01 -6.6938427E-02
  0.000E+00  3.108E-04  1.025E+00 6.7411540E+00 6.7494080E-01 -1.6704826E-02
  4.318E-02  1.243E-03  1.050E+00 6.7498802E+00 6.7429457E-01 -3.3417072E-02
  0.000E+00  3.108E-04  9.751E-01 6.7411547E+00 6.7494063E-01 1.6699293E-02
  4.318E-02  0.000E+00  1.000E+00 6.7398139E+00 6.7516314E-01 -2.9297415E-06
  0.000E+00  2.796E-03  9.253E-01 6.7638763E+00 6.7323054E-01 5.0151989E-02
  4.318E-02  1.243E-03  9.502E-01 6.7498795E+00 6.7429437E-01 3.3411219E-02
  0.000E+00  7.761E-03  8.757E-01 6.8132696E+00 6.6995778E-01 8.3766676E-02
  4.318E-02  4.969E-03  9.004E-01 6.7837532E+00 6.7178157E-01 6.6932614E-02
  0.000E+00  1.519E-02  8.264E-01 6.8923270E+00 6.6523775E-01 1.1753823E-01
  4.318E-02  1.117E-02  8.510E-01 6.8484002E+00 6.6778746E-01 1.0065272E-01
  0.000E+00  2.507E-02  7.775E-01 6.9938210E+00 6.5885169E-01 1.5097203E-01
  4.318E-02  1.983E-02  8.019E-01 6.9424441E+00 6.6228348E-01 1.3434717E-01
  0.000E+00  3.738E-02  7.292E-01 7.0902498E+00 6.5036882E-01 1.8334913E-01
  4.318E-02  3.092E-02  7.532E-01 7.0451330E+00 6.5489455E-01 1.6732181E-01
  0.000E+00  5.207E-02  6.815E-01 7.1574203E+00 6.3996046E-01 2.1478164E-01
  4.318E-02  4.443E-02  7.052E-01 7.1261474E+00 6.4535522E-01 1.9911994E-01
  0.000E+00  6.913E-02  6.347E-01 7.2558572E+00 6.2846711E-01 2.4632650E-01
  4.318E-02  6.031E-02  6.580E-01 7.1926687E+00 6.3432259E-01 2.3049869E-01
  0.000E+00  8.849E-02  5.887E-01 7.4221779E+00 6.1579349E-01 2.7787419E-01
  4.318E-02  7.852E-02  6.116E-01 7.3442489E+00 6.2234001E-01 2.6218508E-01
  0.000E+00  1.101E-01  5.438E-01 7.5012436E+00 6.0116809E-01 3.0824603E-01
  4.318E-02  9.903E-02  5.661E-01 7.4713846E+00 6.0874335E-01 2.9324184E-01
  0.000E+00  1.340E-01  5.000E-01 7.5741833E+00 5.8487987E-01 3.3758471E-01
  4.318E-02  1.218E-01  5.217E-01 7.5158205E+00 5.9318350E-01 3.2298740E-01
  0.000E+00  1.600E-01  4.575E-01 7.7132393E+00 5.6738802E-01 3.6639476E-01
  4.318E-02  1.467E-01  4.786E-01 7.6684090E+00 5.7630067E-01 3.5208465E-01
  0.000E+00  1.881E-01  4.163E-01 7.7320534E+00 5.4842077E-01 3.9422041E-01
  4.318E-02  1.738E-01  4.367E-01 7.7103516E+00 5.5810461E-01 3.8044781E-01
  0.000E+00  2.182E-01  3.765E-01 7.8237601E+00 5.2803867E-01 4.2104716E-01
  4.318E-02  2.029E-01  3.962E-01 7.7903498E+00 5.3838904E-01 4.0775445E-01
  0.000E+00  2.502E-01  3.383E-01 7.8323214E+00 5.0638944E-01 4.4685451E-01
  4.318E-02  2.340E-01  3.572E-01 7.8426193E+00 5.1738178E-01 4.3408948E-01
  0.000E+00  2.841E-01  3.018E-01 7.8765836E+00 4.8345811E-01 4.7154814E-01
  4.318E-02  2.669E-01  3.198E-01 7.8445553E+00 4.9507893E-01 4.5934660E-01
  0.000E+00  3.198E-01  2.669E-01 7.8445517E+00 4.5934234E-01 4.9507744E-01
  4.318E-02  3.018E-01  2.841E-01 7.8765853E+00 4.7154973E-01 4.8346235E-01
  0.000E+00  3.572E-01  2.340E-01 7.8426138E+00 4.3408503E-01 5.1737968E-01
  4.318E-02  3.383E-01  2.502E-01 7.8323196E+00 4.4685568E-01 5.0639375E-01
  0.000E+00  3.962E-01  2.029E-01 7.7903415E+00 4.0774950E-01 5.3838689E-01
  4.318E-02  3.765E-01  2.182E-01 7.8237552E+00 4.2104811E-01 5.2804322E-01
  0.000E+00  4.367E-01  1.738E-01 7.7103386E+00 3.8044197E-01 5.5810119E-01
  4.318E-02  4.163E-01  1.881E-01 7.7320457E+00 3.9422050E-01 5.4842630E-01
  0.000E+00  4.786E-01  1.467E-01 7.6683908E+00 3.5207902E-01 5.7629666E-01
  4.318E-02  4.575E-01  1.600E-01 7.7132326E+00 3.6639436E-01 5.6739301E-01
  0.000E+00  5.217E-01  1.218E-01 7.5157989E+00 3.2298266E-01 5.9318041E-01
  4.318E-02  5.000E-01  1.340E-01 7.5741781E+00 3.3758466E-01 5.8488619E-01
  0.000E+00  5.661E-01  9.903E-02 7.4713622E+00 2.9323786E-01 6.0873810E-01
  4.318E-02  5.438E-01  1.101E-01 7.5012359E+00 3.0824651E-01 6.0117309E-01
  0.000E+00  6.116E-01  7.852E-02 7.3442301E+00 2.6218108E-01 6.2233545E-01
  4.318E-02  5.887E-01  8.849E-02 7.4221663E+00 2.7787434E-01 6.1579652E-01
  0.000E+00  6.580E-01  6.031E-02 7.1926525E+00 2.3049589E-01 6.3432006E-01
  4.318E-02  6.347E-01  6.913E-02 7.2558443E+00 2.4632630E-01 6.2847228E-01
  0.000E+00  7.052E-01  4.443E-02 7.1261295E+00 1.9911829E-01 6.4535116E-01
  4.318E-02  6.815E-01  5.207E-02 7.1574066E+00 2.1478225E-01 6.3996598E-01
  0.000E+00  7.532E-01  3.092E-02 7.0451107E+00 1.6732028E-01 6.5488884E-01
  4.318E-02  7.292E-01  3.738E-02 7.0902321E+00 1.8334970E-01 6.5037216E-01
  0.000E+00  8.019E-01  1.983E-02 6.9424206E+00 1.3434498E-01 6.6227850E-01
  4.318E-02  7.775E-01  2.507E-02 6.9938015E+00 1.5097167E-01 6.5885452E-01
  0.000E+00  8.510E-01  1.117E-02 6.8483782E+00 1.0065142E-01 6.6778383E-01
  4.318E-02  8.264E-01  1.519E-02 6.8923090E+00 1.1753729E-01 6.6524166E-01
  0.000E+00  9.004E-01  4.969E-03 6.7837307E+00 6.6933080E-02 6.7177815E-01
  4.318E-02  8.757E-01  7.761E-03 6.8132539E+00 8.3766800E-02 6.6996233E-01
  4.318E-02  9.253E-01  2.796E-03 6.7638592E+00 5.0153395E-02 6.7323446E-01
  1.000E+01  1.050E+00  1.243E-03 6.7498534E+00 -3.3416418E-02 6.7429016E-01
  1.000E+01  1.000E+00  5.551E-16 6.7397851E+00 -1.7675774E-06 6.7515836E-01
  9.957E+00  1.025E+00  3.108E-04 6.7411364E+00 -1.6703023E-02 6.7494614E-01
  1.000E+01  9.502E-01  1.243E-03 6.7498533E+00 3.3412817E-02 6.7429016E-01
  9.957E+00  9.751E-01  3.108E-04 6.7411363E+00 1.6699788E-02 6.7494613E-01
  1.000E+01  9.004E-01  4.969E-03 6.7837307E+00 6.6933080E-02 6.7177815E-01
  9.957E+00  9.253E-01  2.796E-03 6.7638598E+00 5.0151962E-02 6.7323703E-01
  1.000E+01  8.510E-01  1.117E-02 6.8483782E+00 1.0065142E-01 6.6778383E-01
  9.957E+00  8.757E-01  7.761E-03 6.8132541E+00 8.3767747E-02 6.6996492E-01
  1.000E+01  8.019E-01  1.983E-02 6.9424206E+00 1.3434498E-01 6.6227850E-01
  9.957E+00  8.264E-01  1.519E-02 6.8923093E+00 1.1754000E-01 6.6524419E-01
  1.000E+01  7.532E-01  3.092E-02 7.0451107E+00 1.6732028E-01 6.5488884E-01
  9.957E+00  7.775E-01  2.507E-02 6.9938023E+00 1.5097302E-01 6.5885703E-01
  1.000E+01  7.052E-01  4.443E-02 7.1261295E+00 1.9911829E-01 6.4535116E-01
  9.957E+00  7.292E-01  3.738E-02 7.0902333E+00 1.8334932E-01 6.5037465E-01
  1.000E+01  6.580E-01  6.031E-02 7.1926525E+00 2.3049589E-01 6.3432006E-01
  9.957E+00  6.815E-01  5.207E-02 7.1574073E+00 2.1478206E-01 6.3996842E-01
  1.000E+01  6.116E-01  7.852E-02 7.3442301E+00 2.6218108E-01 6.2233545E-01
  9.957E+00  6.347E-01  6.913E-02 7.2558461E+00 2.4632768E-01 6.2847479E-01
  1.000E+01  5.661E-01  9.903E-02 7.4713622E+00 2.9323786E-01 6.0873810E-01
  9.957E+00  5.887E-01  8.849E-02 7.4221693E+00 2.7787513E-01 6.1579933E-01
  1.000E+01  5.217E-01  1.218E-01 7.5157989E+00 3.2298266E-01 5.9318041E-01
  9.957E+00  5.438E-01  1.101E-01 7.5012388E+00 3.0824729E-01 6.0117565E-01
  1.000E+01  4.786E-01  1.467E-01 7.6683908E+00 3.5207902E-01 5.7629666E-01
  9.957E+00  5.000E-01  1.340E-01 7.5741819E+00 3.3758717E-01 5.8488782E-01
  1.000E+01  4.367E-01  1.738E-01 7.7103386E+00 3.8044197E-01 5.5810119E-01
  9.957E+00  4.575E-01  1.600E-01 7.7132367E+00 3.6639792E-01 5.6739416E-01
  1.000E+01  3.962E-01  2.029E-01 7.7903415E+00 4.0774950E-01 5.3838689E-01
  9.957E+00  4.163E-01  1.881E-01 7.7320512E+00 3.9422316E-01 5.4842784E-01
  1.000E+01  3.572E-01  2.340E-01 7.8426138E+00 4.3408503E-01 5.1737968E-01
  9.957E+00  3.765E-01  2.182E-01 7.8237609E+00 4.2104944E-01 5.2804545E-01
  1.000E+01  3.198E-01  2.669E-01 7.8445517E+00 4.5934234E-01 4.9507744E-01
  9.957E+00  3.383E-01  2.502E-01 7.8323263E+00 4.4685679E-01 5.0639647E-01
  1.000E+01  2.841E-01  3.018E-01 7.8765836E+00 4.8345811E-01 4.7154814E-01
  9.957E+00  3.018E-01  2.841E-01 7.8765913E+00 4.7155085E-01 4.8346508E-01
  1.000E+01  2.502E-01  3.383E-01 7.8323214E+00 5.0638944E-01 4.4685451E-01
  9.957E+00  2.669E-01  3.198E-01 7.8445621E+00 4.9508009E-01 4.5934889E-01
  1.000E+01  2.182E-01  3.765E-01 7.8237601E+00 5.2803867E-01 4.2104716E-01
  9.957E+00  2.340E-01  3.572E-01 7.8426250E+00 5.1738339E-01 4.3409163E-01
  1.000E+01  1.881E-01  4.163E-01 7.7320534E+00 5.4842077E-01 3.9422041E-01
  9.957E+00  2.029E-01  3.962E-01 7.7903551E+00 5.3839115E-01 4.0775596E-01
  1.000E+01  1.600E-01  4.575E-01 7.7132393E+00 5.6738802E-01 3.6639476E-01
  9.957E+00  1.738E-01  4.367E-01 7.7103567E+00 5.5810722E-01 3.8044817E-01
  1.000E+01  1.340E-01  5.000E-01 7.5741833E+00 5.8487987E-01 3.3758471E-01
  9.957E+00  1.467E-01  4.786E-01 7.6684125E+00 5.7630343E-01 3.5208495E-01
  1.000E+01  1.101E-01  5.438E-01 7.5012436E+00 6.0116809E-01 3.0824603E-01
  9.957E+00  1.218E-01  5.217E-01 7.5158240E+00 5.9318596E-01 3.2298854E-01
  1.000E+01  8.849E-02  5.887E-01 7.4221779E+00 6.1579349E-01 2.7787419E-01
  9.957E+00  9.903E-02  5.661E-01 7.4713876E+00 6.0874553E-01 2.9324325E-01
  1.000E+01  6.913E-02  6.347E-01 7.2558572E+00 6.2846711E-01 2.4632650E-01
  9.957E+00  7.852E-02  6.116E-01 7.3442509E+00 6.2234239E-01 2.6218526E-01
  1.000E+01  5.207E-02  6.815E-01 7.1574203E+00 6.3996046E-01 2.1478164E-01
  9.957E+00  6.031E-02  6.580E-01 7.1926695E+00 6.3432507E-01 2.3049984E-01
  1.000E+01  3.738E-02  7.292E-01 7.0902498E+00 6.5036882E-01 1.8334913E-01
  9.957E+00  4.443E-02  7.052E-01 7.1261478E+00 6.4535763E-01 1.9912236E-01
  1.000E+01  2.507E-02  7.775E-01 6.9938210E+00 6.5885169E-01 1.5097203E-01
  9.957E+00  3.092E-02  7.532E-01 7.0451335E+00 6.5489697E-01 1.6732348E-01
  1.000E+01  1.519E-02  8.264E-01 6.8923270E+00 6.6523775E-01 1.1753823E-01
  9.957E+00  1.983E-02  8.019E-01 6.9424439E+00 6.6228596E-01 1.3434628E-01
  1.000E+01  7.761E-03  8.757E-01 6.8132696E+00 6.6995778E-01 8.3766676E-02
  9.957E+00  1.117E-02  8.510E-01 6.8483997E+00 6.6778996E-01 1.0065214E-01
  1.000E+01  2.796E-03  9.253E-01 6.7638763E+00 6.7323054E-01 5.0151989E-02
  9.957E+00  4.969E-03  9.004E-01 6.7837530E+00 6.7178410E-01 6.6934243E-02
  1.000E+01  3.108E-04  9.751E-01 6.7411547E+00 6.7494063E-01 1.6699293E-02
  9.957E+00  1.243E-03  9.502E-01 6.7498796E+00 6.7429700E-01 3.3413897E-02
  1.000E+01  3.108E-04  1.025E+00 6.7411540E+00 6.7494080E-01 -1.6704826E-02
  9.957E+00  0.000E+00  1.000E+00 6.7398142E+00 6.7516584E-01 -2.4825959E-06
  1.000E+01  2.796E-03  1.075E+00 6.7638742E+00 6.7323111E-01 -5.0157517E-02
  9.957E+00  1.243E-03  1.050E+00 6.7498804E+00 6.7429725E-01 -3.3418858E-02
  1.000E+01  7.761E-03  1.124E+00 6.8132662E+00 6.6995856E-01 -8.3772196E-02
  9.957E+00  4.969E-03  1.100E+00 6.7837545E+00 6.7178464E-01 -6.6939208E-02
  1.000E+01  1.519E-02  1.174E+00 6.8923230E+00 6.6523779E-01 -1.1754375E-01
  9.957E+00  1.117E-02  1.149E+00 6.8484017E+00 6.6779020E-01 -1.0065715E-01
  1.000E+01  2.507E-02  1.223E+00 6.9938174E+00 6.5885008E-01 -1.5097754E-01
  9.957E+00  1.983E-02  1.198E+00 6.9424460E+00 6.6228469E-01 -1.3435134E-01
  1.000E+01  3.738E-02  1.271E+00 7.0902470E+00 6.5036736E-01 -1.8335464E-01
  9.957E+00  3.092E-02  1.247E+00 7.0451353E+00 6.5489435E-01 -1.6732855E-01
  1.000E+01  5.207E-02  1.318E+00 7.1574178E+00 6.3996199E-01 -2.1478714E-01
  9.957E+00  4.443E-02  1.295E+00 7.1261493E+00 6.4535677E-01 -1.9912732E-01
  1.000E+01  6.913E-02  1.365E+00 7.2558541E+00 6.2846800E-01 -2.4633199E-01
  9.957E+00  6.031E-02  1.342E+00 7.1926710E+00 6.3432628E-01 -2.3050463E-01
  1.000E+01  8.849E-02  1.411E+00 7.4221736E+00 6.1579062E-01 -2.7787966E-01
  9.957E+00  7.852E-02  1.388E+00 7.3442530E+00 6.2233999E-01 -2.6218990E-01
  1.000E+01  1.101E-01  1.456E+00 7.5012384E+00 6.0116805E-01 -3.0825149E-01
  9.957E+00  9.903E-02  1.434E+00 7.4713903E+00 6.0874231E-01 -2.9324784E-01
  1.000E+01  1.340E-01  1.500E+00 7.5741779E+00 5.8488043E-01 -3.3759014E-01
  9.957E+00  1.218E-01  1.478E+00 7.5158270E+00 5.9318622E-01 -3.2299310E-01
  1.000E+01  1.600E-01  1.543E+00 7.7132343E+00 5.6738559E-01 -3.6640012E-01
  9.957E+00  1.467E-01  1.521E+00 7.6684155E+00 5.7630074E-01 -3.5208945E-01
  1.000E+01  1.881E-01  1.584E+00 7.7320495E+00 5.4842027E-01 -3.9422575E-01
  9.957E+00  1.738E-01  1.563E+00 7.7103593E+00 5.5810450E-01 -3.8045264E-01
  1.000E+01  2.182E-01  1.623E+00 7.8237582E+00 5.2803699E-01 -4.2105242E-01
  9.957E+00  2.029E-01  1.604E+00 7.7903569E+00 5.3838919E-01 -4.0776038E-01
  1.000E+01  2.502E-01  1.662E+00 7.8323218E+00 5.0638785E-01 -4.4685971E-01
  9.957E+00  2.340E-01  1.643E+00 7.8426256E+00 5.1738019E-01 -4.3409593E-01
  1.000E+01  2.841E-01  1.698E+00 7.8765858E+00 4.8345652E-01 -4.7155326E-01
  9.957E+00  2.669E-01  1.680E+00 7.8445617E+00 4.9507776E-01 -4.5935303E-01
  1.000E+01  3.198E-01  1.733E+00 7.8445545E+00 4.5934048E-01 -4.9508247E-01
  9.957E+00  3.018E-01  1.716E+00 7.8765903E+00 4.7154795E-01 -4.8346898E-01
  1.000E+01  3.572E-01  1.766E+00 7.8426159E+00 4.3408334E-01 -5.1738461E-01
  9.957E+00  3.383E-01  1.750E+00 7.8323253E+00 4.4685435E-01 -5.0640018E-01
  1.000E+01  3.962E-01  1.797E+00 7.7903447E+00 4.0774762E-01 -5.3839173E-01
  9.957E+00  3.765E-01  1.782E+00 7.8237601E+00 4.2104666E-01 -5.2804915E-01
  1.000E+01  4.367E-01  1.826E+00 7.7103476E+00 3.8044017E-01 -5.5810593E-01
  9.957E+00  4.163E-01  1.812E+00 7.7320488E+00 3.9422011E-01 -5.4843166E-01
  1.000E+01  4.786E-01  1.853E+00 7.6684085E+00 3.5207707E-01 -5.7630128E-01
  9.957E+00  4.575E-01  1.840E+00 7.7132301E+00 3.6639455E-01 -5.6739792E-01
  1.000E+01  5.217E-01  1.878E+00 7.5158205E+00 3.2298074E-01 -5.9318494E-01
  9.957E+00  5.000E-01  1.866E+00 7.5741716E+00 3.3758430E-01 -5.8489112E-01
  1.000E+01  5.661E-01  1.901E+00 7.4713788E+00 2.9323578E-01 -6.0874251E-01
  9.957E+00  5.438E-01  1.890E+00 7.5012288E+00 3.0824512E-01 -6.0117837E-01
  1.000E+01  6.116E-01  1.921E+00 7.3442365E+00 2.6217912E-01 -6.2233975E-01
  9.957E+00  5.887E-01  1.912E+00 7.4221638E+00 2.7787356E-01 -6.1580175E-01
  1.000E+01  6.580E-01  1.940E+00 7.1926520E+00 2.3049384E-01 -6.3432421E-01
  9.957E+00  6.347E-01  1.931E+00 7.2558454E+00 2.4632598E-01 -6.2847726E-01
  1.000E+01  7.052E-01  1.956E+00 7.1261279E+00 1.9911623E-01 -6.4535516E-01
  9.957E+00  6.815E-01  1.948E+00 7.1574087E+00 2.1477983E-01 -6.3997101E-01
  1.000E+01  7.532E-01  1.969E+00 7.0451111E+00 1.6731821E-01 -6.5489267E-01
  9.957E+00  7.292E-01  1.963E+00 7.0902342E+00 1.8334683E-01 -6.5037722E-01
  1.000E+01  8.019E-01  1.980E+00 6.9424227E+00 1.3434298E-01 -6.6228219E-01
  9.957E+00  7.775E-01  1.975E+00 6.9938022E+00 1.5097057E-01 -6.5885946E-01
  1.000E+01  8.510E-01  1.989E+00 6.8483810E+00 1.0064941E-01 -6.6778739E-01
  9.957E+00  8.264E-01  1.985E+00 6.8923086E+00 1.1753772E-01 -6.6524645E-01
  1.000E+01  9.004E-01  1.995E+00 6.7837342E+00 6.6931062E-02 -6.7178158E-01
  9.957E+00  8.757E-01  1.992E+00 6.8132531E+00 8.3765501E-02 -6.6996704E-01
  1.000E+01  9.502E-01  1.999E+00 6.7498579E+00 3.3410827E-02 -6.7429346E-01
  9.957E+00  9.253E-01  1.997E+00 6.7638584E+00 5.0149849E-02 -6.7323901E-01
  1.000E+01  1.000E+00  2.000E+00 6.7397903E+00 -3.7715751E-06 -6.7516153E-01
  9.957E+00  9.751E-01  2.000E+00 6.7411344E+00 1.6697764E-02 -6.7494797E-01
  1.000E+01  1.050E+00  1.999E+00 6.7498580E+00 -3.3418278E-02 -6.7429321E-01
  9.957E+00  1.025E+00  2.000E+00 6.7411345E+00 -1.6704863E-02 -6.7494785E-01
  1.000E+01  1.100E+00  1.995E+00 6.7837344E+00 -6.6938511E-02 -6.7178109E-01
  9.957E+00  1.075E+00  1.997E+00 6.7638586E+00 -5.0156885E-02 -6.7323865E-01
  1.000E+01  1.149E+00  1.989E+00 6.8483813E+00 -1.0065680E-01 -6.6778665E-01
  9.957E+00  1.124E+00  1.992E+00 6.8132534E+00 -8.3772544E-02 -6.6996644E-01
  1.000E+01  1.198E+00  1.980E+00 6.9424232E+00 -1.3435025E-01 -6.6228121E-01
  9.957E+00  1.174E+00  1.985E+00 6.8923090E+00 -1.1754463E-01 -6.6524563E-01