# TIME = 10.300000
variables = x, y, z
zone N=5762 E=11520 F=FEPOINT ET=TRIANGLE
 9.3922119E+00 1.4840098E+00 1.7829975E+00
 9.3922119E+00 1.4840097E+00 2.1700264E-01
 9.3922119E+00 5.1599048E-01 1.7829973E+00
 9.3922120E+00 5.1599027E-01 2.1700243E-01
 8.2089973E+00 1.0000000E+00 1.6051597E+00
 1.0601259E+01 1.0000001E+00 1.6149867E+00
 8.2089974E+00 1.0000001E+00 3.9484021E-01
 1.0601259E+01 1.0000001E+00 3.8501329E-01
 8.6812993E+00 1.9287017E+00 9.9999966E-01
 8.6812993E+00 7.1298405E-02 1.0000002E+00
 1.0086575E+01 1.8683691E+00 9.9999996E-01
 1.0086575E+01 1.3163098E-01 9.9999999E-01
 9.3461143E+00 1.4758873E+00 1.7900077E+00
 9.2948799E+00 1.4669134E+00 1.7979114E+00
 9.2407106E+00 1.4576270E+00 1.8064374E+00
 9.1840031E+00 1.4480262E+00 1.8156273E+00
 9.1252297E+00 1.4380265E+00 1.8254512E+00
 9.0651489E+00 1.4274384E+00 1.8357261E+00
 9.0046695E+00 1.4159779E+00 1.8460538E+00
 8.9445974E+00 1.4032952E+00 1.8558232E+00
 8.8854000E+00 1.3890262E+00 1.8642777E+00
 8.8271853E+00 1.3728456E+00 1.8706023E+00
 8.7698495E+00 1.3545095E+00 1.8740081E+00
 8.7132855E+00 1.3338885E+00 1.8738069E+00
 8.6575439E+00 1.3109889E+00 1.8694824E+00
 8.6028985E+00 1.2859607E+00 1.8607508E+00
 8.5498072E+00 1.2590822E+00 1.8475872E+00
 8.4988158E+00 1.2307281E+00 1.8302116E+00
 8.4504570E+00 1.2013264E+00 1.8090406E+00
 8.4051764E+00 1.1713150E+00 1.7846219E+00
 8.3632911E+00 1.1411085E+00 1.7575658E+00
 8.3249743E+00 1.1110760E+00 1.7284842E+00
 8.2902878E+00 1.0815451E+00 1.6979717E+00
 8.2592182E+00 1.0528027E+00 1.6665973E+00
 8.2317848E+00 1.0251819E+00 1.6350166E+00
 9.3407964E+00 5.5822089E-01 1.8098240E+00
 9.2876550E+00 5.6928789E-01 1.8184129E+00
 9.2321410E+00 5.8018187E-01 1.8272956E+00
 9.1744749E+00 5.9123261E-01 1.8366831E+00
 9.1150688E+00 6.0272258E-01 1.8466170E+00
 9.0546813E+00 6.1492093E-01 1.8568997E+00
 8.9942131E+00 6.2813731E-01 1.8670867E+00
 8.9344004E+00 6.4269692E-01 1.8765174E+00
 8.8756230E+00 6.5890386E-01 1.8844022E+00
 8.8179224E+00 6.7700260E-01 1.8899165E+00
 8.7611711E+00 6.9714935E-01 1.8922857E+00
 8.7052756E+00 7.1938888E-01 1.8908585E+00
 8.6503155E+00 7.4364104E-01 1.8851753E+00
 8.5965861E+00 7.6970241E-01 1.8750193E+00
 8.5445469E+00 7.9726710E-01 1.8604325E+00
 8.4947240E+00 8.2596074E-01 1.8416932E+00
 8.4476126E+00 8.5537774E-01 1.8192578E+00
 8.4036029E+00 8.8511476E-01 1.7936869E+00
 8.3629415E+00 9.1479184E-01 1.7655702E+00
 8.3257078E+00 9.4406030E-01 1.7354474E+00
 8.2918006E+00 9.7259857E-01 1.7037307E+00
 8.2609276E+00 1.0000000E+00 1.6706260E+00
 9.3386612E+00 5.9341130E-01 1.8281613E+00
 9.2833530E+00 6.0652406E-01 1.8371971E+00
 9.2263116E+00 6.1908561E-01 1.8462912E+00
 9.1674785E+00 6.3172354E-01 1.8557900E+00
 9.1072829E+00 6.4482747E-01 1.8657369E+00
 9.0464658E+00 6.5874189E-01 1.8759152E+00
 8.9858873E+00 6.7378349E-01 1.8858328E+00
 8.9262066E+00 6.9024355E-01 1.8947865E+00
 8.8677208E+00 7.0836359E-01 1.9019618E+00
 8.8104148E+00 7.2831255E-01 1.9065322E+00
 8.7541430E+00 7.5016865E-01 1.9077439E+00
 8.6988245E+00 7.7390392E-01 1.9049872E+00
 8.6445617E+00 7.9937848E-01 1.8978603E+00
 8.5916619E+00 8.2634989E-01 1.8862100E+00
 8.5405751E+00 8.5449828E-01 1.8701379E+00
 8.4917942E+00 8.8346035E-01 1.8499657E+00
 8.4457557E+00 9.1285852E-01 1.8261640E+00
 8.4027561E+00 9.4232127E-01 1.7992589E+00
 8.3628995E+00 9.7148917E-01 1.7697289E+00
 8.3260639E+00 1.0000000E+00 1.7378972E+00
 8.2918006E+00 1.0274015E+00 1.7037307E+00
 9.3371905E+00 6.3023183E-01 1.8453360E+00
 9.2804221E+00 6.4502376E-01 1.8544083E+00
 9.2220458E+00 6.5924884E-01 1.8635298E+00
 9.1621635E+00 6.7352216E-01 1.8729844E+00
 9.1012118E+00 6.8831798E-01 1.8828050E+00
 9.0399582E+00 7.0400621E-01 1.8927297E+00
 8.9792298E+00 7.2089658E-01 1.9022203E+00
 8.9196213E+00 7.3923820E-01 1.9105359E+00
 8.8613613E+00 7.5921176E-01 1.9168458E+00
 8.8043896E+00 7.8091720E-01 1.9203297E+00
 8.7485491E+00 8.0436360E-01 1.9202615E+00
 8.6937704E+00 8.2946101E-01 1.9160773E+00
 8.6401703E+00 8.5602287E-01 1.9074322E+00
 8.5880570E+00 8.8378107E-01 1.8942313E+00
 8.5378536E+00 9.1241258E-01 1.8766221E+00
 8.4899955E+00 9.4156784E-01 1.8549448E+00
 8.4448226E+00 9.7088693E-01 1.8296415E+00
 8.4024880E+00 1.0000000E+00 1.8011402E+00
 8.3628995E+00 1.0285109E+00 1.7697289E+00
 8.3257078E+00 1.0559398E+00 1.7354474E+00
 9.3360529E+00 6.6870445E-01 1.8612196E+00
 9.2781486E+00 6.8500283E-01 1.8700849E+00
 9.2187163E+00 7.0080278E-01 1.8790195E+00
 9.1579444E+00 7.1671385E-01 1.8882565E+00
 9.0963492E+00 7.3321648E-01 1.8977777E+00
 9.0347222E+00 7.5068333E-01 1.9072728E+00
 8.9738748E+00 7.6939688E-01 1.9161564E+00
 8.9143487E+00 7.8955979E-01 1.9236584E+00
 8.8563188E+00 8.1129292E-01 1.9289405E+00
 8.7996904E+00 8.3463279E-01 1.9311975E+00
 8.7442996E+00 8.5952742E-01 1.9297378E+00
 8.6900837E+00 8.8583648E-01 1.9240460E+00
 8.6371635E+00 9.1333944E-01 1.9138310E+00
 8.5858299E+00 9.4175332E-01 1.8990457E+00
 8.5364553E+00 9.7075570E-01 1.8798625E+00
 8.4893844E+00 1.0000000E+00 1.8566053E+00
 8.4448226E+00 1.0291131E+00 1.8296415E+00
 8.4027562E+00 1.0576788E+00 1.7992589E+00
 8.3629416E+00 1.0852082E+00 1.7655701E+00
 9.3350990E+00 7.0884786E-01 1.8756746E+00
 9.2762656E+00 7.2650762E-01 1.8841324E+00
 9.2159724E+00 7.4380201E-01 1.8926916E+00
 9.1544848E+00 7.6130717E-01 1.9015257E+00
 9.0923848E+00 7.7948759E-01 1.9105617E+00
 9.0304956E+00 7.9869048E-01 1.9194366E+00
 8.9696137E+00 8.1915959E-01 1.9275246E+00
 8.9102388E+00 8.4104556E-01 1.9340355E+00
 8.8525021E+00 8.6441134E-01 1.9381337E+00
 8.7962831E+00 8.8923600E-01 1.9390380E+00
 8.7414110E+00 9.1541679E-01 1.9360969E+00
 8.6878226E+00 9.4277511E-01 1.9288432E+00
 8.6356265E+00 9.7106717E-01 1.9170330E+00
 8.5850735E+00 1.0000000E+00 1.9006497E+00
 8.5364553E+00 1.0292444E+00 1.8798625E+00
 8.4899956E+00 1.0584322E+00 1.8549448E+00
 8.4457557E+00 1.0871415E+00 1.8261639E+00
 8.4036030E+00 1.1148853E+00 1.7936869E+00
 9.3342664E+00 7.5058481E-01 1.8885256E+00
 9.2746549E+00 7.6948956E-01 1.8964073E+00
 9.2136668E+00 7.8819142E-01 1.9044158E+00
 9.1516320E+00 8.0722419E-01 1.9126651E+00
 9.0891858E+00 8.2701713E-01 1.9210268E+00
 9.0271744E+00 8.4787640E-01 1.9290901E+00
 8.9663785E+00 8.6999646E-01 1.9361975E+00
 8.9072611E+00 8.9347392E-01 1.9415501E+00
 8.8499174E+00 9.1831786E-01 1.9443255E+00
 8.7942049E+00 9.4445887E-01 1.9437748E+00
 8.7399438E+00 9.7175502E-01 1.9392887E+00
 8.6870588E+00 1.0000000E+00 1.9304446E+00
 8.6356265E+00 1.0289329E+00 1.9170330E+00
 8.5858299E+00 1.0582468E+00 1.8990457E+00
 8.5378537E+00 1.0875875E+00 1.8766220E+00
 8.4917943E+00 1.1165397E+00 1.8499656E+00
 8.4476127E+00 1.1446223E+00 1.8192577E+00
 9.3335417E+00 7.9376894E-01 1.8995856E+00
 9.2732869E+00 8.1381530E-01 1.9067442E+00
 9.2117652E+00 8.3383096E-01 1.9140389E+00
 9.1493556E+00 8.5430454E-01 1.9215281E+00
 9.0867332E+00 8.7561594E-01 1.9290321E+00
 9.0247557E+00 8.9801903E-01 1.9361006E+00
 8.9641843E+00 9.2165418E-01 1.9420563E+00
 8.9054472E+00 9.4656577E-01 1.9461030E+00
 8.8486081E+00 9.7271687E-01 1.9474414E+00
 8.7935052E+00 1.0000001E+00 1.9453593E+00
 8.7399438E+00 1.0282451E+00 1.9392887E+00
 8.6878226E+00 1.0572250E+00 1.9288432E+00
 8.6371635E+00 1.0866606E+00 1.9138310E+00
 8.5880570E+00 1.1162190E+00 1.8942313E+00
 8.5405751E+00 1.1455018E+00 1.8701379E+00
 8.4947241E+00 1.1740393E+00 1.8416931E+00
 9.3329328E+00 8.3820763E-01 1.9086778E+00
 9.2721773E+00 8.5928871E-01 1.9149807E+00
 9.2102888E+00 8.8051427E-01 1.9214107E+00
 9.1476834E+00 9.0232065E-01 1.9279750E+00
 9.0850607E+00 9.2502922E-01 1.9344498E+00
 9.0232784E+00 9.4883559E-01 1.9403565E+00
 8.9630723E+00 9.7382638E-01 1.9450101E+00
 8.9048370E+00 1.0000001E+00 1.9476283E+00
 8.8486081E+00 1.0272833E+00 1.9474414E+00
 8.7942049E+00 1.0555412E+00 1.9437748E+00
 8.7414110E+00 1.0845833E+00 1.9360969E+00
 8.6900838E+00 1.1141636E+00 1.9240460E+00
 8.6401704E+00 1.1439772E+00 1.9074322E+00
 8.5916620E+00 1.1736502E+00 1.8862100E+00
 8.5445469E+00 1.2027330E+00 1.8604324E+00
 9.3324564E+00 8.8366925E-01 1.9156465E+00
 9.2713557E+00 9.0566780E-01 1.9209751E+00
 9.2092759E+00 9.2798285E-01 1.9264032E+00
 9.1466577E+00 9.5099181E-01 1.9318922E+00
 9.0842111E+00 9.7495202E-01 1.9371842E+00
 9.0227810E+00 1.0000001E+00 1.9417837E+00
 8.9630723E+00 1.0261738E+00 1.9450101E+00
 8.9054472E+00 1.0534344E+00 1.9461030E+00
 8.8499174E+00 1.0816823E+00 1.9443256E+00
 8.7962831E+00 1.1107641E+00 1.9390380E+00
 8.7442996E+00 1.1404727E+00 1.9297378E+00
 8.6937704E+00 1.1705391E+00 1.9160773E+00
 8.6445618E+00 1.2006216E+00 1.8978603E+00
 8.5965863E+00 1.2302977E+00 1.8750192E+00
 9.3321287E+00 9.2988946E-01 1.9203663E+00
 9.2708502E+00 9.5267362E-01 1.9246181E+00
 9.2087600E+00 9.7593918E-01 1.9289237E+00
 9.1463118E+00 1.0000001E+00 1.9332064E+00
 9.0842111E+00 1.0250481E+00 1.9371842E+00
 9.0232784E+00 1.0511646E+00 1.9403565E+00
 8.9641843E+00 1.0783460E+00 1.9420563E+00
 8.9072612E+00 1.1065262E+00 1.9415501E+00
 8.8525022E+00 1.1355888E+00 1.9381337E+00
 8.7996905E+00 1.1653673E+00 1.9311975E+00
 8.7485492E+00 1.1956365E+00 1.9202615E+00
 8.6988246E+00 1.2260962E+00 1.9049872E+00
 8.6503156E+00 1.2563590E+00 1.8851753E+00
 9.3319617E+00 9.7657718E-01 1.9227490E+00
 9.2706795E+00 1.0000000E+00 1.9258403E+00
 9.2087600E+00 1.0240609E+00 1.9289237E+00
 9.1466577E+00 1.0490083E+00 1.9318922E+00
 9.0850607E+00 1.0749709E+00 1.9344498E+00
 9.0247557E+00 1.1019811E+00 1.9361007E+00
 8.9663786E+00 1.1300037E+00 1.9361976E+00
 8.9102388E+00 1.1589546E+00 1.9340356E+00
 8.8563188E+00 1.1887072E+00 1.9289406E+00
 8.8043897E+00 1.2190829E+00 1.9203297E+00
 8.7541431E+00 1.2498315E+00 1.9077439E+00
 8.7052757E+00 1.2806112E+00 1.8908585E+00
 9.3319618E+00 1.0234229E+00 1.9227490E+00
 9.2708502E+00 1.0473265E+00 1.9246181E+00
 9.2092759E+00 1.0720173E+00 1.9264032E+00
 9.1476834E+00 1.0976795E+00 1.9279750E+00
 9.0867332E+00 1.1243842E+00 1.9290322E+00
 9.0271744E+00 1.1521238E+00 1.9290902E+00
 8.9696137E+00 1.1808406E+00 1.9275247E+00
 8.9143488E+00 1.2104404E+00 1.9236585E+00
 8.8613613E+00 1.2407884E+00 1.9168459E+00
 8.8104150E+00 1.2716876E+00 1.9065322E+00
 8.7611712E+00 1.3028508E+00 1.8922857E+00
 9.3321287E+00 1.0701106E+00 1.9203664E+00
 9.2713557E+00 1.0943323E+00 1.9209752E+00
 9.2102888E+00 1.1194859E+00 1.9214108E+00
 9.1493556E+00 1.1456956E+00 1.9215282E+00
 9.0891858E+00 1.1729831E+00 1.9210269E+00
 9.0304956E+00 1.2013097E+00 1.9194367E+00
 8.9738748E+00 1.2306033E+00 1.9161565E+00
 8.9196214E+00 1.2607620E+00 1.9105360E+00
 8.8677209E+00 1.2916366E+00 1.9019618E+00
 8.8179225E+00 1.3229976E+00 1.8899165E+00
 9.3324565E+00 1.1163309E+00 1.9156466E+00
 9.2721773E+00 1.1407114E+00 1.9149808E+00
 9.2117652E+00 1.1661692E+00 1.9140390E+00
 9.1516320E+00 1.1927760E+00 1.9126652E+00
 9.0923848E+00 1.2205126E+00 1.9105618E+00
 9.0347222E+00 1.2493169E+00 1.9072729E+00
 8.9792299E+00 1.2791036E+00 1.9022204E+00
 8.9262067E+00 1.3097567E+00 1.8947866E+00
 8.8756231E+00 1.3410963E+00 1.8844022E+00
 9.3329329E+00 1.1617925E+00 1.9086779E+00
 9.2732870E+00 1.1861849E+00 1.9067443E+00
 9.2136668E+00 1.2118088E+00 1.9044159E+00
 9.1544848E+00 1.2386930E+00 1.9015258E+00
 9.0963491E+00 1.2667838E+00 1.8977778E+00
 9.0399582E+00 1.2959940E+00 1.8927298E+00
 8.9858873E+00 1.3262168E+00 1.8858329E+00
 8.9344005E+00 1.3573033E+00 1.8765175E+00
 9.3335417E+00 1.2062312E+00 1.8995857E+00
 9.2746549E+00 1.2305106E+00 1.8964074E+00
 9.2159724E+00 1.2561982E+00 1.8926917E+00
 9.1579444E+00 1.2832864E+00 1.8882566E+00
 9.1012118E+00 1.3116823E+00 1.8828051E+00
 9.0464658E+00 1.3412584E+00 1.8759153E+00
 8.9942131E+00 1.3718629E+00 1.8670868E+00
 9.3342664E+00 1.2494154E+00 1.8885257E+00
 9.2762656E+00 1.2734926E+00 1.8841325E+00
 9.2187162E+00 1.2991975E+00 1.8790197E+00
 9.1621634E+00 1.3264781E+00 1.8729846E+00
 9.1072829E+00 1.3551728E+00 1.8657371E+00
 9.0546813E+00 1.3850794E+00 1.8568999E+00
 9.3350990E+00 1.2911524E+00 1.8756748E+00
 9.2781486E+00 1.3149974E+00 1.8700850E+00
 9.2220457E+00 1.3407514E+00 1.8635299E+00
 9.1674784E+00 1.3682767E+00 1.8557901E+00
 9.1150687E+00 1.3972777E+00 1.8466172E+00
 9.3360529E+00 1.3312958E+00 1.8612197E+00
 9.2804221E+00 1.3549765E+00 1.8544085E+00
 9.2263116E+00 1.3809147E+00 1.8462914E+00
 9.1744748E+00 1.4087677E+00 1.8366833E+00
 9.3371905E+00 1.3697684E+00 1.8453362E+00
 9.2833529E+00 1.3934762E+00 1.8371972E+00
 9.2321410E+00 1.4198184E+00 1.8272958E+00
 9.3386612E+00 1.4065890E+00 1.8281615E+00
 9.2876550E+00 1.4307124E+00 1.8184131E+00
 9.3407964E+00 1.4417794E+00 1.8098242E+00
 9.3922647E+00 1.4546292E+00 1.8004477E+00
 9.3923412E+00 1.4213220E+00 1.8185083E+00
 9.3923841E+00 1.3860412E+00 1.8357623E+00
 9.3924020E+00 1.3488281E+00 1.8519949E+00
 9.3924024E+00 1.3097987E+00 1.8669784E+00
 9.3923948E+00 1.2690853E+00 1.8804934E+00
 9.3923856E+00 1.2268279E+00 1.8923404E+00
 9.3923783E+00 1.1832114E+00 1.9023299E+00
 9.3923740E+00 1.1384567E+00 1.9102927E+00
 9.3923720E+00 1.0928147E+00 1.9160879E+00
 9.3923713E+00 1.0465628E+00 1.9196094E+00
 9.3923712E+00 1.0000000E+00 1.9207907E+00
 9.3923713E+00 9.5343725E-01 1.9196093E+00
 9.3923719E+00 9.0718537E-01 1.9160879E+00
 9.3923739E+00 8.6154336E-01 1.9102926E+00
 9.3923783E+00 8.1678876E-01 1.9023298E+00
 9.3923856E+00 7.7317222E-01 1.8923403E+00
 9.3923948E+00 7.3091485E-01 1.8804933E+00
 9.3924024E+00 6.9020152E-01 1.8669782E+00
 9.3924020E+00 6.5117211E-01 1.8519947E+00
 9.3923841E+00 6.1395900E-01 1.8357622E+00
 9.3923412E+00 5.7867829E-01 1.8185081E+00
 9.3922647E+00 5.4537111E-01 1.8004476E+00
 9.4379803E+00 5.2572155E-01 1.7873119E+00
 9.4879533E+00 5.3646833E-01 1.7920698E+00
 9.5398182E+00 5.4770311E-01 1.7969553E+00
 9.5932238E+00 5.5949815E-01 1.8018584E+00
 9.6480112E+00 5.7195135E-01 1.8066318E+00
 9.7040122E+00 5.8518214E-01 1.8110970E+00
 9.7610535E+00 5.9931637E-01 1.8150415E+00
 9.8189177E+00 6.1447768E-01 1.8182215E+00
 9.8773488E+00 6.3078283E-01 1.8203697E+00
 9.9360557E+00 6.4833318E-01 1.8212047E+00
 9.9947176E+00 6.6720618E-01 1.8204435E+00
 1.0052991E+01 6.8744698E-01 1.8178175E+00
 1.0110519E+01 7.0906157E-01 1.8130883E+00
 1.0166937E+01 7.3201304E-01 1.8060635E+00
 1.0221884E+01 7.5622057E-01 1.7966105E+00
 1.0275008E+01 7.8156210E-01 1.7846649E+00
 1.0325982E+01 8.0787886E-01 1.7702335E+00
 1.0374511E+01 8.3498406E-01 1.7533943E+00
 1.0420339E+01 8.6267249E-01 1.7342912E+00
 1.0463262E+01 8.9073043E-01 1.7131223E+00
 1.0503108E+01 9.1892283E-01 1.6901413E+00
 1.0539734E+01 9.4698498E-01 1.6656510E+00
 1.0572924E+01 9.7452027E-01 1.6400899E+00
 9.4433002E+00 1.4401421E+00 1.8067274E+00
 9.4949523E+00 1.4273914E+00 1.8119403E+00
 9.5478991E+00 1.4146391E+00 1.8169547E+00
 9.6020281E+00 1.4015120E+00 1.8218058E+00
 9.6573103E+00 1.3877465E+00 1.8264198E+00
 9.7136364E+00 1.3731702E+00 1.8306331E+00
 9.7708387E+00 1.3576447E+00 1.8342304E+00
 9.8287038E+00 1.3410578E+00 1.8369580E+00
 9.8869739E+00 1.3233175E+00 1.8385386E+00
 9.9453554E+00 1.3043538E+00 1.8386857E+00
 1.0003526E+01 1.2841235E+00 1.8371178E+00
 1.0061142E+01 1.2626165E+00 1.8335751E+00
 1.0117853E+01 1.2398595E+00 1.8278357E+00
 1.0173302E+01 1.2159173E+00 1.8197301E+00
 1.0227144E+01 1.1908904E+00 1.8091529E+00
 1.0279044E+01 1.1649116E+00 1.7960690E+00
 1.0328700E+01 1.1381424E+00 1.7805117E+00
 1.0375860E+01 1.1107692E+00 1.7625737E+00
 1.0420333E+01 1.0830022E+00 1.7423905E+00
 1.0462021E+01 1.0550763E+00 1.7201095E+00
 1.0500968E+01 1.0272618E+00 1.6958329E+00
 1.0537418E+01 1.0000001E+00 1.6695395E+00
 9.4454928E+00 1.4050508E+00 1.8248498E+00
 9.4991113E+00 1.3903394E+00 1.8302857E+00
 9.5533349E+00 1.3760313E+00 1.8352870E+00
 9.6084076E+00 1.3614684E+00 1.8400006E+00
 9.6643542E+00 1.3463071E+00 1.8443673E+00
 9.7211275E+00 1.3303197E+00 1.8482337E+00
 9.7785909E+00 1.3133612E+00 1.8513773E+00
 9.8365444E+00 1.2953319E+00 1.8535355E+00
 9.8947358E+00 1.2761638E+00 1.8544241E+00
 9.9528722E+00 1.2558159E+00 1.8537545E+00
 1.0010631E+01 1.2342761E+00 1.8512504E+00
 1.0067674E+01 1.2115643E+00 1.8466642E+00
 1.0123654E+01 1.1877333E+00 1.8397925E+00
 1.0178229E+01 1.1628673E+00 1.8304886E+00
 1.0231074E+01 1.1370782E+00 1.8186715E+00
 1.0281887E+01 1.1105012E+00 1.8043260E+00
 1.0330421E+01 1.0832953E+00 1.7874911E+00
 1.0376514E+01 1.0556485E+00 1.7682334E+00
 1.0420140E+01 1.0277873E+00 1.7466018E+00
 1.0461456E+01 1.0000001E+00 1.7225630E+00
 1.0500968E+01 9.7273829E-01 1.6958329E+00
 9.4469831E+00 1.3683407E+00 1.8418646E+00
 9.5019047E+00 1.3520770E+00 1.8471611E+00
 9.5572562E+00 1.3362543E+00 1.8519857E+00
 9.6131924E+00 1.3202520E+00 1.8564275E+00
 9.6697933E+00 1.3036620E+00 1.8604301E+00
 9.7270245E+00 1.2862422E+00 1.8638283E+00
 9.7847687E+00 1.2678477E+00 1.8663908E+00
 9.8428341E+00 1.2483951E+00 1.8678463E+00
 9.9009712E+00 1.2278398E+00 1.8679066E+00
 9.9588882E+00 1.2061677E+00 1.8662850E+00
 1.0016265E+01 1.1833936E+00 1.8627137E+00
 1.0072766E+01 1.1595614E+00 1.8569601E+00
 1.0128057E+01 1.1347426E+00 1.8488402E+00
 1.0181814E+01 1.1090329E+00 1.8382282E+00
 1.0233747E+01 1.0825491E+00 1.8250589E+00
 1.0283614E+01 1.0554282E+00 1.8093189E+00
 1.0331268E+01 1.0278386E+00 1.7910194E+00
 1.0376706E+01 1.0000001E+00 1.7701486E+00
 1.0420140E+01 9.7221277E-01 1.7466018E+00
 1.0462022E+01 9.4492386E-01 1.7201095E+00
 9.4481003E+00 1.3299918E+00 1.8576162E+00
 9.5040333E+00 1.3123690E+00 1.8625566E+00
 9.5602785E+00 1.2951543E+00 1.8670173E+00
 9.6169569E+00 1.2777488E+00 1.8710395E+00
 9.6741260E+00 1.2597529E+00 1.8745365E+00
 9.7317572E+00 1.2409252E+00 1.8773266E+00
 9.7897345E+00 1.2211351E+00 1.8791657E+00
 9.8478682E+00 1.2003186E+00 1.8797761E+00
 9.9059097E+00 1.1784545E+00 1.8788688E+00
 9.9635686E+00 1.1555525E+00 1.8761627E+00
 1.0020529E+01 1.1316498E+00 1.8714020E+00
 1.0076466E+01 1.1068075E+00 1.8643706E+00
 1.0131059E+01 1.0811087E+00 1.8549027E+00
 1.0184021E+01 1.0546548E+00 1.8428874E+00
 1.0235115E+01 1.0275678E+00 1.8282614E+00
 1.0284198E+01 1.0000001E+00 1.8109888E+00
 1.0331268E+01 9.7216150E-01 1.7910194E+00
 1.0376514E+01 9.4435158E-01 1.7682334E+00
 1.0420333E+01 9.1699794E-01 1.7423905E+00
 9.4490114E+00 1.2899849E+00 1.8719559E+00
 9.5057744E+00 1.2711659E+00 1.8763592E+00
 9.5627524E+00 1.2526646E+00 1.8802908E+00
 9.6200333E+00 1.2339302E+00 1.8837381E+00
 9.6776554E+00 1.2145877E+00 1.8865803E+00
 9.7355807E+00 1.1944180E+00 1.8886141E+00
 9.7936909E+00 1.1733118E+00 1.8895840E+00
 9.8517951E+00 1.1512278E+00 1.8892083E+00
 9.9096455E+00 1.1281669E+00 1.8872013E+00
 9.9669561E+00 1.1041593E+00 1.8832914E+00
 1.0023420E+01 1.0792582E+00 1.8772366E+00
 1.0078728E+01 1.0535356E+00 1.8688371E+00
 1.0132591E+01 1.0270804E+00 1.8579413E+00
 1.0184769E+01 1.0000001E+00 1.8444423E+00
 1.0235115E+01 9.7243235E-01 1.8282614E+00
 1.0283614E+01 9.4457189E-01 1.8093189E+00
 1.0330421E+01 9.1670476E-01 1.7874911E+00
 1.0375860E+01 8.8923089E-01 1.7625737E+00
 9.4497958E+00 1.2483975E+00 1.8847040E+00
 9.5072573E+00 1.2285139E+00 1.8884187E+00
 9.5648289E+00 1.2088341E+00 1.8916698E+00
 9.6225724E+00 1.1888619E+00 1.8943927E+00
 9.6805093E+00 1.1682619E+00 1.8964322E+00
 9.7385929E+00 1.1468472E+00 1.8975648E+00
 9.7967010E+00 1.1245359E+00 1.8975263E+00
 9.8546430E+00 1.1013099E+00 1.8960350E+00
 9.9121750E+00 1.0771896E+00 1.8928124E+00
 9.9690198E+00 1.0522203E+00 1.8875986E+00
 1.0024886E+01 1.0264648E+00 1.8801663E+00
 1.0079492E+01 1.0000001E+00 1.8703290E+00
 1.0132591E+01 9.7291971E-01 1.8579413E+00
 1.0184021E+01 9.4534527E-01 1.8428874E+00
 1.0233747E+01 9.1745100E-01 1.8250589E+00
 1.0281887E+01 8.8949888E-01 1.8043260E+00
 1.0328700E+01 8.6185775E-01 1.7805118E+00
 9.4504775E+00 1.2053754E+00 1.8956735E+00
 9.5085182E+00 1.1845455E+00 1.8985701E+00
 9.5665453E+00 1.1637988E+00 1.9010035E+00
 9.6246038E+00 1.1426953E+00 1.9028625E+00
 9.6827034E+00 1.1209487E+00 1.9039609E+00
 9.7407919E+00 1.0984108E+00 1.9040587E+00
 9.7987463E+00 1.0750289E+00 1.9028872E+00
 9.8563795E+00 1.0508066E+00 1.9001690E+00
 9.9134563E+00 1.0257791E+00 1.8956353E+00
 9.9697143E+00 1.0000001E+00 1.8890394E+00
 1.0024886E+01 9.7353533E-01 1.8801663E+00
 1.0078728E+01 9.4646451E-01 1.8688371E+00
 1.0131059E+01 9.1889143E-01 1.8549027E+00
 1.0181815E+01 8.9096718E-01 1.8382282E+00
 1.0231074E+01 8.6292195E-01 1.8186715E+00
 1.0279044E+01 8.3508855E-01 1.7960690E+00
 9.4510529E+00 1.1611110E+00 1.9046891E+00
 9.5095447E+00 1.1394551E+00 1.9066549E+00
 9.5678820E+00 1.1177600E+00 1.9081485E+00
 9.6261000E+00 1.0956469E+00 1.9090180E+00
 9.6842028E+00 1.0728836E+00 1.9090514E+00
 9.7421372E+00 1.0493634E+00 1.9079978E+00
 9.7997839E+00 1.0250620E+00 1.9055885E+00
 9.8569639E+00 1.0000001E+00 1.9015536E+00
 9.9134563E+00 9.7422098E-01 1.8956353E+00
 9.9690198E+00 9.4777981E-01 1.8875986E+00
 1.0023420E+01 9.2074195E-01 1.8772366E+00
 1.0076466E+01 8.9319259E-01 1.8643706E+00
 1.0128057E+01 8.6525753E-01 1.8488402E+00
 1.0178229E+01 8.3713278E-01 1.8304886E+00
 1.0227144E+01 8.0910974E-01 1.8091529E+00
 9.4515063E+00 1.1158348E+00 1.9115976E+00
 9.5103076E+00 1.0934811E+00 1.9125363E+00
 9.5688013E+00 1.0709680E+00 1.9129845E+00
 9.6270192E+00 1.0479820E+00 1.9127558E+00
 9.6849654E+00 1.0243479E+00 1.9116191E+00
 9.7425906E+00 1.0000001E+00 1.9093182E+00
 9.7997839E+00 9.7493810E-01 1.9055885E+00
 9.8563795E+00 9.4919348E-01 1.9001690E+00
 9.9121750E+00 9.2281052E-01 1.8928124E+00
 9.9669561E+00 8.9584082E-01 1.8832914E+00
 1.0020529E+01 8.6835034E-01 1.8714020E+00
 1.0072766E+01 8.4043872E-01 1.8569601E+00
 1.0123654E+01 8.1226682E-01 1.8397925E+00
 1.0173302E+01 7.8408278E-01 1.8197301E+00
 9.4518200E+00 1.0698091E+00 1.9162757E+00
 9.5107781E+00 1.0468966E+00 1.9161095E+00
 9.5692701E+00 1.0237088E+00 1.9154251E+00
 9.6273295E+00 1.0000000E+00 1.9140093E+00
 9.6849654E+00 9.7565217E-01 1.9116191E+00
 9.7421372E+00 9.5063667E-01 1.9079978E+00
 9.7987463E+00 9.2497118E-01 1.9028872E+00
 9.8546430E+00 8.9869024E-01 1.8960350E+00
 9.9096455E+00 8.7183321E-01 1.8872013E+00
 9.9635686E+00 8.4444759E-01 1.8761627E+00
 1.0016265E+01 8.1660652E-01 1.8627138E+00
 1.0067674E+01 7.8843580E-01 1.8466642E+00
 1.0117853E+01 7.6014059E-01 1.8278357E+00
 9.4519805E+00 1.0233217E+00 1.9186371E+00
 9.5109372E+00 1.0000000E+00 1.9173080E+00
 9.5692701E+00 9.7629125E-01 1.9154251E+00
 9.6270192E+00 9.5201809E-01 1.9127557E+00
 9.6842028E+00 9.2711654E-01 1.9090514E+00
 9.7407919E+00 9.0158929E-01 1.9040587E+00
 9.7967010E+00 8.7546421E-01 1.8975262E+00
 9.8517950E+00 8.4877230E-01 1.8892083E+00
 9.9059097E+00 8.2154566E-01 1.8788687E+00
 9.9588882E+00 7.9383247E-01 1.8662850E+00
 1.0010631E+01 7.6572397E-01 1.8512504E+00
 1.0061142E+01 7.3738356E-01 1.8335751E+00
 9.4519804E+00 9.7667836E-01 1.9186370E+00
 9.5107781E+00 9.5310348E-01 1.9161094E+00
 9.5688012E+00 9.2903206E-01 1.9129845E+00
 9.6261000E+00 9.0435321E-01 1.9090180E+00
 9.6827034E+00 8.7905143E-01 1.9039608E+00
 9.7385928E+00 8.5315288E-01 1.8975648E+00
 9.7936909E+00 8.2668832E-01 1.8895840E+00
 9.8478682E+00 7.9968149E-01 1.8797761E+00
 9.9009712E+00 7.7216037E-01 1.8679066E+00
 9.9528722E+00 7.4418425E-01 1.8537545E+00
 1.0003526E+01 7.1587662E-01 1.8371178E+00
 9.4518200E+00 9.3019098E-01 1.9162756E+00
 9.5103075E+00 9.0651899E-01 1.9125363E+00
 9.5678819E+00 8.8224010E-01 1.9081484E+00
 9.6246038E+00 8.5730480E-01 1.9028625E+00
 9.6805092E+00 8.3173823E-01 1.8964321E+00
 9.7355807E+00 8.0558209E-01 1.8886141E+00
 9.7897344E+00 7.7886500E-01 1.8791657E+00
 9.8428340E+00 7.5160505E-01 1.8678463E+00
 9.8947358E+00 7.2383634E-01 1.8544241E+00
 9.9453554E+00 6.9564635E-01 1.8386857E+00
 9.4515063E+00 8.8416527E-01 1.9115975E+00
 9.5095447E+00 8.6054503E-01 1.9066548E+00
 9.5665453E+00 8.3620134E-01 1.9010034E+00
 9.6225723E+00 8.1113818E-01 1.8943926E+00
 9.6776553E+00 7.8541245E-01 1.8865802E+00
 9.7317571E+00 7.5907489E-01 1.8773266E+00
 9.7847687E+00 7.3215245E-01 1.8663908E+00
 9.8365443E+00 7.0466819E-01 1.8535355E+00
 9.8869739E+00 6.7668259E-01 1.8385386E+00
 9.4510529E+00 8.3888911E-01 1.9046890E+00
 9.5085182E+00 8.1545460E-01 1.8985700E+00
 9.5648288E+00 7.9116600E-01 1.8916697E+00
 9.6200333E+00 7.6606991E-01 1.8837380E+00
 9.6741259E+00 7.4024721E-01 1.8745364E+00
 9.7270245E+00 7.1375790E-01 1.8638282E+00
 9.7785908E+00 6.8663891E-01 1.8513773E+00
 9.8287038E+00 6.5894231E-01 1.8369579E+00
 9.4504774E+00 7.9462469E-01 1.8956734E+00
 9.5072572E+00 7.7148620E-01 1.8884186E+00
 9.5627524E+00 7.4733552E-01 1.8802907E+00
 9.6169569E+00 7.2225139E-01 1.8710394E+00
 9.6697932E+00 6.9633819E-01 1.8604300E+00
 9.7211274E+00 6.6968045E-01 1.8482336E+00
 9.7708387E+00 6.4235543E-01 1.8342304E+00
 9.4497958E+00 7.5160264E-01 1.8847039E+00
 9.5057743E+00 7.2883430E-01 1.8763591E+00
 9.5602785E+00 7.0484583E-01 1.8670172E+00
 9.6131924E+00 6.7974813E-01 1.8564274E+00
 9.6643542E+00 6.5369307E-01 1.8443673E+00
 9.7136364E+00 6.2682997E-01 1.8306331E+00
 9.4490114E+00 7.1001523E-01 1.8719558E+00
 9.5040333E+00 6.8763114E-01 1.8625565E+00
 9.5572561E+00 6.6374583E-01 1.8519856E+00
 9.6084075E+00 6.3853178E-01 1.8400005E+00
 9.6573102E+00 6.1225366E-01 1.8264197E+00
 9.4481002E+00 6.7000840E-01 1.8576160E+00
 9.5019046E+00 6.4792320E-01 1.8471610E+00
 9.5533348E+00 6.2396889E-01 1.8352869E+00
 9.6020280E+00 5.9848815E-01 1.8218057E+00
 9.4469831E+00 6.3165950E-01 1.8418644E+00
 9.4991113E+00 6.0966082E-01 1.8302856E+00
 9.5478990E+00 5.8536107E-01 1.8169546E+00
 9.4454928E+00 5.9494945E-01 1.8248496E+00
 9.4949522E+00 5.7260887E-01 1.8119402E+00
 9.4433002E+00 5.5985817E-01 1.8067272E+00
 9.3638210E+00 1.5077586E+00 1.7690403E+00
 9.3322669E+00 1.5337267E+00 1.7527653E+00
 9.2991484E+00 1.5603305E+00 1.7349852E+00
 9.2646352E+00 1.5873915E+00 1.7156987E+00
 9.2288860E+00 1.6148125E+00 1.6948446E+00
 9.1921453E+00 1.6424897E+00 1.6723351E+00
 9.1546991E+00 1.6702994E+00 1.6480627E+00
 9.1169035E+00 1.6980658E+00 1.6219210E+00
 9.0791668E+00 1.7255588E+00 1.5938084E+00
 9.0419103E+00 1.7524962E+00 1.5636431E+00
 9.0055233E+00 1.7785544E+00 1.5313790E+00
 8.9703290E+00 1.8033885E+00 1.4970219E+00
 8.9365690E+00 1.8266546E+00 1.4606412E+00
 8.9044070E+00 1.8480340E+00 1.4223727E+00
 8.8739437E+00 1.8672526E+00 1.3824152E+00
 8.8452360E+00 1.8840952E+00 1.3410225E+00
 8.8183157E+00 1.8984117E+00 1.2984921E+00
 8.7932024E+00 1.9101212E+00 1.2551496E+00
 8.7699101E+00 1.9192106E+00 1.2113303E+00
 8.7484488E+00 1.9257306E+00 1.1673719E+00
 8.7288250E+00 1.9297826E+00 1.1236330E+00
 8.7110161E+00 1.9315049E+00 1.0804893E+00
 8.6950287E+00 1.9310775E+00 1.0385906E+00
 8.2269031E+00 1.0733065E+00 1.6251159E+00
 8.2225614E+00 1.1209146E+00 1.6120085E+00
 8.2199022E+00 1.1692692E+00 1.5968631E+00
 8.2193365E+00 1.2184638E+00 1.5799073E+00
 8.2211477E+00 1.2684398E+00 1.5612080E+00
 8.2255718E+00 1.3190222E+00 1.5407984E+00
 8.2328007E+00 1.3699515E+00 1.5187005E+00
 8.2429830E+00 1.4209061E+00 1.4949418E+00
 8.2562243E+00 1.4715155E+00 1.4695706E+00
 8.2725831E+00 1.5213731E+00 1.4426666E+00
 8.2920657E+00 1.5700469E+00 1.4143459E+00
 8.3146197E+00 1.6170923E+00 1.3847619E+00
 8.3401309E+00 1.6620670E+00 1.3541034E+00
 8.3684204E+00 1.7045457E+00 1.3225904E+00
 8.3992491E+00 1.7441364E+00 1.2904682E+00
 8.4323219E+00 1.7804942E+00 1.2580014E+00
 8.4672989E+00 1.8133369E+00 1.2254642E+00
 8.5038032E+00 1.8424546E+00 1.1931306E+00
 8.5414433E+00 1.8677255E+00 1.1612537E+00
 8.5798234E+00 1.8891216E+00 1.1300380E+00
 8.6185667E+00 1.9067115E+00 1.0995725E+00
 8.6572193E+00 1.9206356E+00 1.0696900E+00
 8.2559075E+00 1.1038403E+00 1.6567461E+00
 8.2532955E+00 1.1540553E+00 1.6437212E+00
 8.2522892E+00 1.2042685E+00 1.6283823E+00
 8.2533960E+00 1.2548525E+00 1.6110603E+00
 8.2569568E+00 1.3058675E+00 1.5918860E+00
 8.2632247E+00 1.3571942E+00 1.5709151E+00
 8.2723802E+00 1.4085855E+00 1.5481719E+00
 8.2845445E+00 1.4597069E+00 1.5236827E+00
 8.2997851E+00 1.5101647E+00 1.4974978E+00
 8.3181163E+00 1.5595269E+00 1.4697050E+00
 8.3394959E+00 1.6073409E+00 1.4404352E+00
 8.3638211E+00 1.6531507E+00 1.4098614E+00
 8.3909263E+00 1.6965142E+00 1.3781958E+00
 8.4205876E+00 1.7370219E+00 1.3456830E+00
 8.4525272E+00 1.7743132E+00 1.3125923E+00
 8.4864269E+00 1.8080940E+00 1.2792030E+00
 8.5219365E+00 1.8381476E+00 1.2457886E+00
 8.5586952E+00 1.8643494E+00 1.2125808E+00
 8.5963472E+00 1.8866760E+00 1.1797186E+00
 8.6345513E+00 1.9051992E+00 1.1471721E+00
 8.6729679E+00 1.9200800E+00 1.1145139E+00
 8.2884539E+00 1.1343969E+00 1.6878286E+00
 8.2875160E+00 1.1864275E+00 1.6745942E+00
 8.2882238E+00 1.2381882E+00 1.6589145E+00
 8.2910892E+00 1.2899903E+00 1.6411091E+00
 8.2964833E+00 1.3419183E+00 1.6213346E+00
 8.3046613E+00 1.3938577E+00 1.5996564E+00
 8.3157840E+00 1.4455517E+00 1.5761015E+00
 8.3299382E+00 1.4966453E+00 1.5506996E+00
 8.3471488E+00 1.5467211E+00 1.5235107E+00
 8.3673820E+00 1.5953262E+00 1.4946388E+00
 8.3905446E+00 1.6419949E+00 1.4642366E+00
 8.4164830E+00 1.6862704E+00 1.4325031E+00
 8.4449861E+00 1.7277252E+00 1.3996783E+00
 8.4757923E+00 1.7659822E+00 1.3660322E+00
 8.5086015E+00 1.8007317E+00 1.3318509E+00
 8.5430878E+00 1.8317490E+00 1.2974107E+00
 8.5789131E+00 1.8589031E+00 1.2629413E+00
 8.6157435E+00 1.8821700E+00 1.2285641E+00
 8.6532510E+00 1.9016252E+00 1.1942120E+00
 8.6911049E+00 1.9174291E+00 1.1595148E+00
 8.3246020E+00 1.1651819E+00 1.7178141E+00
 8.3253339E+00 1.2185193E+00 1.7041450E+00
 8.3277923E+00 1.2714426E+00 1.6879491E+00
 8.3324790E+00 1.3241803E+00 1.6695141E+00
 8.3397625E+00 1.3767684E+00 1.6489917E+00
 8.3498821E+00 1.4290635E+00 1.6264478E+00
 8.3629671E+00 1.4807798E+00 1.6019130E+00
 8.3790624E+00 1.5315363E+00 1.5754271E+00
 8.3981451E+00 1.5808939E+00 1.5470675E+00
 8.4201309E+00 1.6283861E+00 1.5169624E+00
 8.4448769E+00 1.6735470E+00 1.4852925E+00
 8.4721842E+00 1.7159345E+00 1.4522882E+00
 8.5018072E+00 1.7551554E+00 1.4182170E+00
 8.5334630E+00 1.7908841E+00 1.3833705E+00
 8.5668478E+00 1.8228836E+00 1.3480336E+00
 8.6016436E+00 1.8510143E+00 1.3124494E+00
 8.6375332E+00 1.8752477E+00 1.2767524E+00
 8.6741951E+00 1.8956600E+00 1.2409064E+00
 8.7112991E+00 1.9124154E+00 1.2046337E+00
 8.3643965E+00 1.1961015E+00 1.7461795E+00
 8.3667923E+00 1.2503494E+00 1.7318584E+00
 8.3710200E+00 1.3040740E+00 1.7149590E+00