# TIME = 11.900000
variables = x, y, z
zone N=5762 E=11520 F=FEPOINT ET=TRIANGLE
 8.1178488E-02 1.4839390E+00 1.7828882E+00
 8.1178578E-02 1.4839389E+00 2.1711174E-01
 8.1178532E-02 5.1606118E-01 1.7828883E+00
 8.1178590E-02 5.1606109E-01 2.1711172E-01
 -1.1015453E+00 1.0000000E+00 1.6062281E+00
 1.2906936E+00 1.0000000E+00 1.6147971E+00
 -1.1015452E+00 1.0000000E+00 3.9377185E-01
 1.2906936E+00 1.0000000E+00 3.8520292E-01
 -6.3118920E-01 1.9282105E+00 9.9999965E-01
 -6.3118918E-01 7.1789591E-02 1.0000003E+00
 7.7683492E-01 1.8680659E+00 9.9999996E-01
 7.7683492E-01 1.3193411E-01 1.0000000E+00
 3.4442191E-02 1.4757809E+00 1.7899486E+00
 -1.7536899E-02 1.4667764E+00 1.7979139E+00
 -7.2461349E-02 1.4574736E+00 1.8065059E+00
 -1.2986064E-01 1.4478731E+00 1.8157588E+00
 -1.8917676E-01 1.4378859E+00 1.8256288E+00
 -2.4958352E-01 1.4273113E+00 1.8359147E+00
 -3.1014807E-01 1.4158543E+00 1.8462014E+00
 -3.7008990E-01 1.4031617E+00 1.8558726E+00
 -4.2899268E-01 1.3888752E+00 1.8641826E+00
 -4.8679559E-01 1.3726824E+00 1.8703431E+00
 -5.4363324E-01 1.3543546E+00 1.8736017E+00
 -5.9963355E-01 1.3337748E+00 1.8733091E+00
 -6.5476843E-01 1.3109555E+00 1.8689819E+00
 -7.0879868E-01 1.2860426E+00 1.8603532E+00
 -7.6131092E-01 1.2593012E+00 1.8473935E+00
 -8.1180454E-01 1.2310860E+00 1.8302977E+00
 -8.5978168E-01 1.2018039E+00 1.8094432E+00
 -9.0481546E-01 1.1718747E+00 1.7853337E+00
 -9.4659047E-01 1.1416999E+00 1.7585395E+00
 -9.8491989E-01 1.1116416E+00 1.7296421E+00
 -1.0197156E+00 1.0820270E+00 1.6992209E+00
 -1.0509553E+00 1.0531503E+00 1.6678472E+00
 -1.0785815E+00 1.0253595E+00 1.6361960E+00
 2.9019420E-02 5.5850519E-01 1.8098638E+00
 -2.4880577E-02 5.6960792E-01 1.8185130E+00
 -8.1143702E-02 5.8052277E-01 1.8274601E+00
 -1.3946986E-01 5.9157369E-01 1.8369049E+00
 -1.9936952E-01 6.0304623E-01 1.8468733E+00
 -2.6002529E-01 6.1522017E-01 1.8571494E+00
 -3.2052369E-01 6.2841649E-01 1.8672749E+00
 -3.8016160E-01 6.4296432E-01 1.8765885E+00
 -4.3861198E-01 6.5916278E-01 1.8843165E+00
 -4.9587750E-01 6.7724583E-01 1.8896645E+00
 -5.5211388E-01 6.9735829E-01 1.8918958E+00
 -6.0743489E-01 7.1953683E-01 1.8903973E+00
 -6.6178506E-01 7.4370021E-01 1.8847393E+00
 -7.1490502E-01 7.6965286E-01 1.8747166E+00
 -7.6637996E-01 7.9710391E-01 1.8603616E+00
 -8.1572704E-01 8.2569715E-01 1.8419223E+00
 -8.6248431E-01 8.5504341E-01 1.8198122E+00
 -9.0627876E-01 8.8475076E-01 1.7945452E+00
 -9.4686371E-01 9.1444548E-01 1.7666694E+00
 -9.8414177E-01 9.4378192E-01 1.7366983E+00
 -1.0181808E+00 9.7243842E-01 1.7050371E+00
 -1.0492342E+00 1.0000000E+00 1.6719039E+00
 2.6819836E-02 5.9386602E-01 1.8282741E+00
 -2.9277650E-02 6.0702059E-01 1.8373689E+00
 -8.7075443E-02 6.1960707E-01 1.8465252E+00
 -1.4655508E-01 6.3224456E-01 1.8560761E+00
 -2.0720887E-01 6.4532354E-01 1.8660470E+00
 -2.6824453E-01 6.5920001E-01 1.8762032E+00
 -3.2879995E-01 6.7420260E-01 1.8860416E+00
 -3.8825771E-01 6.9062722E-01 1.8948625E+00
 -4.4637614E-01 7.0871148E-01 1.9018721E+00
 -5.0321395E-01 7.2861668E-01 1.9062776E+00
 -5.5894348E-01 7.5041326E-01 1.9073644E+00
 -6.1366666E-01 7.7406971E-01 1.9045605E+00
 -6.6730790E-01 7.9945002E-01 1.8974898E+00
 -7.1959758E-01 8.2632289E-01 1.8860052E+00
 -7.7013157E-01 8.5438402E-01 1.8701922E+00
 -8.1846058E-01 8.8328540E-01 1.8503360E+00
 -8.6418106E-01 9.1266034E-01 1.8268588E+00
 -9.0701139E-01 9.4214261E-01 1.8002368E+00
 -9.4684079E-01 9.7137561E-01 1.7709103E+00
 -9.8376170E-01 1.0000000E+00 1.7391860E+00
 -1.0181808E+00 1.0275616E+00 1.7050371E+00
 2.5293213E-02 6.3083257E-01 1.8454924E+00
 -3.2288539E-02 6.4566752E-01 1.8546197E+00
 -9.1430670E-02 6.5991927E-01 1.8637999E+00
 -1.5194778E-01 6.7418886E-01 1.8733010E+00
 -2.1332483E-01 6.8895026E-01 1.8831361E+00
 -2.7474917E-01 7.0458553E-01 1.8930259E+00
 -3.3540236E-01 7.2141706E-01 1.9024234E+00
 -3.9473997E-01 7.3969922E-01 1.9105956E+00
 -4.5259194E-01 7.5961062E-01 1.9167363E+00
 -5.0906170E-01 7.8124644E-01 1.9200621E+00
 -5.6433262E-01 8.0461192E-01 1.9198870E+00
 -6.1849757E-01 8.2961881E-01 1.9156824E+00
 -6.7146865E-01 8.5608861E-01 1.9071241E+00
 -7.2297864E-01 8.8376627E-01 1.8941168E+00
 -7.7265182E-01 9.1234288E-01 1.8767843E+00
 -8.2009738E-01 9.4147943E-01 1.8554235E+00
 -8.6500591E-01 9.7082100E-01 1.8304235E+00
 -9.0723045E-01 1.0000000E+00 1.8021654E+00
 -9.4684076E-01 1.0286244E+00 1.7709103E+00
 -9.8414172E-01 1.0562181E+00 1.7366982E+00
 2.4112071E-02 6.6940948E-01 1.8613878E+00
 -3.4618079E-02 6.8574684E-01 1.8703019E+00
 -9.4815988E-02 7.0157023E-01 1.8792902E+00
 -1.5620599E-01 7.1747034E-01 1.8885673E+00
 -2.1819346E-01 7.3392665E-01 1.8980951E+00
 -2.7994729E-01 7.5132463E-01 1.9075459E+00
 -3.4067457E-01 7.6995990E-01 1.9163280E+00
 -3.9989015E-01 7.9004128E-01 1.9236823E+00
 -4.5748069E-01 8.1168969E-01 1.9287986E+00
 -5.1358318E-01 8.3494011E-01 1.9309099E+00
 -5.6838902E-01 8.5974139E-01 1.9293643E+00
 -6.2198634E-01 8.8595946E-01 1.9236774E+00
 -6.7428643E-01 9.1338450E-01 1.9135731E+00
 -7.2504188E-01 9.4174612E-01 1.8989963E+00
 -7.7392910E-01 9.7073190E-01 1.8800882E+00
 -8.2064551E-01 1.0000000E+00 1.8571250E+00
 -8.6500589E-01 1.0291790E+00 1.8304235E+00
 -9.0701135E-01 1.0578574E+00 1.8002368E+00
 -9.4686364E-01 1.0855546E+00 1.7666694E+00
 2.3131203E-02 7.0960558E-01 1.8758260E+00
 -3.6526085E-02 7.2729447E-01 1.8843256E+00
 -9.7574058E-02 7.4460253E-01 1.8929320E+00
 -1.5965873E-01 7.6208454E-01 1.9018003E+00
 -2.2212000E-01 7.8020425E-01 1.9108373E+00
 -2.8410059E-01 7.9932220E-01 1.9196631E+00
 -3.4482980E-01 8.1969565E-01 1.9276473E+00
 -4.0386929E-01 8.4148245E-01 1.9340130E+00
 -4.6115052E-01 8.6474803E-01 1.9379546E+00
 -5.1683640E-01 8.8947350E-01 1.9387294E+00
 -5.7112625E-01 9.1556144E-01 1.9357223E+00
 -6.2411112E-01 9.4284225E-01 1.9284923E+00
 -6.7571687E-01 9.7108305E-01 1.9168033E+00
 -7.2573808E-01 1.0000000E+00 1.9006241E+00
 -7.7392907E-01 1.0292681E+00 1.8800882E+00
 -8.2009734E-01 1.0585206E+00 1.8554234E+00
 -8.6418099E-01 1.0873397E+00 1.8268587E+00
 -9.0627866E-01 1.1152493E+00 1.7945450E+00
 2.2287047E-02 7.5134104E-01 1.8886390E+00
 -3.8135421E-02 7.7025899E-01 1.8965557E+00
 -9.9861377E-02 7.8895803E-01 1.9046053E+00
 -1.6247172E-01 8.0795069E-01 1.9128844E+00
 -2.2525401E-01 8.2766679E-01 1.9212448E+00
 -2.8733265E-01 8.4842626E-01 1.9292592E+00
 -3.4795788E-01 8.7043731E-01 1.9362664E+00
 -4.0673118E-01 8.9380492E-01 1.9414822E+00
 -4.6362036E-01 9.1854323E-01 1.9441145E+00
 -5.1881014E-01 9.4458823E-01 1.9434505E+00
 -5.7251056E-01 9.7180611E-01 1.9389130E+00
 -6.2482639E-01 1.0000000E+00 1.9300999E+00
 -6.7571685E-01 1.0289170E+00 1.9168033E+00
 -7.2504184E-01 1.0582539E+00 1.8989962E+00
 -7.7265175E-01 1.0876572E+00 1.8767842E+00
 -8.1846049E-01 1.1167146E+00 1.8503359E+00
 -8.6248419E-01 1.1449566E+00 1.8198121E+00
 2.1561277E-02 7.9447161E-01 1.8996490E+00
 -3.9486982E-02 8.1451006E-01 1.9068373E+00
 -1.0172891E-01 8.3450091E-01 1.9141690E+00
 -1.6469594E-01 8.5491419E-01 1.9216866E+00
 -2.2763747E-01 8.7613257E-01 1.9291913E+00
 -2.8967000E-01 8.9842423E-01 1.9362161E+00
 -3.5006719E-01 9.2194340E-01 1.9420803E+00
 -4.0846650E-01 9.4674394E-01 1.9460026E+00
 -4.6486688E-01 9.7279608E-01 1.9472121E+00
 -5.1947298E-01 1.0000000E+00 1.9450291E+00
 -5.7251055E-01 1.0281940E+00 1.9389129E+00
 -6.2411108E-01 1.0571578E+00 1.9284922E+00
 -6.7428638E-01 1.0866155E+00 1.9135730E+00
 -7.2297856E-01 1.1162338E+00 1.8941167E+00
 -7.7013147E-01 1.1456160E+00 1.8701921E+00
 -8.1572690E-01 1.1743028E+00 1.8419222E+00
 2.0956318E-02 8.3880962E-01 1.9086881E+00
 -4.0575992E-02 8.5985842E-01 1.9150184E+00
 -1.0317016E-01 8.8103409E-01 1.9214847E+00
 -1.6632101E-01 9.0275926E-01 1.9280800E+00
 -2.2925490E-01 9.2536112E-01 1.9345618E+00
 -2.9109182E-01 9.4905024E-01 1.9404345E+00
 -3.5113272E-01 9.7392705E-01 1.9450089E+00
 -4.0904901E-01 1.0000001E+00 1.9475161E+00
 -4.6486687E-01 1.0272040E+00 1.9472120E+00
 -5.1881012E-01 1.0554119E+00 1.9434504E+00
 -5.7112621E-01 1.0844386E+00 1.9357222E+00
 -6.2198628E-01 1.1140406E+00 1.9236773E+00
 -6.7146855E-01 1.1439114E+00 1.9071239E+00
 -7.1959745E-01 1.1736771E+00 1.8860051E+00
 -7.6637981E-01 1.2028961E+00 1.8603614E+00
 2.0484749E-02 8.8413053E-01 1.9156089E+00
 -4.1379751E-02 9.0607172E-01 1.9209662E+00
 -1.0415609E-01 9.2831180E-01 1.9264340E+00
 -1.6731503E-01 9.5122104E-01 1.9319610E+00
 -2.3007460E-01 9.7506639E-01 1.9372701E+00
 -2.9156976E-01 1.0000001E+00 1.9418482E+00
 -3.5113271E-01 1.0260731E+00 1.9450089E+00
 -4.0846648E-01 1.0532562E+00 1.9460026E+00
 -4.6362033E-01 1.0814569E+00 1.9441145E+00
 -5.1683636E-01 1.1105266E+00 1.9387293E+00
 -5.6838895E-01 1.1402587E+00 1.9293642E+00
 -6.1849746E-01 1.1703812E+00 1.9156822E+00
 -6.6730777E-01 1.2005500E+00 1.8974896E+00
 -7.1490486E-01 1.2303471E+00 1.8747164E+00
 2.0160857E-02 9.3017925E-01 1.9202925E+00
 -4.1873733E-02 9.5288302E-01 1.9245782E+00
 -1.0465761E-01 9.7605173E-01 1.9289311E+00
 -1.6764993E-01 1.0000001E+00 1.9332624E+00
 -2.3007460E-01 1.0249337E+00 1.9372701E+00
 -2.9109181E-01 1.0509499E+00 1.9404344E+00
 -3.5006718E-01 1.0780567E+00 1.9420803E+00
 -4.0673115E-01 1.1061952E+00 1.9414822E+00
 -4.6115048E-01 1.1352521E+00 1.9379545E+00
 -5.1358311E-01 1.1650600E+00 1.9309098E+00
 -5.6433252E-01 1.1953881E+00 1.9198869E+00
 -6.1366652E-01 1.2259303E+00 1.9045603E+00
 -6.6178489E-01 1.2562998E+00 1.8847391E+00
 1.9995893E-02 9.7667599E-01 1.9226558E+00
 -4.2040468E-02 1.0000000E+00 1.9257896E+00
 -1.0465761E-01 1.0239484E+00 1.9289311E+00
 -1.6731503E-01 1.0487791E+00 1.9319609E+00
 -2.2925490E-01 1.0746390E+00 1.9345618E+00
 -2.8966999E-01 1.1015759E+00 1.9362161E+00
 -3.4795787E-01 1.1295628E+00 1.9362663E+00
 -4.0386925E-01 1.1585177E+00 1.9340129E+00
 -4.5748062E-01 1.1883104E+00 1.9287985E+00
 -5.0906160E-01 1.2187536E+00 1.9200620E+00
 -5.5894334E-01 1.2495868E+00 1.9073642E+00
 -6.0743471E-01 1.2804632E+00 1.8903971E+00
 1.9995899E-02 1.0233241E+00 1.9226558E+00
 -4.1873724E-02 1.0471171E+00 1.9245782E+00
 -1.0415609E-01 1.0716883E+00 1.9264339E+00
 -1.6632101E-01 1.0972409E+00 1.9280800E+00
 -2.2763746E-01 1.1238676E+00 1.9291912E+00
 -2.8733264E-01 1.1515739E+00 1.9292591E+00
 -3.4482978E-01 1.1803045E+00 1.9276472E+00
 -3.9989011E-01 1.2099588E+00 1.9236822E+00
 -4.5259186E-01 1.2403895E+00 1.9167362E+00
 -5.0321383E-01 1.2713834E+00 1.9062774E+00
 -5.5211371E-01 1.3026417E+00 1.8918956E+00
 2.0160873E-02 1.0698208E+00 1.9202925E+00
 -4.1379736E-02 1.0939284E+00 1.9209662E+00
 -1.0317015E-01 1.1189660E+00 1.9214847E+00
 -1.6469594E-01 1.1450859E+00 1.9216866E+00
 -2.2525401E-01 1.1723333E+00 1.9212447E+00
 -2.8410059E-01 1.2006779E+00 1.9196630E+00
 -3.4067455E-01 1.2300402E+00 1.9163280E+00
 -3.9473992E-01 1.2603009E+00 1.9105954E+00
 -4.4637605E-01 1.2912886E+00 1.9018720E+00
 -4.9587736E-01 1.3227542E+00 1.8896644E+00
 2.0484772E-02 1.1158695E+00 1.9156088E+00
 -4.0575975E-02 1.1401417E+00 1.9150183E+00
 -1.0172890E-01 1.1654992E+00 1.9141690E+00
 -1.6247173E-01 1.1920494E+00 1.9128843E+00
 -2.2212001E-01 1.2197959E+00 1.9108372E+00
 -2.7994729E-01 1.2486755E+00 1.9075459E+00
 -3.3540234E-01 1.2785831E+00 1.9024233E+00
 -3.8825765E-01 1.3093729E+00 1.8948624E+00
 -4.3861187E-01 1.3408373E+00 1.8843164E+00
 2.0956345E-02 1.1611905E+00 1.9086881E+00
 -3.9486968E-02 1.1854900E+00 1.9068373E+00
 -9.9861380E-02 1.2110421E+00 1.9046053E+00
 -1.5965875E-01 1.2379156E+00 1.9018002E+00
 -2.1819348E-01 1.2660735E+00 1.8980951E+00
 -2.7474917E-01 1.2954146E+00 1.8930258E+00
 -3.2879993E-01 1.3257975E+00 1.8860415E+00
 -3.8016152E-01 1.3570358E+00 1.8765884E+00
 2.1561301E-02 1.2055285E+00 1.8996490E+00
 -3.8135415E-02 1.2297411E+00 1.8965557E+00
 -9.7574075E-02 1.2553976E+00 1.8929319E+00
 -1.5620602E-01 1.2825298E+00 1.8885673E+00
 -2.1332487E-01 1.3110499E+00 1.8831360E+00
 -2.6824455E-01 1.3408001E+00 1.8762031E+00
 -3.2052367E-01 1.3715836E+00 1.8672748E+00
 2.2287064E-02 1.2486591E+00 1.8886390E+00
 -3.6526092E-02 1.2727057E+00 1.8843255E+00
 -9.4816020E-02 1.2984299E+00 1.8792901E+00
 -1.5194782E-01 1.3258113E+00 1.8733009E+00
 -2.0720891E-01 1.3546766E+00 1.8660469E+00
 -2.6002531E-01 1.3847800E+00 1.8571493E+00
 2.3131209E-02 1.2903945E+00 1.8758260E+00
 -3.4618102E-02 1.3142533E+00 1.8703019E+00
 -9.1430720E-02 1.3400809E+00 1.8637999E+00
 -1.4655515E-01 1.3677556E+00 1.8560760E+00
 -1.9936958E-01 1.3969539E+00 1.8468732E+00
 2.4112063E-02 1.3305907E+00 1.8613877E+00
 -3.2288578E-02 1.3543326E+00 1.8546196E+00
 -8.7075509E-02 1.3803931E+00 1.8465252E+00
 -1.3946993E-01 1.4084265E+00 1.8369048E+00
 2.5293191E-02 1.3691676E+00 1.8454924E+00
 -2.9277704E-02 1.3929796E+00 1.8373689E+00
 -8.1143781E-02 1.4194774E+00 1.8274601E+00
 2.6819800E-02 1.4061341E+00 1.8282741E+00
 -2.4880645E-02 1.4303922E+00 1.8185129E+00
 2.9019371E-02 1.4414950E+00 1.8098638E+00
 8.1207009E-02 1.4543998E+00 1.8004284E+00
 8.1253134E-02 1.4209218E+00 1.8185686E+00
 8.1270609E-02 1.3854890E+00 1.8358752E+00
 8.1267454E-02 1.3481591E+00 1.8521295E+00
 8.1248853E-02 1.3090599E+00 1.8671057E+00
 8.1223279E-02 1.2683284E+00 1.8805905E+00
 8.1197379E-02 1.2261035E+00 1.8923924E+00
 8.1175557E-02 1.1825663E+00 1.9023306E+00
 8.1159471E-02 1.1379324E+00 1.9102437E+00
 8.1148982E-02 1.0924449E+00 1.9159977E+00
 8.1143213E-02 1.0463716E+00 1.9194921E+00
 8.1141387E-02 1.0000000E+00 1.9206640E+00
 8.1143200E-02 9.5362846E-01 1.9194921E+00
 8.1148957E-02 9.0755519E-01 1.9159977E+00
 8.1159438E-02 8.6206765E-01 1.9102437E+00
 8.1175521E-02 8.1743374E-01 1.9023306E+00
 8.1197344E-02 7.7389658E-01 1.8923924E+00
 8.1223250E-02 7.3167172E-01 1.8805905E+00
 8.1248834E-02 6.9094021E-01 1.8671057E+00
 8.1267446E-02 6.5184104E-01 1.8521296E+00
 8.1270614E-02 6.1451108E-01 1.8358753E+00
 8.1253151E-02 5.7907830E-01 1.8185686E+00
 8.1207039E-02 5.4560037E-01 1.8004284E+00
 1.2751035E-01 5.2585053E-01 1.7872186E+00
 1.7803378E-01 5.3665506E-01 1.7919948E+00
 2.3036729E-01 5.4793494E-01 1.7968918E+00
 2.8414129E-01 5.5976095E-01 1.8017958E+00
 3.3918578E-01 5.7223098E-01 1.8065572E+00
 3.9533429E-01 5.8546643E-01 1.8109980E+00
 4.5242155E-01 5.9959415E-01 1.8149072E+00
 5.1024014E-01 6.1473733E-01 1.8180438E+00
 5.6854553E-01 6.3101130E-01 1.8201446E+00
 6.2705983E-01 6.4851592E-01 1.8209335E+00
 6.8547810E-01 6.6732792E-01 1.8201340E+00
 7.4347519E-01 6.8749317E-01 1.8174837E+00
 8.0071205E-01 7.0902024E-01 1.8127492E+00
 8.5684389E-01 7.3187660E-01 1.8057412E+00
 9.1152616E-01 7.5598791E-01 1.7963270E+00
 9.6442329E-01 7.8124004E-01 1.7844387E+00
 1.0152187E+00 8.0748298E-01 1.7700768E+00
 1.0636257E+00 8.3453950E-01 1.7533094E+00
 1.1093941E+00 8.6221355E-01 1.7342684E+00
 1.1523193E+00 8.9029859E-01 1.7131381E+00
 1.1922232E+00 9.1856116E-01 1.6901606E+00
 1.2289462E+00 9.4672977E-01 1.6656332E+00
 1.2622516E+00 9.7439325E-01 1.6399979E+00
 1.3287137E-01 1.4398273E+00 1.8067306E+00
 1.8507747E-01 1.4270153E+00 1.8119568E+00
 2.3848414E-01 1.4142171E+00 1.8169770E+00
 2.9295910E-01 1.4010641E+00 1.8218209E+00
 3.4847169E-01 1.3872935E+00 1.8264128E+00
 4.0491748E-01 1.3727309E+00 1.8305899E+00
 4.6213749E-01 1.3572345E+00 1.8341406E+00
 5.1992869E-01 1.3406898E+00 1.8368160E+00
 5.7804621E-01 1.3230040E+00 1.8383444E+00
 6.3621157E-01 1.3041068E+00 1.8384454E+00
 6.9411987E-01 1.2839544E+00 1.8368441E+00
 7.5144808E-01 1.2625341E+00 1.8332865E+00
 8.0786224E-01 1.2398684E+00 1.8275552E+00
 8.6302641E-01 1.2160155E+00 1.8194822E+00
 9.1660946E-01 1.1910684E+00 1.8089603E+00
 9.6829326E-01 1.1651527E+00 1.7959490E+00
 1.0177877E+00 1.1384232E+00 1.7804718E+00
 1.0648481E+00 1.1110614E+00 1.7626078E+00
 1.1092909E+00 1.0832733E+00 1.7424774E+00
 1.1510152E+00 1.0552905E+00 1.7202140E+00
 1.1900486E+00 1.0273829E+00 1.6959129E+00
 1.2266143E+00 1.0000000E+00 1.6695538E+00
 1.3506805E-01 1.4045660E+00 1.8249223E+00
 1.8926744E-01 1.3897879E+00 1.8303664E+00
 2.4395800E-01 1.3754321E+00 1.8353674E+00
 2.9937179E-01 1.3608476E+00 1.8400662E+00
 3.5553309E-01 1.3456938E+00 1.8444011E+00
 4.1240165E-01 1.3297394E+00 1.8482211E+00
 4.6985122E-01 1.3128329E+00 1.8513095E+00
 5.2769503E-01 1.2948699E+00 1.8534101E+00
 5.8569702E-01 1.2757795E+00 1.8542452E+00
 6.4358288E-01 1.2555190E+00 1.8535334E+00
 7.0105094E-01 1.2340737E+00 1.8510047E+00
 7.5778245E-01 1.2114587E+00 1.8464172E+00
 8.1345151E-01 1.1877204E+00 1.8395704E+00
 8.6773576E-01 1.1629349E+00 1.8303177E+00
 9.2032540E-01 1.1372061E+00 1.8185732E+00
 9.7093691E-01 1.1106636E+00 1.8043122E+00
 1.0193362E+00 1.0834634E+00 1.7875593E+00
 1.0653725E+00 1.0557926E+00 1.7683639E+00
 1.1090192E+00 1.0278765E+00 1.7467589E+00
 1.1504183E+00 1.0000000E+00 1.7227028E+00
 1.1900486E+00 9.7261715E-01 1.6959129E+00
 1.3656443E-01 1.3677125E+00 1.8419766E+00
 1.9208822E-01 1.3513828E+00 1.8472733E+00
 2.4791518E-01 1.3355130E+00 1.8520910E+00
 3.0418798E-01 1.3194957E+00 1.8565105E+00
 3.6098737E-01 1.3029270E+00 1.8604732E+00
 4.1828718E-01 1.2855593E+00 1.8638181E+00
 4.7598298E-01 1.2672387E+00 1.8663207E+00
 5.3389982E-01 1.2478749E+00 1.8677174E+00
 5.9180859E-01 1.2274187E+00 1.8677276E+00
 6.4943960E-01 1.2058521E+00 1.8660719E+00
 7.0649595E-01 1.1831849E+00 1.8624888E+00
 7.6266566E-01 1.1594540E+00 1.8567501E+00
 8.1763494E-01 1.1347223E+00 1.8486731E+00
 8.7110289E-01 1.1090771E+00 1.8381286E+00
 9.2279684E-01 1.0826283E+00 1.8250427E+00
 9.7249595E-01 1.0555110E+00 1.8093872E+00
 1.0200664E+00 1.0278947E+00 1.7911549E+00
 1.0655097E+00 1.0000000E+00 1.7703169E+00
 1.1090192E+00 9.7212359E-01 1.7467589E+00
 1.1510152E+00 9.4470957E-01 1.7202140E+00
 1.3768288E-01 1.3292626E+00 1.8577363E+00
 1.9422802E-01 1.3115809E+00 1.8626682E+00
 2.5094826E-01 1.2943252E+00 1.8671146E+00
 3.0795340E-01 1.2769153E+00 1.8711077E+00
 3.6530217E-01 1.2589565E+00 1.8745593E+00
 4.2297538E-01 1.2401997E+00 1.8772928E+00
 4.8087251E-01 1.2205034E+00 1.8790720E+00
 5.3882455E-01 1.1997949E+00 1.8796273E+00
 5.9660672E-01 1.1780461E+00 1.8786777E+00
 6.5395427E-01 1.1552608E+00 1.8759492E+00
 7.1057736E-01 1.1314683E+00 1.8711914E+00
 7.6617535E-01 1.1067211E+00 1.8641907E+00
 8.2045392E-01 1.0810926E+00 1.8547796E+00
 8.7314674E-01 1.0546775E+00 1.8428396E+00
 9.2404183E-01 1.0275949E+00 1.8282939E+00
 9.7301392E-01 1.0000000E+00 1.8110883E+00
 1.0200664E+00 9.7210535E-01 1.7911549E+00
 1.0653725E+00 9.4420743E-01 1.7683639E+00
 1.1092909E+00 9.1672681E-01 1.7424774E+00
 1.3858265E-01 1.2892067E+00 1.8720570E+00
 1.9595455E-01 1.2703418E+00 1.8764431E+00
 2.5339849E-01 1.2518128E+00 1.8803533E+00
 3.1099241E-01 1.2330899E+00 1.8837661E+00
 3.6877593E-01 1.2138022E+00 1.8865604E+00
 4.2672142E-01 1.1937214E+00 1.8885385E+00
 4.8472834E-01 1.1727255E+00 1.8894529E+00
 5.4262942E-01 1.1507629E+00 1.8890301E+00
 6.0020416E-01 1.1278254E+00 1.8869920E+00
 6.5719474E-01 1.1039349E+00 1.8830729E+00
 7.1332269E-01 1.0791349E+00 1.8770347E+00
 7.6830571E-01 1.0534877E+00 1.8686770E+00
 8.2188058E-01 1.0270745E+00 1.8578429E+00
 8.7383461E-01 1.0000000E+00 1.8444135E+00
 9.2404183E-01 9.7240514E-01 1.8282939E+00
 9.7249595E-01 9.4448906E-01 1.8093872E+00
 1.0193362E+00 9.1653672E-01 1.7875593E+00
 1.0648481E+00 8.8893870E-01 1.7626078E+00
 1.3934308E-01 1.2476244E+00 1.8847660E+00
 1.9740151E-01 1.2277144E+00 1.8884564E+00
 2.5542583E-01 1.2080267E+00 1.8916802E+00
 3.1346865E-01 1.1880866E+00 1.8943657E+00
 3.7155271E-01 1.1675605E+00 1.8963581E+00
 4.2964246E-01 1.1462508E+00 1.8974399E+00
 4.8763554E-01 1.1240614E+00 1.8973541E+00
 5.4536734E-01 1.1009622E+00 1.8958268E+00
 6.0262367E-01 1.0769629E+00 1.8925855E+00
 6.5915772E-01 1.0520984E+00 1.8873748E+00
 7.1470848E-01 1.0264211E+00 1.8799684E+00
 7.6902169E-01 1.0000000E+00 1.8701759E+00
 8.2188058E-01 9.7292561E-01 1.8578429E+00
 8.7314674E-01 9.4532261E-01 1.8428396E+00
 9.2279684E-01 9.1737174E-01 1.8250427E+00
 9.7093691E-01 8.8933647E-01 1.8043122E+00
 1.0177877E+00 8.6157688E-01 1.7804718E+00
 1.3999417E-01 1.2046592E+00 1.8956853E+00
 1.9861716E-01 1.1838272E+00 1.8985526E+00
 2.5708427E-01 1.1630980E+00 1.9009555E+00
 3.1543163E-01 1.1420503E+00 1.9027773E+00
 3.7367023E-01 1.1203964E+00 1.9038331E+00
 4.3175983E-01 1.0979758E+00 1.9038884E+00
 4.8959892E-01 1.0747205E+00 1.9026807E+00
 5.4702841E-01 1.0506208E+00 1.8999387E+00
 6.0384447E-01 1.0256997E+00 1.8953979E+00
 6.5981650E-01 1.0000000E+00 1.8888135E+00
 7.1470848E-01 9.7357896E-01 1.8799684E+00
 7.6830571E-01 9.4651241E-01 1.8686770E+00
 8.2045392E-01 9.1890751E-01 1.8547796E+00
 8.7110289E-01 8.9092302E-01 1.8381286E+00
 9.2032540E-01 8.6279396E-01 1.8185732E+00
 9.6829327E-01 8.3484733E-01 1.7959490E+00
 1.4053943E-01 1.1604986E+00 1.9046482E+00
 1.9960043E-01 1.1388680E+00 1.9065828E+00
 2.5836846E-01 1.1172187E+00 1.9080460E+00
 3.1686999E-01 1.0951853E+00 1.9088823E+00
 3.7511063E-01 1.0725309E+00 1.9088810E+00
 4.3305007E-01 1.0491343E+00 1.9077958E+00
 4.9059175E-01 1.0249551E+00 1.9053625E+00
 5.4758620E-01 1.0000000E+00 1.9013151E+00
 6.0384447E-01 9.7430034E-01 1.8953979E+00
 6.5915772E-01 9.4790170E-01 1.8873749E+00
 7.1332269E-01 9.2086522E-01 1.8770347E+00
 7.6617535E-01 8.9327901E-01 1.8641907E+00
 8.1763494E-01 8.6527776E-01 1.8486731E+00
 8.6773576E-01 8.3706520E-01 1.8303177E+00
 9.1660947E-01 8.0893163E-01 1.8089604E+00
 1.4096784E-01 1.1153661E+00 1.9115090E+00
 2.0032935E-01 1.0930657E+00 1.9124185E+00
 2.5924956E-01 1.0706264E+00 1.9128403E+00
 3.1775164E-01 1.0477415E+00 1.9125859E+00
 3.7584167E-01 1.0242267E+00 1.9114253E+00
 4.3348416E-01 1.0000000E+00 1.9091049E+00
 4.9059174E-01 9.7504496E-01 1.9053625E+00
 5.4702841E-01 9.4937930E-01 1.8999387E+00
 6.0262367E-01 9.2303716E-01 1.8925855E+00
 6.5719474E-01 8.9606519E-01 1.8830729E+00
 7.1057736E-01 8.6853176E-01 1.8711914E+00
 7.6266566E-01 8.4054605E-01 1.8567501E+00
 8.1345151E-01 8.1227968E-01 1.8395704E+00
 8.6302641E-01 7.8398458E-01 1.8194822E+00
 1.4126426E-01 1.0695148E+00 1.9161512E+00
 2.0077883E-01 1.0466815E+00 1.9159613E+00
 2.5969859E-01 1.0235921E+00 1.9152584E+00
 3.1804900E-01 1.0000000E+00 1.9138274E+00
 3.7584166E-01 9.7577334E-01 1.9114253E+00
 4.3305006E-01 9.5086580E-01 1.9077958E+00
 4.8959891E-01 9.2527954E-01 1.9026807E+00
 5.4536733E-01 8.9903789E-01 1.8958268E+00
 6.0020416E-01 8.7217463E-01 1.8869920E+00
 6.5395426E-01 8.4473933E-01 1.8759492E+00
 7.0649594E-01 8.1681515E-01 1.8624888E+00
 7.5778245E-01 7.8854138E-01 1.8464172E+00
 8.0786225E-01 7.6013164E-01 1.8275552E+00
 1.4141597E-01 1.0232214E+00 1.9184934E+00
 2.0093080E-01 1.0000000E+00 1.9171492E+00
 2.5969858E-01 9.7640797E-01 1.9152584E+00
 3.1775163E-01 9.5225857E-01 1.9125859E+00
 3.7511062E-01 9.2746918E-01 1.9088810E+00
 4.3175981E-01 9.0202428E-01 1.9038884E+00
 4.8763553E-01 8.7593868E-01 1.8973542E+00
 5.4262941E-01 8.4923721E-01 1.8890301E+00
 5.9660671E-01 8.2195398E-01 1.8786777E+00
 6.4943960E-01 7.9414797E-01 1.8660719E+00
 7.0105094E-01 7.6592642E-01 1.8510048E+00
 7.5144808E-01 7.3746593E-01 1.8332866E+00
 1.4141596E-01 9.7677865E-01 1.9184934E+00
 2.0077882E-01 9.5331856E-01 1.9159613E+00
 2.5924954E-01 9.2937366E-01 1.9128403E+00
 3.1686996E-01 9.0481474E-01 1.9088823E+00
 3.7367021E-01 8.7960363E-01 1.9038331E+00
 4.2964243E-01 8.5374931E-01 1.8974399E+00
 4.8472832E-01 8.2727454E-01 1.8894529E+00
 5.3882453E-01 8.0020520E-01 1.8796273E+00
 5.9180858E-01 7.7258135E-01 1.8677277E+00
 6.4358287E-01 7.4448111E-01 1.8535334E+00
 6.9411987E-01 7.1604571E-01 1.8368441E+00
 1.4126424E-01 9.3048521E-01 1.9161512E+00
 2.0032932E-01 9.0693433E-01 1.9124185E+00
 2.5836843E-01 8.8278134E-01 1.9080461E+00
 3.1543159E-01 8.5794980E-01 1.9027773E+00
 3.7155267E-01 8.3243954E-01 1.8963581E+00
 4.2672139E-01 8.0627870E-01 1.8885386E+00
 4.8087248E-01 7.7949664E-01 1.8790721E+00
 5.3389980E-01 7.5212514E-01 1.8677175E+00
 5.8569700E-01 7.2422061E-01 1.8542452E+00
 6.3621156E-01 6.9589327E-01 1.8384454E+00
 1.4096781E-01 8.8463394E-01 1.9115090E+00
 1.9960039E-01 8.6113203E-01 1.9065828E+00
 2.5708423E-01 8.3690202E-01 1.9009555E+00
 3.1346860E-01 8.1191342E-01 1.8943657E+00
 3.6877588E-01 7.8619790E-01 1.8865604E+00
 4.2297534E-01 7.5980039E-01 1.8772929E+00
 4.7598296E-01 7.3276136E-01 1.8663207E+00
 5.2769501E-01 7.0513021E-01 1.8534101E+00
 5.7804619E-01 6.7699605E-01 1.8383445E+00
 1.4053939E-01 8.3950148E-01 1.9046482E+00
 1.9861711E-01 8.1617283E-01 1.8985527E+00
 2.5542578E-01 7.9197333E-01 1.8916803E+00
 3.1099236E-01 7.6691015E-01 1.8837661E+00
 3.6530213E-01 7.4104359E-01 1.8745593E+00
 4.1828714E-01 7.1444076E-01 1.8638181E+00
 4.6985119E-01 6.8716718E-01 1.8513096E+00
 5.1992867E-01 6.5931024E-01 1.8368160E+00
 1.3999413E-01 7.9534087E-01 1.8956854E+00
 1.9740146E-01 7.7228573E-01 1.8884564E+00
 2.5339844E-01 7.4818729E-01 1.8803533E+00
 3.0795335E-01 7.2308479E-01 1.8711077E+00
 3.6098733E-01 6.9707313E-01 1.8604732E+00
 4.1240162E-01 6.7026073E-01 1.8482211E+00
 4.6213746E-01 6.4276556E-01 1.8341406E+00
 1.3934303E-01 7.5237573E-01 1.8847661E+00
 1.9595450E-01 7.2965825E-01 1.8764431E+00
 2.5094821E-01 7.0567494E-01 1.8671146E+00
 3.0418793E-01 6.8050442E-01 1.8565105E+00
 3.5553305E-01 6.5430625E-01 1.8444011E+00
 4.0491745E-01 6.2726921E-01 1.8305899E+00
 1.3858261E-01 7.1079339E-01 1.8720570E+00
 1.9422797E-01 6.8841924E-01 1.8626682E+00
 2.4791513E-01 6.6448710E-01 1.8520911E+00
 2.9937174E-01 6.3915252E-01 1.8400662E+00
 3.4847165E-01 6.1270661E-01 1.8264128E+00
 1.3768285E-01 6.7073748E-01 1.8577364E+00
 1.9208818E-01 6.4861726E-01 1.8472733E+00
 2.4395796E-01 6.2456796E-01 1.8353674E+00
 2.9295907E-01 5.9893596E-01 1.8218209E+00
 1.3656441E-01 6.3228766E-01 1.8419766E+00
 1.8926741E-01 6.1021222E-01 1.8303664E+00
 2.3848411E-01 5.8578297E-01 1.8169771E+00
 1.3506804E-01 5.9543408E-01 1.8249223E+00
 1.8507745E-01 5.7298479E-01 1.8119568E+00
 1.3287137E-01 5.6017281E-01 1.8067306E+00
 5.2389913E-02 1.5078140E+00 1.7688651E+00
 2.0374309E-02 1.5339109E+00 1.7525182E+00
 -1.3217110E-02 1.5606234E+00 1.7346747E+00
 -4.8192100E-02 1.5877615E+00 1.7153444E+00
 -8.4370007E-02 1.6152234E+00 1.6944733E+00
 -1.2148374E-01 1.6429066E+00 1.6719749E+00
 -1.5922759E-01 1.6706911E+00 1.6477400E+00
 -1.9723051E-01 1.6984041E+00 1.6216583E+00
 -2.3507779E-01 1.7258182E+00 1.5936252E+00
 -2.7235304E-01 1.7526546E+00 1.5635559E+00
 -3.0868081E-01 1.7785953E+00 1.5314019E+00
 -3.4375768E-01 1.8033035E+00 1.4971659E+00
 -3.7736295E-01 1.8264447E+00 1.4609126E+00
 -4.0935096E-01 1.8477095E+00 1.4227713E+00
 -4.3963463E-01 1.8668319E+00 1.3829326E+00
 -4.6816572E-01 1.8836023E+00 1.3416409E+00
 -4.9491700E-01 1.8978733E+00 1.2991834E+00
 -5.1987075E-01 1.9095632E+00 1.2558762E+00
 -5.4301494E-01 1.9186555E+00 1.2120454E+00
 -5.6434251E-01 1.9251943E+00 1.1680218E+00
 -5.8385175E-01 1.9292717E+00 1.1241638E+00
 -6.0157011E-01 1.9310149E+00 1.0808575E+00
 -6.1749565E-01 1.9305949E+00 1.0387692E+00
 -1.0834893E+00 1.0738194E+00 1.6262423E+00
 -1.0878295E+00 1.1217407E+00 1.6130720E+00
 -1.0904539E+00 1.1703713E+00 1.5978637E+00
 -1.0909635E+00 1.2197801E+00 1.5808431E+00
 -1.0890900E+00 1.2698941E+00 1.5620750E+00
 -1.0846088E+00 1.3205363E+00 1.5415950E+00
 -1.0773357E+00 1.3714511E+00 1.5194313E+00
 -1.0671285E+00 1.4223238E+00 1.4956179E+00
 -1.0538890E+00 1.4727927E+00 1.4702073E+00
 -1.0375657E+00 1.5224611E+00 1.4432806E+00
 -1.0181584E+00 1.5709094E+00 1.4149523E+00
 -9.9572285E-01 1.6177070E+00 1.3853729E+00
 -9.7037365E-01 1.6624265E+00 1.3547266E+00
 -9.4228585E-01 1.7046572E+00 1.3232287E+00
 -9.1169165E-01 1.7440209E+00 1.2911194E+00
 -8.7887593E-01 1.7801843E+00 1.2586584E+00
 -8.4416613E-01 1.8128742E+00 1.2261147E+00
 -8.0792410E-01 1.8418865E+00 1.1937573E+00
 -7.7052483E-01 1.8671021E+00 1.1618347E+00
 -7.3234740E-01 1.8884901E+00 1.1305500E+00
 -6.9375928E-01 1.9061102E+00 1.0999945E+00
 -6.5521931E-01 1.9200887E+00 1.0700041E+00
 -1.0542762E+00 1.1045217E+00 1.6579331E+00
 -1.0568672E+00 1.1550468E+00 1.6448378E+00
 -1.0578234E+00 1.2055209E+00 1.6294265E+00
 -1.0566562E+00 1.2562902E+00 1.6120249E+00
 -1.0530427E+00 1.3074005E+00 1.5927630E+00
 -1.0467405E+00 1.3587327E+00 1.5717028E+00
 -1.0375744E+00 1.4100476E+00 1.5488798E+00
 -1.0254281E+00 1.4610222E+00 1.5243293E+00
 -1.0102402E+00 1.5112759E+00 1.4981066E+00
 -9.9200236E-01 1.5603914E+00 1.4703002E+00
 -9.7076098E-01 1.6079325E+00 1.4410384E+00
 -9.4661951E-01 1.6534605E+00 1.4104901E+00
 -9.1973969E-01 1.6965512E+00 1.3788616E+00
 -8.9033734E-01 1.7368113E+00 1.3463911E+00
 -8.5867872E-01 1.7738945E+00 1.3133405E+00
 -8.2506824E-01 1.8075170E+00 1.2799802E+00
 -7.8984089E-01 1.8374685E+00 1.2465735E+00
 -7.5334174E-01 1.8636256E+00 1.2133426E+00
 -7.1590864E-01 1.8859613E+00 1.1804216E+00
 -6.7786812E-01 1.9045373E+00 1.1477851E+00
 -6.3955630E-01 1.9194988E+00 1.1150145E+00
 -1.0215573E+00 1.1351978E+00 1.6889937E+00
 -1.0224662E+00 1.1875243E+00 1.6756722E+00
 -1.0217035E+00 1.2395233E+00 1.6599031E+00
 -1.0187838E+00 1.2914750E+00 1.6419995E+00
 -1.0133569E+00 1.3434499E+00 1.6221193E+00
 -1.0051771E+00 1.3953363E+00 1.6003390E+00
 -9.9408703E-01 1.4468899E+00 1.5766996E+00
 -9.8000341E-01 1.4977724E+00 1.5512410E+00
 -9.6290573E-01 1.5475845E+00 1.5240278E+00
 -9.4283157E-01 1.5958933E+00 1.4951636E+00
 -9.1987519E-01 1.6422536E+00 1.4647972E+00
 -8.9418607E-01 1.6862299E+00 1.4331213E+00
 -8.6596653E-01 1.7274143E+00 1.4003679E+00
 -8.3546498E-01 1.7654468E+00 1.3667971E+00
 -8.0296608E-01 1.8000303E+00 1.3326827E+00
 -7.6877957E-01 1.8309472E+00 1.2982868E+00
 -7.3322793E-01 1.8580675E+00 1.2638241E+00
 -6.9662793E-01 1.8813616E+00 1.2294074E+00
 -6.5929005E-01 1.9008927E+00 1.1949731E+00
 -6.2153483E-01 1.9168025E+00 1.1601676E+00
 -9.8530986E-01 1.1660382E+00 1.7188632E+00
 -9.8455198E-01 1.2196416E+00 1.7050883E+00
 -9.8204638E-01 1.2727661E+00 1.6887857E+00
 -9.7732474E-01 1.3256072E+00 1.6702360E+00
 -9.7004053E-01 1.3781885E+00 1.6495960E+00
 -9.5996267E-01 1.4303727E+00 1.6269458E+00
 -9.4696317E-01 1.4818909E+00 1.6023320E+00
 -9.3099835E-01 1.5323834E+00 1.5758046E+00
 -9.1209308E-01 1.5814345E+00 1.5474446E+00
 -8.9033171E-01 1.6286022E+00 1.5173779E+00
 -8.6585318E-01 1.6734451E+00 1.4857794E+00
 -8.3884710E-01 1.7155444E+00 1.4528700E+00
 -8.0954500E-01 1.7545267E+00 1.4189056E+00
 -7.7821311E-01 1.7900816E+00 1.3841625E+00