# TIME = 13.400000
variables = x, y, z
zone N=5762 E=11520 F=FEPOINT ET=TRIANGLE
 7.2743312E-01 1.4839044E+00 1.7828377E+00
 7.2743321E-01 1.4839043E+00 2.1716236E-01
 7.2743317E-01 5.1609575E-01 1.7828376E+00
 7.2743321E-01 5.1609563E-01 2.1716230E-01
 -4.5469280E-01 1.0000000E+00 1.6071357E+00
 1.9374128E+00 1.0000000E+00 1.6145545E+00
 -4.5469278E-01 1.0000000E+00 3.9286425E-01
 1.9374128E+00 1.0000000E+00 3.8544550E-01
 1.3794670E-02 1.9278143E+00 9.9999964E-01
 1.3794701E-02 7.2185804E-02 1.0000003E+00
 1.4243745E+00 1.8678033E+00 9.9999996E-01
 1.4243745E+00 1.3219670E-01 1.0000000E+00
 6.8012611E-01 1.4757162E+00 1.7899420E+00
 6.2748957E-01 1.4666863E+00 1.7979615E+00
 5.7190737E-01 1.4573703E+00 1.8066120E+00
 5.1391415E-01 1.4477701E+00 1.8159212E+00
 4.5414163E-01 1.4377931E+00 1.8258323E+00
 3.9347099E-01 1.4272291E+00 1.8361277E+00
 3.3285041E-01 1.4157741E+00 1.8463780E+00
 2.7303420E-01 1.4030719E+00 1.8559625E+00
 2.1439372E-01 1.3887693E+00 1.8641453E+00
 1.5694940E-01 1.3725652E+00 1.8701620E+00
 1.0054034E-01 1.3542436E+00 1.8732911E+00
 4.5020984E-02 1.3336975E+00 1.8729146E+00
 -9.5997074E-03 1.3109438E+00 1.8685748E+00
 -6.3108882E-02 1.2861251E+00 1.8600187E+00
 -1.1512738E-01 1.2594959E+00 1.8472146E+00
 -1.6518975E-01 1.2313952E+00 1.8303391E+00
 -2.1282683E-01 1.2022127E+00 1.8097399E+00
 -2.5762904E-01 1.1723526E+00 1.7858858E+00
 -2.9928492E-01 1.1422048E+00 1.7593132E+00
 -3.3759856E-01 1.1121245E+00 1.7305777E+00
 -3.7246122E-01 1.0824385E+00 1.7002441E+00
 -4.0382212E-01 1.0534472E+00 1.6688845E+00
 -4.3159281E-01 1.0255114E+00 1.6371872E+00
 6.7461233E-01 5.5872315E-01 1.8099420E+00
 6.2004508E-01 5.6985381E-01 1.8186433E+00
 5.6313158E-01 5.8078343E-01 1.8276465E+00
 5.0424156E-01 5.9183262E-01 1.8371415E+00
 4.4392999E-01 6.0328990E-01 1.8471405E+00
 3.8306033E-01 6.1544339E-01 1.8574107E+00
 3.2255155E-01 6.2862280E-01 1.8674819E+00
 2.6307465E-01 6.4316051E-01 1.8766927E+00
 2.0491159E-01 6.5935168E-01 1.8842832E+00
 1.4802182E-01 6.7742154E-01 1.8894856E+00
 9.2225863E-02 6.9750535E-01 1.8915953E+00
 3.7392477E-02 7.1963385E-01 1.8900297E+00
 -1.6442621E-02 7.4372546E-01 1.8843821E+00
 -6.9047590E-02 7.6959079E-01 1.8744571E+00
 -1.2004181E-01 7.9695051E-01 1.8602806E+00
 -1.6897674E-01 8.2546251E-01 1.8420784E+00
 -2.1541788E-01 8.5475086E-01 1.8202305E+00
 -2.5900793E-01 8.8443388E-01 1.7952137E+00
 -2.9950171E-01 9.1414457E-01 1.7675426E+00
 -3.3678840E-01 9.4354085E-01 1.7377078E+00
 -3.7091049E-01 9.7230045E-01 1.7061075E+00
 -4.0209160E-01 1.0000000E+00 1.6729655E+00
 6.7235909E-01 5.9423099E-01 1.8284151E+00
 6.1557326E-01 6.0741614E-01 1.8375598E+00
 5.5712456E-01 6.2001798E-01 1.8467688E+00
 4.9709740E-01 6.3265130E-01 1.8563645E+00
 4.3606413E-01 6.4570760E-01 1.8663564E+00
 3.7485595E-01 6.5955118E-01 1.8764931E+00
 3.1433194E-01 6.7451973E-01 1.8862623E+00
 2.5507143E-01 6.9091302E-01 1.8949677E+00
 1.9726961E-01 7.0896623E-01 1.9018335E+00
 1.4083120E-01 7.2883448E-01 1.9060957E+00
 8.5561031E-02 7.5058217E-01 1.9070723E+00
 3.1338914E-02 7.7417577E-01 1.9042209E+00
 -2.1780599E-02 7.9948234E-01 1.8971852E+00
 -7.3557301E-02 8.2627889E-01 1.8858237E+00
 -1.2362225E-01 8.5427271E-01 1.8702102E+00
 -1.7156067E-01 8.8312732E-01 1.8506025E+00
 -2.1699572E-01 9.1248497E-01 1.8273854E+00
 -2.5965851E-01 9.4198536E-01 1.8009965E+00
 -2.9943362E-01 9.7127598E-01 1.7718457E+00
 -3.3639200E-01 1.0000000E+00 1.7402247E+00
 -3.7091046E-01 1.0276996E+00 1.7061074E+00
 6.7078685E-01 6.3132513E-01 1.8456717E+00
 6.1250235E-01 6.4618894E-01 1.8548441E+00
 5.5270706E-01 6.6045475E-01 1.8640731E+00
 4.9165637E-01 6.7471554E-01 1.8736134E+00
 4.2992867E-01 6.8944503E-01 1.8834610E+00
 3.6837029E-01 7.0503366E-01 1.8933204E+00
 3.0778837E-01 7.2181344E-01 1.9026376E+00
 2.4868374E-01 7.4004346E-01 1.9106866E+00
 1.9117798E-01 7.5990160E-01 1.9166823E+00
 1.3513188E-01 7.8147970E-01 1.9198720E+00
 8.0339066E-02 8.0478086E-01 1.9196013E+00
 2.6687321E-02 8.2971806E-01 1.9153700E+00
 -2.5758790E-02 8.5611867E-01 1.9068703E+00
 -7.6763745E-02 8.8373701E-01 1.8940072E+00
 -1.2598842E-01 9.1227426E-01 1.8768867E+00
 -1.7307647E-01 9.4139937E-01 1.8557731E+00
 -2.1774203E-01 9.7076251E-01 1.8310158E+00
 -2.5984311E-01 1.0000000E+00 1.8029602E+00
 -2.9943359E-01 1.0287240E+00 1.7718457E+00
 -3.3678834E-01 1.0564592E+00 1.7377078E+00
 6.6956987E-01 6.6999560E-01 1.8615786E+00
 6.1013070E-01 6.8635603E-01 1.8705321E+00
 5.4928372E-01 7.0218865E-01 1.8795642E+00
 4.8737683E-01 7.1807246E-01 1.8888750E+00
 4.2506712E-01 7.3448587E-01 1.8984084E+00
 3.6321429E-01 7.5182303E-01 1.9078213E+00
 3.0259293E-01 7.7038981E-01 1.9165168E+00
 2.4364006E-01 7.9040074E-01 1.9237457E+00
 1.8641901E-01 8.1197806E-01 1.9287210E+00
 1.3075720E-01 8.3515623E-01 1.9307073E+00
 7.6439764E-02 8.5988553E-01 1.9290826E+00
 2.3357546E-02 8.8603591E-01 1.9233885E+00
 -2.8426617E-02 9.1340499E-01 1.9133609E+00
 -7.8699123E-02 9.4173100E-01 1.8989388E+00
 -1.2717332E-01 9.7070851E-01 1.8802401E+00
 -1.7357781E-01 1.0000000E+00 1.8575058E+00
 -2.1774201E-01 1.0292375E+00 1.8310158E+00
 -2.5965846E-01 1.0580147E+00 1.8009965E+00
 -2.9950164E-01 1.0858554E+00 1.7675425E+00
 6.6856584E-01 7.1024191E-01 1.8760040E+00
 6.0820369E-01 7.2794402E-01 1.8845368E+00
 5.4651851E-01 7.4525209E-01 1.8931818E+00
 4.8393663E-01 7.6270700E-01 1.9020789E+00
 4.2117946E-01 7.8077131E-01 1.9111169E+00
 3.5912839E-01 7.9981487E-01 1.9199013E+00
 2.9853036E-01 8.2010570E-01 1.9277979E+00
 2.3977240E-01 8.4180855E-01 1.9340415E+00
 1.8287227E-01 8.6499213E-01 1.9378506E+00
 1.2763149E-01 8.8963992E-01 1.9385130E+00
 7.3826471E-02 9.1565833E-01 1.9354425E+00
 2.1343208E-02 9.4288368E-01 1.9282196E+00
 -2.9772069E-02 9.7109022E-01 1.9166147E+00
 -7.9348266E-02 1.0000000E+00 1.9005856E+00
 -1.2717330E-01 1.0292915E+00 1.8802401E+00
 -1.7307642E-01 1.0586007E+00 1.8557730E+00
 -2.1699564E-01 1.0875150E+00 1.8273853E+00
 -2.5900783E-01 1.1155661E+00 1.7952136E+00
 6.6771120E-01 7.5198075E-01 1.8887856E+00
 6.0659681E-01 7.7089812E-01 1.8967302E+00
 5.4425032E-01 7.8958356E-01 1.9048138E+00
 4.8116252E-01 8.0853529E-01 1.9131184E+00
 4.1810568E-01 8.2818288E-01 1.9214785E+00
 3.5597581E-01 8.4885628E-01 1.9294523E+00
 2.9549522E-01 8.7077503E-01 1.9363760E+00
 2.3700929E-01 8.9405204E-01 1.9414771E+00
 1.8049922E-01 9.1870644E-01 1.9439876E+00
 1.2574476E-01 9.4467873E-01 1.9432233E+00
 7.2510620E-02 9.7184024E-01 1.9386338E+00
 2.0667491E-02 1.0000000E+00 1.9298330E+00
 -2.9772050E-02 1.0289098E+00 1.9166147E+00
 -7.8699081E-02 1.0582690E+00 1.8989387E+00
 -1.2598835E-01 1.0877258E+00 1.8768866E+00
 -1.7156057E-01 1.1168727E+00 1.8506024E+00
 -2.1541776E-01 1.1452491E+00 1.8202304E+00
 6.6698457E-01 7.9506895E-01 1.8997533E+00
 6.0526159E-01 8.1508979E-01 1.9069658E+00
 5.4241635E-01 8.3504993E-01 1.9143288E+00
 4.7898827E-01 8.5540664E-01 1.9218714E+00
 4.1578624E-01 8.7654422E-01 1.9293779E+00
 3.5371135E-01 8.9874177E-01 1.9363672E+00
 2.9346022E-01 9.2216520E-01 1.9421557E+00
 2.3534164E-01 9.4687699E-01 1.9459733E+00
 1.7930585E-01 9.7285343E-01 1.9470718E+00
 1.2511278E-01 1.0000000E+00 1.9447979E+00
 7.2510635E-02 1.0281598E+00 1.9386337E+00
 2.1343243E-02 1.0571164E+00 1.9282195E+00
 -2.8426559E-02 1.0865950E+00 1.9133608E+00
 -7.6763661E-02 1.1162630E+00 1.8940071E+00
 -1.2362213E-01 1.1457273E+00 1.8702101E+00
 -1.6897660E-01 1.1745375E+00 1.8420782E+00
 6.6638403E-01 8.3932299E-01 1.9087471E+00
 6.0419389E-01 8.6033530E-01 1.9151004E+00
 5.4101055E-01 8.8146141E-01 1.9215982E+00
 4.7740925E-01 9.0311451E-01 1.9282212E+00
 4.1422046E-01 9.2562612E-01 1.9347106E+00
 3.5233980E-01 9.4921867E-01 1.9405561E+00
 2.9243563E-01 9.7400430E-01 1.9450649E+00
 2.3478312E-01 1.0000001E+00 1.9474780E+00
 1.7930586E-01 1.0271467E+00 1.9470718E+00
 1.2574479E-01 1.0553213E+00 1.9432233E+00
 7.3826518E-02 1.0843417E+00 1.9354424E+00
 2.3357617E-02 1.1139641E+00 1.9233885E+00
 -2.5758693E-02 1.1438813E+00 1.9068702E+00
 -7.3557174E-02 1.1737211E+00 1.8858236E+00
 -1.2004166E-01 1.2030495E+00 1.8602804E+00
 6.6591841E-01 8.8452466E-01 1.9156266E+00
 6.0340937E-01 9.0641053E-01 1.9210089E+00
 5.4005264E-01 9.2858276E-01 1.9265116E+00
 4.7644672E-01 9.5140699E-01 1.9320726E+00
 4.1342917E-01 9.7515780E-01 1.9373980E+00
 3.5187969E-01 1.0000001E+00 1.9419593E+00
 2.9243564E-01 1.0259958E+00 1.9450649E+00
 2.3534165E-01 1.0531231E+00 1.9459732E+00
 1.8049925E-01 1.0812936E+00 1.9439875E+00
 1.2763154E-01 1.1103602E+00 1.9385129E+00
 7.6439842E-02 1.1401145E+00 1.9290825E+00
 2.6687426E-02 1.1702820E+00 1.9153699E+00
 -2.1780462E-02 1.2005177E+00 1.8971850E+00
 -6.9047421E-02 1.2304092E+00 1.8744569E+00
 6.6559951E-01 9.3042714E-01 1.9202791E+00
 6.0292829E-01 9.5305888E-01 1.9245947E+00
 5.3956630E-01 9.7614453E-01 1.9289894E+00
 4.7612291E-01 1.0000001E+00 1.9333635E+00
 4.1342918E-01 1.0248423E+00 1.9373980E+00
 3.5233981E-01 1.0507814E+00 1.9405561E+00
 2.9346024E-01 1.0778349E+00 1.9421557E+00
 2.3700932E-01 1.1059481E+00 1.9414771E+00
 1.8287232E-01 1.1350080E+00 1.9378505E+00
 1.3075728E-01 1.1648438E+00 1.9307072E+00
 8.0339176E-02 1.1952192E+00 1.9196012E+00
 3.1339057E-02 1.2258242E+00 1.9042207E+00
 -1.6442444E-02 1.2562745E+00 1.8843819E+00
 6.6543730E-01 9.7676057E-01 1.9226258E+00
 6.0276605E-01 1.0000000E+00 1.9257970E+00
 5.3956630E-01 1.0238556E+00 1.9289894E+00
 4.7644673E-01 1.0485931E+00 1.9320726E+00
 4.1422047E-01 1.0743740E+00 1.9347106E+00
 3.5371136E-01 1.1012584E+00 1.9363672E+00
 2.9549525E-01 1.1292251E+00 1.9363760E+00
 2.3977245E-01 1.1581916E+00 1.9340415E+00
 1.8641908E-01 1.1880220E+00 1.9287209E+00
 1.3513198E-01 1.2185204E+00 1.9198718E+00
 8.5561172E-02 1.2494179E+00 1.9070722E+00
 3.7392656E-02 1.2803661E+00 1.8900295E+00
 6.6543731E-01 1.0232395E+00 1.9226258E+00
 6.0292829E-01 1.0469412E+00 1.9245947E+00
 5.4005265E-01 1.0714173E+00 1.9265116E+00
 4.7740925E-01 1.0968856E+00 1.9282212E+00
 4.1578625E-01 1.1234559E+00 1.9293779E+00
 3.5597583E-01 1.1511438E+00 1.9294523E+00
 2.9853039E-01 1.1798944E+00 1.9277979E+00
 2.4364012E-01 1.2095994E+00 1.9237457E+00
 1.9117807E-01 1.2400985E+00 1.9166822E+00
 1.4083133E-01 1.2711656E+00 1.9060956E+00
 9.2226037E-02 1.3024946E+00 1.8915951E+00
 6.6559953E-01 1.0695729E+00 1.9202791E+00
 6.0340938E-01 1.0935895E+00 1.9210089E+00
 5.4101056E-01 1.1185387E+00 1.9215982E+00
 4.7898827E-01 1.1445935E+00 1.9218714E+00
 4.1810568E-01 1.1718173E+00 1.9214784E+00
 3.5912841E-01 1.2001853E+00 1.9199013E+00
 3.0259297E-01 1.2296103E+00 1.9165167E+00
 2.4868381E-01 1.2599566E+00 1.9106865E+00
 1.9726973E-01 1.2910338E+00 1.9018334E+00
 1.4802199E-01 1.3225785E+00 1.8894855E+00
 6.6591843E-01 1.1154754E+00 1.9156266E+00
 6.0419390E-01 1.1396648E+00 1.9151004E+00
 5.4241635E-01 1.1649502E+00 1.9143288E+00
 4.8116252E-01 1.1914648E+00 1.9131184E+00
 4.2117946E-01 1.2192288E+00 1.9111169E+00
 3.6321431E-01 1.2481771E+00 1.9078213E+00
 3.0778841E-01 1.2781867E+00 1.9026375E+00
 2.5507152E-01 1.3090871E+00 1.8949676E+00
 2.0491173E-01 1.3406484E+00 1.8842831E+00
 6.6638405E-01 1.1606771E+00 1.9087471E+00
 6.0526160E-01 1.1849103E+00 1.9069658E+00
 5.4425032E-01 1.2104166E+00 1.9048138E+00
 4.8393661E-01 1.2372932E+00 1.9020789E+00
 4.2506711E-01 1.2655143E+00 1.8984084E+00
 3.6837030E-01 1.2949665E+00 1.8933204E+00
 3.1433199E-01 1.3254804E+00 1.8862622E+00
 2.6307475E-01 1.3568396E+00 1.8766926E+00
 6.6698458E-01 1.2049311E+00 1.8997533E+00
 6.0659681E-01 1.2291020E+00 1.8967302E+00
 5.4651849E-01 1.2547481E+00 1.8931818E+00
 4.8737680E-01 1.2819277E+00 1.8888750E+00
 4.2992865E-01 1.3105551E+00 1.8834610E+00
 3.7485595E-01 1.3404490E+00 1.8764931E+00
 3.2255161E-01 1.3713773E+00 1.8674819E+00
 6.6771120E-01 1.2480194E+00 1.8887856E+00
 6.0820367E-01 1.2720561E+00 1.8845368E+00
 5.4928369E-01 1.2978115E+00 1.8795642E+00
 4.9165633E-01 1.3252846E+00 1.8736134E+00
 4.3606410E-01 1.3542926E+00 1.8663563E+00
 3.8306033E-01 1.3845568E+00 1.8574107E+00
 6.6856584E-01 1.2897582E+00 1.8760040E+00
 6.1013067E-01 1.3136441E+00 1.8705321E+00
 5.5270702E-01 1.3395454E+00 1.8640731E+00
 4.9709735E-01 1.3673489E+00 1.8563645E+00
 4.4392995E-01 1.3967103E+00 1.8471405E+00
 6.6956985E-01 1.3300045E+00 1.8615786E+00
 6.1250231E-01 1.3538112E+00 1.8548441E+00
 5.5712450E-01 1.3799822E+00 1.8467688E+00
 5.0424149E-01 1.4081676E+00 1.8371415E+00
 6.7078682E-01 1.3686750E+00 1.8456717E+00
 6.1557320E-01 1.3925840E+00 1.8375598E+00
 5.6313150E-01 1.4192168E+00 1.8276465E+00
 6.7235904E-01 1.4057692E+00 1.8284151E+00
 6.2004501E-01 1.4301464E+00 1.8186433E+00
 6.7461228E-01 1.4412770E+00 1.8099420E+00
 7.2744130E-01 1.4542283E+00 1.8004552E+00
 7.2745942E-01 1.4206020E+00 1.8186644E+00
 7.2745135E-01 1.3850356E+00 1.8360175E+00
 7.2742653E-01 1.3476005E+00 1.8522923E+00
 7.2738893E-01 1.3084357E+00 1.8672639E+00
 7.2734612E-01 1.2676833E+00 1.8807238E+00
 7.2730464E-01 1.2254826E+00 1.8924876E+00
 7.2726936E-01 1.1820116E+00 1.9023816E+00
 7.2724246E-01 1.1374805E+00 1.9102517E+00
 7.2722413E-01 1.0921257E+00 1.9159700E+00
 7.2721362E-01 1.0462065E+00 1.9194408E+00
 7.2721022E-01 1.0000000E+00 1.9206045E+00
 7.2721361E-01 9.5379357E-01 1.9194408E+00
 7.2722411E-01 9.0787432E-01 1.9159700E+00
 7.2724244E-01 8.6251956E-01 1.9102517E+00
 7.2726933E-01 8.1798852E-01 1.9023816E+00
 7.2730461E-01 7.7451747E-01 1.8924876E+00
 7.2734610E-01 7.3231676E-01 1.8807238E+00
 7.2738892E-01 6.9156438E-01 1.8672639E+00
 7.2742654E-01 6.5239958E-01 1.8522923E+00
 7.2745137E-01 6.1496451E-01 1.8360175E+00
 7.2745944E-01 5.7939814E-01 1.8186644E+00
 7.2744134E-01 5.4577188E-01 1.8004552E+00
 7.7427465E-01 5.2593580E-01 1.7871809E+00
 8.2529847E-01 5.3679116E-01 1.7919726E+00
 8.7806114E-01 5.4811172E-01 1.7968794E+00
 9.3217715E-01 5.5996670E-01 1.8017837E+00
 9.8746477E-01 5.7245334E-01 1.8065335E+00
 1.0437572E+00 5.8569444E-01 1.8109506E+00
 1.1008949E+00 5.9981756E-01 1.8148254E+00
 1.1586796E+00 6.1494586E-01 1.8179195E+00
 1.2168779E+00 6.3119367E-01 1.8199735E+00
 1.2752246E+00 6.4865976E-01 1.8207163E+00
 1.3334296E+00 6.6742029E-01 1.8198768E+00
 1.3911836E+00 6.8752184E-01 1.8171981E+00
 1.4481652E+00 7.0897503E-01 1.8124512E+00
 1.5040457E+00 7.3175132E-01 1.8054494E+00
 1.5584950E+00 7.5578198E-01 1.7960602E+00
 1.6111913E+00 7.8095955E-01 1.7842126E+00
 1.6618277E+00 8.0714186E-01 1.7699016E+00
 1.7101250E+00 8.3415985E-01 1.7531871E+00
 1.7558366E+00 8.6182507E-01 1.7341905E+00
 1.7987573E+00 8.8993613E-01 1.7130850E+00
 1.8387022E+00 9.1825973E-01 1.6901039E+00
 1.8754975E+00 9.4651805E-01 1.6655405E+00
 1.9088896E+00 9.7428812E-01 1.6398395E+00
 7.7967146E-01 1.4395813E+00 1.8067763E+00
 8.3237888E-01 1.4267164E+00 1.8120132E+00
 8.8620656E-01 1.4138789E+00 1.8170371E+00
 9.4100377E-01 1.4007035E+00 1.8218731E+00
 9.9673578E-01 1.3869277E+00 1.8264438E+00
 1.0533008E+00 1.3723762E+00 1.8305867E+00
 1.1105470E+00 1.3569048E+00 1.8340930E+00
 1.1682812E+00 1.3403969E+00 1.8367181E+00
 1.2262704E+00 1.3227584E+00 1.8381953E+00
 1.2842501E+00 1.3039185E+00 1.8382499E+00
 1.3419316E+00 1.2838323E+00 1.8366127E+00
 1.3990084E+00 1.2624850E+00 1.8330349E+00
 1.4551644E+00 1.2398949E+00 1.8273026E+00
 1.5100792E+00 1.2161155E+00 1.8192495E+00
 1.5634358E+00 1.1912337E+00 1.8087668E+00
 1.6149294E+00 1.1653689E+00 1.7958088E+00
 1.6642801E+00 1.1386707E+00 1.7803908E+00
 1.7112512E+00 1.1113161E+00 1.7625807E+00
 1.7556618E+00 1.0835072E+00 1.7424865E+00
 1.7974072E+00 1.0554732E+00 1.7202314E+00
 1.8365024E+00 1.0274849E+00 1.6959053E+00
 1.8731537E+00 1.0000000E+00 1.6694878E+00
 7.8186505E-01 1.4041726E+00 1.8250282E+00
 8.3658525E-01 1.3893391E+00 1.8304774E+00
 8.9170032E-01 1.3749459E+00 1.8354756E+00
 9.4743035E-01 1.3603450E+00 1.8401592E+00
 1.0037970E+00 1.3451984E+00 1.8444641E+00
 1.0607648E+00 1.3292725E+00 1.8482412E+00
 1.1182162E+00 1.3124115E+00 1.8512778E+00
 1.1759760E+00 1.2945066E+00 1.8533232E+00
 1.2338223E+00 1.2754838E+00 1.8541062E+00
 1.2914973E+00 1.2552981E+00 1.8533513E+00
 1.3487176E+00 1.2339319E+00 1.8507944E+00
 1.4051822E+00 1.2113964E+00 1.8461982E+00
 1.4605840E+00 1.1877324E+00 1.8393647E+00
 1.5146166E+00 1.1630103E+00 1.8301469E+00
 1.5669856E+00 1.1373280E+00 1.8184550E+00
 1.6174216E+00 1.1108110E+00 1.8042559E+00
 1.6657022E+00 1.0836130E+00 1.7875626E+00
 1.7116831E+00 1.0559198E+00 1.7684107E+00
 1.7553356E+00 1.0279543E+00 1.7468216E+00
 1.7967888E+00 1.0000000E+00 1.7227475E+00
 1.8365024E+00 9.7251519E-01 1.6959053E+00
 7.8335770E-01 1.3671931E+00 1.8421175E+00
 8.3941711E-01 1.3508120E+00 1.8474115E+00
 8.9567356E-01 1.3349082E+00 1.8522197E+00
 9.5225767E-01 1.3188824E+00 1.8566170E+00
 1.0092491E+00 1.3023340E+00 1.8605428E+00
 1.0666275E+00 1.2850123E+00 1.8638386E+00
 1.1242990E+00 1.2667565E+00 1.8662856E+00
 1.1821028E+00 1.2474702E+00 1.8676265E+00
 1.2398270E+00 1.2270993E+00 1.8675876E+00
 1.2972212E+00 1.2056214E+00 1.8658959E+00
 1.3540088E+00 1.1830417E+00 1.8622954E+00
 1.4098978E+00 1.1593913E+00 1.8565615E+00
 1.4645938E+00 1.1347266E+00 1.8485122E+00
 1.5178141E+00 1.1091289E+00 1.8380152E+00
 1.5693033E+00 1.0827042E+00 1.8249893E+00
 1.6188559E+00 1.0555862E+00 1.8093945E+00
 1.6663482E+00 1.0279448E+00 1.7912093E+00
 1.7117816E+00 1.0000000E+00 1.7703920E+00
 1.7553357E+00 9.7204580E-01 1.7468216E+00
 1.7974072E+00 9.4452685E-01 1.7202315E+00
 7.8447022E-01 1.3286526E+00 1.8578858E+00
 8.4155765E-01 1.3109278E+00 1.8628066E+00
 8.9870606E-01 1.2936459E+00 1.8672369E+00
 9.5601388E-01 1.2762382E+00 1.8712019E+00
 1.0135395E+00 1.2583141E+00 1.8746118E+00
 1.0712706E+00 1.2396198E+00 1.8772937E+00
 1.1291192E+00 1.2200055E+00 1.8790173E+00
 1.1869329E+00 1.1993901E+00 1.8795203E+00
 1.2445073E+00 1.1777390E+00 1.8785284E+00
 1.3015993E+00 1.1550498E+00 1.8757740E+00
 1.3579415E+00 1.1313454E+00 1.8710110E+00
 1.4132552E+00 1.1066710E+00 1.8640278E+00
 1.4672672E+00 1.0810939E+00 1.8546551E+00
 1.5197316E+00 1.0547044E+00 1.8427679E+00
 1.5704548E+00 1.0276209E+00 1.8282788E+00
 1.6193252E+00 1.0000000E+00 1.8111195E+00
 1.6663482E+00 9.7205521E-01 1.7912093E+00
 1.7116831E+00 9.4408028E-01 1.7684107E+00
 1.7556619E+00 9.1649283E-01 1.7424865E+00
 7.8535634E-01 1.2885499E+00 1.8721913E+00
 8.4326744E-01 1.2696551E+00 1.8765590E+00
 9.0113131E-01 1.2511122E+00 1.8804471E+00
 9.5901605E-01 1.2324056E+00 1.8838275E+00
 1.0169614E+00 1.2131679E+00 1.8865782E+00
 1.0749475E+00 1.1931649E+00 1.8885056E+00
 1.1328879E+00 1.1722644E+00 1.8893684E+00
 1.1906345E+00 1.1504049E+00 1.8889004E+00
 1.2479893E+00 1.1275701E+00 1.8868296E+00
 1.3047184E+00 1.1037738E+00 1.8828957E+00
 1.3605676E+00 1.0790520E+00 1.8768632E+00
 1.4152784E+00 1.0534601E+00 1.8685317E+00
 1.4686105E+00 1.0270748E+00 1.8577390E+00
 1.5203726E+00 1.0000000E+00 1.8443572E+00
 1.5704548E+00 9.7237918E-01 1.8282788E+00
 1.6188559E+00 9.4441386E-01 1.8093945E+00
 1.6657022E+00 9.1638704E-01 1.7875626E+00
 1.7112512E+00 8.8868397E-01 1.7625808E+00
 7.8609419E-01 1.2469677E+00 1.8848678E+00
 8.4468123E-01 1.2270448E+00 1.8885338E+00
 9.0311350E-01 1.2073603E+00 1.8917313E+00
 9.6143508E-01 1.1874536E+00 1.8943822E+00
 1.0196691E+00 1.1669933E+00 1.8963321E+00
 1.0777885E+00 1.1457741E+00 1.8973675E+00
 1.1357064E+00 1.1236885E+00 1.8972375E+00
 1.1932790E+00 1.1006951E+00 1.8956743E+00
 1.2503164E+00 1.0767940E+00 1.8924108E+00
 1.3065976E+00 1.0520112E+00 1.8871951E+00
 1.3618870E+00 1.0263919E+00 1.8798016E+00
 1.4159558E+00 1.0000000E+00 1.8700368E+00
 1.4686105E+00 9.7292530E-01 1.8577390E+00
 1.5197316E+00 9.4529567E-01 1.8427679E+00
 1.5693033E+00 9.1729585E-01 1.8249893E+00
 1.6174216E+00 8.8918904E-01 1.8042559E+00
 1.6642801E+00 8.6132937E-01 1.7803908E+00
 7.8671719E-01 1.2040483E+00 1.8957444E+00
 8.4585506E-01 1.1832238E+00 1.8985839E+00
 9.0471829E-01 1.1625180E+00 1.9009582E+00
 9.6333518E-01 1.1415224E+00 1.9027464E+00
 1.0217173E+00 1.1199492E+00 1.9037637E+00
 1.0798334E+00 1.0976280E+00 1.9037798E+00
 1.1375984E+00 1.0744783E+00 1.9025372E+00
 1.1948754E+00 1.0504782E+00 1.8997695E+00
 1.2514861E+00 1.0256407E+00 1.8952159E+00
 1.3072264E+00 1.0000000E+00 1.8886327E+00
 1.3618870E+00 9.7360817E-01 1.8798016E+00
 1.4152784E+00 9.4653996E-01 1.8685317E+00
 1.4672672E+00 9.1890620E-01 1.8546551E+00
 1.5178141E+00 8.9087118E-01 1.8380153E+00
 1.5669856E+00 8.6267206E-01 1.8184550E+00
 1.6149295E+00 8.3463114E-01 1.7958088E+00
 7.8723403E-01 1.1599748E+00 1.9046620E+00
 8.4679717E-01 1.1383737E+00 1.9065680E+00
 9.0595255E-01 1.1167697E+00 1.9080037E+00
 9.6471915E-01 1.0948070E+00 1.9088100E+00
 1.0231033E+00 1.0722449E+00 1.9087773E+00
 1.0810740E+00 1.0489510E+00 1.9076621E+00
 1.1385518E+00 1.0248712E+00 1.9052040E+00
 1.1954102E+00 1.0000000E+00 1.9011399E+00
 1.2514861E+00 9.7435940E-01 1.8952159E+00
 1.3065976E+00 9.4798884E-01 1.8871952E+00
 1.3605676E+00 9.2094807E-01 1.8768632E+00
 1.4132552E+00 8.9332907E-01 1.8640278E+00
 1.4645938E+00 8.6527349E-01 1.8485122E+00
 1.5146166E+00 8.3698975E-01 1.8301469E+00
 1.5634359E+00 8.0876637E-01 1.8087668E+00
 7.8763819E-01 1.1149646E+00 1.9114819E+00
 8.4749275E-01 1.0927154E+00 1.9123651E+00
 9.0679633E-01 1.0703426E+00 1.9127634E+00
 9.6556472E-01 1.0475441E+00 1.9124857E+00
 1.0238048E+00 1.0241284E+00 1.9113026E+00
 1.0814905E+00 1.0000000E+00 1.9089622E+00
 1.1385518E+00 9.7512891E-01 1.9052040E+00
 1.1948754E+00 9.4952189E-01 1.8997696E+00
 1.2503164E+00 9.2320607E-01 1.8924108E+00
 1.3047184E+00 8.9622623E-01 1.8828957E+00
 1.3579415E+00 8.6865470E-01 1.8710110E+00
 1.4098978E+00 8.4060874E-01 1.8565615E+00
 1.4605840E+00 8.1226763E-01 1.8393647E+00
 1.5100792E+00 7.8388453E-01 1.8192495E+00
 7.8791734E-01 1.0692626E+00 1.9160933E+00
 8.4792094E-01 1.0464999E+00 1.9158822E+00
 9.0722565E-01 1.0234950E+00 1.9151627E+00
 9.6584952E-01 1.0000000E+00 1.9137174E+00
 1.0238048E+00 9.7587165E-01 1.9113026E+00
 1.0810739E+00 9.5104909E-01 1.9076621E+00
 1.1375984E+00 9.2552181E-01 1.9025373E+00
 1.1932790E+00 8.9930496E-01 1.8956743E+00
 1.2479893E+00 8.7242992E-01 1.8868296E+00
 1.3015993E+00 8.4495025E-01 1.8757740E+00
 1.3540088E+00 8.1695834E-01 1.8622954E+00
 1.4051822E+00 7.8860367E-01 1.8461982E+00
 1.4551644E+00 7.6010513E-01 1.8273026E+00
 7.8806015E-01 1.0231354E+00 1.9184189E+00
 8.4806563E-01 1.0000000E+00 1.9170612E+00
 9.0722564E-01 9.7650500E-01 1.9151627E+00
 9.6556470E-01 9.5245591E-01 1.9124857E+00
 1.0231033E+00 9.2775512E-01 1.9087773E+00
 1.0798334E+00 9.0237210E-01 1.9037798E+00
 1.1357064E+00 8.7631157E-01 1.8972375E+00
 1.1906345E+00 8.4959513E-01 1.8889004E+00
 1.2445073E+00 8.2226103E-01 1.8785285E+00
 1.2972212E+00 7.9437868E-01 1.8658960E+00
 1.3487176E+00 7.6606812E-01 1.8507945E+00
 1.3990084E+00 7.3751507E-01 1.8330350E+00
 7.8806014E-01 9.7686469E-01 1.9184189E+00
 8.4792093E-01 9.5350011E-01 1.9158822E+00
 9.0679631E-01 9.2965741E-01 1.9127634E+00
 9.6471912E-01 9.0519309E-01 1.9088100E+00
 1.0217173E+00 8.8005090E-01 1.9037638E+00
 1.0777885E+00 8.5422594E-01 1.8973675E+00
 1.1328879E+00 8.2773566E-01 1.8893685E+00
 1.1869329E+00 8.0060997E-01 1.8795203E+00
 1.2398270E+00 7.7290079E-01 1.8675877E+00
 1.2914973E+00 7.4470192E-01 1.8533514E+00
 1.3419316E+00 7.1616774E-01 1.8366127E+00
 7.8791732E-01 9.3073748E-01 1.9160933E+00
 8.4749272E-01 9.0728463E-01 1.9123651E+00
 9.0595252E-01 8.8323033E-01 1.9080037E+00
 9.6333515E-01 8.5847769E-01 1.9027464E+00
 1.0196691E+00 8.3300673E-01 1.8963322E+00
 1.0749475E+00 8.0683519E-01 1.8885056E+00
 1.1291191E+00 7.7999460E-01 1.8790174E+00
 1.1821027E+00 7.5252982E-01 1.8676266E+00
 1.2338223E+00 7.2451621E-01 1.8541063E+00
 1.2842501E+00 6.9608154E-01 1.8382500E+00
 7.8763816E-01 8.8503542E-01 1.9114819E+00
 8.4679714E-01 8.6162637E-01 1.9065680E+00
 9.0471826E-01 8.3748207E-01 1.9009583E+00
 9.6143504E-01 8.1254648E-01 1.8943823E+00
 1.0169614E+00 7.8683213E-01 1.8865782E+00
 1.0712706E+00 7.6038027E-01 1.8772937E+00
 1.1242990E+00 7.3324355E-01 1.8662856E+00
 1.1759759E+00 7.0549345E-01 1.8533233E+00
 1.2262704E+00 6.7724164E-01 1.8381954E+00
 7.8723399E-01 8.4002525E-01 1.9046620E+00
 8.4585502E-01 8.1677631E-01 1.8985839E+00
 9.0311345E-01 7.9263975E-01 1.8917313E+00
 9.5901600E-01 7.6759446E-01 1.8838275E+00
 1.0135395E+00 7.4168597E-01 1.8746118E+00
 1.0666275E+00 7.1498781E-01 1.8638387E+00
 1.1182162E+00 6.8758851E-01 1.8512778E+00
 1.1682812E+00 6.5960319E-01 1.8367182E+00
 7.8671716E-01 7.9595181E-01 1.8957445E+00
 8.4468119E-01 7.7295524E-01 1.8885338E+00
 9.0113126E-01 7.4888788E-01 1.8804471E+00
 9.5601384E-01 7.2376182E-01 1.8712019E+00
 1.0092491E+00 6.9766606E-01 1.8605429E+00
 1.0607648E+00 6.7072755E-01 1.8482412E+00
 1.1105470E+00 6.4309524E-01 1.8340931E+00
 7.8609416E-01 7.5303243E-01 1.8848678E+00
 8.4326740E-01 7.3034502E-01 1.8765590E+00
 8.9870602E-01 7.0635418E-01 1.8672369E+00
 9.5225763E-01 6.8111769E-01 1.8566171E+00
 1.0037970E+00 6.5480165E-01 1.8444642E+00
 1.0533007E+00 6.2762384E-01 1.8305868E+00
 7.8535631E-01 7.1145020E-01 1.8721913E+00
 8.4155761E-01 6.8907225E-01 1.8628066E+00
 8.9567352E-01 6.6509190E-01 1.8522198E+00
 9.4743032E-01 6.3965512E-01 1.8401592E+00
 9.9673575E-01 6.1307238E-01 1.8264438E+00
 7.8447020E-01 6.7134747E-01 1.8578858E+00
 8.3941708E-01 6.4918814E-01 1.8474115E+00
 8.9170028E-01 6.2505421E-01 1.8354756E+00
 9.4100374E-01 5.9929662E-01 1.8218732E+00
 7.8335769E-01 6.3280699E-01 1.8421175E+00
 8.3658523E-01 6.1066097E-01 1.8304774E+00
 8.8620654E-01 5.8612119E-01 1.8170371E+00
 7.8186505E-01 5.9582755E-01 1.8250282E+00
 8.3237887E-01 5.7328375E-01 1.8120132E+00
 7.7967148E-01 5.6041886E-01 1.8067763E+00
 6.9828907E-01 1.5078885E+00 1.7687584E+00
 6.6586293E-01 1.5340971E+00 1.7523502E+00
 6.3185382E-01 1.5609048E+00 1.7344523E+00
 5.9647487E-01 1.5881124E+00 1.7150833E+00
 5.5992679E-01 1.6156130E+00 1.6941956E+00
 5.2249642E-01 1.6433041E+00 1.6717052E+00
 4.8450559E-01 1.6710681E+00 1.6475015E+00
 4.4633640E-01 1.6987348E+00 1.6214716E+00
 4.0840686E-01 1.7260800E+00 1.5935078E+00
 3.7112739E-01 1.7528287E+00 1.5635226E+00
 3.3486007E-01 1.7786683E+00 1.5314649E+00
 2.9989073E-01 1.8032684E+00 1.4973342E+00
 2.6642216E-01 1.8263032E+00 1.4611908E+00
 2.3458531E-01 1.8474712E+00 1.4231582E+00
 2.0445589E-01 1.8665132E+00 1.3834199E+00
 1.7607497E-01 1.8832240E+00 1.3422115E+00
 1.4946667E-01 1.8974573E+00 1.2998116E+00
 1.2464642E-01 1.9091310E+00 1.2565277E+00
 1.0162447E-01 1.9182254E+00 1.2126787E+00
 8.0405380E-02 1.9247781E+00 1.1685911E+00
 6.0987138E-02 1.9288734E+00 1.1246247E+00
 4.3339047E-02 1.9306298E+00 1.0811757E+00
 2.7460332E-02 1.9302109E+00 1.0389236E+00
 -4.3652310E-01 1.0742562E+00 1.6271859E+00
 -4.4086453E-01 1.1224418E+00 1.6139567E+00
 -4.4346327E-01 1.1713053E+00 1.5986877E+00
 -4.4392872E-01 1.2208958E+00 1.5816053E+00
 -4.4200499E-01 1.2711272E+00 1.5627738E+00
 -4.3747849E-01 1.3218181E+00 1.5422303E+00
 -4.3017321E-01 1.3727153E+00 1.5200075E+00
 -4.1995347E-01 1.4235104E+00 1.4961446E+00
 -4.0672708E-01 1.4738496E+00 1.4706983E+00
 -3.9044830E-01 1.5233462E+00 1.4437513E+00
 -3.7112136E-01 1.5715924E+00 1.4154175E+00
 -3.4880433E-01 1.6181705E+00 1.3858446E+00
 -3.2361099E-01 1.6626669E+00 1.3552132E+00
 -2.9571254E-01 1.7046843E+00 1.3237341E+00
 -2.6533427E-01 1.7438564E+00 1.2916425E+00
 -2.3275165E-01 1.7798599E+00 1.2591934E+00
 -1.9828052E-01 1.8124291E+00 1.2266509E+00
 -1.6226927E-01 1.8413645E+00 1.1942792E+00
 -1.2507886E-01 1.8665474E+00 1.1623235E+00
 -8.7075979E-02 1.8879432E+00 1.1309853E+00
 -4.8622914E-02 1.9056026E+00 1.1003572E+00
 -1.0184257E-02 1.9196394E+00 1.0702758E+00
 -4.0715280E-01 1.1050989E+00 1.6589142E+00
 -4.0973100E-01 1.1558800E+00 1.6457529E+00
 -4.1065165E-01 1.2065681E+00 1.6302724E+00
 -4.0943926E-01 1.2574896E+00 1.6127973E+00
 -4.0578617E-01 1.3086775E+00 1.5934569E+00
 -3.9946093E-01 1.3600107E+00 1.5723181E+00
 -3.9029464E-01 1.4112555E+00 1.5494241E+00
 -3.7817562E-01 1.4620986E+00 1.5248182E+00
 -3.6304692E-01 1.5121715E+00 1.4985608E+00
 -3.4490422E-01 1.5610706E+00 1.4707420E+00
 -3.2379638E-01 1.6083745E+00 1.4414886E+00
 -2.9982633E-01 1.6536606E+00 1.4109658E+00
 -2.7315183E-01 1.6965201E+00 1.3793748E+00
 -2.4398135E-01 1.7365742E+00 1.3469475E+00
 -2.1257107E-01 1.7734880E+00 1.3139384E+00
 -1.7921359E-01 1.8069863E+00 1.2806099E+00
 -1.4423077E-01 1.8368633E+00 1.2472164E+00
 -1.0795397E-01 1.8629960E+00 1.2139729E+00
 -7.0706828E-02 1.8853527E+00 1.1810104E+00
 -3.2805791E-02 1.9039858E+00 1.1483061E+00
 5.4129862E-03 1.9190266E+00 1.1154454E+00
 -3.7431099E-01 1.1358723E+00 1.6899441E+00
 -3.7520295E-01 1.1884367E+00 1.6765425E+00
 -3.7440398E-01 1.2406252E+00 1.6606905E+00
 -3.7144753E-01 1.2926949E+00 1.6426986E+00
 -3.6600073E-01 1.3447043E+00 1.6227259E+00
 -3.5782839E-01 1.3965420E+00 1.6008566E+00
 -3.4677769E-01 1.4479729E+00 1.5771425E+00
 -3.3276801E-01 1.4986725E+00 1.5516327E+00
 -3.1578131E-01 1.5482579E+00 1.5243970E+00
 -2.9585687E-01 1.5963138E+00 1.4955397E+00
 -2.7308830E-01 1.6424136E+00 1.4652064E+00
 -2.4762095E-01 1.6861399E+00 1.4335847E+00
 -2.1964930E-01 1.7271018E+00 1.4008988E+00
 -1.8941088E-01 1.7649533E+00 1.3673994E+00
 -1.5717787E-01 1.7994072E+00 1.3333493E+00
 -1.2324679E-01 1.8302511E+00 1.2989978E+00
 -8.7926747E-02 1.8573550E+00 1.2645489E+00
 -5.1520334E-02 1.8806837E+00 1.2301091E+00
 -1.4324984E-02 1.9002893E+00 1.1956176E+00
 2.3343930E-02 1.9162979E+00 1.1607301E+00
 -3.3800528E-01 1.1667562E+00 1.7197060E+00
 -3.3723595E-01 1.2205684E+00 1.7058359E+00
 -3.3470365E-01 1.2738476E+00 1.6894368E+00
 -3.2996400E-01 1.3267657E+00 1.6707866E+00
 -3.2268942E-01 1.3793356E+00 1.6500454E+00
 -3.1265780E-01 1.4314230E+00 1.6273041E+00
 -2.9974359E-01 1.4827720E+00 1.6026215E+00
 -2.8390339E-01 1.5330409E+00 1.5760574E+00
 -2.6516184E-01 1.5818340E+00 1.5476967E+00
 -2.4360168E-01 1.6287308E+00 1.5176646E+00
 -2.1935737E-01 1.6733107E+00 1.4861309E+00
 -1.9261035E-01 1.7151746E+00 1.4533084E+00
 -1.6358089E-01 1.7539655E+00 1.4194417E+00
 -1.3252227E-01 1.7893848E+00 1.3847938E+00
 -9.9708616E-02 1.8212101E+00 1.3496162E+00
 -6.5429452E-02 1.8493031E+00 1.3141185E+00
 -2.9973559E-02 1.8736218E+00 1.2784135E+00
 6.3695994E-03 1.8942154E+00 1.2424680E+00
 4.3295796E-02 1.9112093E+00 1.2060362E+00