# TIME = 2.700000
variables = x, y, z
zone N=5762 E=11520 F=FEPOINT ET=TRIANGLE
 6.1739786E+00 1.4869954E+00 1.7878469E+00
 6.1739786E+00 1.4869952E+00 2.1215322E-01
 6.1739785E+00 5.1300458E-01 1.7878467E+00
 6.1739788E+00 5.1300452E-01 2.1215312E-01
 4.9988712E+00 9.9999988E-01 1.5934577E+00
 7.3781786E+00 9.9999989E-01 1.6112064E+00
 4.9988707E+00 9.9999988E-01 4.0654169E-01
 7.3781784E+00 9.9999989E-01 3.8879349E-01
 5.4692385E+00 1.9393821E+00 9.9999982E-01
 5.4692386E+00 6.0617621E-02 9.9999986E-01
 6.8634984E+00 1.8686879E+00 9.9999988E-01
 6.8634984E+00 1.3131205E-01 9.9999989E-01
 6.1308567E+00 1.4792690E+00 1.7949867E+00
 6.0832858E+00 1.4706730E+00 1.8030037E+00
 6.0331654E+00 1.4616379E+00 1.8116665E+00
 5.9807335E+00 1.4521747E+00 1.8210172E+00
 5.9260904E+00 1.4422402E+00 1.8310715E+00
 5.8693813E+00 1.4317171E+00 1.8417568E+00
 5.8108721E+00 1.4203933E+00 1.8528267E+00
 5.7509936E+00 1.4079482E+00 1.8637575E+00
 5.6902109E+00 1.3939522E+00 1.8736875E+00
 5.6288809E+00 1.3779139E+00 1.8814450E+00
 5.5672673E+00 1.3593760E+00 1.8856984E+00
 5.5057343E+00 1.3380536E+00 1.8852394E+00
 5.4449496E+00 1.3139538E+00 1.8793078E+00
 5.3858524E+00 1.2873927E+00 1.8677608E+00
 5.3294116E+00 1.2589007E+00 1.8510024E+00
 5.2764114E+00 1.2290939E+00 1.8297733E+00
 5.2273657E+00 1.1985723E+00 1.8049438E+00
 5.1825339E+00 1.1678626E+00 1.7773795E+00
 5.1419704E+00 1.1373970E+00 1.7478677E+00
 5.1055811E+00 1.1075165E+00 1.7170874E+00
 5.0731899E+00 1.0784968E+00 1.6856272E+00
 5.0445886E+00 1.0505812E+00 1.6540058E+00
 5.0195775E+00 1.0240254E+00 1.6227226E+00
 6.1261560E+00 5.5390932E-01 1.8143306E+00
 6.0769810E+00 5.6436558E-01 1.8229369E+00
 6.0257358E+00 5.7486717E-01 1.8319024E+00
 5.9724158E+00 5.8577911E-01 1.8414754E+00
 5.9170146E+00 5.9726904E-01 1.8517194E+00
 5.8596520E+00 6.0948052E-01 1.8625362E+00
 5.8006468E+00 6.2263662E-01 1.8736184E+00
 5.7404715E+00 6.3705737E-01 1.8843594E+00
 5.6795953E+00 6.5313873E-01 1.8938090E+00
 5.6183527E+00 6.7129243E-01 1.9007279E+00
 5.5570003E+00 6.9185156E-01 1.9037722E+00
 5.4959351E+00 7.1495498E-01 1.9018004E+00
 5.4358688E+00 7.4046758E-01 1.8941823E+00
 5.3777440E+00 7.6799697E-01 1.8809166E+00
 5.3224846E+00 7.9699467E-01 1.8625179E+00
 5.2708063E+00 8.2687280E-01 1.8397935E+00
 5.2231532E+00 8.5708585E-01 1.8136450E+00
 5.1797224E+00 8.8717478E-01 1.7849432E+00
 5.1405204E+00 9.1678064E-01 1.7544675E+00
 5.1054056E+00 9.4563613E-01 1.7228668E+00
 5.0740824E+00 9.7350452E-01 1.6905893E+00
 5.0460059E+00 9.9999988E-01 1.6577093E+00
 6.1245385E+00 5.8824455E-01 1.8323172E+00
 6.0737966E+00 6.0048330E-01 1.8412754E+00
 6.0214162E+00 6.1252568E-01 1.8504143E+00
 5.9670854E+00 6.2502103E-01 1.8601170E+00
 5.9107591E+00 6.3818581E-01 1.8704445E+00
 5.8525675E+00 6.5219312E-01 1.8812739E+00
 5.7928751E+00 6.6727410E-01 1.8922407E+00
 5.7321956E+00 6.8373680E-01 1.9026572E+00
 5.6710048E+00 7.0193012E-01 1.9114874E+00
 5.6096249E+00 7.2217871E-01 1.9174289E+00
 5.5483172E+00 7.4469451E-01 1.9191320E+00
 5.4875175E+00 7.6948511E-01 1.9155258E+00
 5.4279788E+00 7.9630668E-01 1.9061086E+00
 5.3706441E+00 8.2470681E-01 1.8910152E+00
 5.3163930E+00 8.5412935E-01 1.8708666E+00
 5.2658753E+00 8.8401998E-01 1.8465361E+00
 5.2194679E+00 9.1389232E-01 1.8189569E+00
 5.1773015E+00 9.4336081E-01 1.7890014E+00
 5.1392985E+00 9.7214501E-01 1.7574031E+00
 5.1051513E+00 9.9999988E-01 1.7246441E+00
 5.0740824E+00 1.0264952E+00 1.6905892E+00
 6.1234442E+00 6.2444631E-01 1.8493478E+00
 6.0716236E+00 6.3821077E-01 1.8583280E+00
 6.0181978E+00 6.5184124E-01 1.8674963E+00
 5.9629087E+00 6.6598770E-01 1.8771854E+00
 5.9056826E+00 6.8090890E-01 1.8874487E+00
 5.8466887E+00 6.9678485E-01 1.8981258E+00
 5.7863401E+00 7.1384434E-01 1.9087938E+00
 5.7251879E+00 7.3236708E-01 1.9186877E+00
 5.6637154E+00 7.5264125E-01 1.9266959E+00
 5.6022384E+00 7.7489675E-01 1.9314710E+00
 5.5410301E+00 7.9922667E-01 1.9316793E+00
 5.4805626E+00 8.2551814E-01 1.9263377E+00
 5.4216175E+00 8.5343694E-01 1.9150741E+00
 5.3651241E+00 8.8249028E-01 1.8981533E+00
 5.3119091E+00 9.1213182E-01 1.8762877E+00
 5.2625520E+00 9.4185543E-01 1.8504036E+00
 5.2173568E+00 9.7124659E-01 1.8214492E+00
 5.1763607E+00 9.9999988E-01 1.7902595E+00
 5.1392986E+00 1.0278547E+00 1.7574030E+00
 5.1054057E+00 1.0543636E+00 1.7228667E+00
 6.1224909E+00 6.6262711E-01 1.8652958E+00
 6.0697130E+00 6.7787776E-01 1.8741247E+00
 6.0153746E+00 6.9309759E-01 1.8831511E+00
 5.9592235E+00 7.0893757E-01 1.8926633E+00
 5.9012128E+00 7.2565077E-01 1.9026801E+00
 5.8415468E+00 7.4341965E-01 1.9130035E+00
 5.7806882E+00 7.6245637E-01 1.9231523E+00
 5.7192204E+00 7.8299896E-01 1.9322946E+00
 5.6576315E+00 8.0526336E-01 1.9392608E+00
 5.5962337E+00 8.2937794E-01 1.9426857E+00
 5.5353114E+00 8.5531805E-01 1.9412776E+00
 5.4753630E+00 8.8286253E-01 1.9341564E+00
 5.4171786E+00 9.1160707E-01 1.9210774E+00
 5.3616569E+00 9.4104159E-01 1.9024185E+00
 5.3095608E+00 9.7065240E-01 1.8789636E+00
 5.2613926E+00 9.9999986E-01 1.8516669E+00
 5.2173568E+00 1.0287532E+00 1.8214491E+00
 5.1773016E+00 1.0566389E+00 1.7890013E+00
 5.1405205E+00 1.0832191E+00 1.7544674E+00
 6.1215996E+00 7.0280127E-01 1.8799700E+00
 6.0679621E+00 7.1951278E-01 1.8884848E+00
 6.0128234E+00 7.3633335E-01 1.8972032E+00
 5.9559452E+00 7.5387500E-01 1.9063550E+00
 5.8973021E+00 7.7238166E-01 1.9159250E+00
 5.8371397E+00 7.9202469E-01 1.9256752E+00
 5.7759647E+00 8.1298996E-01 1.9350728E+00
 5.7143859E+00 8.3546195E-01 1.9432329E+00
 5.6528921E+00 8.5957476E-01 1.9489526E+00
 5.5917920E+00 8.8535147E-01 1.9508772E+00
 5.5313766E+00 9.1265590E-01 1.9477811E+00
 5.4721555E+00 9.4117485E-01 1.9388944E+00
 5.4149060E+00 9.7045657E-01 1.9240919E+00
 5.3604785E+00 9.9999984E-01 1.9038392E+00
 5.3095608E+00 1.0293473E+00 1.8789636E+00
 5.2625520E+00 1.0581443E+00 1.8504035E+00
 5.2194680E+00 1.0861074E+00 1.8189567E+00
 5.1797225E+00 1.1128250E+00 1.7849430E+00
 6.1207869E+00 7.4486926E-01 1.8931356E+00
 6.0663975E+00 7.6301940E-01 1.9011766E+00
 6.0105889E+00 7.8142665E-01 1.9094112E+00
 5.9531355E+00 8.0064917E-01 1.9180097E+00
 5.8940363E+00 8.2091115E-01 1.9269221E+00
 5.8335746E+00 8.4236583E-01 1.9358743E+00
 5.7722953E+00 8.6516234E-01 1.9442916E+00
 5.7108239E+00 8.8942314E-01 1.9512542E+00
 5.6496466E+00 9.1519450E-01 1.9555531E+00
 5.5890662E+00 9.4239678E-01 1.9558711E+00
 5.5293736E+00 9.7079358E-01 1.9510672E+00
 5.4710725E+00 9.9999983E-01 1.9404825E+00
 5.4149060E+00 1.0295431E+00 1.9240919E+00
 5.3616569E+00 1.0589581E+00 1.9024184E+00
 5.3119091E+00 1.0878679E+00 1.8762875E+00
 5.2658753E+00 1.1159797E+00 1.8465359E+00
 5.2231533E+00 1.1429139E+00 1.8136447E+00
 6.1200757E+00 7.8866060E-01 1.9045529E+00
 6.0650592E+00 8.0820784E-01 1.9119591E+00
 6.0087274E+00 8.2815793E-01 1.9195292E+00
 5.9508682E+00 8.4900365E-01 1.9273772E+00
 5.8915043E+00 8.7094144E-01 1.9354210E+00
 5.8309529E+00 8.9409836E-01 1.9433559E+00
 5.7697878E+00 9.1857942E-01 1.9505782E+00
 5.7086430E+00 9.4443957E-01 1.9561552E+00
 5.6479983E+00 9.7163785E-01 1.9588975E+00
 5.5881476E+00 9.9999984E-01 1.9575496E+00
 5.5293736E+00 1.0292061E+00 1.9510672E+00
 5.4721555E+00 1.0588248E+00 1.9388943E+00
 5.4171786E+00 1.0883926E+00 1.9210773E+00
 5.3651241E+00 1.1175094E+00 1.8981531E+00
 5.3163931E+00 1.1458703E+00 1.8708663E+00
 5.2708064E+00 1.1731269E+00 1.8397932E+00
 6.1194854E+00 8.3395314E-01 1.9139977E+00
 6.0639822E+00 8.5482573E-01 1.9206086E+00
 6.0072877E+00 8.7623959E-01 1.9273348E+00
 5.9492039E+00 8.9860994E-01 1.9342394E+00
 5.8897763E+00 9.2209859E-01 1.9412125E+00
 5.8293496E+00 9.4680048E-01 1.9479269E+00
 5.7685156E+00 9.7277199E-01 1.9537651E+00
 5.7079088E+00 9.9999986E-01 1.9578039E+00
 5.6479983E+00 1.0283619E+00 1.9588975E+00
 5.5890662E+00 1.0576029E+00 1.9558711E+00
 5.5313766E+00 1.0873438E+00 1.9477810E+00
 5.4753631E+00 1.1171371E+00 1.9341563E+00
 5.4216175E+00 1.1465627E+00 1.9150739E+00
 5.3706441E+00 1.1752928E+00 1.8910150E+00
 5.3224847E+00 1.2030050E+00 1.8625175E+00
 6.1190299E+00 8.8047446E-01 1.9212721E+00
 6.0631931E+00 9.0256780E-01 1.9269346E+00
 6.0063066E+00 9.2532837E-01 1.9326464E+00
 5.9481871E+00 9.4908317E-01 1.9384278E+00
 5.8889000E+00 9.7395396E-01 1.9441471E+00
 5.8288100E+00 9.9999985E-01 1.9494647E+00
 5.7685156E+00 1.0272277E+00 1.9537651E+00
 5.7086430E+00 1.0555602E+00 1.9561552E+00
 5.6496467E+00 1.0848052E+00 1.9555531E+00
 5.5917920E+00 1.1146482E+00 1.9508772E+00
 5.5353115E+00 1.1446816E+00 1.9412774E+00
 5.4805626E+00 1.1744815E+00 1.9263375E+00
 5.4279789E+00 1.2036929E+00 1.9061083E+00
 5.3777441E+00 1.2320027E+00 1.8809163E+00
 6.1187202E+00 9.2790890E-01 1.9262161E+00
 6.0627116E+00 9.5108577E-01 1.9307913E+00
 6.0058095E+00 9.7503922E-01 1.9353356E+00
 5.9478450E+00 9.9999983E-01 1.9398361E+00
 5.8889000E+00 1.0260457E+00 1.9441471E+00
 5.8293496E+00 1.0531992E+00 1.9479270E+00
 5.7697878E+00 1.0814203E+00 1.9505782E+00
 5.7108239E+00 1.1105766E+00 1.9512542E+00
 5.6528922E+00 1.1404250E+00 1.9489525E+00
 5.5962337E+00 1.1706218E+00 1.9426856E+00
 5.5410302E+00 1.2007730E+00 1.9316791E+00
 5.4875176E+00 1.2305145E+00 1.9155255E+00
 5.4358689E+00 1.2595320E+00 1.8941820E+00
 6.1185634E+00 9.7590613E-01 1.9287171E+00
 6.0625497E+00 9.9999981E-01 1.9320872E+00
 6.0058095E+00 1.0249604E+00 1.9353356E+00
 5.9481871E+00 1.0509165E+00 1.9384279E+00
 5.8897763E+00 1.0779011E+00 1.9412125E+00
 5.8309529E+00 1.1059014E+00 1.9433559E+00
 5.7722953E+00 1.1348375E+00 1.9442916E+00
 5.7143860E+00 1.1645379E+00 1.9432329E+00
 5.6576316E+00 1.1947364E+00 1.9392607E+00
 5.6022385E+00 1.2251030E+00 1.9314709E+00
 5.5483173E+00 1.2553051E+00 1.9191318E+00
 5.4959352E+00 1.2850446E+00 1.9018002E+00
 6.1185634E+00 1.0240935E+00 1.9287171E+00
 6.0627116E+00 1.0489139E+00 1.9307913E+00
 6.0063066E+00 1.0746713E+00 1.9326465E+00
 5.9492039E+00 1.1013898E+00 1.9342395E+00
 5.8915043E+00 1.1290584E+00 1.9354211E+00
 5.8335746E+00 1.1576340E+00 1.9358744E+00
 5.7759647E+00 1.1870099E+00 1.9350728E+00
 5.7192205E+00 1.2170009E+00 1.9322946E+00
 5.6637156E+00 1.2473585E+00 1.9266959E+00
 5.6096251E+00 1.2778210E+00 1.9174288E+00
 5.5570004E+00 1.3081481E+00 1.9037720E+00
 6.1187202E+00 1.0720907E+00 1.9262161E+00
 6.0631932E+00 1.0974319E+00 1.9269347E+00
 6.0072877E+00 1.1237601E+00 1.9273349E+00
 5.9508682E+00 1.1509961E+00 1.9273773E+00
 5.8940363E+00 1.1790887E+00 1.9269222E+00
 5.8371397E+00 1.2079752E+00 1.9256753E+00
 5.7806882E+00 1.2375436E+00 1.9231523E+00
 5.7251880E+00 1.2676328E+00 1.9186878E+00
 5.6710050E+00 1.2980697E+00 1.9114874E+00
 5.6183530E+00 1.3287073E+00 1.9007278E+00
 6.1190301E+00 1.1195252E+00 1.9212722E+00
 6.0639823E+00 1.1451740E+00 1.9206088E+00
 6.0087274E+00 1.1718418E+00 1.9195293E+00
 5.9531354E+00 1.1993507E+00 1.9180098E+00
 5.8973020E+00 1.2276183E+00 1.9159251E+00
 5.8415467E+00 1.2565803E+00 1.9130036E+00
 5.7863401E+00 1.2861556E+00 1.9087939E+00
 5.7321958E+00 1.3162631E+00 1.9026573E+00
 5.6795955E+00 1.3468611E+00 1.8938090E+00
 6.1194856E+00 1.1660466E+00 1.9139978E+00
 6.0650593E+00 1.1917919E+00 1.9119592E+00
 6.0105888E+00 1.2185732E+00 1.9094114E+00
 5.9559450E+00 1.2461249E+00 1.9063552E+00
 5.9012127E+00 1.2743492E+00 1.9026802E+00
 5.8466886E+00 1.3032151E+00 1.8981260E+00
 5.7928751E+00 1.3327258E+00 1.8922408E+00
 5.7404717E+00 1.3629425E+00 1.8843596E+00
 6.1200759E+00 1.2113392E+00 1.9045531E+00
 6.0663975E+00 1.2369804E+00 1.9011768E+00
 6.0128234E+00 1.2636665E+00 1.8972034E+00
 5.9592233E+00 1.2910624E+00 1.8926635E+00
 5.9056824E+00 1.3190911E+00 1.8874489E+00
 5.8525673E+00 1.3478068E+00 1.8812741E+00
 5.8006468E+00 1.3773633E+00 1.8736186E+00
 6.1207871E+00 1.2551306E+00 1.8931358E+00
 6.0679621E+00 1.2804871E+00 1.8884850E+00
 6.0153745E+00 1.3069023E+00 1.8831513E+00
 5.9629085E+00 1.3340123E+00 1.8771856E+00
 5.9107588E+00 1.3618141E+00 1.8704448E+00
 5.8596518E+00 1.3905194E+00 1.8625365E+00
 6.1215997E+00 1.2971986E+00 1.8799702E+00
 6.0697130E+00 1.3221221E+00 1.8741249E+00
 6.0181977E+00 1.3481587E+00 1.8674966E+00
 5.9670852E+00 1.3749789E+00 1.8601173E+00
 5.9170144E+00 1.4027309E+00 1.8517197E+00
 6.1224910E+00 1.3373728E+00 1.8652960E+00
 6.0716236E+00 1.3617892E+00 1.8583283E+00
 6.0214161E+00 1.3874743E+00 1.8504146E+00
 5.9724157E+00 1.4142209E+00 1.8414757E+00
 6.1234443E+00 1.3755536E+00 1.8493480E+00
 6.0737966E+00 1.3995167E+00 1.8412757E+00
 6.0257357E+00 1.4251328E+00 1.8319027E+00
 6.1245386E+00 1.4117554E+00 1.8323175E+00
 6.0769810E+00 1.4356344E+00 1.8229372E+00
 6.1261561E+00 1.4460907E+00 1.8143309E+00
 6.1740284E+00 1.4582834E+00 1.8049134E+00
 6.1740556E+00 1.4256967E+00 1.8226454E+00
 6.1740609E+00 1.3909806E+00 1.8397286E+00
 6.1740673E+00 1.3540942E+00 1.8559580E+00
 6.1740761E+00 1.3151480E+00 1.8710704E+00
 6.1740860E+00 1.2742687E+00 1.8848115E+00
 6.1740962E+00 1.2316045E+00 1.8969422E+00
 6.1741063E+00 1.1873520E+00 1.9072344E+00
 6.1741155E+00 1.1417580E+00 1.9154805E+00
 6.1741228E+00 1.0951118E+00 1.9215056E+00
 6.1741274E+00 1.0477407E+00 1.9251764E+00
 6.1741290E+00 9.9999982E-01 1.9264095E+00
 6.1741274E+00 9.5225896E-01 1.9251764E+00
 6.1741227E+00 9.0488788E-01 1.9215056E+00
 6.1741153E+00 8.5824166E-01 1.9154804E+00
 6.1741061E+00 8.1264774E-01 1.9072342E+00
 6.1740960E+00 7.6839532E-01 1.8969421E+00
 6.1740858E+00 7.2573116E-01 1.8848114E+00
 6.1740759E+00 6.8485186E-01 1.8710703E+00
 6.1740671E+00 6.4590566E-01 1.8559578E+00
 6.1740607E+00 6.0901931E-01 1.8397284E+00
 6.1740554E+00 5.7430324E-01 1.8226452E+00
 6.1740283E+00 5.4171658E-01 1.8049131E+00
 6.2171121E+00 5.2270325E-01 1.7917170E+00
 6.2645517E+00 5.3345443E-01 1.7959831E+00
 6.3143499E+00 5.4478750E-01 1.8003985E+00
 6.3661856E+00 5.5674054E-01 1.8048595E+00
 6.4198759E+00 5.6939318E-01 1.8092315E+00
 6.4752338E+00 5.8285343E-01 1.8133463E+00
 6.5320645E+00 5.9724822E-01 1.8169982E+00
 6.5901204E+00 6.1270569E-01 1.8199401E+00
 6.6491034E+00 6.2934969E-01 1.8218892E+00
 6.7086698E+00 6.4728920E-01 1.8225363E+00
 6.7684359E+00 6.6660753E-01 1.8215623E+00
 6.8279841E+00 6.8735110E-01 1.8186586E+00
 6.8868690E+00 7.0951865E-01 1.8135517E+00
 6.9446280E+00 7.3305422E-01 1.8060271E+00
 7.0007955E+00 7.5784475E-01 1.7959503E+00
 7.0549243E+00 7.8372388E-01 1.7832788E+00
 7.1066073E+00 8.1048089E-01 1.7680652E+00
 7.1554976E+00 8.3787503E-01 1.7504510E+00
 7.2013240E+00 8.6565237E-01 1.7306521E+00
 7.2438957E+00 8.9355935E-01 1.7089399E+00
 7.2830779E+00 9.2133793E-01 1.6856388E+00
 7.3187717E+00 9.4872201E-01 1.6611209E+00
 7.3508782E+00 9.7539728E-01 1.6358303E+00
 6.2218634E+00 1.4440558E+00 1.8106149E+00
 6.2708506E+00 1.4315455E+00 1.8152236E+00
 6.3217110E+00 1.4188792E+00 1.8196966E+00
 6.3743496E+00 1.4056448E+00 1.8241104E+00
 6.4286897E+00 1.3916513E+00 1.8283691E+00
 6.4845936E+00 1.3767832E+00 1.8322902E+00
 6.5418512E+00 1.3609283E+00 1.8356469E+00
 6.6001956E+00 1.3439764E+00 1.8381732E+00
 6.6593065E+00 1.3258276E+00 1.8395712E+00
 6.7188210E+00 1.3064026E+00 1.8395231E+00
 6.7783412E+00 1.2856537E+00 1.8377088E+00
 6.8374402E+00 1.2635746E+00 1.8338286E+00
 6.8956702E+00 1.2402088E+00 1.8276276E+00
 6.9525745E+00 1.2156524E+00 1.8189197E+00
 7.0077019E+00 1.1900529E+00 1.8076056E+00
 7.0606284E+00 1.1636010E+00 1.7936818E+00
 7.1109768E+00 1.1365202E+00 1.7772399E+00
 7.1584395E+00 1.1090471E+00 1.7584545E+00
 7.2027879E+00 1.0814133E+00 1.7375673E+00
 7.2438881E+00 1.0538358E+00 1.7148549E+00
 7.2817736E+00 1.0265516E+00 1.6905458E+00
 7.3168154E+00 9.9999989E-01 1.6646441E+00
 6.2235067E+00 1.4098194E+00 1.8283870E+00
 6.2740357E+00 1.3956453E+00 1.8331197E+00
 6.3259826E+00 1.3815975E+00 1.8375412E+00
 6.3795598E+00 1.3669769E+00 1.8418313E+00
 6.4347319E+00 1.3515565E+00 1.8458865E+00
 6.4913723E+00 1.3352104E+00 1.8495119E+00
 6.5492583E+00 1.3178371E+00 1.8524608E+00
 6.6080979E+00 1.2993444E+00 1.8544488E+00
 6.6675468E+00 1.2796567E+00 1.8551633E+00
 6.7272204E+00 1.2587256E+00 1.8542778E+00
 6.7867026E+00 1.2365399E+00 1.8514722E+00
 6.8455542E+00 1.2131335E+00 1.8464573E+00
 6.9033221E+00 1.1885905E+00 1.8389997E+00
 6.9595526E+00 1.1630450E+00 1.8289443E+00
 7.0138090E+00 1.1366750E+00 1.8162294E+00
 7.0656894E+00 1.1096905E+00 1.8008936E+00
 7.1148492E+00 1.0823179E+00 1.7830677E+00
 7.1610291E+00 1.0547760E+00 1.7629545E+00
 7.2040892E+00 1.0272628E+00 1.7407885E+00
 7.2441117E+00 9.9999989E-01 1.7167324E+00
 7.2817735E+00 9.7344817E-01 1.6905458E+00
 6.2246122E+00 1.3737452E+00 1.8452494E+00
 6.2762021E+00 1.3582009E+00 1.8498210E+00
 6.3291567E+00 1.3427517E+00 1.8540644E+00
 6.3836328E+00 1.3267113E+00 1.8581049E+00
 6.4396274E+00 1.3098242E+00 1.8618279E+00
 6.4969945E+00 1.2919745E+00 1.8650178E+00
 6.5554898E+00 1.2730736E+00 1.8674099E+00
 6.6147958E+00 1.2530505E+00 1.8687034E+00
 6.6745438E+00 1.2318574E+00 1.8685739E+00
 6.7343279E+00 1.2094793E+00 1.8666908E+00
 6.7937160E+00 1.1859425E+00 1.8627400E+00
 6.8522583E+00 1.1613203E+00 1.8564491E+00
 6.9094997E+00 1.1357349E+00 1.8476120E+00
 6.9649943E+00 1.1093532E+00 1.8361091E+00
 7.0183254E+00 1.0823759E+00 1.8219197E+00
 7.0691212E+00 1.0550204E+00 1.8051228E+00
 7.1170846E+00 1.0274983E+00 1.7858801E+00
 7.1620444E+00 9.9999989E-01 1.7643927E+00
 7.2040892E+00 9.7273702E-01 1.7407885E+00
 7.2438881E+00 9.4616402E-01 1.7148549E+00
 6.2255763E+00 1.3357143E+00 1.8610420E+00
 6.2781072E+00 1.3188609E+00 1.8652937E+00
 6.3319412E+00 1.3020358E+00 1.8692063E+00
 6.3872263E+00 1.2845650E+00 1.8728539E+00
 6.4439382E+00 1.2662141E+00 1.8760911E+00
 6.5019141E+00 1.2468781E+00 1.8786843E+00
 6.5608835E+00 1.2264886E+00 1.8803522E+00
 6.6205045E+00 1.2049994E+00 1.8807819E+00
 6.6803864E+00 1.1823936E+00 1.8796433E+00
 6.7401061E+00 1.1586917E+00 1.8766089E+00
 6.7992201E+00 1.1339576E+00 1.8713781E+00
 6.8572743E+00 1.1083019E+00 1.8637028E+00
 6.9138179E+00 1.0818801E+00 1.8534106E+00
 6.9684216E+00 1.0548834E+00 1.8404210E+00
 7.0206986E+00 1.0275215E+00 1.8247531E+00
 7.0703229E+00 9.9999989E-01 1.8065180E+00
 7.1170846E+00 9.7250149E-01 1.7858801E+00
 7.1610291E+00 9.4522376E-01 1.7629545E+00
 7.2027879E+00 9.1858650E-01 1.7375673E+00
 6.2264811E+00 1.2957101E+00 1.8755685E+00
 6.2798558E+00 1.2775943E+00 1.8793514E+00
 6.3344592E+00 1.2594070E+00 1.8827861E+00
 6.3904238E+00 1.2405275E+00 1.8858847E+00
 6.4477094E+00 1.2207457E+00 1.8884735E+00
 6.5061299E+00 1.1999779E+00 1.8903017E+00
 6.5653917E+00 1.1781783E+00 1.8910761E+00
 6.6251308E+00 1.1553297E+00 1.8904774E+00
 6.6849386E+00 1.1314481E+00 1.8881769E+00
 6.7443806E+00 1.1065900E+00 1.8838582E+00
 6.8030084E+00 1.0808556E+00 1.8772420E+00
 6.8603712E+00 1.0543886E+00 1.8681116E+00
 6.9160317E+00 1.0273695E+00 1.8563321E+00
 6.9695879E+00 9.9999989E-01 1.8418621E+00
 7.0206986E+00 9.7247824E-01 1.8247531E+00
 7.0691212E+00 9.4497941E-01 1.8051228E+00
 7.1148492E+00 9.1768189E-01 1.7830677E+00
 7.1584395E+00 8.9095264E-01 1.7584545E+00
 6.2273092E+00 1.2538313E+00 1.8885977E+00
 6.2814210E+00 1.2344955E+00 1.8917695E+00
 6.3366663E+00 1.2149837E+00 1.8945745E+00
 6.3931642E+00 1.1947439E+00 1.8969644E+00
 6.4508575E+00 1.1735992E+00 1.8987402E+00
 6.5095387E+00 1.1514900E+00 1.8996378E+00
 6.5688933E+00 1.1283977E+00 1.8993576E+00
 6.6285393E+00 1.1043352E+00 1.8975807E+00
 6.6880561E+00 1.0793529E+00 1.8939875E+00
 6.7470040E+00 1.0535417E+00 1.8882805E+00
 6.8049373E+00 1.0270344E+00 1.8802089E+00
 6.8614175E+00 9.9999989E-01 1.8695916E+00
 6.9160317E+00 9.7263027E-01 1.8563321E+00
 6.9684216E+00 9.4511639E-01 1.8404210E+00
 7.0183254E+00 9.1762390E-01 1.8219197E+00
 7.0656894E+00 8.9030923E-01 1.8008936E+00
 7.1109768E+00 8.6347959E-01 1.7772398E+00
 6.2280367E+00 1.2102469E+00 1.8998945E+00
 6.2827620E+00 1.1897519E+00 1.9023151E+00
 6.3385062E+00 1.1689808E+00 1.9043384E+00
 6.3953758E+00 1.1474615E+00 1.9058621E+00
 6.4532973E+00 1.1250563E+00 1.9066661E+00
 6.5120446E+00 1.1017333E+00 1.9064786E+00
 6.5712857E+00 1.0775023E+00 1.9049998E+00
 6.6306262E+00 1.0524080E+00 1.9019184E+00
 6.6896396E+00 1.0265332E+00 1.8969315E+00
 6.7478881E+00 9.9999990E-01 1.8897674E+00
 6.8049373E+00 9.7296540E-01 1.8802089E+00
 6.8603712E+00 9.4561116E-01 1.8681116E+00
 6.9138179E+00 9.1811971E-01 1.8534105E+00
 6.9649943E+00 8.9064658E-01 1.8361091E+00
 7.0138090E+00 8.6332479E-01 1.8162293E+00
 7.0606284E+00 8.3639874E-01 1.7936818E+00
 6.2286430E+00 1.1651777E+00 1.9092381E+00
 6.2838431E+00 1.1436120E+00 1.9107719E+00
 6.3399301E+00 1.1216778E+00 1.9118674E+00
 6.3969991E+00 1.0989942E+00 1.9123759E+00
 6.4549620E+00 1.0754666E+00 1.9120631E+00
 6.5135768E+00 1.0510931E+00 1.9106552E+00
 6.5724994E+00 1.0259126E+00 1.9078587E+00
 6.6313288E+00 9.9999990E-01 1.9033773E+00
 6.6896396E+00 9.7346656E-01 1.8969315E+00
 6.7470040E+00 9.4645808E-01 1.8882805E+00
 6.8030084E+00 9.1914423E-01 1.8772420E+00
 6.8572743E+00 8.9169790E-01 1.8637028E+00
 6.9094997E+00 8.6426490E-01 1.8476120E+00
 6.9595526E+00 8.3695476E-01 1.8289443E+00
 7.0077019E+00 8.0994688E-01 1.8076055E+00
 6.2291125E+00 1.1188939E+00 1.9164336E+00
 6.2846361E+00 1.0963749E+00 1.9169554E+00
 6.3409008E+00 1.0734061E+00 1.9169889E+00
 6.3979909E+00 1.0497068E+00 1.9163500E+00
 6.4558058E+00 1.0252287E+00 1.9147966E+00
 6.5140924E+00 9.9999990E-01 1.9120597E+00
 6.5724994E+00 9.7408723E-01 1.9078587E+00
 6.6306262E+00 9.4759178E-01 1.9019184E+00
 6.6880562E+00 9.2064691E-01 1.8939875E+00
 6.7443806E+00 8.9340982E-01 1.8838581E+00
 6.7992201E+00 8.6604223E-01 1.8713781E+00
 6.8522583E+00 8.3867945E-01 1.8564491E+00
 6.9033221E+00 8.1140928E-01 1.8389997E+00
 6.9525745E+00 7.8434737E-01 1.8189197E+00
 6.2294325E+00 1.0717076E+00 1.9213235E+00
 6.2851204E+00 1.0483807E+00 1.9207247E+00
 6.3413926E+00 1.0245361E+00 1.9195813E+00
 6.3983244E+00 9.9999988E-01 1.9176858E+00
 6.4558058E+00 9.7477111E-01 1.9147966E+00
 6.5135768E+00 9.4890671E-01 1.9106551E+00
 6.5712857E+00 9.2249754E-01 1.9049998E+00
 6.6285393E+00 8.9566456E-01 1.8975807E+00
 6.6849386E+00 8.6855167E-01 1.8881769E+00
 6.7401062E+00 8.4130811E-01 1.8766089E+00
 6.7937160E+00 8.1405724E-01 1.8627400E+00
 6.8455542E+00 7.8686627E-01 1.8464573E+00
 6.8956702E+00 7.5979095E-01 1.8276276E+00
 6.2295946E+00 1.0239651E+00 1.9237971E+00
 6.2852832E+00 9.9999985E-01 1.9219911E+00
 6.3413926E+00 9.7546366E-01 1.9195813E+00
 6.3979909E+00 9.5029295E-01 1.9163499E+00
 6.4549619E+00 9.2453315E-01 1.9120630E+00
 6.5120446E+00 8.9826655E-01 1.9064786E+00
 6.5688933E+00 8.7160215E-01 1.8993576E+00
 6.6251308E+00 8.4467008E-01 1.8904774E+00
 6.6803864E+00 8.1760617E-01 1.8796433E+00
 6.7343279E+00 7.9052044E-01 1.8666908E+00
 6.7867026E+00 7.6345988E-01 1.8514722E+00
 6.8374402E+00 7.3642514E-01 1.8338285E+00
 6.2295946E+00 9.7603460E-01 1.9237971E+00
 6.2851203E+00 9.5161905E-01 1.9207246E+00
 6.3409007E+00 9.2659361E-01 1.9169889E+00
 6.3969991E+00 9.0100556E-01 1.9123759E+00
 6.4532973E+00 8.7494353E-01 1.9066660E+00
 6.5095387E+00 8.4850978E-01 1.8996377E+00
 6.5653917E+00 8.2182146E-01 1.8910760E+00
 6.6205045E+00 7.9500044E-01 1.8807818E+00
 6.6745438E+00 7.6814238E-01 1.8685738E+00
 6.7272204E+00 7.4127419E-01 1.8542777E+00
 6.7783412E+00 7.1434613E-01 1.8377088E+00
 6.2294324E+00 9.2829208E-01 1.9213235E+00
 6.2846360E+00 9.0362482E-01 1.9169554E+00
 6.3399300E+00 8.7832193E-01 1.9118673E+00
 6.3953757E+00 8.5253827E-01 1.9058620E+00
 6.4508574E+00 8.2640064E-01 1.8987401E+00
 6.5061299E+00 8.0002194E-01 1.8903016E+00
 6.5608835E+00 7.7351126E-01 1.8803521E+00
 6.6147958E+00 7.4694927E-01 1.8687033E+00
 6.6675468E+00 7.2034314E-01 1.8551633E+00
 6.7188210E+00 6.9359716E-01 1.8395231E+00
 6.2291123E+00 8.8110583E-01 1.9164335E+00
 6.2838429E+00 8.5638775E-01 1.9107718E+00
 6.3385061E+00 8.3101899E-01 1.9043384E+00
 6.3931641E+00 8.0525593E-01 1.8969643E+00
 6.4477093E+00 7.7925408E-01 1.8884735E+00
 6.5019140E+00 7.5312171E-01 1.8786842E+00
 6.5554898E+00 7.2692617E-01 1.8674099E+00
 6.6080979E+00 7.0065541E-01 1.8544488E+00
 6.6593065E+00 6.7417219E-01 1.8395711E+00
 6.2286428E+00 8.3482201E-01 1.9092380E+00
 6.2827618E+00 8.1024784E-01 1.9023150E+00
 6.3366661E+00 7.8501608E-01 1.8945744E+00
 6.3904236E+00 7.5947231E-01 1.8858846E+00
 6.4439382E+00 7.3378568E-01 1.8760911E+00
 6.4969944E+00 7.0802527E-01 1.8650177E+00
 6.5492583E+00 6.8216269E-01 1.8524607E+00
 6.6001956E+00 6.5602342E-01 1.8381731E+00
 6.2280364E+00 7.8975289E-01 1.8998944E+00
 6.2814207E+00 7.6550426E-01 1.8917694E+00
 6.3344590E+00 7.4059285E-01 1.8827860E+00
 6.3872262E+00 7.1543484E-01 1.8728538E+00
 6.4396273E+00 6.9017558E-01 1.8618278E+00
 6.4913723E+00 6.6478947E-01 1.8495118E+00
 6.5418512E+00 6.3907152E-01 1.8356468E+00
 6.2273090E+00 7.4616851E-01 1.8885976E+00
 6.2798555E+00 7.2240557E-01 1.8793513E+00
 6.3319410E+00 6.9796402E-01 1.8692062E+00
 6.3836326E+00 6.7328857E-01 1.8581048E+00
 6.4347318E+00 6.4844335E-01 1.8458864E+00
 6.4845935E+00 6.2321667E-01 1.8322902E+00
 6.2264808E+00 7.0428975E-01 1.8755683E+00
 6.2781069E+00 6.8113895E-01 1.8652936E+00
 6.3291565E+00 6.5724811E-01 1.8540643E+00
 6.3795597E+00 6.3302291E-01 1.8418311E+00
 6.4286896E+00 6.0834856E-01 1.8283690E+00
 6.2255760E+00 6.6428560E-01 1.8610418E+00
 6.2762018E+00 6.4179894E-01 1.8498209E+00
 6.3259824E+00 6.1840240E-01 1.8375410E+00
 6.3743495E+00 5.9435505E-01 1.8241103E+00
 6.2246120E+00 6.2625468E-01 1.8452492E+00
 6.2740355E+00 6.0435463E-01 1.8331195E+00
 6.3217109E+00 5.8112064E-01 1.8196964E+00
 6.2235065E+00 5.9018055E-01 1.8283868E+00
 6.2708504E+00 5.6845446E-01 1.8152234E+00
 6.2218632E+00 5.5594412E-01 1.8106147E+00
 6.1473434E+00 1.5103520E+00 1.7744041E+00
 6.1178930E+00 1.5359427E+00 1.7586887E+00
 6.0870922E+00 1.5623582E+00 1.7413673E+00
 6.0550487E+00 1.5894476E+00 1.7223894E+00
 6.0218885E+00 1.6170824E+00 1.7016858E+00
 5.9877497E+00 1.6451315E+00 1.6791715E+00
 5.9527801E+00 1.6734574E+00 1.6547461E+00
 5.9171700E+00 1.7018794E+00 1.6283165E+00
 5.8811634E+00 1.7301692E+00 1.5997986E+00
 5.8450545E+00 1.7580444E+00 1.5691278E+00
 5.8091744E+00 1.7851695E+00 1.5362686E+00
 5.7738641E+00 1.8111674E+00 1.5012308E+00
 5.7394438E+00 1.8356360E+00 1.4640841E+00
 5.7061900E+00 1.8581784E+00 1.4249708E+00
 5.6743274E+00 1.8784333E+00 1.3841123E+00
 5.6440305E+00 1.8961043E+00 1.3418059E+00
 5.6154325E+00 1.9109817E+00 1.2984115E+00
 5.5886322E+00 1.9229587E+00 1.2543276E+00
 5.5636996E+00 1.9320325E+00 1.2099651E+00
 5.5406804E+00 1.9382957E+00 1.1657256E+00
 5.5196187E+00 1.9419178E+00 1.1220120E+00
 5.5005580E+00 1.9431223E+00 1.0792186E+00
 5.4836041E+00 1.9421907E+00 1.0379453E+00
 5.0149205E+00 1.0696671E+00 1.6129207E+00
 5.0105147E+00 1.1148268E+00 1.5998606E+00
 5.0076121E+00 1.1610980E+00 1.5848944E+00
 5.0067056E+00 1.2086713E+00 1.5683135E+00
 5.0080731E+00 1.2574631E+00 1.5501253E+00
 5.0119363E+00 1.3072648E+00 1.5302881E+00
 5.0184979E+00 1.3578016E+00 1.5087757E+00
 5.0279408E+00 1.4087435E+00 1.4855961E+00
 5.0404166E+00 1.4597124E+00 1.4607929E+00
 5.0560337E+00 1.5102891E+00 1.4344466E+00
 5.0748479E+00 1.5600240E+00 1.4066748E+00
 5.0968542E+00 1.6084473E+00 1.3776312E+00
 5.1219808E+00 1.6550830E+00 1.3475045E+00
 5.1500851E+00 1.6994616E+00 1.3165145E+00
 5.1809546E+00 1.7411357E+00 1.2849066E+00
 5.2143083E+00 1.7796935E+00 1.2529466E+00
 5.2498057E+00 1.8147762E+00 1.2209111E+00
 5.2870561E+00 1.8460897E+00 1.1890821E+00
 5.3256406E+00 1.8734258E+00 1.1577349E+00
 5.3651160E+00 1.8966673E+00 1.1271255E+00
 5.4050286E+00 1.9158032E+00 1.0973937E+00
 5.4448000E+00 1.9309179E+00 1.0683323E+00
 5.0412829E+00 1.0987710E+00 1.6443241E+00
 5.0382478E+00 1.1461423E+00 1.6313426E+00
 5.0367165E+00 1.1941192E+00 1.6162547E+00
 5.0373068E+00 1.2431884E+00 1.5994355E+00
 5.0403221E+00 1.2933266E+00 1.5808932E+00
 5.0459820E+00 1.3443183E+00 1.5605741E+00
 5.0544790E+00 1.3958538E+00 1.5384473E+00
 5.0659794E+00 1.4475568E+00 1.5145240E+00
 5.0806099E+00 1.4990012E+00 1.4888570E+00
 5.0984465E+00 1.5497212E+00 1.4615411E+00
 5.1195038E+00 1.5992251E+00 1.4327129E+00
 5.1437276E+00 1.6470081E+00 1.4025491E+00
 5.1709898E+00 1.6925678E+00 1.3712644E+00
 5.2010879E+00 1.7354209E+00 1.3391063E+00
 5.2337447E+00 1.7751197E+00 1.3063496E+00
 5.2686192E+00 1.8112710E+00 1.2732870E+00
 5.3053156E+00 1.8435536E+00 1.2402220E+00
 5.3434116E+00 1.8717410E+00 1.2074524E+00
 5.3824780E+00 1.8957190E+00 1.1752346E+00
 5.4220784E+00 1.9154953E+00 1.1436670E+00
 5.4616910E+00 1.9312119E+00 1.1122583E+00
 5.0712276E+00 1.1283700E+00 1.6758191E+00
 5.0695917E+00 1.1774252E+00 1.6627178E+00
 5.0695607E+00 1.2269717E+00 1.6474119E+00
 5.0717900E+00 1.2774645E+00 1.6302434E+00
 5.0765955E+00 1.3288754E+00 1.6112090E+00
 5.0841900E+00 1.3809536E+00 1.5902480E+00
 5.0947513E+00 1.4333424E+00 1.5673306E+00
 5.1084226E+00 1.4856145E+00 1.5424751E+00
 5.1252988E+00 1.5372921E+00 1.5157482E+00
 5.1454146E+00 1.5878617E+00 1.4872640E+00
 5.1687339E+00 1.6367894E+00 1.4571836E+00
 5.1951443E+00 1.6835387E+00 1.4257124E+00
 5.2244533E+00 1.7275876E+00 1.3930973E+00
 5.2563886E+00 1.7684495E+00 1.3596194E+00
 5.2906077E+00 1.8056932E+00 1.3255872E+00
 5.3267088E+00 1.8389677E+00 1.2913258E+00
 5.3642602E+00 1.8680242E+00 1.2571593E+00
 5.4028278E+00 1.8927431E+00 1.2233730E+00
 5.4419765E+00 1.9131480E+00 1.1900739E+00
 5.4811709E+00 1.9294246E+00 1.1568110E+00
 5.1049989E+00 1.1587676E+00 1.7069229E+00
 5.1048778E+00 1.2092820E+00 1.6935425E+00
 5.1065051E+00 1.2602165E+00 1.6778860E+00
 5.1105449E+00 1.3119634E+00 1.6602349E+00
 5.1173025E+00 1.3644430E+00 1.6405610E+00
 5.1269752E+00 1.4173572E+00 1.6187989E+00
 5.1397173E+00 1.4702960E+00 1.5949236E+00
 5.1556392E+00 1.5227783E+00 1.5689657E+00
 5.1747937E+00 1.5742747E+00 1.5410105E+00
 5.1971632E+00 1.6242261E+00 1.5111972E+00
 5.2226512E+00 1.6720636E+00 1.4797172E+00
 5.2510765E+00 1.7172281E+00 1.4468112E+00
 5.2821746E+00 1.7591943E+00 1.4127632E+00
 5.3156029E+00 1.7974937E+00 1.3778947E+00
 5.3509568E+00 1.8317445E+00 1.3425505E+00
 5.3877969E+00 1.8616761E+00 1.3070858E+00
 5.4256864E+00 1.8871624E+00 1.2718190E+00
 5.4641935E+00 1.9082404E+00 1.2369098E+00
 5.5027894E+00 1.9251402E+00 1.2020004E+00
 5.1428613E+00 1.1898479E+00 1.7371639E+00
 5.1443996E+00 1.2416242E+00 1.7233461E+00
 5.1478568E+00 1.2937383E+00 1.7071914E+00