# TIME = 13.200000
variables = x, y, z
zone N=5762 E=11520 F=FEPOINT ET=TRIANGLE
 6.4125426E-01 1.4839076E+00 1.7828421E+00
 6.4125435E-01 1.4839074E+00 2.1715807E-01
 6.4125431E-01 5.1609265E-01 1.7828419E+00
 6.4125435E-01 5.1609247E-01 2.1715790E-01
 -5.4095742E-01 1.0000000E+00 1.6070193E+00
 1.8511702E+00 1.0000000E+00 1.6145895E+00
 -5.4095742E-01 1.0000000E+00 3.9298060E-01
 1.8511702E+00 1.0000000E+00 3.8541053E-01
 -7.2219801E-02 1.9278641E+00 9.9999964E-01
 -7.2219771E-02 7.2136032E-02 1.0000003E+00
 1.3380208E+00 1.8678374E+00 9.9999996E-01
 1.3380209E+00 1.3216264E-01 1.0000000E+00
 5.9402170E-01 1.4757232E+00 1.7899407E+00
 5.4147055E-01 1.4666966E+00 1.7979532E+00
 4.8597332E-01 1.4573823E+00 1.8065962E+00
 4.2805643E-01 1.4477820E+00 1.8158982E+00
 3.6834211E-01 1.4378038E+00 1.8258041E+00
 3.0770459E-01 1.4272386E+00 1.8360984E+00
 2.4709036E-01 1.4157835E+00 1.8463536E+00
 1.8725731E-01 1.4030826E+00 1.8559494E+00
 1.2858264E-01 1.3887821E+00 1.8641487E+00
 7.1091998E-02 1.3725795E+00 1.8701840E+00
 1.4627746E-02 1.3542573E+00 1.8733302E+00
 -4.0953365E-02 1.3337070E+00 1.8729650E+00
 -9.5640010E-02 1.3109451E+00 1.8686276E+00
 -1.4921601E-01 1.2861146E+00 1.8600631E+00
 -2.0129793E-01 1.2594711E+00 1.8472398E+00
 -2.5141591E-01 1.2313558E+00 1.8303368E+00
 -2.9909722E-01 1.2021606E+00 1.8097053E+00
 -3.4393008E-01 1.1722916E+00 1.7858187E+00
 -3.8560240E-01 1.1421403E+00 1.7592177E+00
 -4.2391929E-01 1.1120628E+00 1.7304609E+00
 -4.5877459E-01 1.0823858E+00 1.7001154E+00
 -4.9012112E-01 1.0534092E+00 1.6687531E+00
 -5.1787423E-01 1.0254919E+00 1.6370608E+00
 5.8851965E-01 5.5869651E-01 1.8099297E+00
 5.3403895E-01 5.6982367E-01 1.8186244E+00
 4.7720938E-01 5.8075151E-01 1.8276204E+00
 4.1839170E-01 5.9180097E-01 1.8371090E+00
 3.5813251E-01 6.0326016E-01 1.8471042E+00
 2.9728953E-01 6.1541620E-01 1.8573753E+00
 2.3678132E-01 6.2859770E-01 1.8674537E+00
 1.7728313E-01 6.4313667E-01 1.8766778E+00
 1.1908283E-01 6.5932878E-01 1.8842862E+00
 6.2144643E-02 6.7740031E-01 1.8895075E+00
 6.2921026E-03 6.9748769E-01 1.8916331E+00
 -4.8603785E-02 7.1962241E-01 1.8900768E+00
 -1.0250486E-01 7.4372296E-01 1.8844287E+00
 -1.5517582E-01 7.6959921E-01 1.8744921E+00
 -2.0623178E-01 7.9697043E-01 1.8602936E+00
 -2.5521985E-01 8.2549273E-01 1.8420617E+00
 -3.0170211E-01 8.5478848E-01 1.8201808E+00
 -3.4531932E-01 8.8447462E-01 1.7951321E+00
 -3.8582602E-01 9.1418327E-01 1.7674346E+00
 -4.2311297E-01 9.4357184E-01 1.7375818E+00
 -4.5722581E-01 9.7231816E-01 1.7059728E+00
 -4.8839180E-01 1.0000000E+00 1.6728310E+00
 5.8627322E-01 5.9418546E-01 1.8283948E+00
 5.2957644E-01 6.0736688E-01 1.8375332E+00
 4.7121148E-01 6.1996700E-01 1.8467355E+00
 4.1125436E-01 6.3260100E-01 1.8563255E+00
 3.5026920E-01 6.4566023E-01 1.8663148E+00
 2.8908242E-01 6.5950801E-01 1.8764542E+00
 2.2855379E-01 6.7448088E-01 1.8862325E+00
 1.6926756E-01 6.9087819E-01 1.8949529E+00
 1.1142497E-01 7.0893538E-01 1.9018374E+00
 5.4935315E-02 7.2880832E-01 1.9061182E+00
 -3.9364104E-04 7.5056209E-01 1.9071094E+00
 -5.4679803E-02 7.7416349E-01 1.9042646E+00
 -1.0786597E-01 7.9947917E-01 1.8972253E+00
 -1.5970829E-01 8.2628515E-01 1.8858491E+00
 -2.0983339E-01 8.5428732E-01 1.8702110E+00
 -2.5782214E-01 8.8314779E-01 1.8505722E+00
 -3.0329439E-01 9.1250762E-01 1.8273222E+00
 -3.4597973E-01 9.4200567E-01 1.8009037E+00
 -3.8576328E-01 9.7128884E-01 1.7717301E+00
 -4.2271851E-01 1.0000000E+00 1.7400951E+00
 -4.5722579E-01 1.0276819E+00 1.7059728E+00
 5.8470673E-01 6.3126312E-01 1.8456464E+00
 5.2651284E-01 6.4612356E-01 1.8548132E+00
 4.6680131E-01 6.6038795E-01 1.8640360E+00
 4.0581869E-01 6.7465011E-01 1.8735714E+00
 3.4413535E-01 6.8938379E-01 1.8834175E+00
 2.8259354E-01 7.0497842E-01 1.8932810E+00
 2.2200210E-01 7.2176482E-01 1.9026087E+00
 1.6286742E-01 7.4000151E-01 1.9106737E+00
 1.0531731E-01 7.5986643E-01 1.9166883E+00
 4.9217094E-02 7.8145177E-01 1.9198958E+00
 -5.6367105E-03 8.0476092E-01 1.9196378E+00
 -5.9353865E-02 8.2970669E-01 1.9154104E+00
 -1.1186688E-01 8.5611575E-01 1.9069041E+00
 -1.6293631E-01 8.8374129E-01 1.8940236E+00
 -2.1221847E-01 9.1228330E-01 1.8768771E+00
 -2.5935266E-01 9.4140975E-01 1.8557326E+00
 -3.0405014E-01 9.7077008E-01 1.8309447E+00
 -3.4616842E-01 1.0000000E+00 1.8028632E+00
 -3.8576326E-01 1.0287112E+00 1.7717301E+00
 -4.2311293E-01 1.0564282E+00 1.7375818E+00
 5.8349427E-01 6.6992140E-01 1.8615518E+00
 5.2414629E-01 6.8627931E-01 1.8705004E+00
 4.6338237E-01 7.0211124E-01 1.8795270E+00
 4.0154128E-01 7.1799746E-01 1.8888336E+00
 3.3927229E-01 7.3441652E-01 1.8983664E+00
 2.7743167E-01 7.5176152E-01 1.9077844E+00
 2.1679651E-01 7.7033706E-01 1.9164912E+00
 1.5780999E-01 7.9035697E-01 1.9237365E+00
 1.0054178E-01 8.1194326E-01 1.9287301E+00
 4.4823824E-02 8.3513043E-01 1.9307329E+00
 -9.5557859E-03 8.5986860E-01 1.9291186E+00
 -6.2703529E-02 8.8602722E-01 1.9234260E+00
 -1.1455334E-01 9.1340303E-01 1.9133895E+00
 -1.6488747E-01 9.4173323E-01 1.8989487E+00
 -2.1341468E-01 9.7071159E-01 1.8802244E+00
 -2.5985966E-01 1.0000000E+00 1.8574616E+00
 -3.0405012E-01 1.0292300E+00 1.8309447E+00
 -3.4597969E-01 1.0579944E+00 1.8009037E+00
 -3.8582596E-01 1.0858168E+00 1.7674346E+00
 5.8249320E-01 7.1016103E-01 1.8759787E+00
 5.2222157E-01 7.2786196E-01 1.8845075E+00
 4.6061781E-01 7.4517058E-01 1.8931476E+00
 3.9809915E-01 7.6262930E-01 1.9020411E+00
 3.3537932E-01 7.8070088E-01 1.9110791E+00
 2.7333689E-01 7.9975400E-01 1.9198691E+00
 2.1272197E-01 8.2005538E-01 1.9277772E+00
 1.5392807E-01 8.4176887E-01 1.9340367E+00
 9.6979399E-02 8.6496273E-01 1.9378631E+00
 4.1681991E-02 8.8962011E-01 1.9385403E+00
 -1.2184678E-02 9.1564700E-01 1.9354783E+00
 -6.4731695E-02 9.4287900E-01 1.9282550E+00
 -1.1590937E-01 9.7108954E-01 1.9166403E+00
 -1.6554242E-01 1.0000000E+00 1.9005932E+00
 -2.1341466E-01 1.0292884E+00 1.8802244E+00
 -2.5935262E-01 1.0585903E+00 1.8557326E+00
 -3.0329433E-01 1.0874924E+00 1.8273222E+00
 -3.4531924E-01 1.1155254E+00 1.7951320E+00
 5.8163992E-01 7.5189920E-01 1.8887643E+00
 5.2061432E-01 7.7081719E-01 1.8967054E+00
 4.5834702E-01 7.8950490E-01 1.9047848E+00
 3.9531985E-01 8.0846220E-01 1.9130862E+00
 3.3229761E-01 8.2811869E-01 1.9214465E+00
 2.7017400E-01 8.4880312E-01 1.9294257E+00
 2.0967487E-01 8.7073358E-01 1.9363604E+00
 1.5115234E-01 8.9402198E-01 1.9414766E+00
 9.4594041E-02 9.1868681E-01 1.9440030E+00
 3.9784246E-02 9.4466798E-01 1.9432519E+00
 -1.3509157E-02 9.7183627E-01 1.9386695E+00
 -6.5412372E-02 1.0000000E+00 1.9298677E+00
 -1.1590935E-01 1.0289105E+00 1.9166403E+00
 -1.6488743E-01 1.0582668E+00 1.8989487E+00
 -2.1221841E-01 1.0877167E+00 1.8768770E+00
 -2.5782206E-01 1.1168522E+00 1.8505721E+00
 -3.0170201E-01 1.1452115E+00 1.8201806E+00
 5.8091341E-01 7.9499266E-01 1.8997374E+00
 5.1927692E-01 8.1501626E-01 1.9069469E+00
 4.5650857E-01 8.3498079E-01 1.9143060E+00
 3.9313897E-01 8.5534499E-01 1.9218455E+00
 3.2996978E-01 8.7649298E-01 1.9293518E+00
 2.6790006E-01 8.9870249E-01 1.9363459E+00
 2.0763029E-01 9.2213798E-01 1.9421444E+00
 1.4947602E-01 9.4686081E-01 1.9459757E+00
 9.3393900E-02 9.7284654E-01 1.9470889E+00
 3.9148349E-02 1.0000000E+00 1.9448270E+00
 -1.3509143E-02 1.0281638E+00 1.9386694E+00
 -6.4731663E-02 1.0571211E+00 1.9282550E+00
 -1.1455329E-01 1.0865970E+00 1.9133894E+00
 -1.6293624E-01 1.1162587E+00 1.8940235E+00
 -2.0983330E-01 1.1457127E+00 1.8702109E+00
 -2.5521973E-01 1.1745073E+00 1.8420616E+00
 5.8031227E-01 8.3925734E-01 1.9087370E+00
 5.1820634E-01 8.6027474E-01 1.9150874E+00
 4.5509800E-01 8.8140753E-01 1.9215812E+00
 3.9155381E-01 9.0306999E-01 1.9282008E+00
 3.2839720E-01 9.2559311E-01 1.9346893E+00
 2.6652196E-01 9.4919783E-01 1.9405385E+00
 2.0660041E-01 9.7399482E-01 1.9450560E+00
 1.4891442E-01 1.0000001E+00 1.9474815E+00
 9.3393910E-02 1.0271536E+00 1.9470889E+00
 3.9784271E-02 1.0553321E+00 1.9432519E+00
 -1.2184636E-02 1.0843531E+00 1.9354783E+00
 -6.2703466E-02 1.1139728E+00 1.9234260E+00
 -1.1186679E-01 1.1438843E+00 1.9069040E+00
 -1.5970818E-01 1.1737149E+00 1.8858490E+00
 -2.0623165E-01 1.2030296E+00 1.8602935E+00
 5.7984581E-01 8.8447422E-01 1.9156218E+00
 5.1741918E-01 9.0636747E-01 1.9210009E+00
 4.5413630E-01 9.2854857E-01 1.9264992E+00
 3.9058707E-01 9.5138368E-01 1.9320559E+00
 3.2760215E-01 9.7514641E-01 1.9373794E+00
 2.6605952E-01 1.0000001E+00 1.9419430E+00
 2.0660042E-01 1.0260053E+00 1.9450560E+00
 1.4947603E-01 1.0531393E+00 1.9459757E+00
 9.4594073E-02 1.0813133E+00 1.9440030E+00
 4.1682041E-02 1.1103800E+00 1.9385403E+00
 -9.5557145E-03 1.1401315E+00 1.9291186E+00
 -5.9353770E-02 1.1702933E+00 1.9154103E+00
 -1.0786585E-01 1.2005209E+00 1.8972251E+00
 -1.5517568E-01 1.2304008E+00 1.8744920E+00
 5.7952619E-01 9.3039540E-01 1.9202783E+00
 5.1693631E-01 9.5303652E-01 1.9245901E+00
 4.5364788E-01 9.7613282E-01 1.9289794E+00
 3.9026177E-01 1.0000001E+00 1.9333481E+00
 3.2760215E-01 1.0248537E+00 1.9373794E+00
 2.6652197E-01 1.0508023E+00 1.9405385E+00
 2.0763031E-01 1.0778621E+00 1.9421444E+00
 1.5115237E-01 1.1059781E+00 1.9414766E+00
 9.6979452E-02 1.1350374E+00 1.9378631E+00
 4.4823899E-02 1.1648696E+00 1.9307328E+00
 -5.6366097E-03 1.1952391E+00 1.9196377E+00
 -5.4679675E-02 1.2258365E+00 1.9042645E+00
 -1.0250470E-01 1.2562770E+00 1.8844286E+00
 5.7936359E-01 9.7674974E-01 1.9226271E+00
 5.1677345E-01 1.0000000E+00 1.9257935E+00
 4.5364788E-01 1.0238673E+00 1.9289794E+00
 3.9058707E-01 1.0486164E+00 1.9320559E+00
 3.2839721E-01 1.0744070E+00 1.9346893E+00
 2.6790008E-01 1.1012976E+00 1.9363459E+00
 2.0967490E-01 1.1292665E+00 1.9363604E+00
 1.5392812E-01 1.1582313E+00 1.9340367E+00
 1.0054186E-01 1.1880568E+00 1.9287301E+00
 4.9217195E-02 1.2185483E+00 1.9198957E+00
 -3.9350969E-04 1.2494380E+00 1.9071093E+00
 -4.8603622E-02 1.2803776E+00 1.8900767E+00
 5.7936359E-01 1.0232503E+00 1.9226271E+00
 5.1693632E-01 1.0469636E+00 1.9245901E+00
 4.5413630E-01 1.0714515E+00 1.9264992E+00
 3.9155382E-01 1.0969301E+00 1.9282008E+00
 3.2996979E-01 1.1235072E+00 1.9293518E+00
 2.7017402E-01 1.1511970E+00 1.9294257E+00
 2.1272200E-01 1.1799448E+00 1.9277772E+00
 1.5781005E-01 1.2096432E+00 1.9237365E+00
 1.0531741E-01 1.2401337E+00 1.9166882E+00
 5.4935442E-02 1.2711918E+00 1.9061181E+00
 6.2922657E-03 1.3025123E+00 1.8916330E+00
 5.7952621E-01 1.0696047E+00 1.9202783E+00
 5.1741919E-01 1.0936326E+00 1.9210009E+00
 4.5509801E-01 1.1185926E+00 1.9215812E+00
 3.9313897E-01 1.1446551E+00 1.9218455E+00
 3.3229762E-01 1.1718815E+00 1.9214465E+00
 2.7333691E-01 1.2002462E+00 1.9198691E+00
 2.1679656E-01 1.2296631E+00 1.9164912E+00
 1.6286750E-01 1.2599986E+00 1.9106737E+00
 1.1142508E-01 1.2910647E+00 1.9018373E+00
 6.2144798E-02 1.3225998E+00 1.8895074E+00
 5.7984583E-01 1.1155259E+00 1.9156218E+00
 5.1820635E-01 1.1397254E+00 1.9150874E+00
 4.5650857E-01 1.1650193E+00 1.9143060E+00
 3.9531985E-01 1.1915380E+00 1.9130863E+00
 3.3537932E-01 1.2192993E+00 1.9110792E+00
 2.7743168E-01 1.2482387E+00 1.9077844E+00
 2.2200214E-01 1.2782353E+00 1.9026087E+00
 1.6926765E-01 1.3091219E+00 1.8949529E+00
 1.1908296E-01 1.3406713E+00 1.8842861E+00
 5.8031229E-01 1.1607428E+00 1.9087371E+00
 5.1927693E-01 1.1849839E+00 1.9069470E+00
 4.5834702E-01 1.2104952E+00 1.9047849E+00
 3.9809914E-01 1.2373709E+00 1.9020412E+00
 3.3927228E-01 1.2655837E+00 1.8983665E+00
 2.8259356E-01 1.2950218E+00 1.8932811E+00
 2.2855384E-01 1.3255193E+00 1.8862325E+00
 1.7728323E-01 1.3568635E+00 1.8766778E+00
 5.8091343E-01 1.2050075E+00 1.8997375E+00
 5.2061432E-01 1.2291830E+00 1.8967055E+00
 4.6061780E-01 1.2548296E+00 1.8931477E+00
 4.0154126E-01 1.2820027E+00 1.8888337E+00
 3.4413533E-01 1.3106164E+00 1.8834176E+00
 2.8908243E-01 1.3404922E+00 1.8764543E+00
 2.3678137E-01 1.3714025E+00 1.8674537E+00
 5.8163993E-01 1.2481009E+00 1.8887644E+00
 5.2222156E-01 1.2721382E+00 1.8845075E+00
 4.6338234E-01 1.2978889E+00 1.8795271E+00
 4.0581865E-01 1.3253501E+00 1.8735715E+00
 3.5026917E-01 1.3543400E+00 1.8663149E+00
 2.9728954E-01 1.3845840E+00 1.8573754E+00
 5.8249320E-01 1.2898391E+00 1.8759788E+00
 5.2414626E-01 1.3137209E+00 1.8705004E+00
 4.6680127E-01 1.3396123E+00 1.8640361E+00
 4.1125431E-01 1.3673992E+00 1.8563256E+00
 3.5813248E-01 1.3967401E+00 1.8471043E+00
 5.8349426E-01 1.3300788E+00 1.8615519E+00
 5.2651280E-01 1.3538766E+00 1.8548133E+00
 4.7121142E-01 1.3800332E+00 1.8467356E+00
 4.1839164E-01 1.4081993E+00 1.8371091E+00
 5.8470670E-01 1.3687371E+00 1.8456465E+00
 5.2957638E-01 1.3926333E+00 1.8375333E+00
 4.7720931E-01 1.4192487E+00 1.8276205E+00
 5.8627318E-01 1.4058148E+00 1.8283949E+00
 5.3403889E-01 1.4301766E+00 1.8186245E+00
 5.8851960E-01 1.4413037E+00 1.8099298E+00
 6.4126501E-01 1.4542491E+00 1.8004497E+00
 6.4128679E-01 1.4206419E+00 1.8186500E+00
 6.4128217E-01 1.3850928E+00 1.8359971E+00
 6.4126030E-01 1.3476714E+00 1.8522691E+00
 6.4122526E-01 1.3085153E+00 1.8672412E+00
 6.4118475E-01 1.2677658E+00 1.8807043E+00
 6.4114533E-01 1.2255622E+00 1.8924729E+00
 6.4111182E-01 1.1820827E+00 1.9023726E+00
 6.4108635E-01 1.1375385E+00 1.9102481E+00
 6.4106904E-01 1.0921667E+00 1.9159711E+00
 6.4105916E-01 1.0462277E+00 1.9194449E+00
 6.4105596E-01 1.0000000E+00 1.9206096E+00
 6.4105915E-01 9.5377236E-01 1.9194449E+00
 6.4106902E-01 9.0783334E-01 1.9159710E+00
 6.4108632E-01 8.6246155E-01 1.9102481E+00
 6.4111179E-01 8.1791736E-01 1.9023725E+00
 6.4114530E-01 7.7443794E-01 1.8924728E+00
 6.4118473E-01 7.3223433E-01 1.8807042E+00
 6.4122525E-01 6.9148489E-01 1.8672411E+00
 6.4126030E-01 6.5232878E-01 1.8522690E+00
 6.4128218E-01 6.1490742E-01 1.8359970E+00
 6.4128681E-01 5.7935832E-01 1.8186499E+00
 6.4126505E-01 5.4575117E-01 1.8004496E+00
 6.8802898E-01 5.2592615E-01 1.7871836E+00
 7.3898707E-01 5.3677491E-01 1.7919733E+00
 7.9169319E-01 5.4809016E-01 1.7968789E+00
 8.4576391E-01 5.5994130E-01 1.8017832E+00
 9.0101912E-01 5.7242570E-01 1.8065346E+00
 9.5729205E-01 5.8566597E-01 1.8109549E+00
 1.0144226E+00 5.9978962E-01 1.8148343E+00
 1.0722114E+00 6.1491979E-01 1.8179342E+00
 1.1304233E+00 6.3117093E-01 1.8199945E+00
 1.1887915E+00 6.4864193E-01 1.8207435E+00
 1.2470241E+00 6.6740904E-01 1.8199095E+00
 1.3048095E+00 6.8751872E-01 1.8172348E+00
 1.3618241E+00 7.0898134E-01 1.8124898E+00
 1.4177371E+00 7.3176780E-01 1.8054877E+00
 1.4722167E+00 7.5580868E-01 1.7960958E+00
 1.5249391E+00 7.8099568E-01 1.7842435E+00
 1.5755962E+00 8.0718564E-01 1.7699264E+00
 1.6239078E+00 8.3420843E-01 1.7532054E+00
 1.6696269E+00 8.6187462E-01 1.7342034E+00
 1.7125486E+00 8.8998221E-01 1.7130952E+00
 1.7524887E+00 9.1829796E-01 1.6901149E+00
 1.7892753E+00 9.4654486E-01 1.6655563E+00
 1.8226568E+00 9.7430142E-01 1.6398637E+00
 6.9342114E-01 1.4396117E+00 1.8067684E+00
 7.4606281E-01 1.4267536E+00 1.8120040E+00
 7.9983503E-01 1.4139212E+00 1.8170275E+00
 8.5458952E-01 1.4007486E+00 1.8218646E+00
 9.1029217E-01 1.3869736E+00 1.8264381E+00
 9.6684092E-01 1.3724207E+00 1.8305856E+00
 1.0240831E+00 1.3569461E+00 1.8340978E+00
 1.0818242E+00 1.3404334E+00 1.8367296E+00
 1.1398297E+00 1.3227888E+00 1.8382138E+00
 1.1978332E+00 1.3039416E+00 1.8382746E+00
 1.2555439E+00 1.2838469E+00 1.8366423E+00
 1.3126530E+00 1.2624903E+00 1.8330675E+00
 1.3688423E+00 1.2398906E+00 1.8273356E+00
 1.4237894E+00 1.2161019E+00 1.8192804E+00
 1.4771754E+00 1.1912119E+00 1.8087932E+00
 1.5286937E+00 1.1653408E+00 1.7958289E+00
 1.5780630E+00 1.1386387E+00 1.7804038E+00
 1.6250458E+00 1.1112833E+00 1.7625872E+00
 1.6694609E+00 1.0834772E+00 1.7424886E+00
 1.7112040E+00 1.0554499E+00 1.7202328E+00
 1.7502919E+00 1.0274719E+00 1.6959100E+00
 1.7869329E+00 1.0000000E+00 1.6695001E+00
 6.9561541E-01 1.4042220E+00 1.8250125E+00
 7.5026751E-01 1.3893956E+00 1.8304612E+00
 8.0532679E-01 1.3750070E+00 1.8354599E+00
 8.6101496E-01 1.3604081E+00 1.8401455E+00
 9.1735409E-01 1.3452606E+00 1.8444544E+00
 9.7430822E-01 1.3293310E+00 1.8482372E+00
 1.0317586E+00 1.3124641E+00 1.8512807E+00
 1.0895286E+00 1.2945517E+00 1.8533335E+00
 1.1473945E+00 1.2755202E+00 1.8541235E+00
 1.2050963E+00 1.2553249E+00 1.8533744E+00
 1.2623482E+00 1.2339486E+00 1.8508215E+00
 1.3188471E+00 1.2114031E+00 1.8462267E+00
 1.3742832E+00 1.1877298E+00 1.8393918E+00
 1.4283481E+00 1.1629998E+00 1.8301699E+00
 1.4807456E+00 1.1373118E+00 1.8184719E+00
 1.5312044E+00 1.1107917E+00 1.8042655E+00
 1.5795004E+00 1.0835936E+00 1.7875652E+00
 1.6254888E+00 1.0559033E+00 1.7684080E+00
 1.6691411E+00 1.0279442E+00 1.7468171E+00
 1.7105882E+00 1.0000000E+00 1.7227455E+00
 1.7502919E+00 9.7252817E-01 1.6959100E+00
 6.9710895E-01 1.3672588E+00 1.8420973E+00
 7.5309853E-01 1.3508840E+00 1.8473918E+00
 8.0929867E-01 1.3349843E+00 1.8522014E+00
 8.6584160E-01 1.3189594E+00 1.8566017E+00
 9.2280721E-01 1.3024083E+00 1.8605324E+00
 9.8017445E-01 1.2850806E+00 1.8638347E+00
 1.0378481E+00 1.2668165E+00 1.8662890E+00
 1.0956656E+00 1.2475202E+00 1.8676374E+00
 1.1534129E+00 1.2271383E+00 1.8676051E+00
 1.2108370E+00 1.2056491E+00 1.8659183E+00
 1.2676588E+00 1.1830584E+00 1.8623203E+00
 1.3235836E+00 1.1593980E+00 1.8565861E+00
 1.3783145E+00 1.1347250E+00 1.8485336E+00
 1.4315666E+00 1.1091216E+00 1.8380311E+00
 1.4830821E+00 1.0826941E+00 1.8249981E+00
 1.5326537E+00 1.0555764E+00 1.8093963E+00
 1.5801565E+00 1.0279383E+00 1.7912056E+00
 1.6255919E+00 1.0000000E+00 1.7703859E+00
 1.6691411E+00 9.7205583E-01 1.7468171E+00
 1.7112041E+00 9.4455021E-01 1.7202328E+00
 6.9822258E-01 1.3287301E+00 1.8578644E+00
 7.5523943E-01 1.3110105E+00 1.8627868E+00
 8.1233174E-01 1.2937316E+00 1.8672193E+00
 8.6959951E-01 1.2763233E+00 1.8711881E+00
 9.2710121E-01 1.2583946E+00 1.8746035E+00
 9.8482373E-01 1.2396922E+00 1.8772922E+00
 1.0426774E+00 1.2200673E+00 1.8790232E+00
 1.1005080E+00 1.1994399E+00 1.8795332E+00
 1.1581082E+00 1.1777764E+00 1.8785470E+00
 1.2152324E+00 1.1550751E+00 1.8757963E+00
 1.2716102E+00 1.1313596E+00 1.8710343E+00
 1.3269600E+00 1.1066763E+00 1.8640491E+00
 1.3810060E+00 1.0810930E+00 1.8546719E+00
 1.4334996E+00 1.0547006E+00 1.8427785E+00
 1.4842450E+00 1.0276174E+00 1.8282828E+00
 1.5331289E+00 1.0000000E+00 1.8111184E+00
 1.5801565E+00 9.7206174E-01 1.7912056E+00
 1.6254888E+00 9.4409674E-01 1.7684080E+00
 1.6694609E+00 9.1652288E-01 1.7424886E+00
 6.9911066E-01 1.2886336E+00 1.8721718E+00
 7.5695160E-01 1.2697422E+00 1.8765420E+00
 8.1476045E-01 1.2512006E+00 1.8804331E+00
 8.7260666E-01 1.2324917E+00 1.8838179E+00
 9.3052998E-01 1.2132474E+00 1.8865743E+00
 9.8850963E-01 1.1932343E+00 1.8885084E+00
 1.0464574E+00 1.1723216E+00 1.8893781E+00
 1.1042228E+00 1.1504489E+00 1.8889160E+00
 1.1616049E+00 1.1276011E+00 1.8868498E+00
 1.2183668E+00 1.1037930E+00 1.8829181E+00
 1.2742513E+00 1.0790616E+00 1.8768853E+00
 1.3289966E+00 1.0534630E+00 1.8685508E+00
 1.3823597E+00 1.0270745E+00 1.8577532E+00
 1.4341464E+00 1.0000000E+00 1.8443658E+00
 1.4842450E+00 9.7238264E-01 1.8282828E+00
 1.5326537E+00 9.4442371E-01 1.8093963E+00
 1.5795004E+00 9.1640649E-01 1.7875652E+00
 1.6250458E+00 8.8871681E-01 1.7625872E+00
 6.9985152E-01 1.2470515E+00 1.8848524E+00
 7.5836977E-01 1.2271299E+00 1.8885217E+00
 8.1674858E-01 1.2074446E+00 1.8917227E+00
 8.7503318E-01 1.1875333E+00 1.8943782E+00
 9.3324671E-01 1.1670644E+00 1.8963337E+00
 9.9136100E-01 1.1458336E+00 1.8973752E+00
 1.0492872E+00 1.1237347E+00 1.8972511E+00
 1.1068791E+00 1.1007279E+00 1.8956927E+00
 1.1639437E+00 1.0768145E+00 1.8924324E+00
 1.2202566E+00 1.0520216E+00 1.8872178E+00
 1.2755790E+00 1.0263953E+00 1.8798230E+00
 1.3296788E+00 1.0000000E+00 1.8700551E+00
 1.3823597E+00 9.7292559E-01 1.8577532E+00
 1.4334996E+00 9.4529948E-01 1.8427785E+00
 1.4830821E+00 9.1730597E-01 1.8249981E+00
 1.5312044E+00 8.8920833E-01 1.8042655E+00
 1.5780630E+00 8.6136139E-01 1.7804038E+00
 7.0047821E-01 1.2041264E+00 1.8957345E+00
 7.5954909E-01 1.1833006E+00 1.8985776E+00
 8.1836042E-01 1.1625914E+00 1.9009558E+00
 8.7694152E-01 1.1415888E+00 1.9027483E+00
 9.3530393E-01 1.1200052E+00 1.9037708E+00
 9.9341525E-01 1.0976713E+00 1.9037920E+00
 1.0511884E+00 1.0745083E+00 1.9025541E+00
 1.1084838E+00 1.0504957E+00 1.8997900E+00
 1.1651199E+00 1.0256478E+00 1.8952384E+00
 1.2208892E+00 1.0000000E+00 1.8886555E+00
 1.2755790E+00 9.7360480E-01 1.8798230E+00
 1.3289966E+00 9.4653705E-01 1.8685508E+00
 1.3810060E+00 9.1890707E-01 1.8546719E+00
 1.4315666E+00 8.9087849E-01 1.8380311E+00
 1.4807456E+00 8.6268827E-01 1.8184719E+00
 1.5286937E+00 8.3465927E-01 1.7958289E+00
 7.0099879E-01 1.1600419E+00 1.9046578E+00
 7.6049665E-01 1.1384366E+00 1.9065676E+00
 8.1960129E-01 1.1168266E+00 1.9080069E+00
 8.7833267E-01 1.0948546E+00 1.9088172E+00
 9.3669702E-01 1.0722808E+00 1.9087886E+00
 9.9466227E-01 1.0489738E+00 1.9076774E+00
 1.0521469E+00 1.0248816E+00 1.9052227E+00
 1.1090215E+00 1.0000000E+00 1.9011611E+00
 1.1651199E+00 9.7435225E-01 1.8952384E+00
 1.2202566E+00 9.4797847E-01 1.8872178E+00
 1.2742513E+00 9.2093849E-01 1.8768853E+00
 1.3269600E+00 8.9332375E-01 1.8640491E+00
 1.3783145E+00 8.6527505E-01 1.8485336E+00
 1.4283481E+00 8.3700026E-01 1.8301699E+00
 1.4771754E+00 8.0878814E-01 1.8087932E+00
 7.0140618E-01 1.1150161E+00 1.9114830E+00
 7.6119669E-01 1.0927601E+00 1.9123696E+00
 8.2045006E-01 1.0703786E+00 1.9127710E+00
 8.7918303E-01 1.0475690E+00 1.9124964E+00
 9.3740240E-01 1.0241407E+00 1.9113163E+00
 9.9508108E-01 1.0000000E+00 1.9089786E+00
 1.0521469E+00 9.7511852E-01 1.9052227E+00
 1.1084838E+00 9.4950440E-01 1.8997900E+00
 1.1639437E+00 9.2318560E-01 1.8924324E+00
 1.2183668E+00 8.9620703E-01 1.8829181E+00
 1.2716101E+00 8.6864044E-01 1.8710343E+00
 1.3235836E+00 8.4060206E-01 1.8565861E+00
 1.3742832E+00 8.1227029E-01 1.8393918E+00
 1.4237894E+00 7.8389813E-01 1.8192804E+00
 7.0168765E-01 1.0692949E+00 1.9160983E+00
 7.6162775E-01 1.0465231E+00 1.9158900E+00
 8.2088203E-01 1.0235073E+00 1.9151727E+00
 8.7946951E-01 1.0000000E+00 1.9137293E+00
 9.3740239E-01 9.7585933E-01 1.9113163E+00
 9.9466226E-01 9.5102624E-01 1.9076774E+00
 1.0511884E+00 9.2549181E-01 1.9025541E+00
 1.1068791E+00 8.9927219E-01 1.8956927E+00
 1.1616048E+00 8.7239894E-01 1.8868498E+00
 1.2152324E+00 8.4492502E-01 1.8757963E+00
 1.2676588E+00 8.1694163E-01 1.8623203E+00
 1.3188471E+00 7.8859702E-01 1.8462267E+00
 1.3688423E+00 7.6010946E-01 1.8273356E+00
 7.0183167E-01 1.0231464E+00 1.9184260E+00
 7.6177343E-01 1.0000000E+00 1.9170701E+00
 8.2088202E-01 9.7649271E-01 1.9151726E+00
 8.7918302E-01 9.5243104E-01 1.9124964E+00
 9.3669701E-01 9.2771926E-01 1.9087886E+00
 9.9341523E-01 9.0232873E-01 1.9037920E+00
 1.0492872E+00 8.7626539E-01 1.8972511E+00
 1.1042227E+00 8.4955115E-01 1.8889160E+00
 1.1581082E+00 8.2222366E-01 1.8785470E+00
 1.2108370E+00 7.9435093E-01 1.8659183E+00
 1.2623482E+00 7.6605144E-01 1.8508215E+00
 1.3126530E+00 7.3750980E-01 1.8330675E+00
 7.0183167E-01 9.7685366E-01 1.9184260E+00
 7.6162774E-01 9.5347698E-01 1.9158900E+00
 8.2045004E-01 9.2962147E-01 1.9127710E+00
 8.7833265E-01 9.0514543E-01 1.9088172E+00
 9.3530391E-01 8.7999483E-01 1.9037707E+00
 9.9136098E-01 8.5416651E-01 1.8973752E+00
 1.0464574E+00 8.2767851E-01 1.8893781E+00
 1.1005080E+00 8.0056014E-01 1.8795332E+00
 1.1534129E+00 7.7286176E-01 1.8676051E+00
 1.2050963E+00 7.4467518E-01 1.8533744E+00
 1.2555439E+00 7.1615318E-01 1.8366423E+00
 7.0168764E-01 9.3070515E-01 1.9160983E+00
 7.6119666E-01 9.0724000E-01 1.9123695E+00
 8.1960126E-01 8.8317350E-01 1.9080069E+00
 8.7694149E-01 8.5841123E-01 1.9027483E+00
 9.3324668E-01 8.3293565E-01 1.8963337E+00
 9.8850960E-01 8.0676579E-01 1.8885084E+00
 1.0426774E+00 7.7993281E-01 1.8790232E+00
 1.0956656E+00 7.5247985E-01 1.8676374E+00
 1.1473945E+00 7.2447988E-01 1.8541235E+00
 1.1978332E+00 6.9605850E-01 1.8382747E+00
 7.0140615E-01 8.8498398E-01 1.9114829E+00
 7.6049661E-01 8.6156343E-01 1.9065676E+00
 8.1836039E-01 8.3740869E-01 1.9009557E+00
 8.7503314E-01 8.1246683E-01 1.8943782E+00
 9.3052994E-01 7.8675269E-01 1.8865743E+00
 9.8482369E-01 7.6030791E-01 1.8772922E+00
 1.0378481E+00 7.3318358E-01 1.8662890E+00
 1.0895285E+00 7.0544840E-01 1.8533335E+00
 1.1398297E+00 6.7721123E-01 1.8382138E+00
 7.0099876E-01 8.3995818E-01 1.9046578E+00
 7.5954905E-01 8.1669953E-01 1.8985776E+00
 8.1674854E-01 7.9255553E-01 1.8917227E+00
 8.7260661E-01 7.6750843E-01 1.8838178E+00
 9.2710117E-01 7.4160551E-01 1.8746035E+00
 9.8017442E-01 7.1491946E-01 1.8638347E+00
 1.0317586E+00 6.8753595E-01 1.8512807E+00
 1.0818242E+00 6.5956668E-01 1.8367296E+00
 7.0047817E-01 7.9587366E-01 1.8957344E+00
 7.5836972E-01 7.7287016E-01 1.8885217E+00
 8.1476041E-01 7.4879945E-01 1.8804331E+00
 8.6959946E-01 7.2367677E-01 1.8711881E+00
 9.2280716E-01 6.9759177E-01 1.8605323E+00
 9.7430818E-01 6.7066913E-01 1.8482372E+00
 1.0240831E+00 6.4305400E-01 1.8340978E+00
 6.9985148E-01 7.5294857E-01 1.8848523E+00
 7.5695156E-01 7.3025790E-01 1.8765419E+00
 8.1233169E-01 7.0626856E-01 1.8672193E+00
 8.6584155E-01 6.8104069E-01 1.8566017E+00
 9.1735405E-01 6.5473955E-01 1.8444544E+00
 9.6684089E-01 6.2757941E-01 1.8305855E+00
 6.9911063E-01 7.1136653E-01 1.8721717E+00
 7.5523939E-01 6.8898960E-01 1.8627867E+00
 8.0929862E-01 6.6501578E-01 1.8522013E+00
 8.6101492E-01 6.3959206E-01 1.8401454E+00
 9.1029214E-01 6.1302656E-01 1.8264380E+00
 6.9822256E-01 6.7127003E-01 1.8578643E+00
 7.5309850E-01 6.4911609E-01 1.8473917E+00
 8.0532675E-01 6.2499316E-01 1.8354598E+00
 8.5458949E-01 5.9925149E-01 1.8218645E+00
 6.9710893E-01 6.3274137E-01 1.8420972E+00
 7.5026749E-01 6.1060459E-01 1.8304611E+00
 7.9983500E-01 5.8607897E-01 1.8170274E+00
 6.9561540E-01 5.9577821E-01 1.8250124E+00
 7.4606279E-01 5.7324657E-01 1.8120039E+00
 6.9342115E-01 5.6038851E-01 1.8067683E+00
 6.1215657E-01 1.5078777E+00 1.7687700E+00
 5.7978388E-01 1.5340719E+00 1.7523696E+00
 5.4582902E-01 1.5608673E+00 1.7344787E+00
 5.1050233E-01 1.5880658E+00 1.7151147E+00
 4.7400191E-01 1.6155613E+00 1.6942292E+00
 4.3661208E-01 1.6432512E+00 1.6717378E+00
 3.9865262E-01 1.6710178E+00 1.6475300E+00
 3.6050428E-01 1.6986904E+00 1.6214935E+00
 3.2258475E-01 1.7260445E+00 1.5935207E+00
 2.8530528E-01 1.7528045E+00 1.5635246E+00
 2.4902976E-01 1.7786571E+00 1.5314546E+00
 2.1404633E-01 1.8032711E+00 1.4973104E+00
 1.8055998E-01 1.8263195E+00 1.4611528E+00
 1.4870362E-01 1.8475000E+00 1.4231064E+00
 1.1855437E-01 1.8665523E+00 1.3833553E+00
 9.0154184E-02 1.8832708E+00 1.3421365E+00
 6.3527574E-02 1.8975090E+00 1.2997295E+00
 3.8690306E-02 1.9091847E+00 1.2564429E+00
 1.5652860E-02 1.9182788E+00 1.2125966E+00
 -5.5798705E-03 1.9248298E+00 1.1685176E+00
 -2.5009455E-02 1.9289229E+00 1.1245653E+00
 -4.2666218E-02 1.9306778E+00 1.0811348E+00
 -5.8550667E-02 1.9302589E+00 1.0389037E+00
 -5.2280161E-01 1.0742003E+00 1.6270658E+00
 -5.2714271E-01 1.1223522E+00 1.6138443E+00
 -5.2974451E-01 1.1711860E+00 1.5985834E+00
 -5.3021539E-01 1.2207533E+00 1.5815092E+00
 -5.2829789E-01 1.2709696E+00 1.5626861E+00
 -5.2377697E-01 1.3216544E+00 1.5421509E+00
 -5.1647549E-01 1.3725541E+00 1.5199358E+00
 -5.0625691E-01 1.4233595E+00 1.4960794E+00
 -4.9302824E-01 1.4737157E+00 1.4706378E+00
 -4.7674304E-01 1.5232349E+00 1.4436935E+00
 -4.5740499E-01 1.5715073E+00 1.4153603E+00
 -4.3507192E-01 1.6181139E+00 1.3857865E+00
 -4.0985775E-01 1.6626391E+00 1.3551530E+00
 -3.8193422E-01 1.7046839E+00 1.3236713E+00
 -3.5152752E-01 1.7438805E+00 1.2915771E+00
 -3.1891439E-01 1.7799042E+00 1.2591261E+00
 -2.8441218E-01 1.8124884E+00 1.2265831E+00
 -2.4837104E-01 1.8414331E+00 1.1942130E+00
 -2.1115368E-01 1.8666195E+00 1.1622612E+00
 -1.7312829E-01 1.8880137E+00 1.1309296E+00
 -1.3465772E-01 1.9056675E+00 1.1003106E+00
 -9.6205748E-02 1.9196963E+00 1.0702409E+00
 -4.9345046E-01 1.1050252E+00 1.6587902E+00
 -4.9603005E-01 1.1557739E+00 1.6456376E+00
 -4.9695488E-01 1.2064350E+00 1.6301662E+00
 -4.9574792E-01 1.2573373E+00 1.6127009E+00
 -4.9209958E-01 1.3085155E+00 1.5933707E+00
 -4.8577695E-01 1.3598487E+00 1.5722421E+00
 -4.7661022E-01 1.4111028E+00 1.5493573E+00
 -4.6448710E-01 1.4619630E+00 1.5247586E+00
 -4.4935010E-01 1.5120594E+00 1.4985058E+00
 -4.3119443E-01 1.5609864E+00 1.4706886E+00
 -4.1006869E-01 1.6083209E+00 1.4414341E+00
 -3.8607596E-01 1.6536380E+00 1.4109078E+00
 -3.5937450E-01 1.6965270E+00 1.3793118E+00
 -3.3017377E-01 1.7366072E+00 1.3468786E+00
 -2.9873124E-01 1.7735424E+00 1.3138638E+00
 -2.6534103E-01 1.8070561E+00 1.2805308E+00
 -2.3032669E-01 1.8369421E+00 1.2471353E+00
 -1.9402133E-01 1.8630773E+00 1.2138931E+00
 -1.5675036E-01 1.8854307E+00 1.1809354E+00
 -1.1883137E-01 1.9040560E+00 1.1482394E+00
 -8.0600411E-02 1.9190862E+00 1.1153901E+00
 -4.6062326E-01 1.1357864E+00 1.6898248E+00
 -4.6151701E-01 1.1883210E+00 1.6764337E+00
 -4.6072215E-01 1.2404859E+00 1.6605926E+00
 -4.5776993E-01 1.2925410E+00 1.6426123E+00
 -4.5232522E-01 1.3445463E+00 1.6226515E+00
 -4.4415146E-01 1.3963904E+00 1.6007936E+00
 -4.3309515E-01 1.4478372E+00 1.5770892E+00
 -4.1907530E-01 1.4985604E+00 1.5515861E+00
 -4.0207365E-01 1.5481749E+00 1.5243533E+00
 -3.8212932E-01 1.5962631E+00 1.4954950E+00
 -3.5933607E-01 1.6423961E+00 1.4651574E+00
 -3.3383984E-01 1.6861542E+00 1.4335285E+00
 -3.0583610E-01 1.7271441E+00 1.4008336E+00
 -2.7556377E-01 1.7650184E+00 1.3673247E+00
 -2.4329659E-01 1.7994883E+00 1.3332660E+00
 -2.0933277E-01 1.8303410E+00 1.2989085E+00
 -1.7398311E-01 1.8574464E+00 1.2644575E+00
 -1.3755199E-01 1.8807702E+00 1.2300200E+00
 -1.0033840E-01 1.9003658E+00 1.1955353E+00
 -6.2658243E-02 1.9163614E+00 1.1606578E+00
 -4.2432378E-01 1.1666649E+00 1.7196011E+00
 -4.2355542E-01 1.2204513E+00 1.7057435E+00
 -4.2102588E-01 1.2737115E+00 1.6893569E+00
 -4.1628792E-01 1.3266203E+00 1.6707197E+00
 -4.0901157E-01 1.3791920E+00 1.6499915E+00
 -3.9897349E-01 1.4312920E+00 1.6272618E+00
 -3.8604774E-01 1.4826627E+00 1.6025880E+00
 -3.7019091E-01 1.5329601E+00 1.5760286E+00
 -3.5142775E-01 1.5817861E+00 1.5476680E+00
 -3.2984130E-01 1.6287172E+00 1.5176314E+00
 -3.0556664E-01 1.6733304E+00 1.4860892E+00
 -2.7878627E-01 1.7152239E+00 1.4532552E+00
 -2.4972186E-01 1.7540388E+00 1.4193757E+00
 -2.1862831E-01 1.7894748E+00 1.3847152E+00
 -1.8578137E-01 1.8213089E+00 1.3495274E+00
 -1.5147218E-01 1.8494028E+00 1.3140236E+00
 -1.1599121E-01 1.8737155E+00 1.2783177E+00
 -7.9629646E-02 1.8942976E+00 1.2423763E+00