# TIME = 14.200000
variables = x, y, z
zone N=5762 E=11520 F=FEPOINT ET=TRIANGLE
 1.0721715E+00 1.4838954E+00 1.7828260E+00
 1.0721716E+00 1.4838952E+00 2.1717417E-01
 1.0721716E+00 5.1610486E-01 1.7828258E+00
 1.0721716E+00 5.1610466E-01 2.1717398E-01
 -1.0959529E-01 1.0000000E+00 1.6075874E+00
 2.2824123E+00 1.0000000E+00 1.6144082E+00
 -1.0959530E-01 1.0000000E+00 3.9241244E-01
 2.2824122E+00 1.0000000E+00 3.8559179E-01
 3.5789144E-01 1.9276205E+00 9.9999962E-01
 3.5789147E-01 7.2379639E-02 1.0000003E+00
 1.7698211E+00 1.8676693E+00 9.9999995E-01
 1.7698211E+00 1.3233074E-01 9.9999999E-01
 1.0245719E+00 1.4756924E+00 1.7899525E+00
 9.7160090E-01 1.4666501E+00 1.7979994E+00
 9.1568688E-01 1.4573278E+00 1.8066796E+00
 8.5739680E-01 1.4477277E+00 1.8160173E+00
 7.9739915E-01 1.4377554E+00 1.8259491E+00
 7.3660172E-01 1.4271961E+00 1.8362486E+00
 6.7595874E-01 1.4157415E+00 1.8464797E+00
 6.1620994E-01 1.4030338E+00 1.8560195E+00
 5.5770370E-01 1.3887227E+00 1.8641374E+00
 5.0044036E-01 1.3725123E+00 1.8700806E+00
 4.4424620E-01 1.3541930E+00 1.8731424E+00
 3.8896676E-01 1.3336625E+00 1.8727202E+00
 3.3460199E-01 1.3109400E+00 1.8683694E+00
 2.8135215E-01 1.2861668E+00 1.8598440E+00
 2.2958029E-01 1.2595921E+00 1.8471116E+00
 1.7973517E-01 1.2315475E+00 1.8303405E+00
 1.3227198E-01 1.2024142E+00 1.8098645E+00
 8.7591479E-02 1.1725886E+00 1.7861356E+00
 4.6002603E-02 1.1424545E+00 1.7596738E+00
 7.7052092E-03 1.1123636E+00 1.7310215E+00
 -2.7182373E-02 1.0826425E+00 1.7007363E+00
 -5.8595804E-02 1.0535947E+00 1.6693896E+00
 -8.6431953E-02 1.0255869E+00 1.6376755E+00
 1.0190124E+00 5.5882357E-01 1.8099947E+00
 9.6410639E-01 5.6996737E-01 1.8187222E+00
 9.0686539E-01 5.8090345E-01 1.8277533E+00
 8.4769425E-01 5.9195121E-01 1.8372735E+00
 7.8718039E-01 6.0340090E-01 1.8472876E+00
 7.2620914E-01 6.1554457E-01 1.8575542E+00
 6.6570037E-01 6.2871604E-01 1.8675971E+00
 6.0630786E-01 6.4324907E-01 1.8767550E+00
 5.4829063E-01 6.5943684E-01 1.8842754E+00
 4.9158966E-01 6.7750049E-01 1.8894032E+00
 4.3601373E-01 6.9757093E-01 1.8914492E+00
 3.8142301E-01 7.1967582E-01 1.8898461E+00
 3.2784378E-01 7.4373327E-01 1.8841988E+00
 2.7549479E-01 7.6955676E-01 1.8743170E+00
 2.2474049E-01 7.9687245E-01 1.8602235E+00
 1.7601313E-01 8.2534492E-01 1.8421339E+00
 1.2973382E-01 8.5460477E-01 1.8204127E+00
 8.6251944E-02 8.8427562E-01 1.7955186E+00
 4.5811652E-02 9.1399422E-01 1.7679503E+00
 8.5298983E-03 9.4342047E-01 1.7381870E+00
 -2.5624175E-02 9.7223166E-01 1.7066226E+00
 -5.6860578E-02 1.0000000E+00 1.6734828E+00
 1.0167329E+00 5.9440483E-01 1.8284990E+00
 9.5959917E-01 6.0760376E-01 1.8376685E+00
 9.0082428E-01 6.2021151E-01 1.8469034E+00
 8.4052552E-01 6.3284156E-01 1.8565211E+00
 7.7930686E-01 6.4588621E-01 1.8665230E+00
 7.1801750E-01 6.5971354E-01 1.8766493E+00
 6.5751329E-01 6.7466536E-01 1.8863826E+00
 5.9835382E-01 6.9104323E-01 1.8950290E+00
 5.4071096E-01 7.0908119E-01 1.9018213E+00
 4.8447168E-01 7.2893163E-01 1.9060098E+00
 4.2942961E-01 7.5065627E-01 1.9069284E+00
 3.7545575E-01 7.7422038E-01 1.9040490E+00
 3.2259439E-01 7.9949234E-01 1.8970257E+00
 2.7107181E-01 8.2625302E-01 1.8857198E+00
 2.2124033E-01 8.5421502E-01 1.8701993E+00
 1.7349838E-01 8.8304733E-01 1.8507094E+00
 1.2821000E-01 9.1239672E-01 1.8276176E+00
 8.5637896E-02 9.4190626E-01 1.8013435E+00
 4.5899500E-02 9.7122590E-01 1.7722821E+00
 8.9334120E-03 1.0000000E+00 1.7407175E+00
 -2.5624159E-02 1.0277683E+00 1.7066226E+00
 1.0151386E+00 6.3156313E-01 1.8457749E+00
 9.5650088E-01 6.4643910E-01 1.8549694E+00
 8.9637999E-01 6.6070932E-01 1.8642219E+00
 8.3506584E-01 6.7496394E-01 1.8737812E+00
 7.7316749E-01 6.8967681E-01 1.8836344E+00
 7.1154643E-01 7.0524209E-01 1.8934778E+00
 6.5100280E-01 7.2199615E-01 1.9027536E+00
 5.9201535E-01 7.4020042E-01 1.9107395E+00
 5.3468177E-01 7.6003260E-01 1.9166610E+00
 4.7884541E-01 7.8158314E-01 1.9197802E+00
 4.2428872E-01 8.0485412E-01 1.9194588E+00
 3.7089010E-01 8.2975905E-01 1.9152101E+00
 3.1870276E-01 8.5612790E-01 1.9067344E+00
 2.6794721E-01 8.8371912E-01 1.8939367E+00
 2.1894537E-01 9.1223848E-01 1.8769149E+00
 1.7203756E-01 9.4135874E-01 1.8559183E+00
 1.2749869E-01 9.7073298E-01 1.8312781E+00
 8.5468382E-02 1.0000000E+00 1.8033231E+00
 4.5899515E-02 1.0287741E+00 1.7722821E+00
 8.5299289E-03 1.0565795E+00 1.7381870E+00
 1.0139043E+00 6.7028137E-01 1.8616880E+00
 9.5411018E-01 6.8665037E-01 1.8706604E+00
 8.9294086E-01 7.0248432E-01 1.8797134E+00
 8.3077960E-01 7.1835779E-01 1.8890404E+00
 7.6831343E-01 7.3474884E-01 1.8985758E+00
 7.0641466E-01 7.5205545E-01 1.9079688E+00
 6.4584762E-01 7.7058820E-01 1.9166196E+00
 5.8702538E-01 7.9056453E-01 1.9237843E+00
 5.2998691E-01 8.1210748E-01 1.9286872E+00
 4.7454225E-01 8.3525152E-01 1.9306085E+00
 4.2046516E-01 8.5994745E-01 1.9289413E+00
 3.6763625E-01 8.8606707E-01 1.9232395E+00
 3.1610581E-01 9.1341117E-01 1.9132443E+00
 2.6607152E-01 9.4172165E-01 1.8988925E+00
 2.1780293E-01 9.7069630E-01 1.8802912E+00
 1.7155735E-01 1.0000000E+00 1.8576654E+00
 1.2749871E-01 1.0292670E+00 1.8312781E+00
 8.5637926E-02 1.0580937E+00 1.8013434E+00
 4.5811697E-02 1.0860058E+00 1.7679502E+00
 1.0128888E+00 7.1055417E-01 1.8761074E+00
 9.5217462E-01 7.2825948E-01 1.8846562E+00
 8.9017378E-01 7.4556395E-01 1.8933195E+00
 8.2734783E-01 7.6300300E-01 1.9022301E+00
 7.6444726E-01 7.8103870E-01 1.9112679E+00
 7.0236384E-01 8.0004502E-01 1.9200305E+00
 6.4183185E-01 8.2029504E-01 1.9278819E+00
 5.8321302E-01 8.4195700E-01 1.9340628E+00
 5.2650052E-01 8.6510138E-01 1.9378037E+00
 4.7147849E-01 8.8971289E-01 1.9384076E+00
 4.1791159E-01 9.1569964E-01 1.9353022E+00
 3.6567468E-01 9.4290042E-01 1.9280783E+00
 3.1480056E-01 9.7109234E-01 1.9165093E+00
 2.6544433E-01 1.0000000E+00 1.9005482E+00
 2.1780294E-01 1.0293037E+00 1.8802912E+00
 1.7203759E-01 1.0586413E+00 1.8559182E+00
 1.2821005E-01 1.0876033E+00 1.8276176E+00
 8.6252004E-02 1.1157244E+00 1.7955186E+00
 1.0120288E+00 7.5229616E-01 1.8888739E+00
 9.5056935E-01 7.7120973E-01 1.8968317E+00
 8.8791609E-01 7.8988488E-01 1.9049315E+00
 8.2459441E-01 8.0881407E-01 1.9132481E+00
 7.6140471E-01 8.2842677E-01 1.9216071E+00
 6.9925164E-01 8.4905746E-01 1.9295595E+00
 6.3884319E-01 8.7093105E-01 1.9364399E+00
 5.8049878E-01 8.9416443E-01 1.9414821E+00
 5.2417495E-01 9.1877931E-01 1.9439298E+00
 4.6963411E-01 9.4471825E-01 1.9431132E+00
 4.1662879E-01 9.7185473E-01 1.9384941E+00
 3.6501790E-01 1.0000000E+00 1.9296945E+00
 3.1480057E-01 1.0289077E+00 1.9165093E+00
 2.6607155E-01 1.0582784E+00 1.8988925E+00
 2.1894542E-01 1.0877615E+00 1.8769149E+00
 1.7349843E-01 1.1169527E+00 1.8507094E+00
 1.2973389E-01 1.1453952E+00 1.8204126E+00
 1.0113017E+00 7.9536441E-01 1.8998208E+00
 9.4924278E-01 8.1537323E-01 1.9070449E+00
 8.8609987E-01 8.3531508E-01 1.9144229E+00
 8.2244633E-01 8.5564200E-01 1.9219773E+00
 7.5911829E-01 8.7673910E-01 1.9294837E+00
 6.9702417E-01 8.9889048E-01 1.9364540E+00
 6.3684543E-01 9.2226770E-01 1.9422031E+00
 5.7886470E-01 9.4693746E-01 1.9459667E+00
 5.2300774E-01 9.7287899E-01 1.9470079E+00
 4.6901717E-01 1.0000000E+00 1.9446862E+00
 4.1662880E-01 1.0281453E+00 1.9384941E+00
 3.6567471E-01 1.0570996E+00 1.9280782E+00
 3.1610586E-01 1.0865888E+00 1.9132443E+00
 2.6794726E-01 1.1162809E+00 1.8939367E+00
 2.2124041E-01 1.1457850E+00 1.8701992E+00
 1.7601322E-01 1.1746551E+00 1.8421338E+00
 1.0107035E+00 8.3957743E-01 1.9087921E+00
 9.4818654E-01 8.6056890E-01 1.9151566E+00
 8.8471304E-01 8.8166815E-01 1.9216697E+00
 8.2089163E-01 9.0328456E-01 1.9283059E+00
 7.5757931E-01 9.2575172E-01 1.9347981E+00
 6.9567828E-01 9.4929760E-01 1.9406286E+00
 6.3584145E-01 9.7404000E-01 1.9451030E+00
 5.7831812E-01 1.0000000E+00 1.9474672E+00
 5.2300775E-01 1.0271211E+00 1.9470079E+00
 4.6963413E-01 1.0552818E+00 1.9431132E+00
 4.1791163E-01 1.0843004E+00 1.9353022E+00
 3.6763630E-01 1.1139330E+00 1.9232395E+00
 3.1870283E-01 1.1438721E+00 1.9067343E+00
 2.7107190E-01 1.1737470E+00 1.8857197E+00
 2.2474060E-01 1.2031275E+00 1.8602234E+00
 1.0102413E+00 8.8472024E-01 1.9156512E+00
 9.4741263E-01 9.0657669E-01 1.9210457E+00
 8.8377037E-01 9.2871399E-01 1.9265656E+00
 8.1994590E-01 9.5149609E-01 1.9321428E+00
 7.5680286E-01 9.7520115E-01 1.9374753E+00
 6.9522731E-01 1.0000001E+00 1.9420267E+00
 6.3584146E-01 1.0259601E+00 1.9451030E+00
 5.7886472E-01 1.0530626E+00 1.9459667E+00
 5.2417499E-01 1.0812208E+00 1.9439298E+00
 4.7147854E-01 1.1102872E+00 1.9384076E+00
 4.2046523E-01 1.1400526E+00 1.9289413E+00
 3.7089018E-01 1.1702410E+00 1.9152101E+00
 3.2259449E-01 1.2005077E+00 1.8970257E+00
 2.7549491E-01 1.2304432E+00 1.8743169E+00
 1.0099254E+00 9.3055022E-01 1.9202882E+00
 9.4693879E-01 9.5314517E-01 1.9246186E+00
 8.8329237E-01 9.7618949E-01 1.9290338E+00
 8.1962804E-01 1.0000000E+00 1.9334287E+00
 7.5680287E-01 1.0247989E+00 1.9374753E+00
 6.9567829E-01 1.0507025E+00 1.9406286E+00
 6.3684545E-01 1.0777324E+00 1.9422031E+00
 5.8049881E-01 1.1058357E+00 1.9414821E+00
 5.2650057E-01 1.1348987E+00 1.9378037E+00
 4.7454233E-01 1.1647485E+00 1.9306085E+00
 4.2428882E-01 1.1951459E+00 1.9194588E+00
 3.7545586E-01 1.2257796E+00 1.9040490E+00
 3.2784392E-01 1.2562667E+00 1.8841988E+00
 1.0097648E+00 9.7680257E-01 1.9226265E+00
 9.4677910E-01 1.0000000E+00 1.9258164E+00
 8.8329237E-01 1.0238106E+00 1.9290338E+00
 8.1994590E-01 1.0485040E+00 1.9321429E+00
 7.5757932E-01 1.0742484E+00 1.9347981E+00
 6.9702419E-01 1.1011096E+00 1.9364540E+00
 6.3884323E-01 1.1290691E+00 1.9364400E+00
 5.8321307E-01 1.1580431E+00 1.9340628E+00
 5.2998698E-01 1.1878926E+00 1.9286873E+00
 4.7884551E-01 1.2184169E+00 1.9197802E+00
 4.2942974E-01 1.2493438E+00 1.9069283E+00
 3.8142316E-01 1.2803242E+00 1.8898461E+00
 1.0097648E+00 1.0231975E+00 1.9226265E+00
 9.4693880E-01 1.0468549E+00 1.9246187E+00
 8.8377037E-01 1.0712861E+00 1.9265656E+00
 8.2089164E-01 1.0967155E+00 1.9283060E+00
 7.5911830E-01 1.1232610E+00 1.9294838E+00
 6.9925166E-01 1.1509427E+00 1.9295596E+00
 6.4183189E-01 1.1797051E+00 1.9278820E+00
 5.8702544E-01 1.2094356E+00 1.9237843E+00
 5.3468187E-01 1.2399675E+00 1.9166610E+00
 4.8447181E-01 1.2710684E+00 1.9060098E+00
 4.3601389E-01 1.3024291E+00 1.8914491E+00
 1.0099254E+00 1.0694498E+00 1.9202882E+00
 9.4741264E-01 1.0934234E+00 1.9210457E+00
 8.8471305E-01 1.1183319E+00 1.9216697E+00
 8.2244634E-01 1.1443581E+00 1.9219774E+00
 7.6140473E-01 1.1715734E+00 1.9216072E+00
 7.0236387E-01 1.1999551E+00 1.9200306E+00
 6.4584767E-01 1.2294119E+00 1.9166197E+00
 5.9201543E-01 1.2597997E+00 1.9107395E+00
 5.4071108E-01 1.2909189E+00 1.9018214E+00
 4.9158982E-01 1.3224996E+00 1.8894032E+00
 1.0102413E+00 1.1152798E+00 1.9156512E+00
 9.4818655E-01 1.1394312E+00 1.9151566E+00
 8.8609988E-01 1.1646850E+00 1.9144230E+00
 8.2459442E-01 1.1911861E+00 1.9132482E+00
 7.6444727E-01 1.2189614E+00 1.9112680E+00
 7.0641468E-01 1.2479447E+00 1.9079689E+00
 6.5100285E-01 1.2780040E+00 1.9027536E+00
 5.9835392E-01 1.3089569E+00 1.8950290E+00
 5.4829078E-01 1.3405633E+00 1.8842754E+00
 1.0107036E+00 1.1604226E+00 1.9087922E+00
 9.4924279E-01 1.1846269E+00 1.9070450E+00
 8.8791609E-01 1.2101152E+00 1.9049316E+00
 8.2734782E-01 1.2369972E+00 1.9022302E+00
 7.6831343E-01 1.2652513E+00 1.8985759E+00
 7.1154646E-01 1.2947581E+00 1.8934779E+00
 6.5751335E-01 1.3253348E+00 1.8863827E+00
 6.0630797E-01 1.3567511E+00 1.8767550E+00
 1.0113017E+00 1.2046357E+00 1.8998209E+00
 9.5056935E-01 1.2287904E+00 1.8968318E+00
 8.9017376E-01 1.2544362E+00 1.8933196E+00
 8.3077959E-01 1.2816424E+00 1.8890404E+00
 7.7316748E-01 1.3103234E+00 1.8836345E+00
 7.1801753E-01 1.3402866E+00 1.8766494E+00
 6.6570044E-01 1.3712841E+00 1.8675972E+00
 1.0120288E+00 1.2477040E+00 1.8888740E+00
 9.5217461E-01 1.2717407E+00 1.8846562E+00
 8.9294083E-01 1.2975159E+00 1.8797135E+00
 8.3506581E-01 1.3250363E+00 1.8737813E+00
 7.7930685E-01 1.3541140E+00 1.8665231E+00
 7.2620916E-01 1.3844556E+00 1.8575543E+00
 1.0128888E+00 1.2894460E+00 1.8761075E+00
 9.5411015E-01 1.3133498E+00 1.8706605E+00
 8.9637994E-01 1.3392909E+00 1.8642220E+00
 8.4052547E-01 1.3671586E+00 1.8565213E+00
 7.8718037E-01 1.3965993E+00 1.8472877E+00
 1.0139042E+00 1.3297188E+00 1.8616881E+00
 9.5650084E-01 1.3535611E+00 1.8549695E+00
 9.0082423E-01 1.3797887E+00 1.8469035E+00
 8.4769419E-01 1.4080490E+00 1.8372737E+00
 1.0151386E+00 1.3684371E+00 1.8457750E+00
 9.5959912E-01 1.3923964E+00 1.8376686E+00
 9.0686532E-01 1.4190968E+00 1.8277535E+00
 1.0167329E+00 1.4055954E+00 1.8284992E+00
 9.6410632E-01 1.4300329E+00 1.8187223E+00
 1.0190124E+00 1.4411766E+00 1.8099948E+00
 1.0721698E+00 1.4541508E+00 1.8004820E+00
 1.0721735E+00 1.4204502E+00 1.8187257E+00
 1.0721517E+00 1.3848164E+00 1.8361023E+00
 1.0721150E+00 1.3473276E+00 1.8523878E+00
 1.0720670E+00 1.3081284E+00 1.8673576E+00
 1.0720150E+00 1.2673639E+00 1.8808056E+00
 1.0719653E+00 1.2251740E+00 1.8925506E+00
 1.0719231E+00 1.1817351E+00 1.9024227E+00
 1.0718905E+00 1.1372550E+00 1.9102713E+00
 1.0718681E+00 1.0919664E+00 1.9159717E+00
 1.0718552E+00 1.0461240E+00 1.9194308E+00
 1.0718509E+00 1.0000000E+00 1.9205903E+00
 1.0718552E+00 9.5387602E-01 1.9194307E+00
 1.0718681E+00 9.0803365E-01 1.9159717E+00
 1.0718905E+00 8.6274502E-01 1.9102712E+00
 1.0719230E+00 8.1826495E-01 1.9024226E+00
 1.0719653E+00 7.7482610E-01 1.8925505E+00
 1.0720150E+00 7.3263619E-01 1.8808056E+00
 1.0720670E+00 6.9187176E-01 1.8673575E+00
 1.0721150E+00 6.5267256E-01 1.8523877E+00
 1.0721517E+00 6.1518377E-01 1.8361022E+00
 1.0721736E+00 5.7955002E-01 1.8187256E+00
 1.0721699E+00 5.4584942E-01 1.8004819E+00
 1.1192766E+00 5.2597043E-01 1.7871752E+00
 1.1705601E+00 5.3685153E-01 1.7919744E+00
 1.2235466E+00 5.4819303E-01 1.7968859E+00
 1.2778425E+00 5.6006327E-01 1.8017901E+00
 1.3332596E+00 5.7255896E-01 1.8065335E+00
 1.3896304E+00 5.8580344E-01 1.8109377E+00
 1.4467979E+00 5.9992461E-01 1.8147938E+00
 1.5045684E+00 6.1504568E-01 1.8178650E+00
 1.5627143E+00 6.3128060E-01 1.8198937E+00
 1.6209773E+00 6.4872763E-01 1.8206112E+00
 1.6790750E+00 6.6746274E-01 1.8197495E+00
 1.7367065E+00 6.8753282E-01 1.8170542E+00
 1.7935591E+00 7.0894960E-01 1.8122986E+00
 1.8493123E+00 7.3168652E-01 1.8052974E+00
 1.9036436E+00 7.5567755E-01 1.7959180E+00
 1.9562378E+00 7.8081870E-01 1.7840881E+00
 2.0067930E+00 8.0697173E-01 1.7697999E+00
 2.0550336E+00 8.3397162E-01 1.7531090E+00
 2.1007149E+00 8.6163356E-01 1.7341318E+00
 2.1436311E+00 8.8975837E-01 1.7130364E+00
 2.1835933E+00 9.1811253E-01 1.6900517E+00
 2.2204210E+00 9.4641494E-01 1.6654693E+00
 2.2538522E+00 9.7423700E-01 1.6397351E+00
 1.1246917E+00 1.4394662E+00 1.8068122E+00
 1.1776586E+00 1.4265747E+00 1.8120541E+00
 1.2317058E+00 1.4137175E+00 1.8170794E+00
 1.2866729E+00 1.4005308E+00 1.8219109E+00
 1.3425224E+00 1.3867522E+00 1.8264701E+00
 1.3991532E+00 1.3722061E+00 1.8305948E+00
 1.4564170E+00 1.3567471E+00 1.8340775E+00
 1.5141257E+00 1.3402576E+00 1.8366756E+00
 1.5720524E+00 1.3226429E+00 1.8381252E+00
 1.6299401E+00 1.3038317E+00 1.8381544E+00
 1.6875082E+00 1.2837783E+00 1.8364969E+00
 1.7444588E+00 1.2624668E+00 1.8329066E+00
 1.8004848E+00 1.2399137E+00 1.8271714E+00
 1.8552737E+00 1.2161700E+00 1.8191256E+00
 1.9085160E+00 1.1913196E+00 1.8086598E+00
 1.9599132E+00 1.1654793E+00 1.7957257E+00
 2.0091907E+00 1.1387958E+00 1.7803343E+00
 2.0561155E+00 1.1114440E+00 1.7625481E+00
 2.1005079E+00 1.0836239E+00 1.7424693E+00
 2.1422605E+00 1.0555636E+00 1.7202165E+00
 2.1813822E+00 1.0275349E+00 1.6958767E+00
 2.2180717E+00 1.0000000E+00 1.6694296E+00
 1.1268820E+00 1.4039836E+00 1.8250943E+00
 1.1818703E+00 1.3891230E+00 1.8305455E+00
 1.2372059E+00 1.3747118E+00 1.8355414E+00
 1.2931023E+00 1.3601034E+00 1.8402164E+00
 1.3495791E+00 1.3449607E+00 1.8445055E+00
 1.4066031E+00 1.3290491E+00 1.8482599E+00
 1.4640606E+00 1.3122111E+00 1.8512691E+00
 1.5217824E+00 1.2943355E+00 1.8532853E+00
 1.5795539E+00 1.2753467E+00 1.8540402E+00
 1.6371257E+00 1.2551982E+00 1.8532615E+00
 1.6942233E+00 1.2338708E+00 1.8506883E+00
 1.7505553E+00 1.2113737E+00 1.8460852E+00
 1.8058235E+00 1.1877452E+00 1.8392557E+00
 1.8597300E+00 1.1630529E+00 1.8300525E+00
 1.9119883E+00 1.1373923E+00 1.8183838E+00
 1.9623359E+00 1.1108869E+00 1.8042124E+00
 2.0105558E+00 1.0836893E+00 1.7875456E+00
 2.0565066E+00 1.0559841E+00 1.7684125E+00
 2.1001580E+00 1.0279933E+00 1.7468293E+00
 2.1416328E+00 1.0000000E+00 1.7227453E+00
 2.1813822E+00 9.7246514E-01 1.6958767E+00
 1.1283701E+00 1.3669407E+00 1.8422014E+00
 1.1847039E+00 1.3505350E+00 1.8474931E+00
 1.2411826E+00 1.3346161E+00 1.8522955E+00
 1.2979303E+00 1.3185874E+00 1.8566806E+00
 1.3550254E+00 1.3020499E+00 1.8605869E+00
 1.4124502E+00 1.2847514E+00 1.8638571E+00
 1.4701159E+00 1.2665284E+00 1.8662748E+00
 1.5278686E+00 1.2472811E+00 1.8675862E+00
 1.5855051E+00 1.2269526E+00 1.8675208E+00
 1.6427845E+00 1.2055183E+00 1.8658089E+00
 1.6994403E+00 1.1829809E+00 1.8621974E+00
 1.7551908E+00 1.1593686E+00 1.8564632E+00
 1.8097514E+00 1.1347349E+00 1.8484248E+00
 1.8628485E+00 1.1091587E+00 1.8379483E+00
 1.9142354E+00 1.0827444E+00 1.8249488E+00
 1.9637138E+00 1.0556250E+00 1.8093807E+00
 2.0111646E+00 1.0279704E+00 1.7912159E+00
 2.0565883E+00 1.0000000E+00 1.7704069E+00
 2.1001580E+00 9.7200676E-01 1.7468293E+00
 2.1422605E+00 9.4443645E-01 1.7202165E+00
 1.1294774E+00 1.3283539E+00 1.8579743E+00
 1.1868419E+00 1.3106095E+00 1.8628886E+00
 1.2442115E+00 1.2933171E+00 1.8673095E+00
 1.3016785E+00 1.2759124E+00 1.8712593E+00
 1.3593005E+00 1.2580066E+00 1.8746475E+00
 1.4170685E+00 1.2393440E+00 1.8773024E+00
 1.4749001E+00 1.2197708E+00 1.8789970E+00
 1.5326514E+00 1.1992020E+00 1.8794721E+00
 1.5901275E+00 1.1775991E+00 1.8784573E+00
 1.6470964E+00 1.1549564E+00 1.8756877E+00
 1.7033017E+00 1.1312937E+00 1.8709197E+00
 1.7584758E+00 1.1066530E+00 1.8639423E+00
 1.8123563E+00 1.0810988E+00 1.8545854E+00
 1.8647072E+00 1.0547200E+00 1.8427208E+00
 1.9153442E+00 1.0276346E+00 1.8282561E+00
 1.9641613E+00 1.0000000E+00 1.8111168E+00
 2.0111646E+00 9.7202960E-01 1.7912159E+00
 2.0565066E+00 9.4401594E-01 1.7684125E+00
 2.1005079E+00 9.1637617E-01 1.7424693E+00
 1.1303553E+00 1.2882264E+00 1.8722728E+00
 1.1885417E+00 1.2693191E+00 1.8766301E+00
 1.2466225E+00 1.2507723E+00 1.8805059E+00
 1.3046605E+00 1.2320760E+00 1.8838691E+00
 1.3626951E+00 1.2128643E+00 1.8865971E+00
 1.4207099E+00 1.1929005E+00 1.8884981E+00
 1.4786252E+00 1.1720477E+00 1.8893339E+00
 1.5363020E+00 1.1502392E+00 1.8888416E+00
 1.5935532E+00 1.1274543E+00 1.8867526E+00
 1.6501567E+00 1.1037030E+00 1.8828090E+00
 1.7058706E+00 1.0790174E+00 1.8767768E+00
 1.7604480E+00 1.0534502E+00 1.8684550E+00
 1.8136603E+00 1.0270764E+00 1.8576793E+00
 1.8653265E+00 1.0000000E+00 1.8443173E+00
 1.9153442E+00 9.7236544E-01 1.8282561E+00
 1.9637138E+00 9.4437506E-01 1.8093807E+00
 2.0105558E+00 9.1631077E-01 1.7875456E+00
 2.0561155E+00 8.8855609E-01 1.7625481E+00
 1.1310811E+00 1.2466429E+00 1.8849334E+00
 1.1899381E+00 1.2267164E+00 1.8885862E+00
 1.2485813E+00 1.2070364E+00 1.8917693E+00
 1.3070500E+00 1.1871483E+00 1.8944022E+00
 1.3653676E+00 1.1667218E+00 1.8963300E+00
 1.4235106E+00 1.1455478E+00 1.8973412E+00
 1.4813995E+00 1.1235135E+00 1.8971878E+00
 1.5389004E+00 1.1005717E+00 1.8956050E+00
 1.5958352E+00 1.0767176E+00 1.8923285E+00
 1.6519952E+00 1.0519730E+00 1.8871078E+00
 1.7071580E+00 1.0263797E+00 1.8797177E+00
 1.7611069E+00 1.0000000E+00 1.8699633E+00
 1.8136603E+00 9.7292362E-01 1.8576793E+00
 1.8647072E+00 9.4528009E-01 1.8427208E+00
 1.9142354E+00 9.1725567E-01 1.8249488E+00
 1.9623359E+00 8.8911311E-01 1.8042125E+00
 2.0091908E+00 8.6120421E-01 1.7803343E+00
 1.1316896E+00 1.2037453E+00 1.8957889E+00
 1.1910903E+00 1.1829271E+00 1.8986136E+00
 1.2501583E+00 1.1622357E+00 1.9009729E+00
 1.3089177E+00 1.1412675E+00 1.9027434E+00
 1.3673803E+00 1.1197349E+00 1.9037409E+00
 1.4255188E+00 1.0974628E+00 1.9037364E+00
 1.4832558E+00 1.0743646E+00 1.9024751E+00
 1.5404648E+00 1.0504124E+00 1.8996927E+00
 1.5969797E+00 1.0256140E+00 1.8951304E+00
 1.6526095E+00 1.0000000E+00 1.8885451E+00
 1.7071580E+00 9.7362031E-01 1.8797177E+00
 1.7604480E+00 9.4654981E-01 1.8684550E+00
 1.8123563E+00 9.1890126E-01 1.8545854E+00
 1.8628485E+00 8.9084133E-01 1.8379483E+00
 1.9119883E+00 8.6260774E-01 1.8183839E+00
 1.9599132E+00 8.3452074E-01 1.7957257E+00
 1.1321916E+00 1.1597146E+00 1.9046841E+00
 1.1920109E+00 1.1381304E+00 1.9065751E+00
 1.2513664E+00 1.1165510E+00 1.9079964E+00
 1.3102734E+00 1.0946242E+00 1.9087872E+00
 1.3687382E+00 1.0721079E+00 1.9087380E+00
 1.4267341E+00 1.0488640E+00 1.9076068E+00
 1.4841894E+00 1.0248318E+00 1.9051347E+00
 1.5409882E+00 1.0000000E+00 1.9010604E+00
 1.5969797E+00 9.7438606E-01 1.8951304E+00
 1.6519952E+00 9.4802705E-01 1.8871078E+00
 1.7058706E+00 9.2098265E-01 1.8767768E+00
 1.7584758E+00 8.9334706E-01 1.8639423E+00
 1.8097514E+00 8.6526513E-01 1.8484248E+00
 1.8597300E+00 8.3694710E-01 1.8300525E+00
 1.9085160E+00 8.0868042E-01 1.8086598E+00
 1.1325829E+00 1.1147650E+00 1.9114836E+00
 1.1926887E+00 1.0925429E+00 1.9123531E+00
 1.2521904E+00 1.0702043E+00 1.9127392E+00
 1.3110999E+00 1.0474488E+00 1.9124494E+00
 1.3694244E+00 1.0240813E+00 1.9112543E+00
 1.4271417E+00 1.0000000E+00 1.9089026E+00
 1.4841894E+00 9.7516827E-01 1.9051347E+00
 1.5404648E+00 9.4958768E-01 1.8996927E+00
 1.5958352E+00 9.2328244E-01 1.8923285E+00
 1.6501567E+00 8.9629710E-01 1.8828090E+00
 1.7033017E+00 8.6870636E-01 1.8709197E+00
 1.7551908E+00 8.4063145E-01 1.8564632E+00
 1.8058235E+00 8.1225484E-01 1.8392557E+00
 1.8552737E+00 7.8383005E-01 1.8191257E+00
 1.1328528E+00 1.0691371E+00 1.9160796E+00
 1.1931054E+00 1.0464105E+00 1.9158577E+00
 1.2526091E+00 1.0234477E+00 1.9151294E+00
 1.3113781E+00 1.0000000E+00 1.9136764E+00
 1.3694244E+00 9.7591876E-01 1.9112543E+00
 1.4267341E+00 9.5113609E-01 1.9076068E+00
 1.4832558E+00 9.2563543E-01 1.9024751E+00
 1.5389004E+00 8.9942834E-01 1.8956050E+00
 1.5935531E+00 8.7254570E-01 1.8867526E+00
 1.6470964E+00 8.4504362E-01 1.8756877E+00
 1.6994403E+00 8.1701916E-01 1.8621974E+00
 1.7505553E+00 7.8862638E-01 1.8460852E+00
 1.8004848E+00 7.6008631E-01 1.8271714E+00
 1.1329908E+00 1.0230925E+00 1.9183970E+00
 1.1932461E+00 1.0000000E+00 1.9170323E+00
 1.2526091E+00 9.7655231E-01 1.9151294E+00
 1.3110999E+00 9.5255126E-01 1.9124494E+00
 1.3687382E+00 9.2789212E-01 1.9087380E+00
 1.4255188E+00 9.0253721E-01 1.9037364E+00
 1.4813995E+00 8.7648659E-01 1.8971878E+00
 1.5363020E+00 8.4976086E-01 1.8888416E+00
 1.5901275E+00 8.2240096E-01 1.8784573E+00
 1.6427845E+00 7.9448174E-01 1.8658089E+00
 1.6942233E+00 7.6612926E-01 1.8506883E+00
 1.7444588E+00 7.3753321E-01 1.8329067E+00
 1.1329907E+00 9.7690748E-01 1.9183970E+00
 1.1931054E+00 9.5358955E-01 1.9158576E+00
 1.2521903E+00 9.2979573E-01 1.9127392E+00
 1.3102733E+00 9.0537585E-01 1.9087871E+00
 1.3673803E+00 8.8026514E-01 1.9037409E+00
 1.4235106E+00 8.5445224E-01 1.8973412E+00
 1.4786252E+00 8.2795240E-01 1.8893339E+00
 1.5326514E+00 8.0079809E-01 1.8794721E+00
 1.5855051E+00 7.7304747E-01 1.8675208E+00
 1.6371257E+00 7.4480190E-01 1.8532615E+00
 1.6875082E+00 7.1622171E-01 1.8364969E+00
 1.1328528E+00 9.3086296E-01 1.9160796E+00
 1.1926887E+00 9.0745713E-01 1.9123531E+00
 1.2513664E+00 8.8344907E-01 1.9079963E+00
 1.3089177E+00 8.5873250E-01 1.9027434E+00
 1.3653676E+00 8.3327830E-01 1.8963300E+00
 1.4207099E+00 8.0709955E-01 1.8884981E+00
 1.4749001E+00 7.8022924E-01 1.8789970E+00
 1.5278686E+00 7.5271898E-01 1.8675862E+00
 1.5795539E+00 7.2465338E-01 1.8540402E+00
 1.6299401E+00 6.9616837E-01 1.8381544E+00
 1.1325829E+00 8.8523504E-01 1.9114836E+00
 1.1920109E+00 8.6186965E-01 1.9065751E+00
 1.2501583E+00 8.3776437E-01 1.9009728E+00
 1.3070500E+00 8.1285175E-01 1.8944022E+00
 1.3626950E+00 7.8713572E-01 1.8865970E+00
 1.4170684E+00 7.6065610E-01 1.8773024E+00
 1.4701159E+00 7.3347168E-01 1.8662748E+00
 1.5217824E+00 7.0566460E-01 1.8532853E+00
 1.5720524E+00 6.7735714E-01 1.8381252E+00
 1.1321916E+00 8.4028543E-01 1.9046840E+00
 1.1910903E+00 8.1707291E-01 1.8986135E+00
 1.2485812E+00 7.9296363E-01 1.8917693E+00
 1.3046605E+00 7.6792409E-01 1.8838691E+00
 1.3593005E+00 7.4199351E-01 1.8746474E+00
 1.4124502E+00 7.1524867E-01 1.8638571E+00
 1.4640606E+00 6.8778897E-01 1.8512691E+00
 1.5141257E+00 6.5974250E-01 1.8366755E+00
 1.1316895E+00 7.9625480E-01 1.8957889E+00
 1.1899381E+00 7.7328366E-01 1.8885861E+00
 1.2466225E+00 7.4922775E-01 1.8805059E+00
 1.3016784E+00 7.2408766E-01 1.8712593E+00
 1.3550254E+00 6.9795021E-01 1.8605869E+00
 1.4066030E+00 6.7095094E-01 1.8482598E+00
 1.4564170E+00 6.4325301E-01 1.8340775E+00
 1.1310811E+00 7.5335722E-01 1.8849333E+00
 1.1885417E+00 7.3068098E-01 1.8766300E+00
 1.2442114E+00 7.0668302E-01 1.8673094E+00
 1.2979302E+00 6.8141269E-01 1.8566806E+00
 1.3495791E+00 6.5503942E-01 1.8445054E+00
 1.3991531E+00 6.2779403E-01 1.8305948E+00
 1.1303552E+00 7.1177372E-01 1.8722727E+00
 1.1868418E+00 6.8939056E-01 1.8628885E+00
 1.2411826E+00 6.6538405E-01 1.8522954E+00
 1.2931022E+00 6.3989673E-01 1.8402163E+00
 1.3425223E+00 6.1324792E-01 1.8264700E+00
 1.1294774E+00 6.7164625E-01 1.8579742E+00
 1.1847039E+00 6.4946514E-01 1.8474930E+00
 1.2372058E+00 6.2528831E-01 1.8355413E+00
 1.2866728E+00 5.9946935E-01 1.8219108E+00
 1.1283701E+00 6.3305943E-01 1.8422013E+00
 1.1818703E+00 6.1087715E-01 1.8305454E+00
 1.2317058E+00 5.8628259E-01 1.8170793E+00
 1.1268820E+00 5.9601652E-01 1.8250942E+00
 1.1776586E+00 5.7342545E-01 1.8120540E+00
 1.1246917E+00 5.6053395E-01 1.8068121E+00
 1.0428453E+00 1.5079340E+00 1.7687190E+00
 1.0102095E+00 1.5341986E+00 1.7522807E+00
 9.7598801E-01 1.5610545E+00 1.7343559E+00
 9.4040484E-01 1.5882977E+00 1.7149675E+00
 9.0367096E-01 1.6158190E+00 1.6940714E+00
 8.6608321E-01 1.6435151E+00 1.6715848E+00
 8.2797129E-01 1.6712695E+00 1.6473967E+00
 7.8972225E-01 1.6989134E+00 1.6213928E+00
 7.5175521E-01 1.7262241E+00 1.5934639E+00
 7.1447718E-01 1.7529286E+00 1.5635210E+00
 6.7824298E-01 1.7787171E+00 1.5315115E+00
 6.4332921E-01 1.8032629E+00 1.4974332E+00
 6.0993029E-01 1.8262442E+00 1.4613442E+00
 5.7816958E-01 1.8473638E+00 1.4233652E+00
 5.4811733E-01 1.8663654E+00 1.3836756E+00
 5.1981137E-01 1.8830461E+00 1.3425073E+00
 4.9327409E-01 1.8972605E+00 1.3001344E+00
 4.6851972E-01 1.9089260E+00 1.2568598E+00
 4.4555755E-01 1.9180210E+00 1.2129994E+00
 4.2439086E-01 1.9245800E+00 1.1688775E+00
 4.0501593E-01 1.9286831E+00 1.1248555E+00
 3.8740077E-01 1.9304445E+00 1.0813347E+00
 3.7154376E-01 1.9300245E+00 1.0390007E+00
 -9.1373730E-02 1.0744729E+00 1.6276500E+00
 -9.5716884E-02 1.1227889E+00 1.6143900E+00
 -9.8304505E-02 1.1717673E+00 1.5990888E+00
 -9.8749649E-02 1.2214477E+00 1.5819737E+00
 -9.6802405E-02 1.2717371E+00 1.5631090E+00
 -9.2254938E-02 1.3224516E+00 1.5425327E+00
 -8.4935789E-02 1.3733386E+00 1.5202795E+00
 -7.4712799E-02 1.4240928E+00 1.4963912E+00
 -6.1496858E-02 1.4743647E+00 1.4709264E+00
 -4.5244906E-02 1.5237729E+00 1.4439688E+00
 -2.5963155E-02 1.5719156E+00 1.4156322E+00
 -3.7105253E-03 1.6183822E+00 1.3860632E+00
 2.1399800E-02 1.6627661E+00 1.3554404E+00
 4.9198809E-02 1.7046767E+00 1.3239722E+00
 7.9464860E-02 1.7437540E+00 1.2918914E+00
 1.1192741E-01 1.7796795E+00 1.2594504E+00
 1.4627663E-01 1.8121912E+00 1.2269105E+00
 1.8217092E-01 1.8410916E+00 1.1945338E+00
 2.1925616E-01 1.8662621E+00 1.1625637E+00
 2.5717110E-01 1.8876656E+00 1.1312009E+00
 2.9555537E-01 1.9053482E+00 1.1005378E+00
 3.3394118E-01 1.9194174E+00 1.0704117E+00
 -6.1931919E-02 1.1053842E+00 1.6593908E+00
 -6.4505551E-02 1.1562898E+00 1.6461949E+00
 -6.5411109E-02 1.2070816E+00 1.6306779E+00
 -6.4178780E-02 1.2580767E+00 1.6131645E+00
 -6.0508263E-02 1.3093018E+00 1.5937840E+00
 -5.4173930E-02 1.3606342E+00 1.5726054E+00
 -4.5010612E-02 1.4118427E+00 1.5496754E+00
 -3.2909113E-02 1.4626186E+00 1.5250412E+00
 -1.7814526E-02 1.5125997E+00 1.4987658E+00
 2.7582995E-04 1.5613894E+00 1.4709406E+00
 2.1312287E-02 1.6085744E+00 1.4416917E+00
 4.5192442E-02 1.6537398E+00 1.4111826E+00
 7.1760752E-02 1.6964849E+00 1.3796120E+00
 1.0081249E-01 1.7364378E+00 1.3472082E+00
 1.3209652E-01 1.7732697E+00 1.3142220E+00
 1.6532614E-01 1.8067090E+00 1.2809114E+00
 2.0018608E-01 1.8365524E+00 1.2475268E+00
 2.3635182E-01 1.8626765E+00 1.2142796E+00
 2.7350628E-01 1.8850472E+00 1.1812993E+00
 3.1133721E-01 1.9037118E+00 1.1485641E+00
 3.4950774E-01 1.9187952E+00 1.1156604E+00
 -2.9036762E-02 1.1362042E+00 1.6903998E+00
 -2.9922843E-02 1.1888825E+00 1.6769570E+00
 -2.9109462E-02 1.2411606E+00 1.6610619E+00
 -2.6138196E-02 1.2932856E+00 1.6430249E+00
 -2.0684635E-02 1.3453102E+00 1.6230057E+00
 -1.2519217E-02 1.3971224E+00 1.6010919E+00
 -1.4919103E-03 1.4484913E+00 1.5773402E+00
 1.2476556E-02 1.4990993E+00 1.5518045E+00
 2.9403324E-02 1.5485716E+00 1.5245572E+00
 4.9248822E-02 1.5965021E+00 1.4957033E+00
 7.1920160E-02 1.6424733E+00 1.4653874E+00
 9.7274283E-02 1.6860771E+00 1.4337940E+00
 1.2512064E-01 1.7269309E+00 1.4011436E+00
 1.5522700E-01 1.7646954E+00 1.3676819E+00
 1.8732718E-01 1.7990881E+00 1.3336659E+00
 2.2113108E-01 1.8298991E+00 1.2993388E+00
 2.5633627E-01 1.8569981E+00 1.2648995E+00
 2.9264692E-01 1.8803469E+00 1.2304518E+00
 3.2977137E-01 1.8999921E+00 1.1959359E+00
 3.6739585E-01 1.9160523E+00 1.1610106E+00
 7.2894797E-03 1.1671081E+00 1.7201040E+00
 8.0611784E-03 1.2210184E+00 1.7061856E+00
 1.0602244E-02 1.2743690E+00 1.6897373E+00
 1.5346611E-02 1.3273214E+00 1.6710365E+00
 2.2612706E-02 1.3798834E+00 1.6502452E+00
 3.2617641E-02 1.4319219E+00 1.6274588E+00
 4.5485393E-02 1.4831868E+00 1.6027422E+00
 6.1259357E-02 1.5333452E+00 1.5761597E+00
 7.9915502E-02 1.5820115E+00 1.5477988E+00
 1.0137240E-01 1.6287757E+00 1.5177846E+00
 1.2549817E-01 1.6732278E+00 1.4862844E+00
 1.5211545E-01 1.7149781E+00 1.4535066E+00
 1.8100935E-01 1.7536774E+00 1.4196906E+00
 2.1193267E-01 1.7890329E+00 1.3850920E+00
 2.4461748E-01 1.8208249E+00 1.3499550E+00
 2.7878051E-01 1.8489151E+00 1.3144822E+00
 3.1413943E-01 1.8732583E+00 1.2787822E+00
 3.5041130E-01 1.8938973E+00 1.2428225E+00
 3.8729584E-01 1.9109493E+00 1.2063619E+00
 4.7021695E-02 1.1979866E+00 1.7479958E+00
 4.9419624E-02 1.2527012E+00 1.7333934E+00