# TIME = 2.200000
variables = x, y, z
zone N=5762 E=11520 F=FEPOINT ET=TRIANGLE
 5.9729427E+00 1.4882424E+00 1.7898830E+00
 5.9729427E+00 1.4882422E+00 2.1011722E-01
 5.9729425E+00 5.1175764E-01 1.7898828E+00
 5.9729429E+00 5.1175744E-01 2.1011701E-01
 4.7980159E+00 9.9999990E-01 1.5929051E+00
 7.1769719E+00 9.9999990E-01 1.6111721E+00
 4.7980161E+00 9.9999990E-01 4.0709496E-01
 7.1769720E+00 9.9999990E-01 3.8882791E-01
 5.2687487E+00 1.9385186E+00 9.9999996E-01
 5.2687488E+00 6.1481304E-02 9.9999995E-01
 6.6616822E+00 1.8668165E+00 1.0000000E+00
 6.6616822E+00 1.3318348E-01 1.0000000E+00
 5.9299152E+00 1.4806407E+00 1.7972716E+00
 5.8824845E+00 1.4721391E+00 1.8054960E+00
 5.8325808E+00 1.4631418E+00 1.8142920E+00
 5.7804521E+00 1.4536566E+00 1.8236683E+00
 5.7261802E+00 1.4436289E+00 1.8336204E+00
 5.6698627E+00 1.4329416E+00 1.8440646E+00
 5.6116847E+00 1.4213939E+00 1.8547636E+00
 5.5519808E+00 1.4086882E+00 1.8652258E+00
 5.4911511E+00 1.3944227E+00 1.8746373E+00
 5.4295560E+00 1.3781286E+00 1.8818695E+00
 5.3675360E+00 1.3593636E+00 1.8856211E+00
 5.3055786E+00 1.3378548E+00 1.8847111E+00
 5.2444543E+00 1.3136207E+00 1.8784122E+00
 5.1851383E+00 1.2869826E+00 1.8666084E+00
 5.1285829E+00 1.2584657E+00 1.8497078E+00
 5.0755359E+00 1.2286739E+00 1.8284334E+00
 5.0264809E+00 1.1981939E+00 1.8036305E+00
 4.9816577E+00 1.1675421E+00 1.7761411E+00
 4.9411107E+00 1.1371442E+00 1.7467348E+00
 4.9047396E+00 1.1073360E+00 1.7160786E+00
 4.8723606E+00 1.0783834E+00 1.6847478E+00
 4.8437623E+00 1.0505231E+00 1.6532530E+00
 4.8187418E+00 1.0240019E+00 1.6220819E+00
 5.9253364E+00 5.5251417E-01 1.8166244E+00
 5.8763857E+00 5.6281611E-01 1.8253972E+00
 5.8254160E+00 5.7326955E-01 1.8344722E+00
 5.7724229E+00 5.8422355E-01 1.8440570E+00
 5.7173887E+00 5.9582447E-01 1.8541798E+00
 5.6603855E+00 6.0820687E-01 1.8647321E+00
 5.6016489E+00 6.2157888E-01 1.8754203E+00
 5.5415598E+00 6.3623861E-01 1.8856769E+00
 5.4805378E+00 6.5256054E-01 1.8945999E+00
 5.4189407E+00 6.7094085E-01 1.9009900E+00
 5.3571170E+00 6.9170273E-01 1.9035296E+00
 5.2955903E+00 7.1497523E-01 1.9011046E+00
 5.2351648E+00 7.4061305E-01 1.8931175E+00
 5.1768085E+00 7.6821938E-01 1.8795919E+00
 5.1214236E+00 7.9725121E-01 1.8610437E+00
 5.0696899E+00 8.2713061E-01 1.8382622E+00
 5.0220217E+00 8.5732131E-01 1.8121244E+00
 4.9785983E+00 8.8737013E-01 1.7834800E+00
 4.9394170E+00 9.1692024E-01 1.7530935E+00
 4.9043339E+00 9.4571067E-01 1.7216084E+00
 4.8730659E+00 9.7352327E-01 1.6894873E+00
 4.8450838E+00 9.9999990E-01 1.6568287E+00
 5.9237980E+00 5.8685066E-01 1.8346215E+00
 5.8733971E+00 5.9887665E-01 1.8437180E+00
 5.8213435E+00 6.1086540E-01 1.8529551E+00
 5.7673575E+00 6.2341235E-01 1.8626582E+00
 5.7113886E+00 6.3669864E-01 1.8728495E+00
 5.6535219E+00 6.5087907E-01 1.8833954E+00
 5.5940358E+00 6.6616752E-01 1.8939507E+00
 5.5333568E+00 6.8285202E-01 1.9038709E+00
 5.4719252E+00 7.0126508E-01 1.9121681E+00
 5.4101044E+00 7.2172105E-01 1.9175761E+00
 5.3482614E+00 7.4442504E-01 1.9187687E+00
 5.2869606E+00 7.6937595E-01 1.9147016E+00
 5.2270403E+00 7.9632030E-01 1.9049069E+00
 5.1694598E+00 8.2480212E-01 1.8895427E+00
 5.1150730E+00 8.5427004E-01 1.8692298E+00
 5.0644949E+00 8.8417660E-01 1.8448245E+00
 5.0180736E+00 9.1403994E-01 1.8172378E+00
 4.9759252E+00 9.4347457E-01 1.7873258E+00
 4.9379726E+00 9.7220293E-01 1.7558209E+00
 4.9039340E+00 9.9999990E-01 1.7232356E+00
 4.8730660E+00 1.0264765E+00 1.6894872E+00
 5.9227275E+00 6.2309548E-01 1.8516846E+00
 5.8712847E+00 6.3663187E-01 1.8608042E+00
 5.8182160E+00 6.5020933E-01 1.8700665E+00
 5.7632835E+00 6.6441581E-01 1.8797464E+00
 5.7064138E+00 6.7946365E-01 1.8898574E+00
 5.6477259E+00 6.9551142E-01 1.9002312E+00
 5.5875435E+00 7.1276888E-01 1.9104696E+00
 5.5263340E+00 7.3149783E-01 1.9198533E+00
 5.4645584E+00 7.5197318E-01 1.9273186E+00
 5.4025885E+00 7.7441735E-01 1.9315523E+00
 5.3408132E+00 7.9891787E-01 1.9312424E+00
 5.2798336E+00 8.2535399E-01 1.9254326E+00
 5.2205086E+00 8.5338279E-01 1.9137872E+00
 5.1637757E+00 8.8250947E-01 1.8965913E+00
 5.1104334E+00 9.1219125E-01 1.8745570E+00
 5.0610276E+00 9.4192523E-01 1.8485946E+00
 5.0158380E+00 9.7129606E-01 1.8196349E+00
 4.9748980E+00 9.9999990E-01 1.7885099E+00
 4.9379727E+00 1.0277969E+00 1.7558208E+00
 4.9043341E+00 1.0542891E+00 1.7216082E+00
 5.9217741E+00 6.6136041E-01 1.8676821E+00
 5.8693883E+00 6.7639660E-01 1.8766645E+00
 5.8154225E+00 6.9157712E-01 1.8857860E+00
 5.7596393E+00 7.0748661E-01 1.8952793E+00
 5.7019872E+00 7.2433029E-01 1.9051269E+00
 5.6426155E+00 7.4226756E-01 1.9151271E+00
 5.5818948E+00 7.6149164E-01 1.9248284E+00
 5.5203294E+00 7.8222506E-01 1.9334459E+00
 5.4583969E+00 8.0467232E-01 1.9398593E+00
 5.3964772E+00 8.2895579E-01 1.9427351E+00
 5.3349771E+00 8.5504564E-01 1.9408030E+00
 5.2745220E+00 8.8271318E-01 1.9332094E+00
 5.2159715E+00 9.1154698E-01 1.9197484E+00
 5.1602263E+00 9.4103585E-01 1.9008161E+00
 5.1080205E+00 9.7066716E-01 1.8771958E+00
 5.0598272E+00 9.9999989E-01 1.8498303E+00
 5.0158381E+00 1.0287037E+00 1.8196347E+00
 4.9759253E+00 1.0565252E+00 1.7873256E+00
 4.9394172E+00 1.0830795E+00 1.7530932E+00
 5.9208806E+00 7.0164576E-01 1.8824115E+00
 5.8676465E+00 7.1817388E-01 1.8910977E+00
 5.8128930E+00 7.3497677E-01 1.8999132E+00
 5.7563922E+00 7.5260051E-01 1.9090365E+00
 5.6981101E+00 7.7124235E-01 1.9184210E+00
 5.6382327E+00 7.9105055E-01 1.9278296E+00
 5.5771727E+00 8.1219308E-01 1.9367634E+00
 5.5154658E+00 8.3484097E-01 1.9443860E+00
 5.4536010E+00 8.5911830E-01 1.9495443E+00
 5.3919631E+00 8.8504292E-01 1.9509137E+00
 5.3309697E+00 9.1247313E-01 1.9472893E+00
 5.2712534E+00 9.4108842E-01 1.9379301E+00
 5.2136548E+00 9.7043177E-01 1.9227469E+00
 5.1590233E+00 9.9999987E-01 1.9022256E+00
 5.1080206E+00 1.0293326E+00 1.8771956E+00
 5.0610278E+00 1.0580745E+00 1.8485943E+00
 5.0180738E+00 1.0859598E+00 1.8172374E+00
 4.9785987E+00 1.1126296E+00 1.7834795E+00
 5.9200698E+00 7.4384782E-01 1.8956328E+00
 5.8660943E+00 7.6185576E-01 1.9038624E+00
 5.8106818E+00 7.8027123E-01 1.9121949E+00
 5.7536137E+00 7.9958986E-01 1.9207549E+00
 5.6948769E+00 8.1999178E-01 1.9294665E+00
 5.6346916E+00 8.4160778E-01 1.9380606E+00
 5.5735080E+00 8.6457100E-01 1.9459995E+00
 5.5118858E+00 8.8899189E-01 1.9524142E+00
 5.4503202E+00 9.1490830E-01 1.9561448E+00
 5.3891961E+00 9.4223511E-01 1.9559031E+00
 5.3289323E+00 9.7072967E-01 1.9505691E+00
 5.2701511E+00 9.9999985E-01 1.9395137E+00
 5.2136549E+00 1.0295679E+00 1.9227467E+00
 5.1602264E+00 1.0589639E+00 1.9008157E+00
 5.1104336E+00 1.0878085E+00 1.8745565E+00
 5.0644952E+00 1.1158231E+00 1.8448239E+00
 5.0220222E+00 1.1426784E+00 1.8121237E+00
 5.9193622E+00 7.8779385E-01 1.9071027E+00
 5.8647696E+00 8.0724511E-01 1.9147113E+00
 5.8088427E+00 8.2723139E-01 1.9223782E+00
 5.7513743E+00 8.4818684E-01 1.9301775E+00
 5.6923729E+00 8.7026788E-01 1.9380063E+00
 5.6320899E+00 8.9358071E-01 1.9455689E+00
 5.5710055E+00 9.1821639E-01 1.9523006E+00
 5.5096954E+00 9.4421913E-01 1.9573213E+00
 5.4486549E+00 9.7154055E-01 1.9594901E+00
 5.3882641E+00 9.9999986E-01 1.9575804E+00
 5.3289323E+00 1.0292700E+00 1.9505689E+00
 5.2712535E+00 1.0589113E+00 1.9379297E+00
 5.2159716E+00 1.0884527E+00 1.9197479E+00
 5.1637760E+00 1.1174902E+00 1.8965907E+00
 5.1150734E+00 1.1457296E+00 1.8692290E+00
 5.0696903E+00 1.1728690E+00 1.8382614E+00
 5.9187759E+00 8.3325924E-01 1.9165937E+00
 5.8637047E+00 8.5408510E-01 1.9234170E+00
 5.8074217E+00 8.7556305E-01 1.9302368E+00
 5.7497319E+00 8.9805505E-01 1.9370822E+00
 5.6906653E+00 9.2168792E-01 1.9438273E+00
 5.6304996E+00 9.4653811E-01 1.9501575E+00
 5.5697363E+00 9.7264967E-01 1.9554957E+00
 5.5089582E+00 9.9999987E-01 1.9589724E+00
 5.4486549E+00 1.0284592E+00 1.9594900E+00
 5.3891961E+00 1.0577646E+00 1.9559029E+00
 5.3309697E+00 1.0875265E+00 1.9472889E+00
 5.2745222E+00 1.1172864E+00 1.9332088E+00
 5.2205088E+00 1.1466168E+00 1.9137864E+00
 5.1694601E+00 1.1751974E+00 1.8895418E+00
 5.1214240E+00 1.2027483E+00 1.8610427E+00
 5.9183238E+00 8.7996815E-01 1.9239053E+00
 5.8629249E+00 9.0206519E-01 1.9297854E+00
 5.8064538E+00 9.2491661E-01 1.9355855E+00
 5.7487288E+00 9.4880264E-01 1.9412973E+00
 5.6897997E+00 9.7381598E-01 1.9467774E+00
 5.6299645E+00 9.9999985E-01 1.9517013E+00
 5.5697363E+00 1.0273501E+00 1.9554957E+00
 5.5096954E+00 1.0557806E+00 1.9573212E+00
 5.4503202E+00 1.0850914E+00 1.9561445E+00
 5.3919631E+00 1.1149568E+00 1.9509133E+00
 5.3349773E+00 1.1449540E+00 1.9408023E+00
 5.2798338E+00 1.1746456E+00 1.9254317E+00
 5.2270406E+00 1.2036792E+00 1.9049059E+00
 5.1768089E+00 1.2317801E+00 1.8795908E+00
 5.9180163E+00 9.2760088E-01 1.9288754E+00
 5.8624491E+00 9.5083183E-01 1.9336685E+00
 5.8059635E+00 9.7490100E-01 1.9382937E+00
 5.7483915E+00 9.9999983E-01 1.9427147E+00
 5.6897997E+00 1.0261837E+00 1.9467775E+00
 5.6304996E+00 1.0534616E+00 1.9501575E+00
 5.5710054E+00 1.0817834E+00 1.9523005E+00
 5.5118858E+00 1.1110079E+00 1.9524141E+00
 5.4536011E+00 1.1408814E+00 1.9495439E+00
 5.3964773E+00 1.1710438E+00 1.9427346E+00
 5.3408134E+00 1.2010817E+00 1.9312417E+00
 5.2869609E+00 1.2306235E+00 1.9147006E+00
 5.2351651E+00 1.2593863E+00 1.8931163E+00
 5.9178607E+00 9.7580275E-01 1.9313899E+00
 5.8622892E+00 9.9999981E-01 1.9349735E+00
 5.8059635E+00 1.0250986E+00 1.9382937E+00
 5.7487288E+00 1.0511970E+00 1.9412974E+00
 5.6906653E+00 1.0783118E+00 1.9438274E+00
 5.6320899E+00 1.1064191E+00 1.9455689E+00
 5.5735079E+00 1.1354288E+00 1.9459995E+00
 5.5154658E+00 1.1651588E+00 1.9443858E+00
 5.4583970E+00 1.1953274E+00 1.9398589E+00
 5.4025887E+00 1.2255823E+00 1.9315516E+00
 5.3482616E+00 1.2555744E+00 1.9187679E+00
 5.2955906E+00 1.2850241E+00 1.9011035E+00
 5.9178607E+00 1.0241969E+00 1.9313899E+00
 5.8624491E+00 1.0491678E+00 1.9336686E+00
 5.8064538E+00 1.0750831E+00 1.9355856E+00
 5.7497319E+00 1.1019447E+00 1.9370823E+00
 5.6923729E+00 1.1297319E+00 1.9380064E+00
 5.6346915E+00 1.1583921E+00 1.9380607E+00
 5.5771727E+00 1.1878068E+00 1.9367633E+00
 5.5203295E+00 1.2177748E+00 1.9334457E+00
 5.4645585E+00 1.2480265E+00 1.9273181E+00
 5.4101046E+00 1.2782785E+00 1.9175754E+00
 5.3571173E+00 1.3082967E+00 1.9035287E+00
 5.9180164E+00 1.0723988E+00 1.9288755E+00
 5.8629249E+00 1.0979345E+00 1.9297855E+00
 5.8074217E+00 1.1244367E+00 1.9302369E+00
 5.7513743E+00 1.1518130E+00 1.9301777E+00
 5.6948768E+00 1.1800081E+00 1.9294667E+00
 5.6382326E+00 1.2089494E+00 1.9278297E+00
 5.5818947E+00 1.2385083E+00 1.9248284E+00
 5.5263342E+00 1.2685020E+00 1.9198531E+00
 5.4719254E+00 1.2987346E+00 1.9121676E+00
 5.4189410E+00 1.3290587E+00 1.9009893E+00
 5.9183239E+00 1.1200316E+00 1.9239055E+00
 5.8637048E+00 1.1459146E+00 1.9234172E+00
 5.8088427E+00 1.1727684E+00 1.9223785E+00
 5.7536136E+00 1.2004100E+00 1.9207551E+00
 5.6981100E+00 1.2287576E+00 1.9184213E+00
 5.6426153E+00 1.2577324E+00 1.9151273E+00
 5.5875434E+00 1.2872311E+00 1.9104696E+00
 5.5333569E+00 1.3171478E+00 1.9038707E+00
 5.4805381E+00 1.3474392E+00 1.8945995E+00
 5.9187761E+00 1.1667405E+00 1.9165939E+00
 5.8647697E+00 1.1927547E+00 1.9147116E+00
 5.8106818E+00 1.2197287E+00 1.9121951E+00
 5.7563920E+00 1.2473995E+00 1.9090368E+00
 5.7019869E+00 1.2756697E+00 1.9051272E+00
 5.6477257E+00 1.3044886E+00 1.9002314E+00
 5.5940357E+00 1.3338324E+00 1.8939508E+00
 5.5415599E+00 1.3637612E+00 1.8856769E+00
 5.9193624E+00 1.2122060E+00 1.9071029E+00
 5.8660944E+00 1.2381441E+00 1.9038626E+00
 5.8128929E+00 1.2650232E+00 1.8999135E+00
 5.7596391E+00 1.2925134E+00 1.8952796E+00
 5.7064136E+00 1.3205364E+00 1.8898577E+00
 5.6535216E+00 1.3491209E+00 1.8833956E+00
 5.6016487E+00 1.3784210E+00 1.8754205E+00
 5.9200700E+00 1.2561521E+00 1.8956330E+00
 5.8676466E+00 1.2818260E+00 1.8910980E+00
 5.8154224E+00 1.3084229E+00 1.8857864E+00
 5.7632833E+00 1.3355842E+00 1.8797468E+00
 5.7113883E+00 1.3633014E+00 1.8728499E+00
 5.6603852E+00 1.3917931E+00 1.8647325E+00
 5.9208808E+00 1.2983542E+00 1.8824118E+00
 5.8693883E+00 1.3236034E+00 1.8766648E+00
 5.8182159E+00 1.3497907E+00 1.8700669E+00
 5.7673573E+00 1.3765877E+00 1.8626586E+00
 5.7173885E+00 1.4041755E+00 1.8541803E+00
 5.9217742E+00 1.3386396E+00 1.8676824E+00
 5.8712848E+00 1.3633681E+00 1.8608045E+00
 5.8213434E+00 1.3891346E+00 1.8529555E+00
 5.7724227E+00 1.4157765E+00 1.8440574E+00
 5.9227276E+00 1.3769045E+00 1.8516849E+00
 5.8733972E+00 1.4011234E+00 1.8437183E+00
 5.8254159E+00 1.4267305E+00 1.8344726E+00
 5.9237981E+00 1.4131494E+00 1.8346218E+00
 5.8763857E+00 1.4371839E+00 1.8253975E+00
 5.9253365E+00 1.4474859E+00 1.8166247E+00
 5.9729572E+00 1.4594515E+00 1.8069972E+00
 5.9729599E+00 1.4268208E+00 1.8247507E+00
 5.9729573E+00 1.3920416E+00 1.8418620E+00
 5.9729579E+00 1.3550820E+00 1.8581216E+00
 5.9729607E+00 1.3160569E+00 1.8732637E+00
 5.9729645E+00 1.2750839E+00 1.8870365E+00
 5.9729691E+00 1.2323116E+00 1.8991987E+00
 5.9729743E+00 1.1879366E+00 1.9095203E+00
 5.9729795E+00 1.1422077E+00 1.9177918E+00
 5.9729837E+00 1.0954169E+00 1.9238363E+00
 5.9729864E+00 1.0478948E+00 1.9275192E+00
 5.9729873E+00 9.9999983E-01 1.9287564E+00
 5.9729863E+00 9.5210484E-01 1.9275192E+00
 5.9729836E+00 9.0458279E-01 1.9238362E+00
 5.9729793E+00 8.5779199E-01 1.9177916E+00
 5.9729741E+00 8.1206318E-01 1.9095201E+00
 5.9729688E+00 7.6768827E-01 1.8991985E+00
 5.9729642E+00 7.2491598E-01 1.8870363E+00
 5.9729604E+00 6.8394305E-01 1.8732635E+00
 5.9729577E+00 6.4491800E-01 1.8581214E+00
 5.9729571E+00 6.0795843E-01 1.8418617E+00
 5.9729597E+00 5.7317920E-01 1.8247505E+00
 5.9729570E+00 5.4054854E-01 1.8069970E+00
 6.0159658E+00 5.2164750E-01 1.7934859E+00
 6.0633028E+00 5.3261784E-01 1.7974057E+00
 6.1129924E+00 5.4419095E-01 1.8014272E+00
 6.1647148E+00 5.5638531E-01 1.8054590E+00
 6.2182970E+00 5.6927320E-01 1.8093888E+00
 6.2735601E+00 5.8295172E-01 1.8130700E+00
 6.3303092E+00 5.9753762E-01 1.8163189E+00
 6.3882945E+00 6.1315026E-01 1.8189073E+00
 6.4472167E+00 6.2990839E-01 1.8205675E+00
 6.5067334E+00 6.4791984E-01 1.8210000E+00
 6.5664634E+00 6.6727048E-01 1.8198890E+00
 6.6259917E+00 6.8801201E-01 1.8169234E+00
 6.6848749E+00 7.1015021E-01 1.8118227E+00
 6.7426507E+00 7.3363667E-01 1.8043622E+00
 6.7988531E+00 7.5836537E-01 1.7943954E+00
 6.8530325E+00 7.8417579E-01 1.7818678E+00
 6.9047785E+00 8.1086142E-01 1.7668216E+00
 6.9537399E+00 8.3818404E-01 1.7493897E+00
 6.9996411E+00 8.6589051E-01 1.7297813E+00
 7.0422903E+00 8.9372813E-01 1.7082622E+00
 7.0815590E+00 9.2144345E-01 1.6851478E+00
 7.1173508E+00 9.4877367E-01 1.6608033E+00
 7.1495662E+00 9.7541352E-01 1.6356661E+00
 6.0205472E+00 1.4451215E+00 1.8123394E+00
 6.0693802E+00 1.4324714E+00 1.8165420E+00
 6.1201028E+00 1.4196071E+00 1.8205883E+00
 6.1726342E+00 1.4061469E+00 1.8245598E+00
 6.2268954E+00 1.3919342E+00 1.8283687E+00
 6.2827459E+00 1.3768676E+00 1.8318530E+00
 6.3399690E+00 1.3608442E+00 1.8348075E+00
 6.3982926E+00 1.3437592E+00 1.8369857E+00
 6.4573944E+00 1.3255149E+00 1.8381039E+00
 6.5169120E+00 1.3060309E+00 1.8378518E+00
 6.5764485E+00 1.2852553E+00 1.8359108E+00
 6.6355783E+00 1.2631757E+00 1.8319764E+00
 6.6938542E+00 1.2398284E+00 1.8257850E+00
 6.7508179E+00 1.2153027E+00 1.8171393E+00
 6.8060162E+00 1.1897406E+00 1.8059275E+00
 6.8590216E+00 1.1633291E+00 1.7921350E+00
 6.9094530E+00 1.1362907E+00 1.7758433E+00
 6.9569984E+00 1.1088639E+00 1.7572197E+00
 7.0014243E+00 1.0812838E+00 1.7365014E+00
 7.0425901E+00 1.0537668E+00 1.7139661E+00
 7.0805095E+00 1.0265339E+00 1.6898573E+00
 7.1155272E+00 9.9999990E-01 1.6642060E+00
 6.0220814E+00 1.4108959E+00 1.8300995E+00
 6.0723562E+00 1.3966623E+00 1.8343802E+00
 6.1241378E+00 1.3824490E+00 1.8383525E+00
 6.1776157E+00 1.3676219E+00 1.8421855E+00
 6.2327415E+00 1.3519980E+00 1.8457814E+00
 6.2893723E+00 1.3354706E+00 1.8489646E+00
 6.3472732E+00 1.3179458E+00 1.8515108E+00
 6.4061447E+00 1.2993348E+00 1.8531545E+00
 6.4656390E+00 1.2795622E+00 1.8535959E+00
 6.5253703E+00 1.2585768E+00 1.8525144E+00
 6.5849223E+00 1.2363618E+00 1.8495889E+00
 6.6438555E+00 1.2129448E+00 1.8445236E+00
 6.7017156E+00 1.1884033E+00 1.8370745E+00
 6.7580460E+00 1.1628656E+00 1.8270742E+00
 6.8124057E+00 1.1365062E+00 1.8144492E+00
 6.8643881E+00 1.1095349E+00 1.7992274E+00
 6.9136430E+00 1.0821817E+00 1.7815316E+00
 6.9599031E+00 1.0546727E+00 1.7615615E+00
 7.0030104E+00 1.0272105E+00 1.7395596E+00
 7.0430048E+00 9.9999990E-01 1.7157203E+00
 7.0805095E+00 9.7346591E-01 1.6898573E+00
 6.0231489E+00 1.3748005E+00 1.8469698E+00
 6.0744575E+00 1.3592354E+00 1.8510711E+00
 6.1272334E+00 1.3436460E+00 1.8548480E+00
 6.1816185E+00 1.3274164E+00 1.8584175E+00
 6.2375855E+00 1.3103432E+00 1.8616704E+00
 6.2949679E+00 1.2923293E+00 1.8644115E+00
 6.3535058E+00 1.2732932E+00 1.8663988E+00
 6.4128726E+00 1.2531657E+00 1.8673499E+00
 6.4726947E+00 1.2318977E+00 1.8669522E+00
 6.5325642E+00 1.2094701E+00 1.8648791E+00
 6.5920476E+00 1.1859033E+00 1.8608137E+00
 6.6506937E+00 1.1612644E+00 1.8544752E+00
 6.7080453E+00 1.1356700E+00 1.8456461E+00
 6.7636527E+00 1.1092832E+00 1.8341943E+00
 6.8170933E+00 1.0823039E+00 1.8200874E+00
 6.8679881E+00 1.0549537E+00 1.8033961E+00
 6.9160301E+00 1.0274532E+00 1.7842786E+00
 6.9610262E+00 9.9999990E-01 1.7629450E+00
 7.0030104E+00 9.7278933E-01 1.7395596E+00
 7.0425901E+00 9.4623299E-01 1.7139661E+00
 6.0241034E+00 1.3367111E+00 1.8627866E+00
 6.0763470E+00 1.3198499E+00 1.8665620E+00
 6.1300005E+00 1.3028982E+00 1.8699968E+00
 6.1852003E+00 1.2852543E+00 1.8731605E+00
 6.2418963E+00 1.2667343E+00 1.8759171E+00
 6.2999017E+00 1.2472514E+00 1.8780549E+00
 6.3589291E+00 1.2267426E+00 1.8793156E+00
 6.4186260E+00 1.2051624E+00 1.8794041E+00
 6.4785961E+00 1.1824914E+00 1.8780008E+00
 6.5384131E+00 1.1587451E+00 1.8747807E+00
 6.5976316E+00 1.1339819E+00 1.8694389E+00
 6.6557952E+00 1.1083067E+00 1.8617179E+00
 6.7124506E+00 1.0818713E+00 1.8514330E+00
 6.7671633E+00 1.0548657E+00 1.8384917E+00
 6.8195386E+00 1.0275036E+00 1.8229033E+00
 6.8692389E+00 9.9999990E-01 1.8047751E+00
 6.9160301E+00 9.7254657E-01 1.7842786E+00
 6.9599031E+00 9.4532709E-01 1.7615615E+00
 7.0014242E+00 9.1871601E-01 1.7365014E+00
 6.0250009E+00 1.2966241E+00 1.8773443E+00
 6.0780849E+00 1.2784987E+00 1.8806507E+00
 6.1325080E+00 1.2601920E+00 1.8835991E+00
 6.1883923E+00 1.2411531E+00 1.8862026E+00
 6.2456706E+00 1.2212184E+00 1.8883015E+00
 6.3041309E+00 1.2003197E+00 1.8896686E+00
 6.3634608E+00 1.1784157E+00 1.8900337E+00
 6.4232850E+00 1.1554881E+00 1.8890946E+00
 6.4831886E+00 1.1315497E+00 1.8865317E+00
 6.5427330E+00 1.1066519E+00 1.8820298E+00
 6.6014672E+00 1.0808899E+00 1.8753042E+00
 6.6589374E+00 1.0544035E+00 1.8661278E+00
 6.7147027E+00 1.0273717E+00 1.8543539E+00
 6.7683545E+00 9.9999990E-01 1.8399305E+00
 6.8195386E+00 9.7249616E-01 1.8229033E+00
 6.8679881E+00 9.4504612E-01 1.8033961E+00
 6.9136430E+00 9.1781815E-01 1.7815316E+00
 6.9569984E+00 8.9113589E-01 1.7572196E+00
 6.0258178E+00 1.2546422E+00 1.8904080E+00
 6.0796360E+00 1.2352874E+00 1.8931045E+00
 6.1347014E+00 1.2156609E+00 1.8954158E+00
 6.1911237E+00 1.1952746E+00 1.8973006E+00
 6.2488168E+00 1.1739926E+00 1.8985783E+00
 6.3075458E+00 1.1517685E+00 1.8990098E+00
 6.3669760E+00 1.1285858E+00 1.8983182E+00
 6.4267131E+00 1.1044559E+00 1.8962009E+00
 6.4863295E+00 1.0794252E+00 1.8923461E+00
 6.5453808E+00 1.0535800E+00 1.8864563E+00
 6.6034177E+00 1.0270490E+00 1.8782745E+00
 6.6599977E+00 9.9999991E-01 1.8676095E+00
 6.7147027E+00 9.7262810E-01 1.8543539E+00
 6.7671633E+00 9.4513409E-01 1.8384917E+00
 6.8170933E+00 9.1769587E-01 1.8200873E+00
 6.8643881E+00 8.9046485E-01 1.7992274E+00
 6.9094530E+00 8.6370910E-01 1.7758432E+00
 6.0265333E+00 1.2109369E+00 1.9017387E+00
 6.0809621E+00 1.1904107E+00 1.9036850E+00
 6.1365271E+00 1.1695287E+00 1.9052077E+00
 6.1933253E+00 1.1478763E+00 1.9062173E+00
 6.2512528E+00 1.1253502E+00 1.9065159E+00
 6.3100540E+00 1.1019285E+00 1.9058578E+00
 6.3693757E+00 1.0776219E+00 1.9039654E+00
 6.4288103E+00 1.0524725E+00 1.9005427E+00
 6.4879236E+00 1.0265591E+00 1.8952934E+00
 6.5462725E+00 9.9999991E-01 1.8879452E+00
 6.6034177E+00 9.7295082E-01 1.8782745E+00
 6.6589374E+00 9.4559633E-01 1.8661278E+00
 6.7124506E+00 9.1812851E-01 1.8514330E+00
 6.7636527E+00 8.9071661E-01 1.8341943E+00
 6.8124057E+00 8.6349356E-01 1.8144492E+00
 6.8590216E+00 8.3667068E-01 1.7921350E+00
 6.0271285E+00 1.1657314E+00 1.9111131E+00
 6.0820298E+00 1.1441209E+00 1.9121725E+00
 6.1379388E+00 1.1220804E+00 1.9127606E+00
 6.1949403E+00 1.0992785E+00 1.9127470E+00
 6.2529139E+00 1.0756479E+00 1.9119226E+00
 6.3115868E+00 1.0511935E+00 1.9100400E+00
 6.3705925E+00 1.0259535E+00 1.9068277E+00
 6.4295161E+00 9.9999992E-01 1.9020033E+00
 6.4879236E+00 9.7344073E-01 1.8952934E+00
 6.5453808E+00 9.4641987E-01 1.8864563E+00
 6.6014672E+00 9.1910987E-01 1.8753042E+00
 6.6557952E+00 8.9169307E-01 1.8617179E+00
 6.7080453E+00 8.6432978E-01 1.8456461E+00
 6.7580460E+00 8.3713422E-01 1.8270742E+00
 6.8060162E+00 8.1025925E-01 1.8059275E+00
 6.0275890E+00 1.1192985E+00 1.9183338E+00
 6.0828126E+00 1.0967212E+00 1.9183798E+00
 6.1389008E+00 1.0736521E+00 1.9178995E+00
 6.1959266E+00 1.0498513E+00 1.9167315E+00
 6.2537557E+00 1.0252899E+00 1.9146614E+00
 6.3121025E+00 9.9999992E-01 1.9114466E+00
 6.3705925E+00 9.7404631E-01 1.9068277E+00
 6.4288103E+00 9.4752732E-01 1.9005427E+00
 6.4863295E+00 9.2057466E-01 1.8923461E+00
 6.5427330E+00 8.9334788E-01 1.8820298E+00
 6.5976316E+00 8.6601796E-01 1.8694389E+00
 6.6506937E+00 8.3873536E-01 1.8544752E+00
 6.7017156E+00 8.1159654E-01 1.8370745E+00
 6.7508179E+00 7.8469710E-01 1.8171392E+00
 6.0279027E+00 1.0719541E+00 1.9232417E+00
 6.0832905E+00 1.0485559E+00 1.9221641E+00
 6.1393881E+00 1.0246188E+00 1.9205010E+00
 6.1962583E+00 9.9999990E-01 1.9180711E+00
 6.2537557E+00 9.7470990E-01 1.9146614E+00
 6.3115868E+00 9.4880637E-01 1.9100400E+00
 6.3693757E+00 9.2237793E-01 1.9039654E+00
 6.4267132E+00 8.9554392E-01 1.8962009E+00
 6.4831886E+00 8.6845015E-01 1.8865317E+00
 6.5384132E+00 8.4125469E-01 1.8747807E+00
 6.5920476E+00 8.1409651E-01 1.8608136E+00
 6.6438556E+00 7.8705499E-01 1.8445236E+00
 6.6938542E+00 7.6017145E-01 1.8257850E+00
 6.0280616E+00 1.0240478E+00 1.9257245E+00
 6.0834511E+00 9.9999987E-01 1.9234357E+00
 6.1393880E+00 9.7538094E-01 1.9205010E+00
 6.1959266E+00 9.5014855E-01 1.9167315E+00
 6.2529138E+00 9.2435189E-01 1.9119225E+00
 6.3100540E+00 8.9807130E-01 1.9058578E+00
 6.3669760E+00 8.7141408E-01 1.8983182E+00
 6.4232850E+00 8.4451176E-01 1.8890946E+00
 6.4785961E+00 8.1750841E-01 1.8780008E+00
 6.5325642E+00 7.9052974E-01 1.8648790E+00
 6.5849223E+00 7.6363800E-01 1.8495889E+00
 6.6355783E+00 7.3682415E-01 1.8319763E+00
 6.0280616E+00 9.7595186E-01 1.9257245E+00
 6.0832904E+00 9.5144381E-01 1.9221641E+00
 6.1389007E+00 9.2634764E-01 1.9178995E+00
 6.1949402E+00 9.0072131E-01 1.9127470E+00
 6.2512528E+00 8.7464962E-01 1.9065159E+00
 6.3075458E+00 8.4823136E-01 1.8990097E+00
 6.3634608E+00 8.2158416E-01 1.8900337E+00
 6.4186260E+00 7.9483741E-01 1.8794041E+00
 6.4726948E+00 7.6810215E-01 1.8669521E+00
 6.5253703E+00 7.4142306E-01 1.8525144E+00
 6.5764485E+00 7.1474457E-01 1.8359107E+00
 6.0279026E+00 9.2804566E-01 1.9232416E+00
 6.0828125E+00 9.0327855E-01 1.9183798E+00
 6.1379387E+00 8.7791939E-01 1.9127605E+00
 6.1933253E+00 8.5212349E-01 1.9062172E+00
 6.2488168E+00 8.2600723E-01 1.8985783E+00
 6.3041308E+00 7.9968010E-01 1.8896685E+00
 6.3589291E+00 7.7325726E-01 1.8793156E+00
 6.4128726E+00 7.4683415E-01 1.8673499E+00
 6.4656390E+00 7.2043760E-01 1.8535959E+00
 6.5169120E+00 6.9396890E-01 1.8378518E+00
 6.0275888E+00 8.8070119E-01 1.9183337E+00
 6.0820297E+00 8.5587893E-01 1.9121724E+00
 6.1365270E+00 8.3047110E-01 1.9052076E+00
 6.1911236E+00 8.0472526E-01 1.8973005E+00
 6.2456706E+00 7.7878149E-01 1.8883015E+00
 6.2999017E+00 7.5274849E-01 1.8780548E+00
 6.3535058E+00 7.2670668E-01 1.8663988E+00
 6.4061447E+00 7.0066503E-01 1.8531545E+00
 6.4573945E+00 6.7448491E-01 1.8381038E+00
 6.0271283E+00 8.3426838E-01 1.9111130E+00
 6.0809619E+00 8.0958912E-01 1.9036849E+00
 6.1347012E+00 7.8433891E-01 1.8954157E+00
 6.1883922E+00 7.5884671E-01 1.8862025E+00
 6.2418962E+00 7.3326558E-01 1.8759170E+00
 6.2949679E+00 7.0767056E-01 1.8644114E+00
 6.3472732E+00 6.8205407E-01 1.8515107E+00
 6.3982926E+00 6.5624066E-01 1.8369857E+00
 6.0265330E+00 7.8906288E-01 1.9017386E+00
 6.0796358E+00 7.6471241E-01 1.8931043E+00
 6.1325078E+00 7.3980783E-01 1.8835990E+00
 6.1852001E+00 7.1474561E-01 1.8731604E+00
 6.2375855E+00 6.8965669E-01 1.8616703E+00
 6.2893723E+00 6.6452930E-01 1.8489645E+00
 6.3399690E+00 6.3915561E-01 1.8348075E+00
 6.0258175E+00 7.4535765E-01 1.8904078E+00
 6.0780847E+00 7.2150121E-01 1.8806505E+00
 6.1300003E+00 6.9710166E-01 1.8699967E+00
 6.1816183E+00 6.7258351E-01 1.8584174E+00
 6.2327414E+00 6.4800190E-01 1.8457813E+00
 6.2827459E+00 6.2313222E-01 1.8318530E+00
 6.0250006E+00 7.0337581E-01 1.8773442E+00
 6.0763467E+00 6.8014995E-01 1.8665618E+00
 6.1272332E+00 6.5635389E-01 1.8548479E+00
 6.1776156E+00 6.3237801E-01 1.8421854E+00
 6.2268954E+00 6.0806567E-01 1.8283687E+00
 6.0241031E+00 6.6328880E-01 1.8627864E+00
 6.0744573E+00 6.4076451E-01 1.8510709E+00
 6.1241376E+00 6.1755092E-01 1.8383524E+00
 6.1726340E+00 5.9385294E-01 1.8245597E+00
 6.0231486E+00 6.2519943E-01 1.8469696E+00
 6.0723559E+00 6.0333764E-01 1.8343801E+00
 6.1201026E+00 5.8039286E-01 1.8205881E+00
 6.0220812E+00 5.8910409E-01 1.8300993E+00
 6.0693800E+00 5.6752854E-01 1.8165418E+00
 6.0205470E+00 5.5487848E-01 1.8123391E+00
 5.9463384E+00 1.5117708E+00 1.7765512E+00
 5.9169720E+00 1.5375106E+00 1.7609442E+00
 5.8862908E+00 1.5640736E+00 1.7436948E+00
 5.8543929E+00 1.5912962E+00 1.7247507E+00
 5.8214138E+00 1.6190429E+00 1.7040350E+00
 5.7874823E+00 1.6471772E+00 1.6814556E+00
 5.7527428E+00 1.6755515E+00 1.6569106E+00
 5.7173757E+00 1.7039756E+00 1.6303104E+00
 5.6816077E+00 1.7322156E+00 1.6015783E+00
 5.6457094E+00 1.7599880E+00 1.5706604E+00
 5.6099876E+00 1.7869623E+00 1.5375352E+00
 5.5747648E+00 1.8127675E+00 1.5022261E+00
 5.5403536E+00 1.8370126E+00 1.4648168E+00
 5.5070354E+00 1.8593109E+00 1.4254617E+00
 5.4750485E+00 1.8793101E+00 1.3843909E+00
 5.4445874E+00 1.8967212E+00 1.3419076E+00
 5.4158063E+00 1.9113420E+00 1.2983760E+00
 5.3888236E+00 1.9230720E+00 1.2541980E+00
 5.3637248E+00 1.9319146E+00 1.2097873E+00
 5.3405620E+00 1.9379686E+00 1.1655444E+00
 5.3193752E+00 1.9414075E+00 1.1218600E+00
 5.3002000E+00 1.9424593E+00 1.0791154E+00
 5.2831546E+00 1.9414070E+00 1.0378849E+00
 4.8140176E+00 1.0694244E+00 1.6122333E+00
 4.8095320E+00 1.1143886E+00 1.5991293E+00
 4.8065841E+00 1.1605363E+00 1.5841670E+00
 4.8056501E+00 1.2080257E+00 1.5676100E+00
 4.8069931E+00 1.2567562E+00 1.5494399E+00
 4.8108342E+00 1.3065121E+00 1.5296102E+00
 4.8173798E+00 1.3570149E+00 1.5080966E+00
 4.8268164E+00 1.4079308E+00 1.4849098E+00
 4.8392975E+00 1.4588785E+00 1.4600952E+00
 4.8549331E+00 1.5094359E+00 1.4337350E+00
 4.8737797E+00 1.5591506E+00 1.4059481E+00
 4.8958314E+00 1.6075501E+00 1.3768901E+00
 4.9210152E+00 1.6541564E+00 1.3467517E+00
 4.9491856E+00 1.6984988E+00 1.3157551E+00
 4.9801268E+00 1.7401303E+00 1.2841485E+00
 5.0135533E+00 1.7786418E+00 1.2522004E+00
 5.0491199E+00 1.8136792E+00 1.2201897E+00
 5.0864302E+00 1.8449559E+00 1.1884006E+00
 5.1250598E+00 1.8722732E+00 1.1571090E+00
 5.1645663E+00 1.8955280E+00 1.1265749E+00
 5.2045084E+00 1.9147245E+00 1.0969569E+00
 5.2443184E+00 1.9299569E+00 1.0680806E+00
 4.8403548E+00 1.0983540E+00 1.6435121E+00
 4.8371931E+00 1.1454148E+00 1.6304720E+00
 4.8355938E+00 1.1932257E+00 1.6153926E+00
 4.8361439E+00 1.2422115E+00 1.5986010E+00
 4.8391245E+00 1.2923092E+00 1.5800735E+00
 4.8447546E+00 1.3432846E+00 1.5597531E+00
 4.8532317E+00 1.3948191E+00 1.5376128E+00
 4.8647262E+00 1.4465310E+00 1.5136675E+00
 4.8793677E+00 1.4979896E+00 1.4879726E+00
 4.8972337E+00 1.5487254E+00 1.4606251E+00
 4.9183390E+00 1.5982429E+00 1.4317636E+00
 4.9426286E+00 1.6460344E+00 1.4015675E+00
 4.9699721E+00 1.6915956E+00 1.3702546E+00
 5.0001637E+00 1.7344427E+00 1.3380757E+00
 5.0329222E+00 1.7741296E+00 1.3053092E+00
 5.0679011E+00 1.8102674E+00 1.2722516E+00
 5.1046981E+00 1.8425407E+00 1.2392096E+00
 5.1428811E+00 1.8707302E+00 1.2064855E+00
 5.1820142E+00 1.8947322E+00 1.1743492E+00
 5.2216672E+00 1.9145664E+00 1.1429409E+00
 5.2613282E+00 1.9303860E+00 1.1118323E+00
 4.8702724E+00 1.1278498E+00 1.6748817E+00
 4.8684818E+00 1.1765537E+00 1.6617235E+00
 4.8683700E+00 1.2259166E+00 1.6464313E+00
 4.8705534E+00 1.2763271E+00 1.6292928E+00
 4.8753208E+00 1.3277085E+00 1.6102717E+00
 4.8828847E+00 1.3797860E+00 1.5893054E+00
 4.8934280E+00 1.4321917E+00 1.5663688E+00
 4.9070985E+00 1.4844912E+00 1.5414849E+00
 4.9239942E+00 1.5362016E+00 1.5147233E+00
 4.9441509E+00 1.5868050E+00 1.4862011E+00
 4.9675325E+00 1.6357641E+00 1.4560820E+00
 4.9940254E+00 1.6825399E+00 1.4245751E+00
 5.0234344E+00 1.7266096E+00 1.3919310E+00
 5.0554842E+00 1.7674878E+00 1.3584351E+00
 5.0898270E+00 1.8047469E+00 1.3244004E+00
 5.1260545E+00 1.8380406E+00 1.2901563E+00
 5.1637236E+00 1.8671257E+00 1.2560339E+00
 5.2023899E+00 1.8918903E+00 1.2223352E+00
 5.2416220E+00 1.9123667E+00 1.1892166E+00
 5.2808975E+00 1.9287498E+00 1.1562965E+00
 4.9040200E+00 1.1581777E+00 1.7058685E+00
 4.9037373E+00 1.2083390E+00 1.6924499E+00
 4.9052840E+00 1.2590889E+00 1.6768196E+00
 4.9092797E+00 1.3107566E+00 1.6592043E+00
 4.9160024E+00 1.3632139E+00 1.6395462E+00
 4.9256492E+00 1.4161374E+00 1.6177796E+00
 4.9383803E+00 1.4691044E+00 1.5938855E+00
 4.9543106E+00 1.5216258E+00 1.5678992E+00
 4.9734957E+00 1.5731667E+00 1.5399100E+00
 4.9959192E+00 1.6231642E+00 1.5100606E+00
 5.0214845E+00 1.6710465E+00 1.4785459E+00
 5.0500089E+00 1.7162537E+00 1.4456108E+00
 5.0812258E+00 1.7582613E+00 1.4115443E+00
 5.1147886E+00 1.7966035E+00 1.3766723E+00
 5.1502862E+00 1.8309025E+00 1.3413455E+00
 5.1872673E+00 1.8608916E+00 1.3059261E+00
 5.2252822E+00 1.8864501E+00 1.2707505E+00
 5.2638999E+00 1.9076201E+00 1.2360255E+00
 5.3026071E+00 1.9246385E+00 1.2014584E+00
 4.9418691E+00 1.1891999E+00 1.7360120E+00
 4.9432551E+00 1.2406364E+00 1.7221863E+00
 4.9466409E+00 1.2925724E+00 1.7060755E+00