# TIME = 3.000000
VARIABLES = X, Y, Z, FX, FY, FZ
ZONE N=29232 E=58212 F=FEPOINT ET=TRIANGLE
  0.000E+00  9.502E-01  1.243E-03 6.2099162E+00 4.7957715E-01 9.6768741E+00
  0.000E+00  1.000E+00  0.000E+00 6.1986069E+00 -3.0892642E-06 9.6893804E+00
  4.318E-02  9.751E-01  3.108E-04 6.1999777E+00 2.3692025E-01 9.5727581E+00
  0.000E+00  1.050E+00  1.243E-03 6.2099162E+00 -4.7958464E-01 9.6768743E+00
  4.318E-02  1.025E+00  3.108E-04 6.1999777E+00 -2.3692698E-01 9.5727583E+00
  0.000E+00  1.100E+00  4.969E-03 6.2474665E+00 -9.6037499E-01 9.6406177E+00
  4.318E-02  1.075E+00  2.796E-03 6.2256079E+00 -7.1130529E-01 9.5484289E+00
  0.000E+00  1.149E+00  1.117E-02 6.3180253E+00 -1.4437503E+00 9.5828781E+00
  4.318E-02  1.124E+00  7.761E-03 6.2800477E+00 -1.1876057E+00 9.5016816E+00
  0.000E+00  1.198E+00  1.983E-02 6.4196012E+00 -1.9269860E+00 9.5035044E+00
  4.318E-02  1.174E+00  1.519E-02 6.3655356E+00 -1.6661161E+00 9.4342803E+00
  0.000E+00  1.247E+00  3.092E-02 6.5313590E+00 -2.4004617E+00 9.3975008E+00
  4.318E-02  1.223E+00  2.507E-02 6.4750987E+00 -2.1402818E+00 9.3435768E+00
  0.000E+00  1.295E+00  4.443E-02 6.6252922E+00 -2.8567879E+00 9.2602868E+00
  4.318E-02  1.271E+00  3.738E-02 6.5824062E+00 -2.5997143E+00 9.2232229E+00
  0.000E+00  1.342E+00  6.031E-02 6.7076707E+00 -3.3070093E+00 9.1014165E+00
  4.318E-02  1.318E+00  5.207E-02 6.6651804E+00 -3.0453545E+00 9.0750469E+00
  0.000E+00  1.388E+00  7.852E-02 6.8699539E+00 -3.7622625E+00 8.9297403E+00
  4.318E-02  1.365E+00  6.913E-02 6.7766531E+00 -3.4930100E+00 8.9118615E+00
  0.000E+00  1.434E+00  9.903E-02 7.0067327E+00 -4.2081687E+00 8.7345422E+00
  4.318E-02  1.411E+00  8.849E-02 6.9521645E+00 -3.9409629E+00 8.7324799E+00
  0.000E+00  1.478E+00  1.218E-01 7.0671910E+00 -4.6346471E+00 8.5105901E+00
  4.318E-02  1.456E+00  1.101E-01 7.0468883E+00 -4.3715038E+00 8.5244963E+00
  0.000E+00  1.521E+00  1.467E-01 7.2296118E+00 -5.0524282E+00 8.2688551E+00
  4.318E-02  1.500E+00  1.340E-01 7.1297307E+00 -4.7874179E+00 8.2932632E+00
  0.000E+00  1.563E+00  1.738E-01 7.2790978E+00 -5.4599179E+00 8.0079906E+00
  4.318E-02  1.543E+00  1.600E-01 7.2781830E+00 -5.1965125E+00 8.0459394E+00
  0.000E+00  1.604E+00  2.029E-01 7.3701041E+00 -5.8515501E+00 7.7251580E+00
  4.318E-02  1.584E+00  1.881E-01 7.3062684E+00 -5.5913056E+00 7.7768726E+00
  0.000E+00  1.643E+00  2.340E-01 7.4259440E+00 -6.2294705E+00 7.4240322E+00
  4.318E-02  1.623E+00  2.182E-01 7.4019977E+00 -5.9714845E+00 7.4881028E+00
  0.000E+00  1.680E+00  2.669E-01 7.4301349E+00 -6.5918172E+00 7.1042719E+00
  4.318E-02  1.662E+00  2.502E-01 7.4166663E+00 -6.3376288E+00 7.1813909E+00
  0.000E+00  1.716E+00  3.018E-01 7.4630105E+00 -6.9376270E+00 6.7667801E+00
  4.318E-02  1.698E+00  2.841E-01 7.4630346E+00 -6.6875230E+00 6.8563753E+00
  0.000E+00  1.750E+00  3.383E-01 7.4166413E+00 -7.2664922E+00 6.4127337E+00
  4.318E-02  1.733E+00  3.198E-01 7.4301587E+00 -7.0210682E+00 6.5146177E+00
  0.000E+00  1.782E+00  3.765E-01 7.4019717E+00 -7.5768359E+00 6.0422526E+00
  4.318E-02  1.766E+00  3.572E-01 7.4259669E+00 -7.3370730E+00 6.1565121E+00
  0.000E+00  1.812E+00  4.163E-01 7.3062421E+00 -7.8690406E+00 5.6575700E+00
  4.318E-02  1.797E+00  3.962E-01 7.3701258E+00 -7.6346840E+00 5.7830193E+00
  0.000E+00  1.840E+00  4.575E-01 7.2781560E+00 -8.1412753E+00 5.2581007E+00
  4.318E-02  1.826E+00  4.367E-01 7.2791175E+00 -7.9141967E+00 5.3959713E+00
  0.000E+00  1.866E+00  5.000E-01 7.1297025E+00 -8.3915538E+00 4.8441557E+00
  4.318E-02  1.853E+00  4.786E-01 7.2296289E+00 -8.1719997E+00 4.9932525E+00
  0.000E+00  1.890E+00  5.438E-01 7.0468599E+00 -8.6255243E+00 4.4233107E+00
  4.318E-02  1.878E+00  5.217E-01 7.0672067E+00 -8.4109324E+00 4.5803675E+00
  0.000E+00  1.912E+00  5.887E-01 6.9521348E+00 -8.8359469E+00 3.9876640E+00
  4.318E-02  1.901E+00  5.661E-01 7.0067482E+00 -8.6322334E+00 4.1588915E+00
  0.000E+00  1.931E+00  6.347E-01 6.7766205E+00 -9.0174801E+00 3.5344007E+00
  4.318E-02  1.921E+00  6.116E-01 6.8699691E+00 -8.8251511E+00 3.7182090E+00
  0.000E+00  1.948E+00  6.815E-01 6.6651457E+00 -9.1826020E+00 3.0814440E+00
  4.318E-02  1.940E+00  6.580E-01 6.7076853E+00 -8.9948421E+00 3.2682826E+00
  0.000E+00  1.963E+00  7.292E-01 6.5823729E+00 -9.3325194E+00 2.6305291E+00
  4.318E-02  1.956E+00  7.052E-01 6.6253064E+00 -9.1518314E+00 2.8233244E+00
  0.000E+00  1.975E+00  7.775E-01 6.4750674E+00 -9.4543039E+00 2.1656551E+00
  4.318E-02  1.969E+00  7.532E-01 6.5313733E+00 -9.2874277E+00 2.3723372E+00
  0.000E+00  1.985E+00  8.264E-01 6.3655049E+00 -9.5460888E+00 1.6858677E+00
  4.318E-02  1.980E+00  8.019E-01 6.4196135E+00 -9.3921953E+00 1.9044066E+00
  0.000E+00  1.992E+00  8.757E-01 6.2800165E+00 -9.6142863E+00 1.2016827E+00
  4.318E-02  1.989E+00  8.510E-01 6.3180347E+00 -9.4706406E+00 1.4268330E+00
  0.000E+00  1.997E+00  9.253E-01 6.2255775E+00 -9.6615891E+00 7.1973397E-01
  4.318E-02  1.995E+00  9.004E-01 6.2474745E+00 -9.5277027E+00 9.4912166E-01
  0.000E+00  2.000E+00  9.751E-01 6.1999484E+00 -9.6862108E+00 2.3973336E-01
  4.318E-02  1.999E+00  9.502E-01 6.2099257E+00 -9.5635391E+00 4.7396393E-01
  0.000E+00  2.000E+00  1.025E+00 6.1999487E+00 -9.6862077E+00 -2.3972973E-01
  4.318E-02  2.000E+00  1.000E+00 6.1986168E+00 -9.5758992E+00 1.7854065E-06
  0.000E+00  1.997E+00  1.075E+00 6.2255781E+00 -9.6615790E+00 -7.1973035E-01
  4.318E-02  1.999E+00  1.050E+00 6.2099259E+00 -9.5635328E+00 -4.7396036E-01
  0.000E+00  1.992E+00  1.124E+00 6.2800174E+00 -9.6142709E+00 -1.2016791E+00
  4.318E-02  1.995E+00  1.100E+00 6.2474749E+00 -9.5276889E+00 -9.4911810E-01
  0.000E+00  1.985E+00  1.174E+00 6.3655060E+00 -9.5460802E+00 -1.6858643E+00
  4.318E-02  1.989E+00  1.149E+00 6.3180355E+00 -9.4706265E+00 -1.4268295E+00
  0.000E+00  1.975E+00  1.223E+00 6.4750686E+00 -9.4543182E+00 -2.1656517E+00
  4.318E-02  1.980E+00  1.198E+00 6.4196148E+00 -9.3921978E+00 -1.9044031E+00
  0.000E+00  1.963E+00  1.271E+00 6.5823743E+00 -9.3325331E+00 -2.6305256E+00
  4.318E-02  1.969E+00  1.247E+00 6.5313749E+00 -9.2874477E+00 -2.3723337E+00
  0.000E+00  1.948E+00  1.318E+00 6.6651475E+00 -9.1825678E+00 -3.0814405E+00
  4.318E-02  1.956E+00  1.295E+00 6.6253083E+00 -9.1518245E+00 -2.8233209E+00
  0.000E+00  1.931E+00  1.365E+00 6.7766227E+00 -9.0174518E+00 -3.5343972E+00
  4.318E-02  1.940E+00  1.342E+00 6.7076874E+00 -8.9947963E+00 -3.2682791E+00
  0.000E+00  1.912E+00  1.411E+00 6.9521366E+00 -8.8359796E+00 -3.9876605E+00
  4.318E-02  1.921E+00  1.388E+00 6.8699716E+00 -8.8251612E+00 -3.7182060E+00
  0.000E+00  1.890E+00  1.456E+00 7.0468626E+00 -8.6255071E+00 -4.4233075E+00
  4.318E-02  1.901E+00  1.434E+00 7.0067508E+00 -8.6322540E+00 -4.1588883E+00
  0.000E+00  1.866E+00  1.500E+00 7.1297056E+00 -8.3915248E+00 -4.8441522E+00
  4.318E-02  1.878E+00  1.478E+00 7.0672093E+00 -8.4108883E+00 -4.5803637E+00
  0.000E+00  1.840E+00  1.543E+00 7.2781593E+00 -8.1412981E+00 -5.2580982E+00
  4.318E-02  1.853E+00  1.521E+00 7.2296318E+00 -8.1720084E+00 -4.9932498E+00
  0.000E+00  1.812E+00  1.584E+00 7.3062453E+00 -7.8690203E+00 -5.6575664E+00
  4.318E-02  1.826E+00  1.563E+00 7.2791205E+00 -7.9141975E+00 -5.3959681E+00
  0.000E+00  1.782E+00  1.623E+00 7.4019748E+00 -7.5768382E+00 -6.0422499E+00
  4.318E-02  1.797E+00  1.604E+00 7.3701292E+00 -7.6346697E+00 -5.7830163E+00
  0.000E+00  1.750E+00  1.662E+00 7.4166444E+00 -7.2664875E+00 -6.4127305E+00
  4.318E-02  1.766E+00  1.643E+00 7.4259706E+00 -7.3370810E+00 -6.1565097E+00
  0.000E+00  1.716E+00  1.698E+00 7.4630142E+00 -6.9376216E+00 -6.7667774E+00
  4.318E-02  1.733E+00  1.680E+00 7.4301625E+00 -7.0210567E+00 -6.5146146E+00
  0.000E+00  1.680E+00  1.733E+00 7.4301394E+00 -6.5918163E+00 -7.1042696E+00
  4.318E-02  1.698E+00  1.716E+00 7.4630383E+00 -6.6875243E+00 -6.8563728E+00
  0.000E+00  1.643E+00  1.766E+00 7.4259492E+00 -6.2294660E+00 -7.4240305E+00
  4.318E-02  1.662E+00  1.750E+00 7.4166694E+00 -6.3376196E+00 -7.1813876E+00
  0.000E+00  1.604E+00  1.797E+00 7.3701085E+00 -5.8515455E+00 -7.7251557E+00
  4.318E-02  1.623E+00  1.782E+00 7.4020006E+00 -5.9714792E+00 -7.4881001E+00
  0.000E+00  1.563E+00  1.826E+00 7.2791005E+00 -5.4599052E+00 -8.0079866E+00
  4.318E-02  1.584E+00  1.812E+00 7.3062722E+00 -5.5912998E+00 -7.7768707E+00
  0.000E+00  1.521E+00  1.853E+00 7.2296136E+00 -5.0524149E+00 -8.2688502E+00
  4.318E-02  1.543E+00  1.840E+00 7.2781883E+00 -5.1965114E+00 -8.0459388E+00
  0.000E+00  1.478E+00  1.878E+00 7.0671934E+00 -4.6346390E+00 -8.5105869E+00
  4.318E-02  1.500E+00  1.866E+00 7.1297373E+00 -4.7874140E+00 -8.2932625E+00
  0.000E+00  1.434E+00  1.901E+00 7.0067367E+00 -4.2081762E+00 -8.7345434E+00
  4.318E-02  1.456E+00  1.890E+00 7.0468948E+00 -4.3714945E+00 -8.5244937E+00
  0.000E+00  1.388E+00  1.921E+00 6.8699596E+00 -3.7622729E+00 -8.9297451E+00
  4.318E-02  1.411E+00  1.912E+00 6.9521691E+00 -3.9409457E+00 -8.7324746E+00
  0.000E+00  1.342E+00  1.940E+00 6.7076786E+00 -3.3070118E+00 -9.1014214E+00
  4.318E-02  1.365E+00  1.931E+00 6.7766544E+00 -3.4929927E+00 -8.9118552E+00
  0.000E+00  1.295E+00  1.956E+00 6.6253016E+00 -2.8567724E+00 -9.2602879E+00
  4.318E-02  1.318E+00  1.948E+00 6.6651791E+00 -3.0453479E+00 -9.0750423E+00
  0.000E+00  1.247E+00  1.969E+00 6.5313677E+00 -2.4004338E+00 -9.3974969E+00
  4.318E-02  1.271E+00  1.963E+00 6.5824054E+00 -2.5997174E+00 -9.2232218E+00
  0.000E+00  1.198E+00  1.980E+00 6.4196071E+00 -1.9269564E+00 -9.5034964E+00
  4.318E-02  1.223E+00  1.975E+00 6.4751011E+00 -2.1402893E+00 -9.3435791E+00
  0.000E+00  1.149E+00  1.989E+00 6.3180283E+00 -1.4437276E+00 -9.5828676E+00
  4.318E-02  1.174E+00  1.985E+00 6.3655415E+00 -1.6661206E+00 -9.4342850E+00
  0.000E+00  1.100E+00  1.995E+00 6.2474680E+00 -9.6035984E-01 -9.6406060E+00
  4.318E-02  1.124E+00  1.992E+00 6.2800555E+00 -1.1876065E+00 -9.5016879E+00
  0.000E+00  1.050E+00  1.999E+00 6.2099176E+00 -4.7957384E-01 -9.6768622E+00
  4.318E-02  1.075E+00  1.997E+00 6.2256159E+00 -7.1130084E-01 -9.5484360E+00
  0.000E+00  1.000E+00  2.000E+00 6.1986084E+00 3.3872434E-06 -9.6893683E+00
  4.318E-02  1.025E+00  2.000E+00 6.1999853E+00 -2.3692085E-01 -9.5727659E+00
  0.000E+00  9.502E-01  1.999E+00 6.2099177E+00 4.7958193E-01 -9.6768624E+00
  4.318E-02  9.751E-01  2.000E+00 6.1999854E+00 2.3692815E-01 -9.5727660E+00
  0.000E+00  9.004E-01  1.995E+00 6.2474682E+00 9.6036711E-01 -9.6406064E+00
  4.318E-02  9.253E-01  1.997E+00 6.2256161E+00 7.1130892E-01 -9.5484363E+00
  0.000E+00  8.510E-01  1.989E+00 6.3180286E+00 1.4437348E+00 -9.5828683E+00
  4.318E-02  8.757E-01  1.992E+00 6.2800558E+00 1.1876133E+00 -9.5016884E+00
  0.000E+00  8.019E-01  1.980E+00 6.4196074E+00 1.9269642E+00 -9.5034973E+00
  4.318E-02  8.264E-01  1.985E+00 6.3655418E+00 1.6661285E+00 -9.4342858E+00
  0.000E+00  7.532E-01  1.969E+00 6.5313681E+00 2.4004408E+00 -9.3974980E+00
  4.318E-02  7.775E-01  1.975E+00 6.4751015E+00 2.1402964E+00 -9.3435801E+00
  0.000E+00  7.052E-01  1.956E+00 6.6253021E+00 2.8567797E+00 -9.2602892E+00
  4.318E-02  7.292E-01  1.963E+00 6.5824059E+00 2.5997247E+00 -9.2232230E+00
  0.000E+00  6.580E-01  1.940E+00 6.7076792E+00 3.3070185E+00 -9.1014229E+00
  4.318E-02  6.815E-01  1.948E+00 6.6651797E+00 3.0453546E+00 -9.0750437E+00
  0.000E+00  6.116E-01  1.921E+00 6.8699604E+00 3.7622811E+00 -8.9297470E+00
  4.318E-02  6.347E-01  1.931E+00 6.7766550E+00 3.4930003E+00 -8.9118569E+00
  0.000E+00  5.661E-01  1.901E+00 7.0067375E+00 4.2081811E+00 -8.7345451E+00
  4.318E-02  5.887E-01  1.912E+00 6.9521696E+00 3.9409522E+00 -8.7324758E+00
  0.000E+00  5.217E-01  1.878E+00 7.0671942E+00 4.6346466E+00 -8.5105889E+00
  4.318E-02  5.438E-01  1.890E+00 7.0468956E+00 4.3715002E+00 -8.5244956E+00
  0.000E+00  4.786E-01  1.853E+00 7.2296145E+00 5.0524206E+00 -8.2688522E+00
  4.318E-02  5.000E-01  1.866E+00 7.1297382E+00 4.7874217E+00 -8.2932645E+00
  0.000E+00  4.367E-01  1.826E+00 7.2791014E+00 5.4599128E+00 -8.0079888E+00
  4.318E-02  4.575E-01  1.840E+00 7.2781891E+00 5.1965171E+00 -8.0459408E+00
  0.000E+00  3.962E-01  1.797E+00 7.3701094E+00 5.8515501E+00 -7.7251580E+00
  4.318E-02  4.163E-01  1.812E+00 7.3062731E+00 5.5913072E+00 -7.7768730E+00
  0.000E+00  3.572E-01  1.766E+00 7.4259501E+00 6.2294731E+00 -7.4240329E+00
  4.318E-02  3.765E-01  1.782E+00 7.4020015E+00 5.9714833E+00 -7.4881023E+00
  0.000E+00  3.198E-01  1.733E+00 7.4301404E+00 6.5918185E+00 -7.1042722E+00
  4.318E-02  3.383E-01  1.750E+00 7.4166704E+00 6.3376275E+00 -7.1813902E+00
  0.000E+00  2.841E-01  1.698E+00 7.4630151E+00 6.9376268E+00 -6.7667799E+00
  4.318E-02  3.018E-01  1.716E+00 7.4630392E+00 6.6875228E+00 -6.8563750E+00
  0.000E+00  2.502E-01  1.662E+00 7.4166454E+00 7.2664914E+00 -6.4127333E+00
  4.318E-02  2.669E-01  1.680E+00 7.4301635E+00 7.0210686E+00 -6.5146177E+00
  0.000E+00  2.182E-01  1.623E+00 7.4019758E+00 7.5768354E+00 -6.0422523E+00
  4.318E-02  2.340E-01  1.643E+00 7.4259716E+00 7.3370734E+00 -6.1565121E+00
  0.000E+00  1.881E-01  1.584E+00 7.3062463E+00 7.8690406E+00 -5.6575698E+00
  4.318E-02  2.029E-01  1.604E+00 7.3701301E+00 7.6346841E+00 -5.7830191E+00
  0.000E+00  1.600E-01  1.543E+00 7.2781602E+00 8.1412756E+00 -5.2581006E+00
  4.318E-02  1.738E-01  1.563E+00 7.2791214E+00 7.9141966E+00 -5.3959711E+00
  0.000E+00  1.340E-01  1.500E+00 7.1297064E+00 8.3915540E+00 -4.8441555E+00
  4.318E-02  1.467E-01  1.521E+00 7.2296326E+00 8.1719995E+00 -4.9932523E+00
  0.000E+00  1.101E-01  1.456E+00 7.0468635E+00 8.6255244E+00 -4.4233106E+00
  4.318E-02  1.218E-01  1.478E+00 7.0672102E+00 8.4109323E+00 -4.5803673E+00
  0.000E+00  8.849E-02  1.411E+00 6.9521379E+00 8.8359463E+00 -3.9876636E+00
  4.318E-02  9.903E-02  1.434E+00 7.0067515E+00 8.6322334E+00 -4.1588913E+00
  0.000E+00  6.913E-02  1.365E+00 6.7766235E+00 9.0174800E+00 -3.5344005E+00
  4.318E-02  7.852E-02  1.388E+00 6.8699722E+00 8.8251512E+00 -3.7182089E+00
  0.000E+00  5.207E-02  1.318E+00 6.6651483E+00 9.1826017E+00 -3.0814438E+00
  4.318E-02  6.031E-02  1.342E+00 6.7076881E+00 8.9948421E+00 -3.2682825E+00
  0.000E+00  3.738E-02  1.271E+00 6.5823751E+00 9.3325191E+00 -2.6305289E+00
  4.318E-02  4.443E-02  1.295E+00 6.6253090E+00 9.1518315E+00 -2.8233242E+00
  0.000E+00  2.507E-02  1.223E+00 6.4750693E+00 9.4543036E+00 -2.1656550E+00
  4.318E-02  3.092E-02  1.247E+00 6.5313755E+00 9.2874278E+00 -2.3723371E+00
  0.000E+00  1.519E-02  1.174E+00 6.3655066E+00 9.5460886E+00 -1.6858676E+00
  4.318E-02  1.983E-02  1.198E+00 6.4196154E+00 9.3921953E+00 -1.9044065E+00
  0.000E+00  7.761E-03  1.124E+00 6.2800179E+00 9.6142864E+00 -1.2016826E+00
  4.318E-02  1.117E-02  1.149E+00 6.3180360E+00 9.4706406E+00 -1.4268329E+00
  0.000E+00  2.796E-03  1.075E+00 6.2255786E+00 9.6615892E+00 -7.1973382E-01
  4.318E-02  4.969E-03  1.100E+00 6.2474754E+00 9.5277026E+00 -9.4912155E-01
  0.000E+00  3.108E-04  1.025E+00 6.1999491E+00 9.6862108E+00 -2.3973320E-01
  4.318E-02  1.243E-03  1.050E+00 6.2099263E+00 9.5635391E+00 -4.7396383E-01
  0.000E+00  3.108E-04  9.751E-01 6.1999488E+00 9.6862077E+00 2.3972989E-01
  4.318E-02  0.000E+00  1.000E+00 6.1986172E+00 9.5758992E+00 -1.6924811E-06
  0.000E+00  2.796E-03  9.253E-01 6.2255777E+00 9.6615790E+00 7.1973049E-01
  4.318E-02  1.243E-03  9.502E-01 6.2099260E+00 9.5635329E+00 4.7396044E-01
  0.000E+00  7.761E-03  8.757E-01 6.2800167E+00 9.6142708E+00 1.2016792E+00
  4.318E-02  4.969E-03  9.004E-01 6.2474747E+00 9.5276890E+00 9.4911818E-01
  0.000E+00  1.519E-02  8.264E-01 6.3655050E+00 9.5460803E+00 1.6858643E+00
  4.318E-02  1.117E-02  8.510E-01 6.3180348E+00 9.4706265E+00 1.4268296E+00
  0.000E+00  2.507E-02  7.775E-01 6.4750675E+00 9.4543184E+00 2.1656517E+00
  4.318E-02  1.983E-02  8.019E-01 6.4196137E+00 9.3921978E+00 1.9044032E+00
  0.000E+00  3.738E-02  7.292E-01 6.5823729E+00 9.3325334E+00 2.6305256E+00
  4.318E-02  3.092E-02  7.532E-01 6.5313733E+00 9.2874477E+00 2.3723338E+00
  0.000E+00  5.207E-02  6.815E-01 6.6651457E+00 9.1825681E+00 3.0814406E+00
  4.318E-02  4.443E-02  7.052E-01 6.6253064E+00 9.1518245E+00 2.8233209E+00
  0.000E+00  6.913E-02  6.347E-01 6.7766205E+00 9.0174519E+00 3.5343973E+00
  4.318E-02  6.031E-02  6.580E-01 6.7076852E+00 8.9947963E+00 3.2682791E+00
  0.000E+00  8.849E-02  5.887E-01 6.9521342E+00 8.8359802E+00 3.9876607E+00
  4.318E-02  7.852E-02  6.116E-01 6.8699692E+00 8.8251611E+00 3.7182060E+00
  0.000E+00  1.101E-01  5.438E-01 7.0468597E+00 8.6255071E+00 4.4233074E+00
  4.318E-02  9.903E-02  5.661E-01 7.0067481E+00 8.6322541E+00 4.1588883E+00
  0.000E+00  1.340E-01  5.000E-01 7.1297023E+00 8.3915247E+00 4.8441522E+00
  4.318E-02  1.218E-01  5.217E-01 7.0672065E+00 8.4108885E+00 4.5803637E+00
  0.000E+00  1.600E-01  4.575E-01 7.2781558E+00 8.1412980E+00 5.2580982E+00
  4.318E-02  1.467E-01  4.786E-01 7.2296287E+00 8.1720087E+00 4.9932499E+00
  0.000E+00  1.881E-01  4.163E-01 7.3062418E+00 7.8690205E+00 5.6575664E+00
  4.318E-02  1.738E-01  4.367E-01 7.2791172E+00 7.9141978E+00 5.3959681E+00
  0.000E+00  2.182E-01  3.765E-01 7.4019714E+00 7.5768389E+00 6.0422500E+00
  4.318E-02  2.029E-01  3.962E-01 7.3701256E+00 7.6346698E+00 5.7830162E+00
  0.000E+00  2.502E-01  3.383E-01 7.4166410E+00 7.2664886E+00 6.4127307E+00
  4.318E-02  2.340E-01  3.572E-01 7.4259666E+00 7.3370807E+00 6.1565095E+00
  0.000E+00  2.841E-01  3.018E-01 7.4630102E+00 6.9376220E+00 6.7667774E+00
  4.318E-02  2.669E-01  3.198E-01 7.4301584E+00 7.0210565E+00 6.5146145E+00
  0.000E+00  3.198E-01  2.669E-01 7.4301346E+00 6.5918153E+00 7.1042692E+00
  4.318E-02  3.018E-01  2.841E-01 7.4630343E+00 6.6875248E+00 6.8563729E+00
  0.000E+00  3.572E-01  2.340E-01 7.4259436E+00 6.2294637E+00 7.4240297E+00
  4.318E-02  3.383E-01  2.502E-01 7.4166660E+00 6.3376212E+00 7.1813880E+00
  0.000E+00  3.962E-01  2.029E-01 7.3701037E+00 5.8515457E+00 7.7251556E+00
  4.318E-02  3.765E-01  2.182E-01 7.4019974E+00 5.9714807E+00 7.4881004E+00
  0.000E+00  4.367E-01  1.738E-01 7.2790974E+00 5.4599106E+00 8.0079882E+00
  4.318E-02  4.163E-01  1.881E-01 7.3062681E+00 5.5912986E+00 7.7768701E+00
  0.000E+00  4.786E-01  1.467E-01 7.2296115E+00 5.0524229E+00 8.2688529E+00
  4.318E-02  4.575E-01  1.600E-01 7.2781827E+00 5.1965072E+00 8.0459371E+00
  0.000E+00  5.217E-01  1.218E-01 7.0671906E+00 4.6346399E+00 8.5105879E+00
  4.318E-02  5.000E-01  1.340E-01 7.1297304E+00 4.7874106E+00 8.2932609E+00
  0.000E+00  5.661E-01  9.903E-02 7.0067323E+00 4.2081642E+00 8.7345402E+00
  4.318E-02  5.438E-01  1.101E-01 7.0468880E+00 4.3714986E+00 8.5244944E+00
  0.000E+00  6.116E-01  7.852E-02 6.8699537E+00 3.7622548E+00 8.9297385E+00
  4.318E-02  5.887E-01  8.849E-02 6.9521640E+00 3.9409565E+00 8.7324776E+00
  0.000E+00  6.580E-01  6.031E-02 6.7076705E+00 3.3070031E+00 9.1014150E+00
  4.318E-02  6.347E-01  6.913E-02 6.7766529E+00 3.4930029E+00 8.9118599E+00
  0.000E+00  7.052E-01  4.443E-02 6.6252920E+00 2.8567812E+00 9.2602854E+00
  4.318E-02  6.815E-01  5.207E-02 6.6651801E+00 3.0453483E+00 9.0750454E+00
  0.000E+00  7.532E-01  3.092E-02 6.5313588E+00 2.4004553E+00 9.3974996E+00
  4.318E-02  7.292E-01  3.738E-02 6.5824060E+00 2.5997075E+00 9.2232216E+00
  0.000E+00  8.019E-01  1.983E-02 6.4196011E+00 1.9269788E+00 9.5035034E+00
  4.318E-02  7.775E-01  2.507E-02 6.4750985E+00 2.1402752E+00 9.3435758E+00
  0.000E+00  8.510E-01  1.117E-02 6.3180252E+00 1.4437436E+00 9.5828773E+00
  4.318E-02  8.264E-01  1.519E-02 6.3655354E+00 1.6661087E+00 9.4342794E+00
  0.000E+00  9.004E-01  4.969E-03 6.2474664E+00 9.6036832E-01 9.6406172E+00
  4.318E-02  8.757E-01  7.761E-03 6.2800477E+00 1.1875995E+00 9.5016810E+00
  4.318E-02  9.253E-01  2.796E-03 6.2256079E+00 7.1129778E-01 9.5484285E+00
  1.000E+01  1.050E+00  1.243E-03 6.2099162E+00 -4.7958464E-01 9.6768743E+00
  1.000E+01  1.000E+00  5.551E-16 6.1986069E+00 -3.0892642E-06 9.6893804E+00
  9.957E+00  1.025E+00  3.108E-04 6.1999653E+00 -2.4255993E-01 9.8003904E+00
  1.000E+01  9.502E-01  1.243E-03 6.2099162E+00 4.7957715E-01 9.6768741E+00
  9.957E+00  9.751E-01  3.108E-04 6.1999653E+00 2.4255326E-01 9.8003902E+00
  1.000E+01  9.004E-01  4.969E-03 6.2474664E+00 9.6036832E-01 9.6406172E+00
  9.957E+00  9.253E-01  2.796E-03 6.2255959E+00 7.2821062E-01 9.7754820E+00
  1.000E+01  8.510E-01  1.117E-02 6.3180252E+00 1.4437436E+00 9.5828773E+00
  9.957E+00  8.757E-01  7.761E-03 6.2800359E+00 1.2158404E+00 9.7276225E+00
  1.000E+01  8.019E-01  1.983E-02 6.4196011E+00 1.9269788E+00 9.5035034E+00
  9.957E+00  8.264E-01  1.519E-02 6.3655236E+00 1.7057297E+00 9.6586182E+00
  1.000E+01  7.532E-01  3.092E-02 6.5313588E+00 2.4004553E+00 9.3974996E+00
  9.957E+00  7.775E-01  2.507E-02 6.4750849E+00 2.1911702E+00 9.5657578E+00
  1.000E+01  7.052E-01  4.443E-02 6.6252920E+00 2.8567812E+00 9.2602854E+00
  9.957E+00  7.292E-01  3.738E-02 6.5823901E+00 2.6615264E+00 9.4425418E+00
  1.000E+01  6.580E-01  6.031E-02 6.7076705E+00 3.3070031E+00 9.1014150E+00
  9.957E+00  6.815E-01  5.207E-02 6.6651638E+00 3.1177648E+00 9.2908420E+00
  1.000E+01  6.116E-01  7.852E-02 6.8699537E+00 3.7622548E+00 8.9297385E+00
  9.957E+00  6.347E-01  6.913E-02 6.7766381E+00 3.5760660E+00 9.1237761E+00
  1.000E+01  5.661E-01  9.903E-02 7.0067323E+00 4.2081642E+00 8.7345402E+00
  9.957E+00  5.887E-01  8.849E-02 6.9521510E+00 4.0346710E+00 8.9401276E+00
  1.000E+01  5.217E-01  1.218E-01 7.0671906E+00 4.6346399E+00 8.5105879E+00
  9.957E+00  5.438E-01  1.101E-01 7.0468762E+00 4.4754511E+00 8.7271996E+00
  1.000E+01  4.786E-01  1.467E-01 7.2296115E+00 5.0524229E+00 8.2688529E+00
  9.957E+00  5.000E-01  1.340E-01 7.1297180E+00 4.9012539E+00 8.4904671E+00
  1.000E+01  4.367E-01  1.738E-01 7.2790974E+00 5.4599106E+00 8.0079882E+00
  9.957E+00  4.575E-01  1.600E-01 7.2781693E+00 5.3200788E+00 8.2372622E+00
  1.000E+01  3.962E-01  2.029E-01 7.3701037E+00 5.8515457E+00 7.7251556E+00
  9.957E+00  4.163E-01  1.881E-01 7.3062542E+00 5.7242573E+00 7.9617976E+00
  1.000E+01  3.572E-01  2.340E-01 7.4259436E+00 6.2294637E+00 7.4240297E+00
  9.957E+00  3.765E-01  2.182E-01 7.4019833E+00 6.1134787E+00 7.6661617E+00
  1.000E+01  3.198E-01  2.669E-01 7.4301346E+00 6.5918153E+00 7.1042692E+00
  9.957E+00  3.383E-01  2.502E-01 7.4166526E+00 6.4883254E+00 7.3521566E+00
  1.000E+01  2.841E-01  3.018E-01 7.4630102E+00 6.9376220E+00 6.7667774E+00
  9.957E+00  3.018E-01  2.841E-01 7.4630209E+00 6.8465491E+00 7.0194132E+00
  1.000E+01  2.502E-01  3.383E-01 7.4166410E+00 7.2664886E+00 6.4127307E+00
  9.957E+00  2.669E-01  3.198E-01 7.4301445E+00 7.1880118E+00 6.6695279E+00
  1.000E+01  2.182E-01  3.765E-01 7.4019714E+00 7.5768389E+00 6.0422500E+00
  9.957E+00  2.340E-01  3.572E-01 7.4259529E+00 7.5115512E+00 6.3029075E+00
  1.000E+01  1.881E-01  4.163E-01 7.3062418E+00 7.8690205E+00 5.6575664E+00
  9.957E+00  2.029E-01  3.962E-01 7.3701117E+00 7.8162170E+00 5.9205321E+00
  1.000E+01  1.600E-01  4.575E-01 7.2781558E+00 8.1412980E+00 5.2580982E+00
  9.957E+00  1.738E-01  4.367E-01 7.2791032E+00 8.1023926E+00 5.5242792E+00
  1.000E+01  1.340E-01  5.000E-01 7.1297023E+00 8.3915247E+00 4.8441522E+00
  9.957E+00  1.467E-01  4.786E-01 7.2296144E+00 8.3663339E+00 5.1119846E+00
  1.000E+01  1.101E-01  5.438E-01 7.0468597E+00 8.6255071E+00 4.4233074E+00
  9.957E+00  1.218E-01  5.217E-01 7.0671927E+00 8.6108937E+00 4.6892813E+00
  1.000E+01  8.849E-02  5.887E-01 6.9521342E+00 8.8359802E+00 3.9876607E+00
  9.957E+00  9.903E-02  5.661E-01 7.0067342E+00 8.8375227E+00 4.2577841E+00
  1.000E+01  6.913E-02  6.347E-01 6.7766205E+00 9.0174519E+00 3.5343973E+00
  9.957E+00  7.852E-02  6.116E-01 6.8699547E+00 9.0350166E+00 3.8066215E+00
  1.000E+01  5.207E-02  6.815E-01 6.6651457E+00 9.1825681E+00 3.0814406E+00
  9.957E+00  6.031E-02  6.580E-01 6.7076713E+00 9.2086858E+00 3.3459969E+00
  1.000E+01  3.738E-02  7.292E-01 6.5823729E+00 9.3325334E+00 2.6305256E+00
  9.957E+00  4.443E-02  7.052E-01 6.6252930E+00 9.3694477E+00 2.8904591E+00
  1.000E+01  2.507E-02  7.775E-01 6.4750675E+00 9.4543184E+00 2.1656517E+00
  9.957E+00  3.092E-02  7.532E-01 6.5313594E+00 9.5082954E+00 2.4287472E+00
  1.000E+01  1.519E-02  8.264E-01 6.3655050E+00 9.5460803E+00 1.6858643E+00
  9.957E+00  1.983E-02  8.019E-01 6.4195991E+00 9.6155364E+00 1.9496874E+00
  1.000E+01  7.761E-03  8.757E-01 6.2800167E+00 9.6142708E+00 1.2016792E+00
  9.957E+00  1.117E-02  8.510E-01 6.3180203E+00 9.6958303E+00 1.4607577E+00
  1.000E+01  2.796E-03  9.253E-01 6.2255777E+00 9.6615790E+00 7.1973049E-01
  9.957E+00  4.969E-03  9.004E-01 6.2474607E+00 9.7542501E+00 9.7168846E-01
  1.000E+01  3.108E-04  9.751E-01 6.1999488E+00 9.6862077E+00 2.3972989E-01
  9.957E+00  1.243E-03  9.502E-01 6.2099110E+00 9.7909437E+00 4.8523298E-01
  1.000E+01  3.108E-04  1.025E+00 6.1999491E+00 9.6862108E+00 -2.3973320E-01
  9.957E+00  0.000E+00  1.000E+00 6.1986033E+00 9.8036069E+00 -1.7107390E-06
  1.000E+01  2.796E-03  1.075E+00 6.2255786E+00 9.6615892E+00 -7.1973382E-01
  9.957E+00  1.243E-03  1.050E+00 6.2099114E+00 9.7909500E+00 -4.8523639E-01
  1.000E+01  7.761E-03  1.124E+00 6.2800179E+00 9.6142864E+00 -1.2016826E+00
  9.957E+00  4.969E-03  1.100E+00 6.2474614E+00 9.7542640E+00 -9.7169183E-01
  1.000E+01  1.519E-02  1.174E+00 6.3655066E+00 9.5460886E+00 -1.6858676E+00
  9.957E+00  1.117E-02  1.149E+00 6.3180216E+00 9.6958446E+00 -1.4607610E+00
  1.000E+01  2.507E-02  1.223E+00 6.4750693E+00 9.4543036E+00 -2.1656550E+00
  9.957E+00  1.983E-02  1.198E+00 6.4196008E+00 9.6155338E+00 -1.9496906E+00
  1.000E+01  3.738E-02  1.271E+00 6.5823751E+00 9.3325191E+00 -2.6305289E+00
  9.957E+00  3.092E-02  1.247E+00 6.5313616E+00 9.5082750E+00 -2.4287505E+00
  1.000E+01  5.207E-02  1.318E+00 6.6651483E+00 9.1826017E+00 -3.0814438E+00
  9.957E+00  4.443E-02  1.295E+00 6.6252956E+00 9.3694548E+00 -2.8904624E+00
  1.000E+01  6.913E-02  1.365E+00 6.7766235E+00 9.0174800E+00 -3.5344005E+00
  9.957E+00  6.031E-02  1.342E+00 6.7076742E+00 9.2087325E+00 -3.3460003E+00
  1.000E+01  8.849E-02  1.411E+00 6.9521379E+00 8.8359463E+00 -3.9876636E+00
  9.957E+00  7.852E-02  1.388E+00 6.8699580E+00 9.0350067E+00 -3.8066247E+00
  1.000E+01  1.101E-01  1.456E+00 7.0468635E+00 8.6255244E+00 -4.4233106E+00
  9.957E+00  9.903E-02  1.434E+00 7.0067379E+00 8.8375016E+00 -4.2577870E+00
  1.000E+01  1.340E-01  1.500E+00 7.1297064E+00 8.3915540E+00 -4.8441555E+00
  9.957E+00  1.218E-01  1.478E+00 7.0671964E+00 8.6109384E+00 -4.6892849E+00
  1.000E+01  1.600E-01  1.543E+00 7.2781602E+00 8.1412756E+00 -5.2581006E+00
  9.957E+00  1.467E-01  1.521E+00 7.2296183E+00 8.3663243E+00 -5.1119871E+00
  1.000E+01  1.881E-01  1.584E+00 7.3062463E+00 7.8690406E+00 -5.6575698E+00
  9.957E+00  1.738E-01  1.563E+00 7.2791075E+00 8.1023911E+00 -5.5242823E+00
  1.000E+01  2.182E-01  1.623E+00 7.4019758E+00 7.5768354E+00 -6.0422523E+00
  9.957E+00  2.029E-01  1.604E+00 7.3701163E+00 7.8162316E+00 -5.9205350E+00
  1.000E+01  2.502E-01  1.662E+00 7.4166454E+00 7.2664914E+00 -6.4127333E+00
  9.957E+00  2.340E-01  1.643E+00 7.4259579E+00 7.5115436E+00 -6.3029101E+00
  1.000E+01  2.841E-01  1.698E+00 7.4630151E+00 6.9376268E+00 -6.7667799E+00
  9.957E+00  2.669E-01  1.680E+00 7.4301495E+00 7.1880239E+00 -6.6695312E+00
  1.000E+01  3.198E-01  1.733E+00 7.4301404E+00 6.5918185E+00 -7.1042722E+00
  9.957E+00  3.018E-01  1.716E+00 7.4630255E+00 6.8465468E+00 -7.0194154E+00
  1.000E+01  3.572E-01  1.766E+00 7.4259501E+00 6.2294731E+00 -7.4240329E+00
  9.957E+00  3.383E-01  1.750E+00 7.4166569E+00 6.4883316E+00 -7.3521590E+00
  1.000E+01  3.962E-01  1.797E+00 7.3701094E+00 5.8515501E+00 -7.7251580E+00
  9.957E+00  3.765E-01  1.782E+00 7.4019881E+00 6.1134812E+00 -7.6661636E+00
  1.000E+01  4.367E-01  1.826E+00 7.2791014E+00 5.4599128E+00 -8.0079888E+00
  9.957E+00  4.163E-01  1.812E+00 7.3062603E+00 5.7242661E+00 -7.9618004E+00
  1.000E+01  4.786E-01  1.853E+00 7.2296145E+00 5.0524206E+00 -8.2688522E+00
  9.957E+00  4.575E-01  1.840E+00 7.2781760E+00 5.3200888E+00 -8.2372659E+00
  1.000E+01  5.217E-01  1.878E+00 7.0671942E+00 4.6346466E+00 -8.5105889E+00
  9.957E+00  5.000E-01  1.866E+00 7.1297238E+00 4.9012648E+00 -8.4904709E+00
  1.000E+01  5.661E-01  1.901E+00 7.0067375E+00 4.2081811E+00 -8.7345451E+00
  9.957E+00  5.438E-01  1.890E+00 7.0468805E+00 4.4754522E+00 -8.7272011E+00
  1.000E+01  6.116E-01  1.921E+00 6.8699604E+00 3.7622811E+00 -8.9297470E+00
  9.957E+00  5.887E-01  1.912E+00 6.9521551E+00 4.0346661E+00 -8.9401256E+00
  1.000E+01  6.580E-01  1.940E+00 6.7076792E+00 3.3070185E+00 -9.1014229E+00
  9.957E+00  6.347E-01  1.931E+00 6.7766433E+00 3.5760630E+00 -9.1237733E+00
  1.000E+01  7.052E-01  1.956E+00 6.6253021E+00 2.8567797E+00 -9.2602892E+00
  9.957E+00  6.815E-01  1.948E+00 6.6651689E+00 3.1177708E+00 -9.2908404E+00
  1.000E+01  7.532E-01  1.969E+00 6.5313681E+00 2.4004408E+00 -9.3974980E+00
  9.957E+00  7.292E-01  1.963E+00 6.5823943E+00 2.6615437E+00 -9.4425431E+00
  1.000E+01  8.019E-01  1.980E+00 6.4196074E+00 1.9269642E+00 -9.5034973E+00
  9.957E+00  7.775E-01  1.975E+00 6.4750884E+00 2.1911920E+00 -9.5657621E+00
  1.000E+01  8.510E-01  1.989E+00 6.3180286E+00 1.4437348E+00 -9.5828683E+00
  9.957E+00  8.264E-01  1.985E+00 6.3655277E+00 1.7057500E+00 -9.6586246E+00
  1.000E+01  9.004E-01  1.995E+00 6.2474682E+00 9.6036711E-01 -9.6406064E+00
  9.957E+00  8.757E-01  1.992E+00 6.2800411E+00 1.2158545E+00 -9.7276300E+00
  1.000E+01  9.502E-01  1.999E+00 6.2099177E+00 4.7958193E-01 -9.6768624E+00
  9.957E+00  9.253E-01  1.997E+00 6.2256019E+00 7.2822180E-01 -9.7754900E+00
  1.000E+01  1.000E+00  2.000E+00 6.1986084E+00 3.3872434E-06 -9.6893683E+00
  9.957E+00  9.751E-01  2.000E+00 6.1999716E+00 2.4256111E-01 -9.8003983E+00
  1.000E+01  1.050E+00  1.999E+00 6.2099176E+00 -4.7957384E-01 -9.6768622E+00
  9.957E+00  1.025E+00  2.000E+00 6.1999715E+00 -2.4255383E-01 -9.8003981E+00
  1.000E+01  1.100E+00  1.995E+00 6.2474680E+00 -9.6035984E-01 -9.6406060E+00
  9.957E+00  1.075E+00  1.997E+00 6.2256017E+00 -7.2821373E-01 -9.7754897E+00
  1.000E+01  1.149E+00  1.989E+00 6.3180283E+00 -1.4437276E+00 -9.5828676E+00
  9.957E+00  1.124E+00  1.992E+00 6.2800409E+00 -1.2158478E+00 -9.7276295E+00
  1.000E+01  1.198E+00  1.980E+00 6.4196071E+00 -1.9269564E+00 -9.5034964E+00
  9.957E+00  1.174E+00  1.985E+00 6.3655274E+00 -1.7057422E+00 -9.6586238E+00