# TIME = 6.000000
VARIABLES = X, Y, Z, FX, FY, FZ
ZONE N=29232 E=58212 F=FEPOINT ET=TRIANGLE
  0.000E+00  9.502E-01  1.243E-03 6.2570617E+00 3.8305957E-01 7.7291390E+00
  0.000E+00  1.000E+00  0.000E+00 6.2458496E+00 9.0196289E-06 7.7391289E+00
  4.318E-02  9.751E-01  3.108E-04 6.2439229E+00 1.8881761E-01 7.6287165E+00
  0.000E+00  1.050E+00  1.243E-03 6.2570615E+00 -3.8304254E-01 7.7291402E+00
  4.318E-02  1.025E+00  3.108E-04 6.2439228E+00 -1.8880061E-01 7.6287170E+00
  0.000E+00  1.100E+00  4.969E-03 6.2943557E+00 -7.6705716E-01 7.7001849E+00
  4.318E-02  1.075E+00  2.796E-03 6.2693849E+00 -5.6684300E-01 7.6093320E+00
  0.000E+00  1.149E+00  1.117E-02 6.3645756E+00 -1.1531370E+00 7.6540768E+00
  4.318E-02  1.124E+00  7.761E-03 6.3235254E+00 -9.4642027E-01 7.5720834E+00
  0.000E+00  1.198E+00  1.983E-02 6.4657555E+00 -1.5391118E+00 7.5906859E+00
  4.318E-02  1.174E+00  1.519E-02 6.4086268E+00 -1.3277644E+00 7.5183751E+00
  0.000E+00  1.247E+00  3.092E-02 6.5769639E+00 -1.9173014E+00 7.5060108E+00
  4.318E-02  1.223E+00  2.507E-02 6.5177145E+00 -1.7056520E+00 7.4460909E+00
  0.000E+00  1.295E+00  4.443E-02 6.6700518E+00 -2.2818014E+00 7.3964032E+00
  4.318E-02  1.271E+00  3.738E-02 6.6243423E+00 -2.0717960E+00 7.3501644E+00
  0.000E+00  1.342E+00  6.031E-02 6.7513741E+00 -2.6414262E+00 7.2695318E+00
  4.318E-02  1.318E+00  5.207E-02 6.7061458E+00 -2.4269357E+00 7.2320691E+00
  0.000E+00  1.388E+00  7.852E-02 6.9131173E+00 -3.0050580E+00 7.1324427E+00
  4.318E-02  1.365E+00  6.913E-02 6.8167408E+00 -2.7836710E+00 7.1020524E+00
  0.000E+00  1.434E+00  9.903E-02 7.0492629E+00 -3.3612109E+00 6.9764949E+00
  4.318E-02  1.411E+00  8.849E-02 6.9917954E+00 -3.1406529E+00 6.9591054E+00
  0.000E+00  1.478E+00  1.218E-01 7.1086242E+00 -3.7018532E+00 6.7976221E+00
  4.318E-02  1.456E+00  1.101E-01 7.0856515E+00 -3.4837659E+00 6.7933299E+00
  0.000E+00  1.521E+00  1.467E-01 7.2707235E+00 -4.0355380E+00 6.6045801E+00
  4.318E-02  1.500E+00  1.340E-01 7.1676096E+00 -3.8152242E+00 6.6090911E+00
  0.000E+00  1.563E+00  1.738E-01 7.3194661E+00 -4.3609923E+00 6.3961685E+00
  4.318E-02  1.543E+00  1.600E-01 7.3157508E+00 -4.1412431E+00 6.4119913E+00
  0.000E+00  1.604E+00  2.029E-01 7.4100764E+00 -4.6738297E+00 6.1703259E+00
  4.318E-02  1.584E+00  1.881E-01 7.3430320E+00 -4.4558614E+00 6.1975608E+00
  0.000E+00  1.643E+00  2.340E-01 7.4656766E+00 -4.9756595E+00 5.9297672E+00
  4.318E-02  1.623E+00  2.182E-01 7.4385698E+00 -4.7588202E+00 5.9674485E+00
  0.000E+00  1.680E+00  2.669E-01 7.4695117E+00 -5.2650875E+00 5.6744069E+00
  4.318E-02  1.662E+00  2.502E-01 7.4528415E+00 -5.0506220E+00 5.7230183E+00
  0.000E+00  1.716E+00  3.018E-01 7.5025327E+00 -5.5412851E+00 5.4048162E+00
  4.318E-02  1.698E+00  2.841E-01 7.4992699E+00 -5.3294376E+00 5.4640143E+00
  0.000E+00  1.750E+00  3.383E-01 7.4560942E+00 -5.8039491E+00 5.1220588E+00
  4.318E-02  1.733E+00  3.198E-01 7.4662691E+00 -5.5952695E+00 5.1916690E+00
  0.000E+00  1.782E+00  3.765E-01 7.4418413E+00 -6.0518367E+00 4.8261290E+00
  4.318E-02  1.766E+00  3.572E-01 7.4624262E+00 -5.8470676E+00 4.9062777E+00
  0.000E+00  1.812E+00  4.163E-01 7.3462896E+00 -6.2852104E+00 4.5188878E+00
  4.318E-02  1.797E+00  3.962E-01 7.4068362E+00 -6.0842741E+00 4.6086567E+00
  0.000E+00  1.840E+00  4.575E-01 7.3190403E+00 -6.5026606E+00 4.1998208E+00
  4.318E-02  1.826E+00  4.367E-01 7.3162399E+00 -6.3069737E+00 4.3001897E+00
  0.000E+00  1.866E+00  5.000E-01 7.1708748E+00 -6.7025688E+00 3.8691922E+00
  4.318E-02  1.853E+00  4.786E-01 7.2674822E+00 -6.5124645E+00 3.9792696E+00
  0.000E+00  1.890E+00  5.438E-01 7.0889371E+00 -6.8894073E+00 3.5330522E+00
  4.318E-02  1.878E+00  5.217E-01 7.1054170E+00 -6.7028433E+00 3.6502343E+00
  0.000E+00  1.912E+00  5.887E-01 6.9950987E+00 -7.0575182E+00 3.1850886E+00
  4.318E-02  1.901E+00  5.661E-01 7.0460298E+00 -6.8791966E+00 3.3143408E+00
  0.000E+00  1.931E+00  6.347E-01 6.8200191E+00 -7.2025068E+00 2.8230541E+00
  4.318E-02  1.921E+00  6.116E-01 6.9098972E+00 -7.0329662E+00 2.9631549E+00
  0.000E+00  1.948E+00  6.815E-01 6.7094342E+00 -7.3343565E+00 2.4612682E+00
  4.318E-02  1.940E+00  6.580E-01 6.7481779E+00 -7.1681721E+00 2.6046019E+00
  0.000E+00  1.963E+00  7.292E-01 6.6276532E+00 -7.4541112E+00 2.1011031E+00
  4.318E-02  1.956E+00  7.052E-01 6.6668369E+00 -7.2932657E+00 2.2500005E+00
  0.000E+00  1.975E+00  7.775E-01 6.5210269E+00 -7.5513996E+00 1.7297810E+00
  4.318E-02  1.969E+00  7.532E-01 6.5737432E+00 -7.4013381E+00 1.8905895E+00
  0.000E+00  1.985E+00  8.264E-01 6.4119301E+00 -7.6247112E+00 1.3465507E+00
  4.318E-02  1.980E+00  8.019E-01 6.4625443E+00 -7.4848387E+00 1.5176741E+00
  0.000E+00  1.992E+00  8.757E-01 6.3268227E+00 -7.6791766E+00 9.5981612E-01
  4.318E-02  1.989E+00  8.510E-01 6.3613750E+00 -7.5473501E+00 1.1370781E+00
  0.000E+00  1.997E+00  9.253E-01 6.2726833E+00 -7.7169533E+00 5.7487251E-01
  4.318E-02  1.995E+00  9.004E-01 6.2911596E+00 -7.5928173E+00 7.5637819E-01
  0.000E+00  2.000E+00  9.751E-01 6.2472239E+00 -7.7366162E+00 1.9148664E-01
  4.318E-02  1.999E+00  9.502E-01 6.2538662E+00 -7.6213741E+00 3.7771667E-01
  0.000E+00  2.000E+00  1.025E+00 6.2472237E+00 -7.7366145E+00 -1.9146958E-01
  4.318E-02  2.000E+00  1.000E+00 6.2426534E+00 -7.6312251E+00 8.2542644E-06
  0.000E+00  1.997E+00  1.075E+00 6.2726828E+00 -7.7169474E+00 -5.7485542E-01
  4.318E-02  1.999E+00  1.050E+00 6.2538660E+00 -7.6213707E+00 -3.7770016E-01
  0.000E+00  1.992E+00  1.124E+00 6.3268220E+00 -7.6791680E+00 -9.5979902E-01
  4.318E-02  1.995E+00  1.100E+00 6.2911592E+00 -7.5928095E+00 -7.5636170E-01
  0.000E+00  1.985E+00  1.174E+00 6.4119292E+00 -7.6247098E+00 -1.3465336E+00
  4.318E-02  1.989E+00  1.149E+00 6.3613743E+00 -7.5473434E+00 -1.1370617E+00
  0.000E+00  1.975E+00  1.223E+00 6.5210259E+00 -7.5514183E+00 -1.7297640E+00
  4.318E-02  1.980E+00  1.198E+00 6.4625433E+00 -7.4848466E+00 -1.5176577E+00
  0.000E+00  1.963E+00  1.271E+00 6.6276521E+00 -7.4541310E+00 -2.1010861E+00
  4.318E-02  1.969E+00  1.247E+00 6.5737419E+00 -7.4013614E+00 -1.8905731E+00
  0.000E+00  1.948E+00  1.318E+00 6.7094328E+00 -7.3343394E+00 -2.4612513E+00
  4.318E-02  1.956E+00  1.295E+00 6.6668354E+00 -7.2932689E+00 -2.2499841E+00
  0.000E+00  1.931E+00  1.365E+00 6.8200175E+00 -7.2024953E+00 -2.8230372E+00
  4.318E-02  1.940E+00  1.342E+00 6.7481763E+00 -7.1681457E+00 -2.6045855E+00
  0.000E+00  1.912E+00  1.411E+00 6.9950962E+00 -7.0575567E+00 -3.1850718E+00
  4.318E-02  1.921E+00  1.388E+00 6.9098957E+00 -7.0329856E+00 -2.9631391E+00
  0.000E+00  1.890E+00  1.456E+00 7.0889349E+00 -6.8894069E+00 -3.5330357E+00
  4.318E-02  1.901E+00  1.434E+00 7.0460281E+00 -6.8792256E+00 -3.3143249E+00
  0.000E+00  1.866E+00  1.500E+00 7.1708725E+00 -6.7025598E+00 -3.8691756E+00
  4.318E-02  1.878E+00  1.478E+00 7.1054151E+00 -6.7028220E+00 -3.6502181E+00
  0.000E+00  1.840E+00  1.543E+00 7.3190379E+00 -6.5026940E+00 -4.1998051E+00
  4.318E-02  1.853E+00  1.521E+00 7.2674802E+00 -6.5124864E+00 -3.9792545E+00
  0.000E+00  1.812E+00  1.584E+00 7.3462872E+00 -6.2852109E+00 -4.5188716E+00
  4.318E-02  1.826E+00  1.563E+00 7.3162377E+00 -6.3069903E+00 -4.3001743E+00
  0.000E+00  1.782E+00  1.623E+00 7.4418392E+00 -6.0518569E+00 -4.8261141E+00
  4.318E-02  1.797E+00  1.604E+00 7.4068338E+00 -6.0842791E+00 -4.6086417E+00
  0.000E+00  1.750E+00  1.662E+00 7.4560919E+00 -5.8039648E+00 -5.1220439E+00
  4.318E-02  1.766E+00  1.643E+00 7.4624235E+00 -5.8470907E+00 -4.9062633E+00
  0.000E+00  1.716E+00  1.698E+00 7.5025297E+00 -5.5412996E+00 -5.4048018E+00
  4.318E-02  1.733E+00  1.680E+00 7.4662664E+00 -5.5952780E+00 -5.1916546E+00
  0.000E+00  1.680E+00  1.733E+00 7.4695081E+00 -5.2651041E+00 -5.6743926E+00
  4.318E-02  1.698E+00  1.716E+00 7.4992677E+00 -5.3294583E+00 -5.4640012E+00
  0.000E+00  1.643E+00  1.766E+00 7.4656731E+00 -4.9756727E+00 -5.9297535E+00
  4.318E-02  1.662E+00  1.750E+00 7.4528395E+00 -5.0506363E+00 -5.7230054E+00
  0.000E+00  1.604E+00  1.797E+00 7.4100743E+00 -4.6738488E+00 -6.1703139E+00
  4.318E-02  1.623E+00  1.782E+00 7.4385676E+00 -4.7588373E+00 -5.9674361E+00
  0.000E+00  1.563E+00  1.826E+00 7.3194652E+00 -4.3610133E+00 -6.3961583E+00
  4.318E-02  1.584E+00  1.812E+00 7.3430286E+00 -4.4558736E+00 -6.1975480E+00
  0.000E+00  1.521E+00  1.853E+00 7.2707221E+00 -4.0355590E+00 -6.6045706E+00
  4.318E-02  1.543E+00  1.840E+00 7.3157465E+00 -4.1412560E+00 -6.4119791E+00
  0.000E+00  1.478E+00  1.878E+00 7.1086212E+00 -3.7018634E+00 -6.7976103E+00
  4.318E-02  1.500E+00  1.866E+00 7.1676052E+00 -3.8152395E+00 -6.6090806E+00
  0.000E+00  1.434E+00  1.901E+00 7.0492585E+00 -3.3612140E+00 -6.9764804E+00
  4.318E-02  1.456E+00  1.890E+00 7.0856483E+00 -3.4837908E+00 -6.7933227E+00
  0.000E+00  1.388E+00  1.921E+00 6.9131122E+00 -3.0050620E+00 -7.1324281E+00
  4.318E-02  1.411E+00  1.912E+00 6.9917945E+00 -3.1406797E+00 -6.9591008E+00
  0.000E+00  1.342E+00  1.940E+00 6.7513684E+00 -2.6414477E+00 -7.2695217E+00
  4.318E-02  1.365E+00  1.931E+00 6.8167421E+00 -2.7836907E+00 -7.1020478E+00
  0.000E+00  1.295E+00  1.956E+00 6.6700458E+00 -2.2818393E+00 -7.3963999E+00
  4.318E-02  1.318E+00  1.948E+00 6.7061477E+00 -2.4269444E+00 -7.2320621E+00
  0.000E+00  1.247E+00  1.969E+00 6.5769593E+00 -1.9173449E+00 -7.5060136E+00
  4.318E-02  1.271E+00  1.963E+00 6.6243421E+00 -2.0717972E+00 -7.3501547E+00
  0.000E+00  1.198E+00  1.980E+00 6.4657533E+00 -1.5391481E+00 -7.5906927E+00
  4.318E-02  1.223E+00  1.975E+00 6.5177109E+00 -1.7056544E+00 -7.4460797E+00
  0.000E+00  1.149E+00  1.989E+00 6.3645748E+00 -1.1531634E+00 -7.6540858E+00
  4.318E-02  1.174E+00  1.985E+00 6.4086210E+00 -1.3277724E+00 -7.5183638E+00
  0.000E+00  1.100E+00  1.995E+00 6.2943549E+00 -7.6707636E-01 -7.7001951E+00
  4.318E-02  1.124E+00  1.992E+00 6.3235196E+00 -9.4643509E-01 -7.5720729E+00
  0.000E+00  1.050E+00  1.999E+00 6.2570599E+00 -3.8305890E-01 -7.7291514E+00
  4.318E-02  1.075E+00  1.997E+00 6.2693804E+00 -5.6685976E-01 -7.6093227E+00
  0.000E+00  1.000E+00  2.000E+00 6.2458476E+00 -9.2597006E-06 -7.7391411E+00
  4.318E-02  1.025E+00  2.000E+00 6.2439192E+00 -1.8881824E-01 -7.6287090E+00
  0.000E+00  9.502E-01  1.999E+00 6.2570600E+00 3.8304139E-01 -7.7291525E+00
  4.318E-02  9.751E-01  2.000E+00 6.2439193E+00 1.8880075E-01 -7.6287095E+00
  0.000E+00  9.004E-01  1.995E+00 6.2943551E+00 7.6705826E-01 -7.7001974E+00
  4.318E-02  9.253E-01  1.997E+00 6.2693805E+00 5.6684289E-01 -7.6093243E+00
  0.000E+00  8.510E-01  1.989E+00 6.3645751E+00 1.1531453E+00 -7.6540892E+00
  4.318E-02  8.757E-01  1.992E+00 6.3235198E+00 9.4641728E-01 -7.5720757E+00
  0.000E+00  8.019E-01  1.980E+00 6.4657536E+00 1.5391305E+00 -7.5906972E+00
  4.318E-02  8.264E-01  1.985E+00 6.4086213E+00 1.3277555E+00 -7.5183676E+00
  0.000E+00  7.532E-01  1.969E+00 6.5769597E+00 1.9173269E+00 -7.5060192E+00
  4.318E-02  7.775E-01  1.975E+00 6.5177113E+00 1.7056371E+00 -7.4460845E+00
  0.000E+00  7.052E-01  1.956E+00 6.6700464E+00 2.2818216E+00 -7.3964066E+00
  4.318E-02  7.292E-01  1.963E+00 6.6243426E+00 2.0717801E+00 -7.3501606E+00
  0.000E+00  6.580E-01  1.940E+00 6.7513690E+00 2.6414298E+00 -7.2695294E+00
  4.318E-02  6.815E-01  1.948E+00 6.7061483E+00 2.4269270E+00 -7.2320690E+00
  0.000E+00  6.116E-01  1.921E+00 6.9131131E+00 3.0050455E+00 -7.1324369E+00
  4.318E-02  6.347E-01  1.931E+00 6.8167428E+00 2.7836744E+00 -7.1020557E+00
  0.000E+00  5.661E-01  1.901E+00 7.0492593E+00 3.3611952E+00 -6.9764899E+00
  4.318E-02  5.887E-01  1.912E+00 6.9917951E+00 3.1406626E+00 -6.9591091E+00
  0.000E+00  5.217E-01  1.878E+00 7.1086221E+00 3.7018472E+00 -6.7976208E+00
  4.318E-02  5.438E-01  1.890E+00 7.0856492E+00 3.4837733E+00 -6.7933324E+00
  0.000E+00  4.786E-01  1.853E+00 7.2707230E+00 4.0355416E+00 -6.6045818E+00
  4.318E-02  5.000E-01  1.866E+00 7.1676062E+00 3.8152241E+00 -6.6090911E+00
  0.000E+00  4.367E-01  1.826E+00 7.3194662E+00 4.3609979E+00 -6.3961704E+00
  4.318E-02  4.575E-01  1.840E+00 7.3157475E+00 4.1412394E+00 -6.4119902E+00
  0.000E+00  3.962E-01  1.797E+00 7.4100754E+00 4.6738315E+00 -6.1703266E+00
  4.318E-02  4.163E-01  1.812E+00 7.3430297E+00 4.4558587E+00 -6.1975600E+00
  0.000E+00  3.572E-01  1.766E+00 7.4656743E+00 4.9756580E+00 -5.9297669E+00
  4.318E-02  3.765E-01  1.782E+00 7.4385687E+00 4.7588204E+00 -5.9674486E+00
  0.000E+00  3.198E-01  1.733E+00 7.4695093E+00 5.2650860E+00 -5.6744066E+00
  4.318E-02  3.383E-01  1.750E+00 7.4528407E+00 5.0506230E+00 -5.7230187E+00
  0.000E+00  2.841E-01  1.698E+00 7.5025310E+00 5.5412847E+00 -5.4048162E+00
  4.318E-02  3.018E-01  1.716E+00 7.4992690E+00 5.3294381E+00 -5.4640147E+00
  0.000E+00  2.502E-01  1.662E+00 7.4560933E+00 5.8039495E+00 -5.1220590E+00
  4.318E-02  2.669E-01  1.680E+00 7.4662678E+00 5.5952692E+00 -5.1916692E+00
  0.000E+00  2.182E-01  1.623E+00 7.4418406E+00 6.0518371E+00 -4.8261293E+00
  4.318E-02  2.340E-01  1.643E+00 7.4624249E+00 5.8470672E+00 -4.9062778E+00
  0.000E+00  1.881E-01  1.584E+00 7.3462887E+00 6.2852103E+00 -4.5188879E+00
  4.318E-02  2.029E-01  1.604E+00 7.4068352E+00 6.0842739E+00 -4.6086568E+00
  0.000E+00  1.600E-01  1.543E+00 7.3190393E+00 6.5026603E+00 -4.1998209E+00
  4.318E-02  1.738E-01  1.563E+00 7.3162392E+00 6.3069737E+00 -4.3001899E+00
  0.000E+00  1.340E-01  1.500E+00 7.1708739E+00 6.7025685E+00 -3.8691923E+00
  4.318E-02  1.467E-01  1.521E+00 7.2674817E+00 6.5124646E+00 -3.9792698E+00
  0.000E+00  1.101E-01  1.456E+00 7.0889365E+00 6.8894071E+00 -3.5330524E+00
  4.318E-02  1.218E-01  1.478E+00 7.1054166E+00 6.7028433E+00 -3.6502346E+00
  0.000E+00  8.849E-02  1.411E+00 6.9950982E+00 7.0575177E+00 -3.1850887E+00
  4.318E-02  9.903E-02  1.434E+00 7.0460296E+00 6.8791966E+00 -3.3143410E+00
  0.000E+00  6.913E-02  1.365E+00 6.8200190E+00 7.2025067E+00 -2.8230544E+00
  4.318E-02  7.852E-02  1.388E+00 6.9098970E+00 7.0329661E+00 -2.9631552E+00
  0.000E+00  5.207E-02  1.318E+00 6.7094344E+00 7.3343565E+00 -2.4612685E+00
  4.318E-02  6.031E-02  1.342E+00 6.7481779E+00 7.1681719E+00 -2.6046021E+00
  0.000E+00  3.738E-02  1.271E+00 6.6276537E+00 7.4541113E+00 -2.1011034E+00
  4.318E-02  4.443E-02  1.295E+00 6.6668370E+00 7.2932654E+00 -2.2500007E+00
  0.000E+00  2.507E-02  1.223E+00 6.5210275E+00 7.5513996E+00 -1.7297812E+00
  4.318E-02  3.092E-02  1.247E+00 6.5737435E+00 7.4013379E+00 -1.8905898E+00
  0.000E+00  1.519E-02  1.174E+00 6.4119308E+00 7.6247111E+00 -1.3465510E+00
  4.318E-02  1.983E-02  1.198E+00 6.4625448E+00 7.4848385E+00 -1.5176744E+00
  0.000E+00  7.761E-03  1.124E+00 6.3268236E+00 7.6791764E+00 -9.5981642E-01
  4.318E-02  1.117E-02  1.149E+00 6.3613759E+00 7.5473499E+00 -1.1370784E+00
  0.000E+00  2.796E-03  1.075E+00 6.2726843E+00 7.7169530E+00 -5.7487286E-01
  4.318E-02  4.969E-03  1.100E+00 6.2911608E+00 7.5928171E+00 -7.5637850E-01
  0.000E+00  3.108E-04  1.025E+00 6.2472253E+00 7.7366159E+00 -1.9148704E-01
  4.318E-02  1.243E-03  1.050E+00 6.2538676E+00 7.6213739E+00 -3.7771698E-01
  0.000E+00  3.108E-04  9.751E-01 6.2472255E+00 7.7366142E+00 1.9146917E-01
  4.318E-02  0.000E+00  1.000E+00 6.2426549E+00 7.6312249E+00 -8.5812477E-06
  0.000E+00  2.796E-03  9.253E-01 6.2726848E+00 7.7169472E+00 5.7485502E-01
  4.318E-02  1.243E-03  9.502E-01 6.2538677E+00 7.6213704E+00 3.7769982E-01
  0.000E+00  7.761E-03  8.757E-01 6.3268242E+00 7.6791678E+00 9.5979864E-01
  4.318E-02  4.969E-03  9.004E-01 6.2911611E+00 7.5928091E+00 7.5636134E-01
  0.000E+00  1.519E-02  8.264E-01 6.4119315E+00 7.6247095E+00 1.3465333E+00
  4.318E-02  1.117E-02  8.510E-01 6.3613765E+00 7.5473430E+00 1.1370613E+00
  0.000E+00  2.507E-02  7.775E-01 6.5210283E+00 7.5514178E+00 1.7297636E+00
  4.318E-02  1.983E-02  8.019E-01 6.4625457E+00 7.4848464E+00 1.5176573E+00
  0.000E+00  3.738E-02  7.292E-01 6.6276547E+00 7.4541305E+00 2.1010857E+00
  4.318E-02  3.092E-02  7.532E-01 6.5737446E+00 7.4013611E+00 1.8905727E+00
  0.000E+00  5.207E-02  6.815E-01 6.7094356E+00 7.3343389E+00 2.4612508E+00
  4.318E-02  4.443E-02  7.052E-01 6.6668383E+00 7.2932686E+00 2.2499837E+00
  0.000E+00  6.913E-02  6.347E-01 6.8200206E+00 7.2024948E+00 2.8230368E+00
  4.318E-02  6.031E-02  6.580E-01 6.7481794E+00 7.1681453E+00 2.6045851E+00
  0.000E+00  8.849E-02  5.887E-01 6.9950997E+00 7.0575567E+00 3.1850716E+00
  4.318E-02  7.852E-02  6.116E-01 6.9098988E+00 7.0329851E+00 2.9631386E+00
  0.000E+00  1.101E-01  5.438E-01 7.0889385E+00 6.8894065E+00 3.5330353E+00
  4.318E-02  9.903E-02  5.661E-01 7.0460314E+00 6.8792251E+00 3.3143244E+00
  0.000E+00  1.340E-01  5.000E-01 7.1708763E+00 6.7025596E+00 3.8691752E+00
  4.318E-02  1.218E-01  5.217E-01 7.1054185E+00 6.7028215E+00 3.6502177E+00
  0.000E+00  1.600E-01  4.575E-01 7.3190418E+00 6.5026938E+00 4.1998048E+00
  4.318E-02  1.467E-01  4.786E-01 7.2674837E+00 6.5124858E+00 3.9792540E+00
  0.000E+00  1.881E-01  4.163E-01 7.3462911E+00 6.2852105E+00 4.5188712E+00
  4.318E-02  1.738E-01  4.367E-01 7.3162414E+00 6.3069897E+00 4.3001739E+00
  0.000E+00  2.182E-01  3.765E-01 7.4418428E+00 6.0518560E+00 4.8261135E+00
  4.318E-02  2.029E-01  3.962E-01 7.4068377E+00 6.0842788E+00 4.6086413E+00
  0.000E+00  2.502E-01  3.383E-01 7.4560956E+00 5.8039639E+00 5.1220433E+00
  4.318E-02  2.340E-01  3.572E-01 7.4624277E+00 5.8470906E+00 4.9062630E+00
  0.000E+00  2.841E-01  3.018E-01 7.5025342E+00 5.5412996E+00 5.4048014E+00
  4.318E-02  2.669E-01  3.198E-01 7.4662705E+00 5.5952777E+00 5.1916541E+00
  0.000E+00  3.198E-01  2.669E-01 7.4695131E+00 5.2651051E+00 5.6743926E+00
  4.318E-02  3.018E-01  2.841E-01 7.4992714E+00 5.3294574E+00 5.4640005E+00
  0.000E+00  3.572E-01  2.340E-01 7.4656780E+00 4.9756738E+00 5.9297535E+00
  4.318E-02  3.383E-01  2.502E-01 7.4528429E+00 5.0506348E+00 5.7230046E+00
  0.000E+00  3.962E-01  2.029E-01 7.4100778E+00 4.6738465E+00 6.1703129E+00
  4.318E-02  3.765E-01  2.182E-01 7.4385712E+00 4.7588366E+00 5.9674357E+00
  0.000E+00  4.367E-01  1.738E-01 7.3194674E+00 4.3610073E+00 6.3961561E+00
  4.318E-02  4.163E-01  1.881E-01 7.3430333E+00 4.4558758E+00 6.1975485E+00
  0.000E+00  4.786E-01  1.467E-01 7.2707248E+00 4.0355549E+00 6.6045686E+00
  4.318E-02  4.575E-01  1.600E-01 7.3157521E+00 4.1412592E+00 6.4119799E+00
  0.000E+00  5.217E-01  1.218E-01 7.1086254E+00 3.7018690E+00 6.7976113E+00
  4.318E-02  5.000E-01  1.340E-01 7.1676108E+00 3.8152392E+00 6.6090803E+00
  0.000E+00  5.661E-01  9.903E-02 7.0492640E+00 3.3612292E+00 6.9764850E+00
  4.318E-02  5.438E-01  1.101E-01 7.0856527E+00 3.4837829E+00 6.7933201E+00
  0.000E+00  6.116E-01  7.852E-02 6.9131183E+00 3.0050740E+00 7.1324338E+00
  4.318E-02  5.887E-01  8.849E-02 6.9917963E+00 3.1406691E+00 6.9590961E+00
  0.000E+00  6.580E-01  6.031E-02 6.7513751E+00 2.6414436E+00 7.2695239E+00
  4.318E-02  6.347E-01  6.913E-02 6.8167417E+00 2.7836869E+00 7.1020444E+00
  0.000E+00  7.052E-01  4.443E-02 6.6700527E+00 2.2818186E+00 7.3963964E+00
  4.318E-02  6.815E-01  5.207E-02 6.7061466E+00 2.4269526E+00 7.2320619E+00
  0.000E+00  7.532E-01  3.092E-02 6.5769646E+00 1.9173189E+00 7.5060050E+00
  4.318E-02  7.292E-01  3.738E-02 6.6243431E+00 2.0718126E+00 7.3501583E+00
  0.000E+00  8.019E-01  1.983E-02 6.4657561E+00 1.5391289E+00 7.5906812E+00
  4.318E-02  7.775E-01  2.507E-02 6.5177151E+00 1.7056689E+00 7.4460859E+00
  0.000E+00  8.510E-01  1.117E-02 6.3645760E+00 1.1531545E+00 7.6540733E+00
  4.318E-02  8.264E-01  1.519E-02 6.4086273E+00 1.3277808E+00 7.5183711E+00
  0.000E+00  9.004E-01  4.969E-03 6.2943560E+00 7.6707477E-01 7.7001825E+00
  4.318E-02  8.757E-01  7.761E-03 6.3235257E+00 9.4643759E-01 7.5720806E+00
  4.318E-02  9.253E-01  2.796E-03 6.2693852E+00 5.6685938E-01 7.6093303E+00
  1.000E+01  1.050E+00  1.243E-03 6.2570615E+00 -3.8304254E-01 7.7291402E+00
  1.000E+01  1.000E+00  5.551E-16 6.2458496E+00 9.0196289E-06 7.7391289E+00
  9.957E+00  1.025E+00  3.108E-04 6.2512739E+00 -1.9415287E-01 7.8450800E+00
  1.000E+01  9.502E-01  1.243E-03 6.2570617E+00 3.8305957E-01 7.7291390E+00
  9.957E+00  9.751E-01  3.108E-04 6.2512740E+00 1.9417113E-01 7.8450794E+00
  1.000E+01  9.004E-01  4.969E-03 6.2943560E+00 7.6707477E-01 7.7001825E+00
  9.957E+00  9.253E-01  2.796E-03 6.2767343E+00 5.8293211E-01 7.8251445E+00
  1.000E+01  8.510E-01  1.117E-02 6.3645760E+00 1.1531545E+00 7.6540733E+00
  9.957E+00  8.757E-01  7.761E-03 6.3308770E+00 9.7327630E-01 7.7868400E+00
  1.000E+01  8.019E-01  1.983E-02 6.4657561E+00 1.5391289E+00 7.5906812E+00
  9.957E+00  8.264E-01  1.519E-02 6.4159923E+00 1.3654369E+00 7.7316095E+00
  1.000E+01  7.532E-01  3.092E-02 6.5769646E+00 1.9173189E+00 7.5060050E+00
  9.957E+00  7.775E-01  2.507E-02 6.5251017E+00 1.7540452E+00 7.6572737E+00
  1.000E+01  7.052E-01  4.443E-02 6.6700527E+00 2.2818186E+00 7.3963964E+00
  9.957E+00  7.292E-01  3.738E-02 6.6317324E+00 2.1305776E+00 7.5586180E+00
  1.000E+01  6.580E-01  6.031E-02 6.7513751E+00 2.6414436E+00 7.2695239E+00
  9.957E+00  6.815E-01  5.207E-02 6.7134962E+00 2.4957928E+00 7.4371651E+00
  1.000E+01  6.116E-01  7.852E-02 6.9131183E+00 3.0050740E+00 7.1324338E+00
  9.957E+00  6.347E-01  6.913E-02 6.8240772E+00 2.8626450E+00 7.3034736E+00
  1.000E+01  5.661E-01  9.903E-02 7.0492640E+00 3.3612292E+00 6.9764850E+00
  9.957E+00  5.887E-01  8.849E-02 6.9991951E+00 3.2297521E+00 7.1564734E+00
  1.000E+01  5.217E-01  1.218E-01 7.1086254E+00 3.7018690E+00 6.7976113E+00
  9.957E+00  5.438E-01  1.101E-01 7.0930243E+00 3.5825968E+00 6.9859769E+00
  1.000E+01  4.786E-01  1.467E-01 7.2707248E+00 4.0355549E+00 6.6045686E+00
  9.957E+00  5.000E-01  1.340E-01 7.1749502E+00 3.9234541E+00 6.7965252E+00
  1.000E+01  4.367E-01  1.738E-01 7.3194674E+00 4.3610073E+00 6.3961561E+00
  9.957E+00  4.575E-01  1.600E-01 7.3231557E+00 4.2587220E+00 6.5938326E+00
  1.000E+01  3.962E-01  2.029E-01 7.4100778E+00 4.6738465E+00 6.1703129E+00
  9.957E+00  4.163E-01  1.881E-01 7.3503769E+00 4.5822608E+00 6.3733130E+00
  1.000E+01  3.572E-01  2.340E-01 7.4656780E+00 4.9756738E+00 5.9297535E+00
  9.957E+00  3.765E-01  2.182E-01 7.4459578E+00 4.8938081E+00 6.1366814E+00
  1.000E+01  3.198E-01  2.669E-01 7.4695131E+00 5.2651051E+00 5.6743926E+00
  9.957E+00  3.383E-01  2.502E-01 7.4602001E+00 5.1938887E+00 5.8853133E+00
  1.000E+01  2.841E-01  3.018E-01 7.5025342E+00 5.5412996E+00 5.4048014E+00
  9.957E+00  3.018E-01  2.841E-01 7.5066640E+00 5.4806083E+00 5.6189665E+00
  1.000E+01  2.502E-01  3.383E-01 7.4560956E+00 5.8039639E+00 5.1220433E+00
  9.957E+00  2.669E-01  3.198E-01 7.4736311E+00 5.7539789E+00 5.3388979E+00
  1.000E+01  2.182E-01  3.765E-01 7.4418428E+00 6.0518560E+00 4.8261135E+00
  9.957E+00  2.340E-01  3.572E-01 7.4698194E+00 6.0129189E+00 5.0454067E+00
  1.000E+01  1.881E-01  4.163E-01 7.3462911E+00 6.2852105E+00 4.5188712E+00
  9.957E+00  2.029E-01  3.962E-01 7.4142204E+00 6.2568530E+00 4.7393540E+00
  1.000E+01  1.600E-01  4.575E-01 7.3190418E+00 6.5026938E+00 4.1998048E+00
  9.957E+00  1.738E-01  4.367E-01 7.3236058E+00 6.4858563E+00 4.4221255E+00
  1.000E+01  1.340E-01  5.000E-01 7.1708763E+00 6.7025596E+00 3.8691752E+00
  9.957E+00  1.467E-01  4.786E-01 7.2748898E+00 6.6972044E+00 4.0921120E+00
  1.000E+01  1.101E-01  5.438E-01 7.0889385E+00 6.8894065E+00 3.5330353E+00
  9.957E+00  1.218E-01  5.217E-01 7.1127561E+00 6.8929207E+00 3.7537442E+00
  1.000E+01  8.849E-02  5.887E-01 6.9950997E+00 7.0575567E+00 3.1850716E+00
  9.957E+00  9.903E-02  5.661E-01 7.0534363E+00 7.0743273E+00 3.4083213E+00
  1.000E+01  6.913E-02  6.347E-01 6.8200206E+00 7.2024948E+00 2.8230368E+00
  9.957E+00  7.852E-02  6.116E-01 6.9172818E+00 7.2324635E+00 3.0471763E+00
  1.000E+01  5.207E-02  6.815E-01 6.7094356E+00 7.3343389E+00 2.4612508E+00
  9.957E+00  6.031E-02  6.580E-01 6.7555148E+00 7.3714439E+00 2.6784570E+00
  1.000E+01  3.738E-02  7.292E-01 6.6276547E+00 7.4541305E+00 2.1010857E+00
  9.957E+00  4.443E-02  7.052E-01 6.6742235E+00 7.5001109E+00 2.3137991E+00
  1.000E+01  2.507E-02  7.775E-01 6.5210283E+00 7.5514178E+00 1.7297636E+00
  9.957E+00  3.092E-02  7.532E-01 6.5811528E+00 7.6112768E+00 1.9441905E+00
  1.000E+01  1.519E-02  8.264E-01 6.4119315E+00 7.6247095E+00 1.3465333E+00
  9.957E+00  1.983E-02  8.019E-01 6.4699393E+00 7.6971343E+00 1.5606922E+00
  1.000E+01  7.761E-03  8.757E-01 6.3268242E+00 7.6791678E+00 9.5979864E-01
  9.957E+00  1.117E-02  8.510E-01 6.3687486E+00 7.7614015E+00 1.1693007E+00
  1.000E+01  2.796E-03  9.253E-01 6.2726848E+00 7.7169472E+00 5.7485502E-01
  9.957E+00  4.969E-03  9.004E-01 6.2985252E+00 7.8081540E+00 7.7780708E-01
  1.000E+01  3.108E-04  9.751E-01 6.2472255E+00 7.7366142E+00 1.9146917E-01
  9.957E+00  1.243E-03  9.502E-01 6.2612337E+00 7.8375222E+00 3.8841055E-01
  1.000E+01  3.108E-04  1.025E+00 6.2472253E+00 7.7366159E+00 -1.9148704E-01
  9.957E+00  0.000E+00  1.000E+00 6.2500247E+00 7.8476586E+00 -9.1824755E-06
  1.000E+01  2.796E-03  1.075E+00 6.2726843E+00 7.7169530E+00 -5.7487286E-01
  9.957E+00  1.243E-03  1.050E+00 6.2612335E+00 7.8375258E+00 -3.8842893E-01
  1.000E+01  7.761E-03  1.124E+00 6.3268236E+00 7.6791764E+00 -9.5981642E-01
  9.957E+00  4.969E-03  1.100E+00 6.2985249E+00 7.8081622E+00 -7.7782547E-01
  1.000E+01  1.519E-02  1.174E+00 6.4119308E+00 7.6247111E+00 -1.3465510E+00
  9.957E+00  1.117E-02  1.149E+00 6.3687480E+00 7.7614085E+00 -1.1693191E+00
  1.000E+01  2.507E-02  1.223E+00 6.5210275E+00 7.5513996E+00 -1.7297812E+00
  9.957E+00  1.983E-02  1.198E+00 6.4699384E+00 7.6971261E+00 -1.5607106E+00
  1.000E+01  3.738E-02  1.271E+00 6.6276537E+00 7.4541113E+00 -2.1011034E+00
  9.957E+00  3.092E-02  1.247E+00 6.5811516E+00 7.6112526E+00 -1.9442088E+00
  1.000E+01  5.207E-02  1.318E+00 6.7094344E+00 7.3343565E+00 -2.4612685E+00
  9.957E+00  4.443E-02  1.295E+00 6.6742222E+00 7.5001073E+00 -2.3138173E+00
  1.000E+01  6.913E-02  1.365E+00 6.8200190E+00 7.2025067E+00 -2.8230544E+00
  9.957E+00  6.031E-02  1.342E+00 6.7555133E+00 7.3714709E+00 -2.6784752E+00
  1.000E+01  8.849E-02  1.411E+00 6.9950982E+00 7.0575177E+00 -3.1850887E+00
  9.957E+00  7.852E-02  1.388E+00 6.9172803E+00 7.2324440E+00 -3.0471944E+00
  1.000E+01  1.101E-01  1.456E+00 7.0889365E+00 6.8894071E+00 -3.5330524E+00
  9.957E+00  9.903E-02  1.434E+00 7.0534348E+00 7.0742977E+00 -3.4083389E+00
  1.000E+01  1.340E-01  1.500E+00 7.1708739E+00 6.7025685E+00 -3.8691923E+00
  9.957E+00  1.218E-01  1.478E+00 7.1127542E+00 6.8929427E+00 -3.7537622E+00
  1.000E+01  1.600E-01  1.543E+00 7.3190393E+00 6.5026603E+00 -4.1998209E+00
  9.957E+00  1.467E-01  1.521E+00 7.2748878E+00 6.6971820E+00 -4.0921289E+00
  1.000E+01  1.881E-01  1.584E+00 7.3462887E+00 6.2852103E+00 -4.5188879E+00
  9.957E+00  1.738E-01  1.563E+00 7.3236035E+00 6.4858392E+00 -4.4221427E+00
  1.000E+01  2.182E-01  1.623E+00 7.4418406E+00 6.0518371E+00 -4.8261293E+00
  9.957E+00  2.029E-01  1.604E+00 7.4142178E+00 6.2568474E+00 -4.7393707E+00
  1.000E+01  2.502E-01  1.662E+00 7.4560933E+00 5.8039495E+00 -5.1220590E+00
  9.957E+00  2.340E-01  1.643E+00 7.4698167E+00 6.0128943E+00 -5.0454225E+00
  1.000E+01  2.841E-01  1.698E+00 7.5025310E+00 5.5412847E+00 -5.4048162E+00
  9.957E+00  2.669E-01  1.680E+00 7.4736285E+00 5.7539697E+00 -5.3389139E+00
  1.000E+01  3.198E-01  1.733E+00 7.4695093E+00 5.2650860E+00 -5.6744066E+00
  9.957E+00  3.018E-01  1.716E+00 7.5066618E+00 5.4805880E+00 -5.6189816E+00
  1.000E+01  3.572E-01  1.766E+00 7.4656743E+00 4.9756580E+00 -5.9297669E+00
  9.957E+00  3.383E-01  1.750E+00 7.4601978E+00 5.1938758E+00 -5.8853284E+00
  1.000E+01  3.962E-01  1.797E+00 7.4100754E+00 4.6738315E+00 -6.1703266E+00
  9.957E+00  3.765E-01  1.782E+00 7.4459547E+00 4.8937905E+00 -6.1366953E+00
  1.000E+01  4.367E-01  1.826E+00 7.3194662E+00 4.3609979E+00 -6.3961704E+00
  9.957E+00  4.163E-01  1.812E+00 7.3503727E+00 4.5822424E+00 -6.3733255E+00
  1.000E+01  4.786E-01  1.853E+00 7.2707230E+00 4.0355416E+00 -6.6045818E+00
  9.957E+00  4.575E-01  1.840E+00 7.3231519E+00 4.2587011E+00 -6.5938436E+00
  1.000E+01  5.217E-01  1.878E+00 7.1086221E+00 3.7018472E+00 -6.7976208E+00
  9.957E+00  5.000E-01  1.866E+00 7.1749480E+00 3.9234382E+00 -6.7965365E+00
  1.000E+01  5.661E-01  1.901E+00 7.0492593E+00 3.3611952E+00 -6.9764899E+00
  9.957E+00  5.438E-01  1.890E+00 7.0930230E+00 3.5825862E+00 -6.9859898E+00
  1.000E+01  6.116E-01  1.921E+00 6.9131131E+00 3.0050455E+00 -7.1324369E+00
  9.957E+00  5.887E-01  1.912E+00 6.9991924E+00 3.2297443E+00 -7.1564867E+00
  1.000E+01  6.580E-01  1.940E+00 6.7513690E+00 2.6414298E+00 -7.2695294E+00
  9.957E+00  6.347E-01  1.931E+00 6.8240732E+00 2.8626314E+00 -7.3034855E+00
  1.000E+01  7.052E-01  1.956E+00 6.6700464E+00 2.2818216E+00 -7.3964066E+00
  9.957E+00  6.815E-01  1.948E+00 6.7134926E+00 2.4957660E+00 -7.4371727E+00
  1.000E+01  7.532E-01  1.969E+00 6.5769597E+00 1.9173269E+00 -7.5060192E+00
  9.957E+00  7.292E-01  1.963E+00 6.6317302E+00 2.1305436E+00 -7.5586209E+00
  1.000E+01  8.019E-01  1.980E+00 6.4657536E+00 1.5391305E+00 -7.5906972E+00
  9.957E+00  7.775E-01  1.975E+00 6.5251002E+00 1.7540117E+00 -7.6572728E+00
  1.000E+01  8.510E-01  1.989E+00 6.3645751E+00 1.1531453E+00 -7.6540892E+00
  9.957E+00  8.264E-01  1.985E+00 6.4159902E+00 1.3654101E+00 -7.7316062E+00
  1.000E+01  9.004E-01  1.995E+00 6.2943551E+00 7.6705826E-01 -7.7001974E+00
  9.957E+00  8.757E-01  1.992E+00 6.3308740E+00 9.7325472E-01 -7.7868352E+00
  1.000E+01  9.502E-01  1.999E+00 6.2570600E+00 3.8304139E-01 -7.7291525E+00
  9.957E+00  9.253E-01  1.997E+00 6.2767307E+00 5.8291451E-01 -7.8251386E+00
  1.000E+01  1.000E+00  2.000E+00 6.2458476E+00 -9.2597006E-06 -7.7391411E+00
  9.957E+00  9.751E-01  2.000E+00 6.2512703E+00 1.9415309E-01 -7.8450724E+00
  1.000E+01  1.050E+00  1.999E+00 6.2570599E+00 -3.8305890E-01 -7.7291514E+00
  9.957E+00  1.025E+00  2.000E+00 6.2512702E+00 -1.9417183E-01 -7.8450718E+00
  1.000E+01  1.100E+00  1.995E+00 6.2943549E+00 -7.6707636E-01 -7.7001951E+00
  9.957E+00  1.075E+00  1.997E+00 6.2767306E+00 -5.8293263E-01 -7.8251368E+00
  1.000E+01  1.149E+00  1.989E+00 6.3645748E+00 -1.1531634E+00 -7.6540858E+00
  9.957E+00  1.124E+00  1.992E+00 6.3308737E+00 -9.7327376E-01 -7.7868322E+00
  1.000E+01  1.198E+00  1.980E+00 6.4657533E+00 -1.5391481E+00 -7.5906927E+00
  9.957E+00  1.174E+00  1.985E+00 6.4159899E+00 -1.3654282E+00 -7.7316021E+00