# TIME = 5.000000
VARIABLES = X, Y, Z, FX, FY, FZ
ZONE N=29232 E=58212 F=FEPOINT ET=TRIANGLE
  0.000E+00  9.502E-01  1.243E-03 6.2369142E+00 3.9062678E-01 7.8820380E+00
  0.000E+00  1.000E+00  0.000E+00 6.2256787E+00 -3.9111572E-06 7.8922241E+00
  4.318E-02  9.751E-01  3.108E-04 6.2268017E+00 1.9258139E-01 7.7812365E+00
  0.000E+00  1.050E+00  1.243E-03 6.2369144E+00 -3.9063568E-01 7.8820376E+00
  4.318E-02  1.025E+00  3.108E-04 6.2268018E+00 -1.9258951E-01 7.7812363E+00
  0.000E+00  1.100E+00  4.969E-03 6.2742638E+00 -7.8225296E-01 7.8525065E+00
  4.318E-02  1.075E+00  2.796E-03 6.2522986E+00 -5.7819179E-01 7.7614605E+00
  0.000E+00  1.149E+00  1.117E-02 6.3445374E+00 -1.1759774E+00 7.8054778E+00
  4.318E-02  1.124E+00  7.761E-03 6.3064942E+00 -9.6535582E-01 7.7234627E+00
  0.000E+00  1.198E+00  1.983E-02 6.4457615E+00 -1.5695899E+00 7.7408272E+00
  4.318E-02  1.174E+00  1.519E-02 6.3916559E+00 -1.3543158E+00 7.6686763E+00
  0.000E+00  1.247E+00  3.092E-02 6.5570560E+00 -1.9552529E+00 7.6544846E+00
  4.318E-02  1.223E+00  2.507E-02 6.5008141E+00 -1.7397442E+00 7.5949486E+00
  0.000E+00  1.295E+00  4.443E-02 6.6503453E+00 -2.3269452E+00 7.5427206E+00
  4.318E-02  1.271E+00  3.738E-02 6.6075775E+00 -2.1131972E+00 7.4971194E+00
  0.000E+00  1.342E+00  6.031E-02 6.7319481E+00 -2.6936617E+00 7.4133202E+00
  4.318E-02  1.318E+00  5.207E-02 6.6896234E+00 -2.4754401E+00 7.3766766E+00
  0.000E+00  1.388E+00  7.852E-02 6.8937212E+00 -3.0644734E+00 7.2734883E+00
  4.318E-02  1.365E+00  6.913E-02 6.8004056E+00 -2.8393218E+00 7.2440364E+00
  0.000E+00  1.434E+00  9.903E-02 7.0299588E+00 -3.4276722E+00 7.1144929E+00
  4.318E-02  1.411E+00  8.849E-02 6.9754713E+00 -3.2034455E+00 7.0982277E+00
  0.000E+00  1.478E+00  1.218E-01 7.0896358E+00 -3.7750514E+00 6.9320832E+00
  4.318E-02  1.456E+00  1.101E-01 7.0695309E+00 -3.5534147E+00 6.9291684E+00
  0.000E+00  1.521E+00  1.467E-01 7.2516917E+00 -4.1153457E+00 6.7351897E+00
  4.318E-02  1.500E+00  1.340E-01 7.1516977E+00 -3.8914922E+00 6.7412152E+00
  0.000E+00  1.563E+00  1.738E-01 7.3006473E+00 -4.4472568E+00 6.5227083E+00
  4.318E-02  1.543E+00  1.600E-01 7.2998248E+00 -4.2240248E+00 6.5401779E+00
  0.000E+00  1.604E+00  2.029E-01 7.3913002E+00 -4.7662531E+00 6.2923421E+00
  4.318E-02  1.584E+00  1.881E-01 7.3273378E+00 -4.5449336E+00 6.3214686E+00
  0.000E+00  1.643E+00  2.340E-01 7.4469345E+00 -5.0740748E+00 6.0470658E+00
  4.318E-02  1.623E+00  2.182E-01 7.4228626E+00 -4.8539621E+00 6.0867437E+00
  0.000E+00  1.680E+00  2.669E-01 7.4508808E+00 -5.3692148E+00 5.7866189E+00
  4.318E-02  1.662E+00  2.502E-01 7.4372476E+00 -5.1515851E+00 5.8374338E+00
  0.000E+00  1.716E+00  3.018E-01 7.4838256E+00 -5.6508829E+00 5.5117224E+00
  4.318E-02  1.698E+00  2.841E-01 7.4836231E+00 -5.4359949E+00 5.5732458E+00
  0.000E+00  1.750E+00  3.383E-01 7.4374521E+00 -5.9187500E+00 5.2233473E+00
  4.318E-02  1.733E+00  3.198E-01 7.4506824E+00 -5.7071192E+00 5.2954492E+00
  0.000E+00  1.782E+00  3.765E-01 7.4230713E+00 -6.1715312E+00 4.9215805E+00
  4.318E-02  1.766E+00  3.572E-01 7.4467376E+00 -5.9639802E+00 5.0043617E+00
  0.000E+00  1.812E+00  4.163E-01 7.3275485E+00 -6.4095363E+00 4.6082493E+00
  4.318E-02  1.797E+00  3.962E-01 7.3911052E+00 -6.2058956E+00 4.7007692E+00
  0.000E+00  1.840E+00  4.575E-01 7.3000401E+00 -6.6312758E+00 4.2828714E+00
  4.318E-02  1.826E+00  4.367E-01 7.3004556E+00 -6.4330926E+00 4.3861546E+00
  0.000E+00  1.866E+00  5.000E-01 7.1519118E+00 -6.8351331E+00 3.9457032E+00
  4.318E-02  1.853E+00  4.786E-01 7.2515002E+00 -6.6426496E+00 4.0588038E+00
  0.000E+00  1.890E+00  5.438E-01 7.0697484E+00 -7.0257016E+00 3.6029138E+00
  4.318E-02  1.878E+00  5.217E-01 7.0894501E+00 -6.8368633E+00 3.7231887E+00
  0.000E+00  1.912E+00  5.887E-01 6.9756923E+00 -7.1970966E+00 3.2480674E+00
  4.318E-02  1.901E+00  5.661E-01 7.0297730E+00 -7.0167448E+00 3.3805879E+00
  0.000E+00  1.931E+00  6.347E-01 6.8006257E+00 -7.3449586E+00 2.8788721E+00
  4.318E-02  1.921E+00  6.116E-01 6.8935362E+00 -7.1735592E+00 3.0223766E+00
  0.000E+00  1.948E+00  6.815E-01 6.6898451E+00 -7.4794490E+00 2.5099263E+00
  4.318E-02  1.940E+00  6.580E-01 6.7317654E+00 -7.3114902E+00 2.6566511E+00
  0.000E+00  1.963E+00  7.292E-01 6.6078043E+00 -7.6015589E+00 2.1426422E+00
  4.318E-02  1.956E+00  7.052E-01 6.6501629E+00 -7.4390957E+00 2.2949625E+00
  0.000E+00  1.975E+00  7.775E-01 6.5010440E+00 -7.7007552E+00 1.7639875E+00
  4.318E-02  1.969E+00  7.532E-01 6.5568759E+00 -7.5493147E+00 1.9283730E+00
  0.000E+00  1.985E+00  8.264E-01 6.3918863E+00 -7.7755154E+00 1.3731855E+00
  4.318E-02  1.980E+00  8.019E-01 6.4455828E+00 -7.6344752E+00 1.5480109E+00
  0.000E+00  1.992E+00  8.757E-01 6.3067242E+00 -7.8310628E+00 9.7880183E-01
  4.318E-02  1.989E+00  8.510E-01 6.3443584E+00 -7.6982388E+00 1.1598101E+00
  0.000E+00  1.997E+00  9.253E-01 6.2525298E+00 -7.8695909E+00 5.8624012E-01
  4.318E-02  1.995E+00  9.004E-01 6.2740850E+00 -7.7446205E+00 7.7149764E-01
  0.000E+00  2.000E+00  9.751E-01 6.2270346E+00 -7.8896451E+00 1.9526555E-01
  4.318E-02  1.999E+00  9.502E-01 6.2367374E+00 -7.7737495E+00 3.8526127E-01
  0.000E+00  2.000E+00  1.025E+00 6.2270346E+00 -7.8896425E+00 -1.9527117E-01
  4.318E-02  2.000E+00  1.000E+00 6.2255022E+00 -7.7837962E+00 -2.8095584E-06
  0.000E+00  1.997E+00  1.075E+00 6.2525299E+00 -7.8695825E+00 -5.8624573E-01
  4.318E-02  1.999E+00  1.050E+00 6.2367374E+00 -7.7737443E+00 -3.8526688E-01
  0.000E+00  1.992E+00  1.124E+00 6.3067242E+00 -7.8310498E+00 -9.7880749E-01
  4.318E-02  1.995E+00  1.100E+00 6.2740849E+00 -7.7446091E+00 -7.7150323E-01
  0.000E+00  1.985E+00  1.174E+00 6.3918862E+00 -7.7755080E+00 -1.3731912E+00
  4.318E-02  1.989E+00  1.149E+00 6.3443584E+00 -7.6982269E+00 -1.1598157E+00
  0.000E+00  1.975E+00  1.223E+00 6.5010438E+00 -7.7007662E+00 -1.7639932E+00
  4.318E-02  1.980E+00  1.198E+00 6.4455829E+00 -7.6344769E+00 -1.5480165E+00
  0.000E+00  1.963E+00  1.271E+00 6.6078040E+00 -7.6015692E+00 -2.1426478E+00
  4.318E-02  1.969E+00  1.247E+00 6.5568761E+00 -7.5493305E+00 -1.9283785E+00
  0.000E+00  1.948E+00  1.318E+00 6.6898449E+00 -7.4794203E+00 -2.5099317E+00
  4.318E-02  1.956E+00  1.295E+00 6.6501631E+00 -7.4390895E+00 -2.2949679E+00
  0.000E+00  1.931E+00  1.365E+00 6.8006256E+00 -7.3449344E+00 -2.8788775E+00
  4.318E-02  1.940E+00  1.342E+00 6.7317656E+00 -7.3114522E+00 -2.6566564E+00
  0.000E+00  1.912E+00  1.411E+00 6.9756917E+00 -7.1971221E+00 -3.2480726E+00
  4.318E-02  1.921E+00  1.388E+00 6.8935366E+00 -7.1735665E+00 -3.0223823E+00
  0.000E+00  1.890E+00  1.456E+00 7.0697484E+00 -7.0256863E+00 -3.6029192E+00
  4.318E-02  1.901E+00  1.434E+00 7.0297732E+00 -7.0167605E+00 -3.3805933E+00
  0.000E+00  1.866E+00  1.500E+00 7.1519120E+00 -6.8351080E+00 -3.9457082E+00
  4.318E-02  1.878E+00  1.478E+00 7.0894501E+00 -6.8368263E+00 -3.7231935E+00
  0.000E+00  1.840E+00  1.543E+00 7.3000403E+00 -6.6312928E+00 -4.2828771E+00
  4.318E-02  1.853E+00  1.521E+00 7.2515003E+00 -6.6426554E+00 -4.0588094E+00
  0.000E+00  1.812E+00  1.584E+00 7.3275485E+00 -6.4095181E+00 -4.6082539E+00
  4.318E-02  1.826E+00  1.563E+00 7.3004556E+00 -6.4330919E+00 -4.3861596E+00
  0.000E+00  1.782E+00  1.623E+00 7.4230712E+00 -6.1715312E+00 -4.9215856E+00
  4.318E-02  1.797E+00  1.604E+00 7.3911055E+00 -6.2058825E+00 -4.7007743E+00
  0.000E+00  1.750E+00  1.662E+00 7.4374520E+00 -5.9187446E+00 -5.2233519E+00
  4.318E-02  1.766E+00  1.643E+00 7.4467380E+00 -5.9639851E+00 -5.0043669E+00
  0.000E+00  1.716E+00  1.698E+00 7.4838262E+00 -5.6508772E+00 -5.5117273E+00
  4.318E-02  1.733E+00  1.680E+00 7.4506826E+00 -5.7071080E+00 -5.2954536E+00
  0.000E+00  1.680E+00  1.733E+00 7.4508820E+00 -5.3692124E+00 -5.7866238E+00
  4.318E-02  1.698E+00  1.716E+00 7.4836228E+00 -5.4359939E+00 -5.5732505E+00
  0.000E+00  1.643E+00  1.766E+00 7.4469352E+00 -5.0740680E+00 -6.0470705E+00
  4.318E-02  1.662E+00  1.750E+00 7.4372471E+00 -5.1515759E+00 -5.8374379E+00
  0.000E+00  1.604E+00  1.797E+00 7.3912993E+00 -4.7662451E+00 -6.2923456E+00
  4.318E-02  1.623E+00  1.782E+00 7.4228627E+00 -4.8539569E+00 -6.0867483E+00
  0.000E+00  1.563E+00  1.826E+00 7.3006455E+00 -4.4472430E+00 -6.5227104E+00
  4.318E-02  1.584E+00  1.812E+00 7.3273391E+00 -4.5449283E+00 -6.3214735E+00
  0.000E+00  1.521E+00  1.853E+00 7.2516919E+00 -4.1153355E+00 -6.7351919E+00
  4.318E-02  1.543E+00  1.840E+00 7.2998265E+00 -4.2240218E+00 -6.5401829E+00
  0.000E+00  1.478E+00  1.878E+00 7.0896387E+00 -3.7750488E+00 -6.9320880E+00
  4.318E-02  1.500E+00  1.866E+00 7.1516985E+00 -3.8914841E+00 -6.7412188E+00
  0.000E+00  1.434E+00  1.901E+00 7.0299620E+00 -3.4276816E+00 -7.1145011E+00
  4.318E-02  1.456E+00  1.890E+00 7.0695306E+00 -3.5534009E+00 -6.9291696E+00
  0.000E+00  1.388E+00  1.921E+00 6.8937219E+00 -3.0644786E+00 -7.2734975E+00
  4.318E-02  1.411E+00  1.912E+00 6.9754705E+00 -3.2034274E+00 -7.0982270E+00
  0.000E+00  1.342E+00  1.940E+00 6.7319478E+00 -2.6936529E+00 -7.4133264E+00
  4.318E-02  1.365E+00  1.931E+00 6.8004045E+00 -2.8393085E+00 -7.2440358E+00
  0.000E+00  1.295E+00  1.956E+00 6.6503461E+00 -2.3269178E+00 -7.5427206E+00
  4.318E-02  1.318E+00  1.948E+00 6.6896218E+00 -2.4754399E+00 -7.3766786E+00
  0.000E+00  1.247E+00  1.969E+00 6.5570583E+00 -1.9552171E+00 -7.6544786E+00
  4.318E-02  1.271E+00  1.963E+00 6.6075764E+00 -2.1132057E+00 -7.4971250E+00
  0.000E+00  1.198E+00  1.980E+00 6.4457637E+00 -1.5695577E+00 -7.7408169E+00
  4.318E-02  1.223E+00  1.975E+00 6.5008148E+00 -1.7397539E+00 -7.5949572E+00
  0.000E+00  1.149E+00  1.989E+00 6.3445384E+00 -1.1759557E+00 -7.8054651E+00
  4.318E-02  1.174E+00  1.985E+00 6.3916584E+00 -1.3543196E+00 -7.6686865E+00
  0.000E+00  1.100E+00  1.995E+00 6.2742640E+00 -7.8223979E-01 -7.8524927E+00
  4.318E-02  1.124E+00  1.992E+00 6.3064976E+00 -9.6535405E-01 -7.7234734E+00
  0.000E+00  1.050E+00  1.999E+00 6.2369144E+00 -3.9062601E-01 -7.8820232E+00
  4.318E-02  1.075E+00  1.997E+00 6.2523017E+00 -5.7818488E-01 -7.7614711E+00
  0.000E+00  1.000E+00  2.000E+00 6.2256788E+00 3.7188138E-06 -7.8922093E+00
  4.318E-02  1.025E+00  2.000E+00 6.2268045E+00 -1.9258178E-01 -7.7812467E+00
  0.000E+00  9.502E-01  1.999E+00 6.2369145E+00 3.9063452E-01 -7.8820229E+00
  4.318E-02  9.751E-01  2.000E+00 6.2268046E+00 1.9258953E-01 -7.7812465E+00
  0.000E+00  9.004E-01  1.995E+00 6.2742641E+00 7.8224764E-01 -7.8524920E+00
  4.318E-02  9.253E-01  1.997E+00 6.2523018E+00 5.7819327E-01 -7.7614706E+00
  0.000E+00  8.510E-01  1.989E+00 6.3445386E+00 1.1759635E+00 -7.8054641E+00
  4.318E-02  8.757E-01  1.992E+00 6.3064977E+00 9.6536139E-01 -7.7234725E+00
  0.000E+00  8.019E-01  1.980E+00 6.4457640E+00 1.5695660E+00 -7.7408155E+00
  4.318E-02  8.264E-01  1.985E+00 6.3916586E+00 1.3543278E+00 -7.6686853E+00
  0.000E+00  7.532E-01  1.969E+00 6.5570586E+00 1.9552247E+00 -7.6544768E+00
  4.318E-02  7.775E-01  1.975E+00 6.5008151E+00 1.7397616E+00 -7.5949556E+00
  0.000E+00  7.052E-01  1.956E+00 6.6503465E+00 2.3269258E+00 -7.5427185E+00
  4.318E-02  7.292E-01  1.963E+00 6.6075768E+00 2.1132136E+00 -7.4971231E+00
  0.000E+00  6.580E-01  1.940E+00 6.7319482E+00 2.6936603E+00 -7.4133239E+00
  4.318E-02  6.815E-01  1.948E+00 6.6896222E+00 2.4754473E+00 -7.3766764E+00
  0.000E+00  6.116E-01  1.921E+00 6.8937225E+00 3.0644873E+00 -7.2734950E+00
  4.318E-02  6.347E-01  1.931E+00 6.8004050E+00 2.8393167E+00 -7.2440333E+00
  0.000E+00  5.661E-01  1.901E+00 7.0299625E+00 3.4276876E+00 -7.1144981E+00
  4.318E-02  5.887E-01  1.912E+00 6.9754708E+00 3.2034346E+00 -7.0982238E+00
  0.000E+00  5.217E-01  1.878E+00 7.0896393E+00 3.7750571E+00 -6.9320848E+00
  4.318E-02  5.438E-01  1.890E+00 7.0695312E+00 3.5534074E+00 -6.9291666E+00
  0.000E+00  4.786E-01  1.853E+00 7.2516925E+00 4.1153422E+00 -6.7351884E+00
  4.318E-02  5.000E-01  1.866E+00 7.1516991E+00 3.8914923E+00 -6.7412156E+00
  0.000E+00  4.367E-01  1.826E+00 7.3006461E+00 4.4472513E+00 -6.5227067E+00
  4.318E-02  4.575E-01  1.840E+00 7.2998271E+00 4.2240284E+00 -6.5401793E+00
  0.000E+00  3.962E-01  1.797E+00 7.3912999E+00 4.7662509E+00 -6.2923416E+00
  4.318E-02  4.163E-01  1.812E+00 7.3273397E+00 4.5449362E+00 -6.3214698E+00
  0.000E+00  3.572E-01  1.766E+00 7.4469358E+00 5.0740758E+00 -6.0470663E+00
  4.318E-02  3.765E-01  1.782E+00 7.4228633E+00 4.8539621E+00 -6.0867441E+00
  0.000E+00  3.198E-01  1.733E+00 7.4508826E+00 5.3692162E+00 -5.7866195E+00
  4.318E-02  3.383E-01  1.750E+00 7.4372477E+00 5.1515842E+00 -5.8374339E+00
  0.000E+00  2.841E-01  1.698E+00 7.4838268E+00 5.6508834E+00 -5.5117227E+00
  4.318E-02  3.018E-01  1.716E+00 7.4836234E+00 5.4359945E+00 -5.5732458E+00
  0.000E+00  2.502E-01  1.662E+00 7.4374526E+00 5.9187495E+00 -5.2233474E+00
  4.318E-02  2.669E-01  1.680E+00 7.4506831E+00 5.7071194E+00 -5.2954494E+00
  0.000E+00  2.182E-01  1.623E+00 7.4230716E+00 6.1715307E+00 -4.9215806E+00
  4.318E-02  2.340E-01  1.643E+00 7.4467385E+00 5.9639807E+00 -5.0043620E+00
  0.000E+00  1.881E-01  1.584E+00 7.3275490E+00 6.4095362E+00 -4.6082495E+00
  4.318E-02  2.029E-01  1.604E+00 7.3911059E+00 6.2058958E+00 -4.7007696E+00
  0.000E+00  1.600E-01  1.543E+00 7.3000407E+00 6.6312759E+00 -4.2828717E+00
  4.318E-02  1.738E-01  1.563E+00 7.3004560E+00 6.4330926E+00 -4.3861549E+00
  0.000E+00  1.340E-01  1.500E+00 7.1519123E+00 6.8351332E+00 -3.9457034E+00
  4.318E-02  1.467E-01  1.521E+00 7.2515006E+00 6.6426496E+00 -4.0588041E+00
  0.000E+00  1.101E-01  1.456E+00 7.0697487E+00 7.0257017E+00 -3.6029140E+00
  4.318E-02  1.218E-01  1.478E+00 7.0894504E+00 6.8368633E+00 -3.7231890E+00
  0.000E+00  8.849E-02  1.411E+00 6.9756923E+00 7.1970961E+00 -3.2480674E+00
  4.318E-02  9.903E-02  1.434E+00 7.0297734E+00 7.0167449E+00 -3.3805881E+00
  0.000E+00  6.913E-02  1.365E+00 6.8006256E+00 7.3449584E+00 -2.8788723E+00
  4.318E-02  7.852E-02  1.388E+00 6.8935365E+00 7.1735594E+00 -3.0223769E+00
  0.000E+00  5.207E-02  1.318E+00 6.6898449E+00 7.4794487E+00 -2.5099265E+00
  4.318E-02  6.031E-02  1.342E+00 6.7317656E+00 7.3114904E+00 -2.6566514E+00
  0.000E+00  3.738E-02  1.271E+00 6.6078039E+00 7.6015585E+00 -2.1426425E+00
  4.318E-02  4.443E-02  1.295E+00 6.6501631E+00 7.4390959E+00 -2.2949628E+00
  0.000E+00  2.507E-02  1.223E+00 6.5010436E+00 7.7007549E+00 -1.7639878E+00
  4.318E-02  3.092E-02  1.247E+00 6.5568759E+00 7.5493149E+00 -1.9283733E+00
  0.000E+00  1.519E-02  1.174E+00 6.3918859E+00 7.7755152E+00 -1.3731858E+00
  4.318E-02  1.983E-02  1.198E+00 6.4455826E+00 7.6344752E+00 -1.5480112E+00
  0.000E+00  7.761E-03  1.124E+00 6.3067238E+00 7.8310626E+00 -9.7880212E-01
  4.318E-02  1.117E-02  1.149E+00 6.3443581E+00 7.6982387E+00 -1.1598104E+00
  0.000E+00  2.796E-03  1.075E+00 6.2525294E+00 7.8695908E+00 -5.8624039E-01
  4.318E-02  4.969E-03  1.100E+00 6.2740845E+00 7.7446204E+00 -7.7149798E-01
  0.000E+00  3.108E-04  1.025E+00 6.2270340E+00 7.8896449E+00 -1.9526582E-01
  4.318E-02  1.243E-03  1.050E+00 6.2367368E+00 7.7737493E+00 -3.8526163E-01
  0.000E+00  3.108E-04  9.751E-01 6.2270338E+00 7.8896422E+00 1.9527089E-01
  4.318E-02  0.000E+00  1.000E+00 6.2255014E+00 7.7837960E+00 2.4460243E-06
  0.000E+00  2.796E-03  9.253E-01 6.2525289E+00 7.8695821E+00 5.8624543E-01
  4.318E-02  1.243E-03  9.502E-01 6.2367366E+00 7.7737441E+00 3.8526651E-01
  0.000E+00  7.761E-03  8.757E-01 6.3067232E+00 7.8310495E+00 9.7880714E-01
  4.318E-02  4.969E-03  9.004E-01 6.2740840E+00 7.7446089E+00 7.7150286E-01
  0.000E+00  1.519E-02  8.264E-01 6.3918852E+00 7.7755077E+00 1.3731908E+00
  4.318E-02  1.117E-02  8.510E-01 6.3443574E+00 7.6982266E+00 1.1598154E+00
  0.000E+00  2.507E-02  7.775E-01 6.5010428E+00 7.7007661E+00 1.7639928E+00
  4.318E-02  1.983E-02  8.019E-01 6.4455816E+00 7.6344764E+00 1.5480161E+00
  0.000E+00  3.738E-02  7.292E-01 6.6078029E+00 7.6015691E+00 2.1426474E+00
  4.318E-02  3.092E-02  7.532E-01 6.5568746E+00 7.5493300E+00 1.9283781E+00
  0.000E+00  5.207E-02  6.815E-01 6.6898437E+00 7.4794201E+00 2.5099313E+00
  4.318E-02  4.443E-02  7.052E-01 6.6501615E+00 7.4390889E+00 2.2949675E+00
  0.000E+00  6.913E-02  6.347E-01 6.8006242E+00 7.3449341E+00 2.8788771E+00
  4.318E-02  6.031E-02  6.580E-01 6.7317640E+00 7.3114516E+00 2.6566560E+00
  0.000E+00  8.849E-02  5.887E-01 6.9756903E+00 7.1971222E+00 3.2480724E+00
  4.318E-02  7.852E-02  6.116E-01 6.8935349E+00 7.1735659E+00 3.0223818E+00
  0.000E+00  1.101E-01  5.438E-01 7.0697467E+00 7.0256858E+00 3.6029187E+00
  4.318E-02  9.903E-02  5.661E-01 7.0297715E+00 7.0167599E+00 3.3805929E+00
  0.000E+00  1.340E-01  5.000E-01 7.1519101E+00 6.8351074E+00 3.9457078E+00
  4.318E-02  1.218E-01  5.217E-01 7.0894484E+00 6.8368258E+00 3.7231931E+00
  0.000E+00  1.600E-01  4.575E-01 7.3000383E+00 6.6312922E+00 4.2828767E+00
  4.318E-02  1.467E-01  4.786E-01 7.2514985E+00 6.6426549E+00 4.0588090E+00
  0.000E+00  1.881E-01  4.163E-01 7.3275467E+00 6.4095177E+00 4.6082535E+00
  4.318E-02  1.738E-01  4.367E-01 7.3004538E+00 6.4330914E+00 4.3861591E+00
  0.000E+00  2.182E-01  3.765E-01 7.4230695E+00 6.1715313E+00 4.9215853E+00
  4.318E-02  2.029E-01  3.962E-01 7.3911035E+00 6.2058818E+00 4.7007737E+00
  0.000E+00  2.502E-01  3.383E-01 7.4374503E+00 5.9187446E+00 5.2233516E+00
  4.318E-02  2.340E-01  3.572E-01 7.4467358E+00 5.9639842E+00 5.0043663E+00
  0.000E+00  2.841E-01  3.018E-01 7.4838238E+00 5.6508763E+00 5.5117268E+00
  4.318E-02  2.669E-01  3.198E-01 7.4506805E+00 5.7071073E+00 5.2954531E+00
  0.000E+00  3.198E-01  2.669E-01 7.4508790E+00 5.3692106E+00 5.7866230E+00
  4.318E-02  3.018E-01  2.841E-01 7.4836213E+00 5.4359939E+00 5.5732502E+00
  0.000E+00  3.572E-01  2.340E-01 7.4469327E+00 5.0740666E+00 6.0470698E+00
  4.318E-02  3.383E-01  2.502E-01 7.4372458E+00 5.1515764E+00 5.8374376E+00
  0.000E+00  3.962E-01  2.029E-01 7.3912984E+00 4.7662468E+00 6.2923458E+00
  4.318E-02  3.765E-01  2.182E-01 7.4228608E+00 4.8539564E+00 6.0867476E+00
  0.000E+00  4.367E-01  1.738E-01 7.3006456E+00 4.4472481E+00 6.5227118E+00
  4.318E-02  4.163E-01  1.881E-01 7.3273361E+00 4.5449253E+00 6.3214721E+00
  0.000E+00  4.786E-01  1.467E-01 7.2516901E+00 4.1153386E+00 6.7351930E+00
  4.318E-02  4.575E-01  1.600E-01 7.2998232E+00 4.2240178E+00 6.5401813E+00
  0.000E+00  5.217E-01  1.218E-01 7.0896343E+00 3.7750427E+00 6.9320862E+00
  4.318E-02  5.000E-01  1.340E-01 7.1516962E+00 3.8914836E+00 6.7412182E+00
  0.000E+00  5.661E-01  9.903E-02 7.0299573E+00 3.4276658E+00 7.1144956E+00
  4.318E-02  5.438E-01  1.101E-01 7.0695295E+00 3.5534078E+00 6.9291713E+00
  0.000E+00  6.116E-01  7.852E-02 6.8937199E+00 3.0644643E+00 7.2734908E+00
  4.318E-02  5.887E-01  8.849E-02 6.9754698E+00 3.2034376E+00 7.0982300E+00
  0.000E+00  6.580E-01  6.031E-02 6.7319470E+00 2.6936538E+00 7.4133224E+00
  4.318E-02  6.347E-01  6.913E-02 6.8004044E+00 2.8393133E+00 7.2440388E+00
  0.000E+00  7.052E-01  4.443E-02 6.6503443E+00 2.3269369E+00 7.5427225E+00
  4.318E-02  6.815E-01  5.207E-02 6.6896223E+00 2.4754323E+00 7.3766786E+00
  0.000E+00  7.532E-01  3.092E-02 6.5570551E+00 1.9552448E+00 7.6544863E+00
  4.318E-02  7.292E-01  3.738E-02 6.6075765E+00 2.1131890E+00 7.4971211E+00
  0.000E+00  8.019E-01  1.983E-02 6.4457608E+00 1.5695812E+00 7.7408285E+00
  4.318E-02  7.775E-01  2.507E-02 6.5008133E+00 1.7397361E+00 7.5949501E+00
  0.000E+00  8.510E-01  1.117E-02 6.3445368E+00 1.1759692E+00 7.8054788E+00
  4.318E-02  8.264E-01  1.519E-02 6.3916552E+00 1.3543071E+00 7.6686774E+00
  0.000E+00  9.004E-01  4.969E-03 6.2742634E+00 7.8224473E-01 7.8525072E+00
  4.318E-02  8.757E-01  7.761E-03 6.3064938E+00 9.6534811E-01 7.7234635E+00
  4.318E-02  9.253E-01  2.796E-03 6.2522983E+00 5.7818302E-01 7.7614610E+00
  1.000E+01  1.050E+00  1.243E-03 6.2369144E+00 -3.9063568E-01 7.8820376E+00
  1.000E+01  1.000E+00  5.551E-16 6.2256787E+00 -3.9111572E-06 7.8922241E+00
  9.957E+00  1.025E+00  3.108E-04 6.2273262E+00 -1.9797109E-01 7.9987083E+00
  1.000E+01  9.502E-01  1.243E-03 6.2369142E+00 3.9062678E-01 7.8820380E+00
  9.957E+00  9.751E-01  3.108E-04 6.2273261E+00 1.9796273E-01 7.9987084E+00
  1.000E+01  9.004E-01  4.969E-03 6.2742634E+00 7.8224473E-01 7.8525072E+00
  9.957E+00  9.253E-01  2.796E-03 6.2528231E+00 5.9434063E-01 7.9783803E+00
  1.000E+01  8.510E-01  1.117E-02 6.3445368E+00 1.1759692E+00 7.8054788E+00
  9.957E+00  8.757E-01  7.761E-03 6.3070194E+00 9.9232839E-01 7.9393207E+00
  1.000E+01  8.019E-01  1.983E-02 6.4457608E+00 1.5695812E+00 7.7408285E+00
  9.957E+00  8.264E-01  1.519E-02 6.3921822E+00 1.3921600E+00 7.8830037E+00
  1.000E+01  7.532E-01  3.092E-02 6.5570551E+00 1.9552448E+00 7.6544863E+00
  9.957E+00  7.775E-01  2.507E-02 6.5013405E+00 1.7883606E+00 7.8072157E+00
  1.000E+01  7.052E-01  4.443E-02 6.6503443E+00 2.3269369E+00 7.5427225E+00
  9.957E+00  7.292E-01  3.738E-02 6.6081012E+00 2.1722505E+00 7.7066517E+00
  1.000E+01  6.580E-01  6.031E-02 6.7319470E+00 2.6936538E+00 7.4133224E+00
  9.957E+00  6.815E-01  5.207E-02 6.6901421E+00 2.5446185E+00 7.5828424E+00
  1.000E+01  6.116E-01  7.852E-02 6.8937199E+00 3.0644643E+00 7.2734908E+00
  9.957E+00  6.347E-01  6.913E-02 6.8009245E+00 2.9186705E+00 7.4464973E+00
  1.000E+01  5.661E-01  9.903E-02 7.0299573E+00 3.4276658E+00 7.1144956E+00
  9.957E+00  5.887E-01  8.849E-02 6.9759968E+00 3.2929708E+00 7.2966130E+00
  1.000E+01  5.217E-01  1.218E-01 7.0896343E+00 3.7750427E+00 6.9320862E+00
  9.957E+00  5.438E-01  1.101E-01 7.0700556E+00 3.6527223E+00 7.1228280E+00
  1.000E+01  4.786E-01  1.467E-01 7.2516901E+00 4.1153386E+00 6.7351930E+00
  9.957E+00  5.000E-01  1.340E-01 7.1522204E+00 4.0002477E+00 6.9296231E+00
  1.000E+01  4.367E-01  1.738E-01 7.3006456E+00 4.4472481E+00 6.5227118E+00
  9.957E+00  4.575E-01  1.600E-01 7.3003519E+00 4.3420761E+00 6.7229671E+00
  1.000E+01  3.962E-01  2.029E-01 7.3912984E+00 4.7662468E+00 6.2923458E+00
  9.957E+00  4.163E-01  1.881E-01 7.3278589E+00 4.6719515E+00 6.4981457E+00
  1.000E+01  3.572E-01  2.340E-01 7.4469327E+00 5.0740666E+00 6.0470698E+00
  9.957E+00  3.765E-01  2.182E-01 7.4233870E+00 4.9896174E+00 6.2568623E+00
  1.000E+01  3.198E-01  2.669E-01 7.4508790E+00 5.3692106E+00 5.7866230E+00
  9.957E+00  3.383E-01  2.502E-01 7.4377701E+00 5.2955559E+00 6.0005850E+00
  1.000E+01  2.841E-01  3.018E-01 7.4838238E+00 5.6508763E+00 5.5117268E+00
  9.957E+00  3.018E-01  2.841E-01 7.4841484E+00 5.5879208E+00 5.7290144E+00
  1.000E+01  2.502E-01  3.383E-01 7.4374503E+00 5.9187446E+00 5.2233516E+00
  9.957E+00  2.669E-01  3.198E-01 7.4512053E+00 5.8666127E+00 5.4434538E+00
  1.000E+01  2.182E-01  3.765E-01 7.4230695E+00 6.1715313E+00 4.9215853E+00
  9.957E+00  2.340E-01  3.572E-01 7.4472624E+00 6.1306673E+00 5.1442310E+00
  1.000E+01  1.881E-01  4.163E-01 7.3275467E+00 6.4095177E+00 4.6082535E+00
  9.957E+00  2.029E-01  3.962E-01 7.3916302E+00 6.3793282E+00 4.8321543E+00
  1.000E+01  1.600E-01  4.575E-01 7.3000383E+00 6.6312922E+00 4.2828767E+00
  9.957E+00  1.738E-01  4.367E-01 7.3009775E+00 6.6128856E+00 4.5087446E+00
  1.000E+01  1.340E-01  5.000E-01 7.1519101E+00 6.8351074E+00 3.9457078E+00
  9.957E+00  1.467E-01  4.786E-01 7.2520266E+00 6.8283086E+00 4.1722464E+00
  1.000E+01  1.101E-01  5.438E-01 7.0697467E+00 7.0256858E+00 3.6029187E+00
  9.957E+00  1.218E-01  5.217E-01 7.0899704E+00 7.0279044E+00 3.8272518E+00
  1.000E+01  8.849E-02  5.887E-01 6.9756903E+00 7.1971222E+00 3.2480724E+00
  9.957E+00  9.903E-02  5.661E-01 7.0302988E+00 7.2128665E+00 3.4750765E+00
  1.000E+01  6.913E-02  6.347E-01 6.8006242E+00 7.3449341E+00 2.8788771E+00
  9.957E+00  7.852E-02  6.116E-01 6.8940606E+00 7.3740568E+00 3.1068531E+00
  1.000E+01  5.207E-02  6.815E-01 6.6898437E+00 7.4794201E+00 2.5099313E+00
  9.957E+00  6.031E-02  6.580E-01 6.7322857E+00 7.5157952E+00 2.7309073E+00
  1.000E+01  3.738E-02  7.292E-01 6.6078029E+00 7.6015691E+00 2.1426474E+00
  9.957E+00  4.443E-02  7.052E-01 6.6506874E+00 7.6469987E+00 2.3591113E+00
  1.000E+01  2.507E-02  7.775E-01 6.5010428E+00 7.7007661E+00 1.7639928E+00
  9.957E+00  3.092E-02  7.532E-01 6.5574021E+00 7.7603214E+00 1.9822752E+00
  1.000E+01  1.519E-02  8.264E-01 6.3918852E+00 7.7755077E+00 1.3731908E+00
  9.957E+00  1.983E-02  8.019E-01 6.4461076E+00 7.8478482E+00 1.5912798E+00
  1.000E+01  7.761E-03  8.757E-01 6.3067232E+00 7.8310495E+00 9.7880714E-01
  9.957E+00  1.117E-02  8.510E-01 6.3448817E+00 7.9133802E+00 1.1922293E+00
  1.000E+01  2.796E-03  9.253E-01 6.2525289E+00 7.8695821E+00 5.8624543E-01
  9.957E+00  4.969E-03  9.004E-01 6.2746082E+00 7.9610589E+00 7.9306579E-01
  1.000E+01  3.108E-04  9.751E-01 6.2270338E+00 7.8896422E+00 1.9527089E-01
  9.957E+00  1.243E-03  9.502E-01 6.2372601E+00 7.9910062E+00 3.9603602E-01
  1.000E+01  3.108E-04  1.025E+00 6.2270340E+00 7.8896449E+00 -1.9526582E-01
  9.957E+00  0.000E+00  1.000E+00 6.2260263E+00 8.0013414E+00 2.5233116E-06
  1.000E+01  2.796E-03  1.075E+00 6.2525294E+00 7.8695908E+00 -5.8624039E-01
  9.957E+00  1.243E-03  1.050E+00 6.2372603E+00 7.9910116E+00 -3.9603097E-01
  1.000E+01  7.761E-03  1.124E+00 6.3067238E+00 7.8310626E+00 -9.7880212E-01
  9.957E+00  4.969E-03  1.100E+00 6.2746086E+00 7.9610707E+00 -7.9306073E-01
  1.000E+01  1.519E-02  1.174E+00 6.3918859E+00 7.7755152E+00 -1.3731858E+00
  9.957E+00  1.117E-02  1.149E+00 6.3448824E+00 7.9133926E+00 -1.1922242E+00
  1.000E+01  2.507E-02  1.223E+00 6.5010436E+00 7.7007549E+00 -1.7639878E+00
  9.957E+00  1.983E-02  1.198E+00 6.4461086E+00 7.8478470E+00 -1.5912746E+00
  1.000E+01  3.738E-02  1.271E+00 6.6078039E+00 7.6015585E+00 -2.1426425E+00
  9.957E+00  3.092E-02  1.247E+00 6.5574035E+00 7.7603059E+00 -1.9822702E+00
  1.000E+01  5.207E-02  1.318E+00 6.6898449E+00 7.4794487E+00 -2.5099265E+00
  9.957E+00  4.443E-02  1.295E+00 6.6506889E+00 7.6470059E+00 -2.3591064E+00
  1.000E+01  6.913E-02  1.365E+00 6.8006256E+00 7.3449584E+00 -2.8788723E+00
  9.957E+00  6.031E-02  1.342E+00 6.7322874E+00 7.5158350E+00 -2.7309026E+00
  1.000E+01  8.849E-02  1.411E+00 6.9756923E+00 7.1970961E+00 -3.2480674E+00
  9.957E+00  7.852E-02  1.388E+00 6.8940625E+00 7.3740505E+00 -3.1068483E+00
  1.000E+01  1.101E-01  1.456E+00 7.0697487E+00 7.0257017E+00 -3.6029140E+00
  9.957E+00  9.903E-02  1.434E+00 7.0303009E+00 7.2128513E+00 -3.4750715E+00
  1.000E+01  1.340E-01  1.500E+00 7.1519123E+00 6.8351332E+00 -3.9457034E+00
  9.957E+00  1.218E-01  1.478E+00 7.0899724E+00 7.0279430E+00 -3.8272476E+00
  1.000E+01  1.600E-01  1.543E+00 7.3000407E+00 6.6312759E+00 -4.2828717E+00
  9.957E+00  1.467E-01  1.521E+00 7.2520286E+00 6.8283031E+00 -4.1722413E+00
  1.000E+01  1.881E-01  1.584E+00 7.3275490E+00 6.4095362E+00 -4.6082495E+00
  9.957E+00  1.738E-01  1.563E+00 7.3009798E+00 6.6128868E+00 -4.5087401E+00
  1.000E+01  2.182E-01  1.623E+00 7.4230716E+00 6.1715307E+00 -4.9215806E+00
  9.957E+00  2.029E-01  1.604E+00 7.3916327E+00 6.3793426E+00 -4.8321499E+00
  1.000E+01  2.502E-01  1.662E+00 7.4374526E+00 5.9187495E+00 -5.2233474E+00
  9.957E+00  2.340E-01  1.643E+00 7.4472651E+00 6.1306636E+00 -5.1442266E+00
  1.000E+01  2.841E-01  1.698E+00 7.4838268E+00 5.6508834E+00 -5.5117227E+00
  9.957E+00  2.669E-01  1.680E+00 7.4512077E+00 5.8666250E+00 -5.4434501E+00
  1.000E+01  3.198E-01  1.733E+00 7.4508826E+00 5.3692162E+00 -5.7866195E+00
  9.957E+00  3.018E-01  1.716E+00 7.4841503E+00 5.5879213E+00 -5.7290100E+00
  1.000E+01  3.572E-01  1.766E+00 7.4469358E+00 5.0740758E+00 -6.0470663E+00
  9.957E+00  3.383E-01  1.750E+00 7.4377722E+00 5.2955641E+00 -6.0005810E+00
  1.000E+01  3.962E-01  1.797E+00 7.3912999E+00 4.7662509E+00 -6.2923416E+00
  9.957E+00  3.765E-01  1.782E+00 7.4233901E+00 4.9896235E+00 -6.2568585E+00
  1.000E+01  4.367E-01  1.826E+00 7.3006461E+00 4.4472513E+00 -6.5227067E+00
  9.957E+00  4.163E-01  1.812E+00 7.3278631E+00 4.6719628E+00 -6.4981431E+00
  1.000E+01  4.786E-01  1.853E+00 7.2516925E+00 4.1153422E+00 -6.7351884E+00
  9.957E+00  4.575E-01  1.840E+00 7.3003551E+00 4.3420865E+00 -6.7229652E+00
  1.000E+01  5.217E-01  1.878E+00 7.0896393E+00 3.7750571E+00 -6.9320848E+00
  9.957E+00  5.000E-01  1.866E+00 7.1522210E+00 4.0002562E+00 -6.9296206E+00
  1.000E+01  5.661E-01  1.901E+00 7.0299625E+00 3.4276876E+00 -7.1144981E+00
  9.957E+00  5.438E-01  1.890E+00 7.0700551E+00 3.6527220E+00 -7.1228232E+00
  1.000E+01  6.116E-01  1.921E+00 6.8937225E+00 3.0644873E+00 -7.2734950E+00
  9.957E+00  5.887E-01  1.912E+00 6.9759985E+00 3.2929684E+00 -7.2966061E+00
  1.000E+01  6.580E-01  1.940E+00 6.7319482E+00 2.6936603E+00 -7.4133239E+00
  9.957E+00  6.347E-01  1.931E+00 6.8009298E+00 2.9186744E+00 -7.4464917E+00
  1.000E+01  7.052E-01  1.956E+00 6.6503465E+00 2.3269258E+00 -7.5427185E+00
  9.957E+00  6.815E-01  1.948E+00 6.6901478E+00 2.5446334E+00 -7.5828402E+00
  1.000E+01  7.532E-01  1.969E+00 6.5570586E+00 1.9552247E+00 -7.6544768E+00
  9.957E+00  7.292E-01  1.963E+00 6.6081043E+00 2.1722749E+00 -7.7066537E+00
  1.000E+01  8.019E-01  1.980E+00 6.4457640E+00 1.5695660E+00 -7.7408155E+00
  9.957E+00  7.775E-01  1.975E+00 6.5013410E+00 1.7883863E+00 -7.8072211E+00
  1.000E+01  8.510E-01  1.989E+00 6.3445386E+00 1.1759635E+00 -7.8054641E+00
  9.957E+00  8.264E-01  1.985E+00 6.3921821E+00 1.3921812E+00 -7.8830114E+00
  1.000E+01  9.004E-01  1.995E+00 6.2742641E+00 7.8224764E-01 -7.8524920E+00
  9.957E+00  8.757E-01  1.992E+00 6.3070200E+00 9.9234211E-01 -7.9393296E+00
  1.000E+01  9.502E-01  1.999E+00 6.2369145E+00 3.9063452E-01 -7.8820229E+00
  9.957E+00  9.253E-01  1.997E+00 6.2528248E+00 5.9435119E-01 -7.9783899E+00
  1.000E+01  1.000E+00  2.000E+00 6.2256788E+00 3.7188138E-06 -7.8922093E+00
  9.957E+00  9.751E-01  2.000E+00 6.2273283E+00 1.9797110E-01 -7.9987184E+00
  1.000E+01  1.050E+00  1.999E+00 6.2369144E+00 -3.9062601E-01 -7.8820232E+00
  9.957E+00  1.025E+00  2.000E+00 6.2273283E+00 -1.9796314E-01 -7.9987186E+00
  1.000E+01  1.100E+00  1.995E+00 6.2742640E+00 -7.8223979E-01 -7.8524927E+00
  9.957E+00  1.075E+00  1.997E+00 6.2528247E+00 -5.9434258E-01 -7.9783904E+00
  1.000E+01  1.149E+00  1.989E+00 6.3445384E+00 -1.1759557E+00 -7.8054651E+00
  9.957E+00  1.124E+00  1.992E+00 6.3070199E+00 -9.9233456E-01 -7.9393306E+00
  1.000E+01  1.198E+00  1.980E+00 6.4457637E+00 -1.5695577E+00 -7.7408169E+00
  9.957E+00  1.174E+00  1.985E+00 6.3921818E+00 -1.3921727E+00 -7.8830127E+00