# TIME = 4.000000
VARIABLES = X, Y, Z, FX, FY, FZ
ZONE N=29232 E=58212 F=FEPOINT ET=TRIANGLE
  0.000E+00  9.502E-01  1.243E-03 6.2249379E+00 4.1885044E-01 8.4514892E+00
  0.000E+00  1.000E+00  0.000E+00 6.2136706E+00 2.0496134E-06 8.4624116E+00
  4.318E-02  9.751E-01  3.108E-04 6.2150448E+00 2.0664513E-01 8.3492846E+00
  0.000E+00  1.050E+00  1.243E-03 6.2249381E+00 -4.1884750E-01 8.4514894E+00
  4.318E-02  1.025E+00  3.108E-04 6.2150449E+00 -2.0664151E-01 8.3492847E+00
  0.000E+00  1.100E+00  4.969E-03 6.2623742E+00 -8.3875054E-01 8.4198247E+00
  4.318E-02  1.075E+00  2.796E-03 6.2405994E+00 -6.2039203E-01 8.3280647E+00
  0.000E+00  1.149E+00  1.117E-02 6.3327706E+00 -1.2609086E+00 8.3693983E+00
  4.318E-02  1.124E+00  7.761E-03 6.2948996E+00 -1.0358206E+00 8.2872919E+00
  0.000E+00  1.198E+00  1.983E-02 6.4341455E+00 -1.6829456E+00 8.3000785E+00
  4.318E-02  1.174E+00  1.519E-02 6.3801992E+00 -1.4531780E+00 8.2285043E+00
  0.000E+00  1.247E+00  3.092E-02 6.5456384E+00 -2.0964654E+00 8.2075026E+00
  4.318E-02  1.223E+00  2.507E-02 6.4895278E+00 -1.8667438E+00 8.1493918E+00
  0.000E+00  1.295E+00  4.443E-02 6.6392042E+00 -2.4950191E+00 8.0876699E+00
  4.318E-02  1.271E+00  3.738E-02 6.5965225E+00 -2.2674532E+00 8.0444176E+00
  0.000E+00  1.342E+00  6.031E-02 6.7211409E+00 -2.8882466E+00 7.9489224E+00
  4.318E-02  1.318E+00  5.207E-02 6.6788822E+00 -2.6561269E+00 7.9151770E+00
  0.000E+00  1.388E+00  7.852E-02 6.8831292E+00 -3.2858624E+00 7.7989867E+00
  4.318E-02  1.365E+00  6.913E-02 6.7899613E+00 -3.0465580E+00 7.7728468E+00
  0.000E+00  1.434E+00  9.903E-02 7.0195994E+00 -3.6753008E+00 7.6285039E+00
  4.318E-02  1.411E+00  8.849E-02 6.9652160E+00 -3.4372568E+00 7.6163925E+00
  0.000E+00  1.478E+00  1.218E-01 7.0796143E+00 -4.0477642E+00 7.4329073E+00
  4.318E-02  1.456E+00  1.101E-01 7.0595631E+00 -3.8127769E+00 7.4349937E+00
  0.000E+00  1.521E+00  1.467E-01 7.2418185E+00 -4.4126352E+00 7.2217807E+00
  4.318E-02  1.500E+00  1.340E-01 7.1420211E+00 -4.1755411E+00 7.2333164E+00
  0.000E+00  1.563E+00  1.738E-01 7.2910044E+00 -4.7685265E+00 6.9939498E+00
  4.318E-02  1.543E+00  1.600E-01 7.2902852E+00 -4.5323522E+00 7.0176029E+00
  0.000E+00  1.604E+00  2.029E-01 7.3818070E+00 -5.1105717E+00 6.7469332E+00
  4.318E-02  1.584E+00  1.881E-01 7.3180459E+00 -4.8766861E+00 6.7829245E+00
  0.000E+00  1.643E+00  2.340E-01 7.4375318E+00 -5.4406400E+00 6.4839389E+00
  4.318E-02  1.623E+00  2.182E-01 7.4136552E+00 -5.2082732E+00 6.5310605E+00
  0.000E+00  1.680E+00  2.669E-01 7.4415842E+00 -5.7571036E+00 6.2046689E+00
  4.318E-02  1.662E+00  2.502E-01 7.4281630E+00 -5.5276216E+00 6.2635483E+00
  0.000E+00  1.716E+00  3.018E-01 7.4744975E+00 -6.0591235E+00 5.9099122E+00
  4.318E-02  1.698E+00  2.841E-01 7.4745348E+00 -5.8327979E+00 5.9800719E+00
  0.000E+00  1.750E+00  3.383E-01 7.4281276E+00 -6.3463450E+00 5.6006976E+00
  4.318E-02  1.733E+00  3.198E-01 7.4416234E+00 -6.1237148E+00 5.6819935E+00
  0.000E+00  1.782E+00  3.765E-01 7.4136216E+00 -6.6173910E+00 5.2771294E+00
  4.318E-02  1.766E+00  3.572E-01 7.4375729E+00 -6.3993323E+00 5.3696562E+00
  0.000E+00  1.812E+00  4.163E-01 7.3180140E+00 -6.8725954E+00 4.9411582E+00
  4.318E-02  1.797E+00  3.962E-01 7.3818505E+00 -6.6589065E+00 5.0438982E+00
  0.000E+00  1.840E+00  4.575E-01 7.2902546E+00 -7.1103578E+00 4.5922726E+00
  4.318E-02  1.826E+00  4.367E-01 7.2910499E+00 -6.9026955E+00 4.7063177E+00
  0.000E+00  1.866E+00  5.000E-01 7.1419916E+00 -7.3289443E+00 4.2307445E+00
  4.318E-02  1.853E+00  4.786E-01 7.2418634E+00 -7.1275493E+00 4.3550691E+00
  0.000E+00  1.890E+00  5.438E-01 7.0595365E+00 -7.5332872E+00 3.8631901E+00
  4.318E-02  1.878E+00  5.217E-01 7.0796584E+00 -7.3359449E+00 3.9949540E+00
  0.000E+00  1.912E+00  5.887E-01 6.9651918E+00 -7.7170640E+00 3.4827084E+00
  4.318E-02  1.901E+00  5.661E-01 7.0196443E+00 -7.5289618E+00 3.6273458E+00
  0.000E+00  1.931E+00  6.347E-01 6.7899384E+00 -7.8756099E+00 3.0868411E+00
  4.318E-02  1.921E+00  6.116E-01 6.8831758E+00 -7.6972229E+00 3.2429862E+00
  0.000E+00  1.948E+00  6.815E-01 6.6788607E+00 -8.0198222E+00 2.6912417E+00
  4.318E-02  1.940E+00  6.580E-01 6.7211885E+00 -7.8452261E+00 2.8505642E+00
  0.000E+00  1.963E+00  7.292E-01 6.5965038E+00 -8.1507552E+00 2.2974256E+00
  4.318E-02  1.956E+00  7.052E-01 6.6392519E+00 -7.9821506E+00 2.4624754E+00
  0.000E+00  1.975E+00  7.775E-01 6.4895103E+00 -8.2571181E+00 1.8914182E+00
  4.318E-02  1.969E+00  7.532E-01 6.5456871E+00 -8.1004161E+00 2.0691285E+00
  0.000E+00  1.985E+00  8.264E-01 6.3801810E+00 -8.3372804E+00 1.4723859E+00
  4.318E-02  1.980E+00  8.019E-01 6.4341947E+00 -8.1917933E+00 1.6610040E+00
  0.000E+00  1.992E+00  8.757E-01 6.2948804E+00 -8.3968422E+00 1.0495129E+00
  4.318E-02  1.989E+00  8.510E-01 6.3328195E+00 -8.2602125E+00 1.2444688E+00
  0.000E+00  1.997E+00  9.253E-01 6.2405815E+00 -8.4381552E+00 6.2859304E-01
  4.318E-02  1.995E+00  9.004E-01 6.2624236E+00 -8.3099814E+00 8.2781339E-01
  0.000E+00  2.000E+00  9.751E-01 6.2150288E+00 -8.4596592E+00 2.0937475E-01
  4.318E-02  1.999E+00  9.502E-01 6.2249897E+00 -8.3412377E+00 4.1338539E-01
  0.000E+00  2.000E+00  1.025E+00 6.2150287E+00 -8.4596568E+00 -2.0937411E-01
  4.318E-02  2.000E+00  1.000E+00 6.2137227E+00 -8.3520184E+00 4.1643721E-07
  0.000E+00  1.997E+00  1.075E+00 6.2405813E+00 -8.4381472E+00 -6.2859238E-01
  4.318E-02  1.999E+00  1.050E+00 6.2249896E+00 -8.3412330E+00 -4.1338455E-01
  0.000E+00  1.992E+00  1.124E+00 6.2948801E+00 -8.3968303E+00 -1.0495122E+00
  4.318E-02  1.995E+00  1.100E+00 6.2624234E+00 -8.3099708E+00 -8.2781255E-01
  0.000E+00  1.985E+00  1.174E+00 6.3801808E+00 -8.3372753E+00 -1.4723852E+00
  4.318E-02  1.989E+00  1.149E+00 6.3328191E+00 -8.2602021E+00 -1.2444679E+00
  0.000E+00  1.975E+00  1.223E+00 6.4895101E+00 -8.2571338E+00 -1.8914175E+00
  4.318E-02  1.980E+00  1.198E+00 6.4341940E+00 -8.1917980E+00 -1.6610032E+00
  0.000E+00  1.963E+00  1.271E+00 6.5965036E+00 -8.1507711E+00 -2.2974248E+00
  4.318E-02  1.969E+00  1.247E+00 6.5456862E+00 -8.1004365E+00 -2.0691276E+00
  0.000E+00  1.948E+00  1.318E+00 6.6788604E+00 -8.0197967E+00 -2.6912409E+00
  4.318E-02  1.956E+00  1.295E+00 6.6392508E+00 -7.9821480E+00 -2.4624744E+00
  0.000E+00  1.931E+00  1.365E+00 6.7899379E+00 -7.8755899E+00 -3.0868403E+00
  4.318E-02  1.940E+00  1.342E+00 6.7211874E+00 -7.8451903E+00 -2.8505631E+00
  0.000E+00  1.912E+00  1.411E+00 6.9651905E+00 -7.7170976E+00 -3.4827075E+00
  4.318E-02  1.921E+00  1.388E+00 6.8831749E+00 -7.6972364E+00 -3.2429855E+00
  0.000E+00  1.890E+00  1.456E+00 7.0595357E+00 -7.5332776E+00 -3.8631893E+00
  4.318E-02  1.901E+00  1.434E+00 7.0196432E+00 -7.5289850E+00 -3.6273449E+00
  0.000E+00  1.866E+00  1.500E+00 7.1419907E+00 -7.3289245E+00 -4.2307433E+00
  4.318E-02  1.878E+00  1.478E+00 7.0796571E+00 -7.3359123E+00 -3.9949525E+00
  0.000E+00  1.840E+00  1.543E+00 7.2902535E+00 -7.1103835E+00 -4.5922722E+00
  4.318E-02  1.853E+00  1.521E+00 7.2418622E+00 -7.1275632E+00 -4.3550686E+00
  0.000E+00  1.812E+00  1.584E+00 7.3180131E+00 -6.8725843E+00 -4.9411569E+00
  4.318E-02  1.826E+00  1.563E+00 7.2910486E+00 -6.9027029E+00 -4.7063166E+00
  0.000E+00  1.782E+00  1.623E+00 7.4136210E+00 -6.6174009E+00 -5.2771290E+00
  4.318E-02  1.797E+00  1.604E+00 7.3818490E+00 -6.6589007E+00 -5.0438972E+00
  0.000E+00  1.750E+00  1.662E+00 7.4281269E+00 -6.3463495E+00 -5.6006968E+00
  4.318E-02  1.766E+00  1.643E+00 7.4375712E+00 -6.3993457E+00 -5.3696555E+00
  0.000E+00  1.716E+00  1.698E+00 7.4744961E+00 -6.0591261E+00 -5.9099115E+00
  4.318E-02  1.733E+00  1.680E+00 7.4416218E+00 -6.1237118E+00 -5.6819923E+00
  0.000E+00  1.680E+00  1.733E+00 7.4415821E+00 -5.7571081E+00 -6.2046678E+00
  4.318E-02  1.698E+00  1.716E+00 7.4745337E+00 -5.8328077E+00 -5.9800717E+00
  0.000E+00  1.643E+00  1.766E+00 7.4375300E+00 -5.4406405E+00 -6.4839379E+00
  4.318E-02  1.662E+00  1.750E+00 7.4281622E+00 -5.5276239E+00 -6.2635477E+00
  0.000E+00  1.604E+00  1.797E+00 7.3818069E+00 -5.1105778E+00 -6.7469332E+00
  4.318E-02  1.623E+00  1.782E+00 7.4136542E+00 -5.2082783E+00 -6.5310600E+00
  0.000E+00  1.563E+00  1.826E+00 7.2910059E+00 -4.7685341E+00 -6.9939512E+00
  4.318E-02  1.584E+00  1.812E+00 7.3180436E+00 -4.8766859E+00 -6.7829230E+00
  0.000E+00  1.521E+00  1.853E+00 7.2418185E+00 -4.4126440E+00 -7.2217824E+00
  4.318E-02  1.543E+00  1.840E+00 7.2902824E+00 -4.5323520E+00 -7.0176012E+00
  0.000E+00  1.478E+00  1.878E+00 7.0796115E+00 -4.0477629E+00 -7.4329064E+00
  4.318E-02  1.500E+00  1.866E+00 7.1420191E+00 -4.1755421E+00 -7.2333156E+00
  0.000E+00  1.434E+00  1.901E+00 7.0195959E+00 -3.6752909E+00 -7.6284992E+00
  4.318E-02  1.456E+00  1.890E+00 7.0595625E+00 -3.8127874E+00 -7.4349953E+00
  0.000E+00  1.388E+00  1.921E+00 6.8831279E+00 -3.2858480E+00 -7.7989797E+00
  4.318E-02  1.411E+00  1.912E+00 6.9652162E+00 -3.4372717E+00 -7.6163964E+00
  0.000E+00  1.342E+00  1.940E+00 6.7211414E+00 -2.8882465E+00 -7.9489175E+00
  4.318E-02  1.365E+00  1.931E+00 6.7899621E+00 -3.0465687E+00 -7.7728511E+00
  0.000E+00  1.295E+00  1.956E+00 6.6392041E+00 -2.4950374E+00 -8.0876703E+00
  4.318E-02  1.318E+00  1.948E+00 6.6788838E+00 -2.6561268E+00 -7.9151791E+00
  0.000E+00  1.247E+00  1.969E+00 6.5456370E+00 -2.0964960E+00 -8.2075093E+00
  4.318E-02  1.271E+00  1.963E+00 6.5965242E+00 -2.2674421E+00 -8.0444159E+00
  0.000E+00  1.198E+00  1.980E+00 6.4341445E+00 -1.6829746E+00 -8.3000899E+00
  4.318E-02  1.223E+00  1.975E+00 6.4895280E+00 -1.8667296E+00 -8.1493867E+00
  0.000E+00  1.149E+00  1.989E+00 6.3327710E+00 -1.2609297E+00 -8.3694126E+00
  4.318E-02  1.174E+00  1.985E+00 6.3801976E+00 -1.4531668E+00 -8.2284970E+00
  0.000E+00  1.100E+00  1.995E+00 6.2623759E+00 -8.3876280E-01 -8.4198406E+00
  4.318E-02  1.124E+00  1.992E+00 6.2948970E+00 -1.0358166E+00 -8.2872835E+00
  0.000E+00  1.050E+00  1.999E+00 6.2249405E+00 -4.1885339E-01 -8.4515060E+00
  4.318E-02  1.075E+00  1.997E+00 6.2405969E+00 -6.2039161E-01 -8.3280559E+00
  0.000E+00  1.000E+00  2.000E+00 6.2136732E+00 -2.1018625E-06 -8.4624285E+00
  4.318E-02  1.025E+00  2.000E+00 6.2150429E+00 -2.0664435E-01 -8.3492758E+00
  0.000E+00  9.502E-01  1.999E+00 6.2249406E+00 4.1885036E-01 -8.4515062E+00
  4.318E-02  9.751E-01  2.000E+00 6.2150429E+00 2.0664066E-01 -8.3492759E+00
  0.000E+00  9.004E-01  1.995E+00 6.2623760E+00 8.3875907E-01 -8.4198409E+00
  4.318E-02  9.253E-01  1.997E+00 6.2405970E+00 6.2038862E-01 -8.3280561E+00
  0.000E+00  8.510E-01  1.989E+00 6.3327711E+00 1.2609260E+00 -8.3694131E+00
  4.318E-02  8.757E-01  1.992E+00 6.2948972E+00 1.0358125E+00 -8.2872839E+00
  0.000E+00  8.019E-01  1.980E+00 6.4341447E+00 1.6829714E+00 -8.3000905E+00
  4.318E-02  8.264E-01  1.985E+00 6.3801978E+00 1.4531638E+00 -8.2284975E+00
  0.000E+00  7.532E-01  1.969E+00 6.5456373E+00 2.0964922E+00 -8.2075100E+00
  4.318E-02  7.775E-01  1.975E+00 6.4895283E+00 1.8667260E+00 -8.1493874E+00
  0.000E+00  7.052E-01  1.956E+00 6.6392044E+00 2.4950340E+00 -8.0876712E+00
  4.318E-02  7.292E-01  1.963E+00 6.5965245E+00 2.2674387E+00 -8.0444167E+00
  0.000E+00  6.580E-01  1.940E+00 6.7211418E+00 2.8882427E+00 -7.9489185E+00
  4.318E-02  6.815E-01  1.948E+00 6.6788842E+00 2.6561231E+00 -7.9151800E+00
  0.000E+00  6.116E-01  1.921E+00 6.8831285E+00 3.2858456E+00 -7.7989811E+00
  4.318E-02  6.347E-01  1.931E+00 6.7899626E+00 3.0465659E+00 -7.7728522E+00
  0.000E+00  5.661E-01  1.901E+00 7.0195963E+00 3.6752859E+00 -7.6285004E+00
  4.318E-02  5.887E-01  1.912E+00 6.9652165E+00 3.4372680E+00 -7.6163971E+00
  0.000E+00  5.217E-01  1.878E+00 7.0796120E+00 4.0477604E+00 -7.4329079E+00
  4.318E-02  5.438E-01  1.890E+00 7.0595630E+00 3.8127831E+00 -7.4349967E+00
  0.000E+00  4.786E-01  1.853E+00 7.2418191E+00 4.4126400E+00 -7.2217839E+00
  4.318E-02  5.000E-01  1.866E+00 7.1420196E+00 4.1755398E+00 -7.2333171E+00
  0.000E+00  4.367E-01  1.826E+00 7.2910064E+00 4.7685320E+00 -6.9939528E+00
  4.318E-02  4.575E-01  1.840E+00 7.2902829E+00 4.5323482E+00 -7.0176028E+00
  0.000E+00  3.962E-01  1.797E+00 7.3818075E+00 5.1105733E+00 -6.7469348E+00
  4.318E-02  4.163E-01  1.812E+00 7.3180442E+00 4.8766837E+00 -6.7829248E+00
  0.000E+00  3.572E-01  1.766E+00 7.4375305E+00 5.4406385E+00 -6.4839396E+00
  4.318E-02  3.765E-01  1.782E+00 7.4136547E+00 5.2082735E+00 -6.5310617E+00
  0.000E+00  3.198E-01  1.733E+00 7.4415826E+00 5.7571020E+00 -6.2046697E+00
  4.318E-02  3.383E-01  1.750E+00 7.4281628E+00 5.5276227E+00 -6.2635498E+00
  0.000E+00  2.841E-01  1.698E+00 7.4744966E+00 6.0591230E+00 -5.9099133E+00
  4.318E-02  3.018E-01  1.716E+00 7.4745342E+00 5.8327985E+00 -5.9800733E+00
  0.000E+00  2.502E-01  1.662E+00 7.4281273E+00 6.3463454E+00 -5.6006989E+00
  4.318E-02  2.669E-01  1.680E+00 7.4416223E+00 6.1237146E+00 -5.6819947E+00
  0.000E+00  2.182E-01  1.623E+00 7.4136213E+00 6.6173914E+00 -5.2771307E+00
  4.318E-02  2.340E-01  1.643E+00 7.4375716E+00 6.3993319E+00 -5.3696573E+00
  0.000E+00  1.881E-01  1.584E+00 7.3180134E+00 6.8725953E+00 -4.9411595E+00
  4.318E-02  2.029E-01  1.604E+00 7.3818493E+00 6.6589064E+00 -5.0438993E+00
  0.000E+00  1.600E-01  1.543E+00 7.2902537E+00 7.1103575E+00 -4.5922738E+00
  4.318E-02  1.738E-01  1.563E+00 7.2910489E+00 6.9026955E+00 -4.7063189E+00
  0.000E+00  1.340E-01  1.500E+00 7.1419908E+00 7.3289440E+00 -4.2307457E+00
  4.318E-02  1.467E-01  1.521E+00 7.2418623E+00 7.1275493E+00 -4.3550704E+00
  0.000E+00  1.101E-01  1.456E+00 7.0595358E+00 7.5332871E+00 -3.8631914E+00
  4.318E-02  1.218E-01  1.478E+00 7.0796572E+00 7.3359449E+00 -3.9949552E+00
  0.000E+00  8.849E-02  1.411E+00 6.9651909E+00 7.7170635E+00 -3.4827095E+00
  4.318E-02  9.903E-02  1.434E+00 7.0196431E+00 7.5289617E+00 -3.6273470E+00
  0.000E+00  6.913E-02  1.365E+00 6.7899377E+00 7.8756100E+00 -3.0868425E+00
  4.318E-02  7.852E-02  1.388E+00 6.8831746E+00 7.6972229E+00 -3.2429875E+00
  0.000E+00  5.207E-02  1.318E+00 6.6788601E+00 8.0198222E+00 -2.6912430E+00
  4.318E-02  6.031E-02  1.342E+00 6.7211871E+00 7.8452259E+00 -2.8505654E+00
  0.000E+00  3.738E-02  1.271E+00 6.5965032E+00 8.1507553E+00 -2.2974269E+00
  4.318E-02  4.443E-02  1.295E+00 6.6392506E+00 7.9821503E+00 -2.4624766E+00
  0.000E+00  2.507E-02  1.223E+00 6.4895096E+00 8.2571181E+00 -1.8914195E+00
  4.318E-02  3.092E-02  1.247E+00 6.5456858E+00 8.1004158E+00 -2.0691298E+00
  0.000E+00  1.519E-02  1.174E+00 6.3801801E+00 8.3372802E+00 -1.4723872E+00
  4.318E-02  1.983E-02  1.198E+00 6.4341934E+00 8.1917931E+00 -1.6610052E+00
  0.000E+00  7.761E-03  1.124E+00 6.2948793E+00 8.3968420E+00 -1.0495142E+00
  4.318E-02  1.117E-02  1.149E+00 6.3328183E+00 8.2602123E+00 -1.2444700E+00
  0.000E+00  2.796E-03  1.075E+00 6.2405803E+00 8.4381550E+00 -6.2859440E-01
  4.318E-02  4.969E-03  1.100E+00 6.2624225E+00 8.3099813E+00 -8.2781467E-01
  0.000E+00  3.108E-04  1.025E+00 6.2150276E+00 8.4596590E+00 -2.0937613E-01
  4.318E-02  1.243E-03  1.050E+00 6.2249886E+00 8.3412376E+00 -4.1338667E-01
  0.000E+00  3.108E-04  9.751E-01 6.2150275E+00 8.4596566E+00 2.0937272E-01
  4.318E-02  0.000E+00  1.000E+00 6.2137215E+00 8.3520182E+00 -1.7124966E-06
  0.000E+00  2.796E-03  9.253E-01 6.2405801E+00 8.4381471E+00 6.2859099E-01
  4.318E-02  1.243E-03  9.502E-01 6.2249884E+00 8.3412327E+00 4.1338324E-01
  0.000E+00  7.761E-03  8.757E-01 6.2948788E+00 8.3968300E+00 1.0495108E+00
  4.318E-02  4.969E-03  9.004E-01 6.2624222E+00 8.3099705E+00 8.2781122E-01
  0.000E+00  1.519E-02  8.264E-01 6.3801794E+00 8.3372749E+00 1.4723839E+00
  4.318E-02  1.117E-02  8.510E-01 6.3328179E+00 8.2602018E+00 1.2444666E+00
  0.000E+00  2.507E-02  7.775E-01 6.4895085E+00 8.2571333E+00 1.8914162E+00
  4.318E-02  1.983E-02  8.019E-01 6.4341929E+00 8.1917978E+00 1.6610018E+00
  0.000E+00  3.738E-02  7.292E-01 6.5965019E+00 8.1507705E+00 2.2974234E+00
  4.318E-02  3.092E-02  7.532E-01 6.5456852E+00 8.1004364E+00 2.0691263E+00
  0.000E+00  5.207E-02  6.815E-01 6.6788586E+00 8.0197962E+00 2.6912394E+00
  4.318E-02  4.443E-02  7.052E-01 6.6392499E+00 7.9821479E+00 2.4624731E+00
  0.000E+00  6.913E-02  6.347E-01 6.7899362E+00 7.8755894E+00 3.0868388E+00
  4.318E-02  6.031E-02  6.580E-01 6.7211863E+00 7.8451901E+00 2.8505617E+00
  0.000E+00  8.849E-02  5.887E-01 6.9651890E+00 7.7170977E+00 3.4827062E+00
  4.318E-02  7.852E-02  6.116E-01 6.8831737E+00 7.6972361E+00 3.2429841E+00
  0.000E+00  1.101E-01  5.438E-01 7.0595341E+00 7.5332773E+00 3.8631878E+00
  4.318E-02  9.903E-02  5.661E-01 7.0196420E+00 7.5289846E+00 3.6273435E+00
  0.000E+00  1.340E-01  5.000E-01 7.1419892E+00 7.3289244E+00 4.2307419E+00
  4.318E-02  1.218E-01  5.217E-01 7.0796559E+00 7.3359120E+00 3.9949511E+00
  0.000E+00  1.600E-01  4.575E-01 7.2902521E+00 7.1103835E+00 4.5922709E+00
  4.318E-02  1.467E-01  4.786E-01 7.2418609E+00 7.1275628E+00 4.3550672E+00
  0.000E+00  1.881E-01  4.163E-01 7.3180115E+00 6.8725841E+00 4.9411555E+00
  4.318E-02  1.738E-01  4.367E-01 7.2910473E+00 6.9027025E+00 4.7063152E+00
  0.000E+00  2.182E-01  3.765E-01 7.4136191E+00 6.6174002E+00 5.2771274E+00
  4.318E-02  2.029E-01  3.962E-01 7.3818479E+00 6.6589005E+00 5.0438959E+00
  0.000E+00  2.502E-01  3.383E-01 7.4281250E+00 6.3463487E+00 5.6006953E+00
  4.318E-02  2.340E-01  3.572E-01 7.4375703E+00 6.3993459E+00 5.3696542E+00
  0.000E+00  2.841E-01  3.018E-01 7.4744949E+00 6.0591263E+00 5.9099102E+00
  4.318E-02  2.669E-01  3.198E-01 7.4416208E+00 6.1237117E+00 5.6819909E+00
  0.000E+00  3.198E-01  2.669E-01 7.4415816E+00 5.7571094E+00 6.2046668E+00
  4.318E-02  3.018E-01  2.841E-01 7.4745322E+00 5.8328069E+00 5.9800701E+00
  0.000E+00  3.572E-01  2.340E-01 7.4375293E+00 5.4406418E+00 6.4839370E+00
  4.318E-02  3.383E-01  2.502E-01 7.4281604E+00 5.5276226E+00 6.2635460E+00
  0.000E+00  3.962E-01  2.029E-01 7.3818045E+00 5.1105759E+00 6.7469313E+00
  4.318E-02  3.765E-01  2.182E-01 7.4136527E+00 5.2082777E+00 6.5310586E+00
  0.000E+00  4.367E-01  1.738E-01 7.2910020E+00 4.7685283E+00 6.9939479E+00
  4.318E-02  4.163E-01  1.881E-01 7.3180435E+00 4.8766881E+00 6.7829225E+00
  0.000E+00  4.786E-01  1.467E-01 7.2418163E+00 4.4126390E+00 7.2217790E+00
  4.318E-02  4.575E-01  1.600E-01 7.2902829E+00 4.5323558E+00 7.0176011E+00
  0.000E+00  5.217E-01  1.218E-01 7.0796122E+00 4.0477665E+00 7.4329056E+00
  4.318E-02  5.000E-01  1.340E-01 7.1420190E+00 4.1755433E+00 7.2333147E+00
  0.000E+00  5.661E-01  9.903E-02 7.0195975E+00 3.6753056E+00 7.6285023E+00
  4.318E-02  5.438E-01  1.101E-01 7.0595611E+00 3.8127811E+00 7.4349922E+00
  0.000E+00  6.116E-01  7.852E-02 6.8831274E+00 3.2858646E+00 7.7989853E+00
  4.318E-02  5.887E-01  8.849E-02 6.9652140E+00 3.4372601E+00 7.6163907E+00
  0.000E+00  6.580E-01  6.031E-02 6.7211393E+00 2.8882502E+00 7.9489212E+00
  4.318E-02  6.347E-01  6.913E-02 6.7899597E+00 3.0465608E+00 7.7728456E+00
  0.000E+00  7.052E-01  4.443E-02 6.6392028E+00 2.4950224E+00 8.0876688E+00
  4.318E-02  6.815E-01  5.207E-02 6.6788807E+00 2.6561305E+00 7.9151759E+00
  0.000E+00  7.532E-01  3.092E-02 6.5456372E+00 2.0964691E+00 8.2075018E+00
  4.318E-02  7.292E-01  3.738E-02 6.5965213E+00 2.2674565E+00 8.0444166E+00
  0.000E+00  8.019E-01  1.983E-02 6.4341446E+00 1.6829486E+00 8.3000778E+00
  4.318E-02  7.775E-01  2.507E-02 6.4895267E+00 1.8667473E+00 8.1493910E+00
  0.000E+00  8.510E-01  1.117E-02 6.3327699E+00 1.2609122E+00 8.3693977E+00
  4.318E-02  8.264E-01  1.519E-02 6.3801984E+00 1.4531810E+00 8.2285036E+00
  0.000E+00  9.004E-01  4.969E-03 6.2623738E+00 8.3875416E-01 8.4198243E+00
  4.318E-02  8.757E-01  7.761E-03 6.2948990E+00 1.0358247E+00 8.2872915E+00
  4.318E-02  9.253E-01  2.796E-03 6.2405990E+00 6.2039495E-01 8.3280644E+00
  1.000E+01  1.050E+00  1.243E-03 6.2249381E+00 -4.1884750E-01 8.4514894E+00
  1.000E+01  1.000E+00  5.551E-16 6.2136706E+00 2.0496134E-06 8.4624116E+00
  9.957E+00  1.025E+00  3.108E-04 6.2150107E+00 -2.1212069E-01 8.5706963E+00
  1.000E+01  9.502E-01  1.243E-03 6.2249379E+00 4.1885044E-01 8.4514892E+00
  9.957E+00  9.751E-01  3.108E-04 6.2150106E+00 2.1212434E-01 8.5706962E+00
  1.000E+01  9.004E-01  4.969E-03 6.2623738E+00 8.3875416E-01 8.4198243E+00
  9.957E+00  9.253E-01  2.796E-03 6.2405642E+00 6.3684615E-01 8.5489133E+00
  1.000E+01  8.510E-01  1.117E-02 6.3327699E+00 1.2609122E+00 8.3693977E+00
  9.957E+00  8.757E-01  7.761E-03 6.2948634E+00 1.0632950E+00 8.5070587E+00
  1.000E+01  8.019E-01  1.983E-02 6.4341446E+00 1.6829486E+00 8.3000778E+00
  9.957E+00  8.264E-01  1.519E-02 6.3801630E+00 1.4917208E+00 8.4467120E+00
  1.000E+01  7.532E-01  3.092E-02 6.5456372E+00 2.0964691E+00 8.2075018E+00
  9.957E+00  7.775E-01  2.507E-02 6.4894921E+00 1.9162534E+00 8.3655016E+00
  1.000E+01  7.052E-01  4.443E-02 6.6392028E+00 2.4950224E+00 8.0876688E+00
  9.957E+00  7.292E-01  3.738E-02 6.5964879E+00 2.3275878E+00 8.2577436E+00
  1.000E+01  6.580E-01  6.031E-02 6.7211393E+00 2.8882502E+00 7.9489212E+00
  9.957E+00  6.815E-01  5.207E-02 6.6788482E+00 2.7265699E+00 8.1250759E+00
  1.000E+01  6.116E-01  7.852E-02 6.8831274E+00 3.2858646E+00 7.7989853E+00
  9.957E+00  6.347E-01  6.913E-02 6.7899262E+00 3.1273562E+00 7.9789714E+00
  1.000E+01  5.661E-01  9.903E-02 7.0195975E+00 3.6753056E+00 7.6285023E+00
  9.957E+00  5.887E-01  8.849E-02 6.9651776E+00 3.5284160E+00 7.8183671E+00
  1.000E+01  5.217E-01  1.218E-01 7.0796122E+00 4.0477665E+00 7.4329056E+00
  9.957E+00  5.438E-01  1.101E-01 7.0595232E+00 3.9138949E+00 7.6321591E+00
  1.000E+01  4.786E-01  1.467E-01 7.2418163E+00 4.4126390E+00 7.2217790E+00
  9.957E+00  5.000E-01  1.340E-01 7.1419810E+00 4.2862777E+00 7.4251332E+00
  1.000E+01  4.367E-01  1.738E-01 7.2910020E+00 4.7685283E+00 6.9939479E+00
  9.957E+00  4.575E-01  1.600E-01 7.2902457E+00 4.6525531E+00 7.2036993E+00
  1.000E+01  3.962E-01  2.029E-01 7.3818045E+00 5.1105759E+00 6.7469313E+00
  9.957E+00  4.163E-01  1.881E-01 7.3180065E+00 5.0060161E+00 6.9627979E+00
  1.000E+01  3.572E-01  2.340E-01 7.4375293E+00 5.4406418E+00 6.4839370E+00
  9.957E+00  3.765E-01  2.182E-01 7.4136152E+00 5.3463978E+00 6.7042557E+00
  1.000E+01  3.198E-01  2.669E-01 7.4415816E+00 5.7571094E+00 6.2046668E+00
  9.957E+00  3.383E-01  2.502E-01 7.4281227E+00 5.6742107E+00 6.4296501E+00
  1.000E+01  2.841E-01  3.018E-01 7.4744949E+00 6.0591263E+00 5.9099102E+00
  9.957E+00  3.018E-01  2.841E-01 7.4744941E+00 5.9874874E+00 6.1386573E+00
  1.000E+01  2.502E-01  3.383E-01 7.4281250E+00 6.3463487E+00 5.6006953E+00
  9.957E+00  2.669E-01  3.198E-01 7.4415827E+00 6.2861065E+00 5.8326736E+00
  1.000E+01  2.182E-01  3.765E-01 7.4136191E+00 6.6174002E+00 5.2771274E+00
  9.957E+00  2.340E-01  3.572E-01 7.4375323E+00 6.5690502E+00 5.5120541E+00
  1.000E+01  1.881E-01  4.163E-01 7.3180115E+00 6.8725841E+00 4.9411555E+00
  9.957E+00  2.029E-01  3.962E-01 7.3818103E+00 6.8354884E+00 5.1776566E+00
  1.000E+01  1.600E-01  4.575E-01 7.2902521E+00 7.1103835E+00 4.5922709E+00
  9.957E+00  1.738E-01  4.367E-01 7.2910096E+00 7.0857558E+00 4.8311227E+00
  1.000E+01  1.340E-01  5.000E-01 7.1419892E+00 7.3289244E+00 4.2307419E+00
  9.957E+00  1.467E-01  4.786E-01 7.2418234E+00 7.3165789E+00 4.4705601E+00
  1.000E+01  1.101E-01  5.438E-01 7.0595341E+00 7.5332773E+00 3.8631878E+00
  9.957E+00  1.218E-01  5.217E-01 7.0796191E+00 7.5304527E+00 4.1008952E+00
  1.000E+01  8.849E-02  5.887E-01 6.9651890E+00 7.7170977E+00 3.4827062E+00
  9.957E+00  9.903E-02  5.661E-01 7.0196054E+00 7.7286447E+00 3.7235395E+00
  1.000E+01  6.913E-02  6.347E-01 6.7899362E+00 7.8755894E+00 3.0868388E+00
  9.957E+00  7.852E-02  6.116E-01 6.8831372E+00 7.9013577E+00 3.3289861E+00
  1.000E+01  5.207E-02  6.815E-01 6.6788586E+00 8.0197962E+00 2.6912394E+00
  9.957E+00  6.031E-02  6.580E-01 6.7211507E+00 8.0532353E+00 2.9261582E+00
  1.000E+01  3.738E-02  7.292E-01 6.5965019E+00 8.1507705E+00 2.2974234E+00
  9.957E+00  4.443E-02  7.052E-01 6.6392149E+00 8.1938246E+00 2.5277788E+00
  1.000E+01  2.507E-02  7.775E-01 6.4895085E+00 8.2571333E+00 1.8914162E+00
  9.957E+00  3.092E-02  7.532E-01 6.5456503E+00 8.3152495E+00 2.1240000E+00
  1.000E+01  1.519E-02  8.264E-01 6.3801794E+00 8.3372749E+00 1.4723839E+00
  9.957E+00  1.983E-02  8.019E-01 6.4341578E+00 8.4090336E+00 1.7050500E+00
  1.000E+01  7.761E-03  8.757E-01 6.2948788E+00 8.3968300E+00 1.0495108E+00
  9.957E+00  1.117E-02  8.510E-01 6.3327831E+00 8.4792518E+00 1.2774688E+00
  1.000E+01  2.796E-03  9.253E-01 6.2405801E+00 8.4381471E+00 6.2859099E-01
  9.957E+00  4.969E-03  9.004E-01 6.2623881E+00 8.5303407E+00 8.4976560E-01
  1.000E+01  3.108E-04  9.751E-01 6.2150275E+00 8.4596566E+00 2.0937272E-01
  9.957E+00  1.243E-03  9.502E-01 6.2249535E+00 8.5624296E+00 4.2434824E-01
  1.000E+01  3.108E-04  1.025E+00 6.2150276E+00 8.4596590E+00 -2.0937613E-01
  9.957E+00  0.000E+00  1.000E+00 6.2136877E+00 8.5735035E+00 -1.6340010E-06
  1.000E+01  2.796E-03  1.075E+00 6.2405803E+00 8.4381550E+00 -6.2859440E-01
  9.957E+00  1.243E-03  1.050E+00 6.2249537E+00 8.5624346E+00 -4.2435152E-01
  1.000E+01  7.761E-03  1.124E+00 6.2948793E+00 8.3968420E+00 -1.0495142E+00
  9.957E+00  4.969E-03  1.100E+00 6.2623884E+00 8.5303517E+00 -8.4976890E-01
  1.000E+01  1.519E-02  1.174E+00 6.3801801E+00 8.3372802E+00 -1.4723872E+00
  9.957E+00  1.117E-02  1.149E+00 6.3327836E+00 8.4792626E+00 -1.2774721E+00
  1.000E+01  2.507E-02  1.223E+00 6.4895096E+00 8.2571181E+00 -1.8914195E+00
  9.957E+00  1.983E-02  1.198E+00 6.4341583E+00 8.4090288E+00 -1.7050534E+00
  1.000E+01  3.738E-02  1.271E+00 6.5965032E+00 8.1507553E+00 -2.2974269E+00
  9.957E+00  3.092E-02  1.247E+00 6.5456508E+00 8.3152285E+00 -2.1240034E+00
  1.000E+01  5.207E-02  1.318E+00 6.6788601E+00 8.0198222E+00 -2.6912430E+00
  9.957E+00  4.443E-02  1.295E+00 6.6392156E+00 8.1938271E+00 -2.5277822E+00
  1.000E+01  6.913E-02  1.365E+00 6.7899377E+00 7.8756100E+00 -3.0868425E+00
  9.957E+00  6.031E-02  1.342E+00 6.7211515E+00 8.0532721E+00 -2.9261618E+00
  1.000E+01  8.849E-02  1.411E+00 6.9651909E+00 7.7170635E+00 -3.4827095E+00
  9.957E+00  7.852E-02  1.388E+00 6.8831383E+00 7.9013445E+00 -3.3289896E+00
  1.000E+01  1.101E-01  1.456E+00 7.0595358E+00 7.5332871E+00 -3.8631914E+00
  9.957E+00  9.903E-02  1.434E+00 7.0196067E+00 7.7286214E+00 -3.7235428E+00
  1.000E+01  1.340E-01  1.500E+00 7.1419908E+00 7.3289440E+00 -4.2307457E+00
  9.957E+00  1.218E-01  1.478E+00 7.0796204E+00 7.5304867E+00 -4.1008991E+00
  1.000E+01  1.600E-01  1.543E+00 7.2902537E+00 7.1103575E+00 -4.5922738E+00
  9.957E+00  1.467E-01  1.521E+00 7.2418248E+00 7.3165651E+00 -4.4705631E+00
  1.000E+01  1.881E-01  1.584E+00 7.3180134E+00 6.8725953E+00 -4.9411595E+00
  9.957E+00  1.738E-01  1.563E+00 7.2910111E+00 7.0857487E+00 -4.8311264E+00
  1.000E+01  2.182E-01  1.623E+00 7.4136213E+00 6.6173914E+00 -5.2771307E+00
  9.957E+00  2.029E-01  1.604E+00 7.3818116E+00 6.8354944E+00 -5.1776600E+00
  1.000E+01  2.502E-01  1.662E+00 7.4281273E+00 6.3463454E+00 -5.6006989E+00
  9.957E+00  2.340E-01  1.643E+00 7.4375336E+00 6.5690359E+00 -5.5120571E+00
  1.000E+01  2.841E-01  1.698E+00 7.4744966E+00 6.0591230E+00 -5.9099133E+00
  9.957E+00  2.669E-01  1.680E+00 7.4415843E+00 6.2861096E+00 -5.8326773E+00
  1.000E+01  3.198E-01  1.733E+00 7.4415826E+00 5.7571020E+00 -6.2046697E+00
  9.957E+00  3.018E-01  1.716E+00 7.4744963E+00 5.9874790E+00 -6.1386605E+00
  1.000E+01  3.572E-01  1.766E+00 7.4375305E+00 5.4406385E+00 -6.4839396E+00
  9.957E+00  3.383E-01  1.750E+00 7.4281250E+00 5.6742108E+00 -6.4296539E+00
  1.000E+01  3.962E-01  1.797E+00 7.3818075E+00 5.1105733E+00 -6.7469348E+00
  9.957E+00  3.765E-01  1.782E+00 7.4136165E+00 5.3463932E+00 -6.7042590E+00
  1.000E+01  4.367E-01  1.826E+00 7.2910064E+00 4.7685320E+00 -6.9939528E+00
  9.957E+00  4.163E-01  1.812E+00 7.3180064E+00 5.0060115E+00 -6.9628003E+00
  1.000E+01  4.786E-01  1.853E+00 7.2418191E+00 4.4126400E+00 -7.2217839E+00
  9.957E+00  4.575E-01  1.840E+00 7.2902461E+00 4.6525456E+00 -7.2037007E+00
  1.000E+01  5.217E-01  1.878E+00 7.0796120E+00 4.0477604E+00 -7.4329079E+00
  9.957E+00  5.000E-01  1.866E+00 7.1419840E+00 4.2862748E+00 -7.4251353E+00
  1.000E+01  5.661E-01  1.901E+00 7.0195963E+00 3.6752859E+00 -7.6285004E+00
  9.957E+00  5.438E-01  1.890E+00 7.0595277E+00 3.9138972E+00 -7.6321636E+00
  1.000E+01  6.116E-01  1.921E+00 6.8831285E+00 3.2858456E+00 -7.7989811E+00
  9.957E+00  5.887E-01  1.912E+00 6.9651799E+00 3.5284233E+00 -7.8183734E+00
  1.000E+01  6.580E-01  1.940E+00 6.7211418E+00 2.8882427E+00 -7.9489185E+00
  9.957E+00  6.347E-01  1.931E+00 6.7899250E+00 3.1273609E+00 -7.9789783E+00
  1.000E+01  7.052E-01  1.956E+00 6.6392044E+00 2.4950340E+00 -8.0876712E+00
  9.957E+00  6.815E-01  1.948E+00 6.6788456E+00 2.7265625E+00 -8.1250800E+00
  1.000E+01  7.532E-01  1.969E+00 6.5456373E+00 2.0964922E+00 -8.2075100E+00
  9.957E+00  7.292E-01  1.963E+00 6.5964872E+00 2.3275702E+00 -8.2577437E+00
  1.000E+01  8.019E-01  1.980E+00 6.4341447E+00 1.6829714E+00 -8.3000905E+00
  9.957E+00  7.775E-01  1.975E+00 6.4894937E+00 1.9162319E+00 -8.3654980E+00
  1.000E+01  8.510E-01  1.989E+00 6.3327711E+00 1.2609260E+00 -8.3694131E+00
  9.957E+00  8.264E-01  1.985E+00 6.3801653E+00 1.4917033E+00 -8.4467060E+00
  1.000E+01  9.004E-01  1.995E+00 6.2623760E+00 8.3875907E-01 -8.4198409E+00
  9.957E+00  8.757E-01  1.992E+00 6.2948650E+00 1.0632825E+00 -8.5070512E+00
  1.000E+01  9.502E-01  1.999E+00 6.2249406E+00 4.1885036E-01 -8.4515062E+00
  9.957E+00  9.253E-01  1.997E+00 6.2405646E+00 6.3683964E-01 -8.5489051E+00
  1.000E+01  1.000E+00  2.000E+00 6.2136732E+00 -2.1018625E-06 -8.4624285E+00
  9.957E+00  9.751E-01  2.000E+00 6.2150102E+00 2.1211978E-01 -8.5706876E+00
  1.000E+01  1.050E+00  1.999E+00 6.2249405E+00 -4.1885339E-01 -8.4515060E+00
  9.957E+00  1.025E+00  2.000E+00 6.2150101E+00 -2.1212358E-01 -8.5706875E+00
  1.000E+01  1.100E+00  1.995E+00 6.2623759E+00 -8.3876280E-01 -8.4198406E+00
  9.957E+00  1.075E+00  1.997E+00 6.2405645E+00 -6.3684273E-01 -8.5489048E+00
  1.000E+01  1.149E+00  1.989E+00 6.3327710E+00 -1.2609297E+00 -8.3694126E+00
  9.957E+00  1.124E+00  1.992E+00 6.2948648E+00 -1.0632867E+00 -8.5070509E+00
  1.000E+01  1.198E+00  1.980E+00 6.4341445E+00 -1.6829746E+00 -8.3000899E+00
  9.957E+00  1.174E+00  1.985E+00 6.3801651E+00 -1.4917065E+00 -8.4467054E+00