# TIME = 13.000000
VARIABLES = X, Y, Z, FX, FY, FZ
ZONE N=29232 E=58212 F=FEPOINT ET=TRIANGLE
  0.000E+00  9.502E-01  1.243E-03 5.4576130E+00 -5.8466663E-01 -1.1042422E+01
  0.000E+00  1.000E+00  0.000E+00 5.4498874E+00 -2.4536526E-05 -1.1048626E+01
  4.318E-02  9.751E-01  3.108E-04 5.1601557E+00 -5.9770159E-01 -2.3866948E+01
  0.000E+00  1.050E+00  1.243E-03 5.4575887E+00 5.8465366E-01 -1.1042489E+01
  4.318E-02  1.025E+00  3.108E-04 5.1601663E+00 5.9765562E-01 -2.3866958E+01
  0.000E+00  1.100E+00  4.969E-03 5.4837978E+00 1.1337289E+00 -1.0994684E+01
  4.318E-02  1.075E+00  2.796E-03 5.1703462E+00 1.7794677E+00 -2.3785506E+01
  0.000E+00  1.149E+00  1.117E-02 5.5474591E+00 1.6383337E+00 -1.0882512E+01
  4.318E-02  1.124E+00  7.761E-03 5.2161686E+00 2.9428668E+00 -2.3605778E+01
  0.000E+00  1.198E+00  1.983E-02 5.6224444E+00 2.1237454E+00 -1.0739356E+01
  4.318E-02  1.174E+00  1.519E-02 5.3036372E+00 4.0863594E+00 -2.3356135E+01
  0.000E+00  1.247E+00  3.092E-02 5.6966935E+00 2.6292578E+00 -1.0576569E+01
  4.318E-02  1.223E+00  2.507E-02 5.4262567E+00 5.2309086E+00 -2.3103197E+01
  0.000E+00  1.295E+00  4.443E-02 5.7389962E+00 3.1925547E+00 -1.0481280E+01
  4.318E-02  1.271E+00  3.738E-02 5.5442879E+00 6.4123025E+00 -2.2897582E+01
  0.000E+00  1.342E+00  6.031E-02 5.7855443E+00 3.7386073E+00 -1.0355123E+01
  4.318E-02  1.318E+00  5.207E-02 5.5925684E+00 7.5938420E+00 -2.2659222E+01
  0.000E+00  1.388E+00  7.852E-02 6.0106958E+00 4.2344852E+00 -1.0156422E+01
  4.318E-02  1.365E+00  6.913E-02 5.6674158E+00 8.7312476E+00 -2.2287742E+01
  0.000E+00  1.434E+00  9.903E-02 6.2135742E+00 4.7763109E+00 -9.9579405E+00
  4.318E-02  1.411E+00  8.849E-02 5.8715572E+00 9.8287951E+00 -2.1845474E+01
  0.000E+00  1.478E+00  1.218E-01 6.2093660E+00 5.2976709E+00 -9.7105024E+00
  4.318E-02  1.456E+00  1.101E-01 5.9470760E+00 1.0952884E+01 -2.1321861E+01
  0.000E+00  1.521E+00  1.467E-01 6.3799810E+00 5.9583288E+00 -9.6899393E+00
  4.318E-02  1.500E+00  1.340E-01 6.0057956E+00 1.1976632E+01 -2.0697650E+01
  0.000E+00  1.563E+00  1.738E-01 6.3638164E+00 6.2730214E+00 -9.1929197E+00
  4.318E-02  1.543E+00  1.600E-01 6.2166561E+00 1.2984264E+01 -2.0131819E+01
  0.000E+00  1.604E+00  2.029E-01 6.4685334E+00 6.7124096E+00 -8.9033162E+00
  4.318E-02  1.584E+00  1.881E-01 6.1468684E+00 1.4043603E+01 -1.9546932E+01
  0.000E+00  1.643E+00  2.340E-01 6.5737613E+00 7.2668043E+00 -8.6078923E+00
  4.318E-02  1.623E+00  2.182E-01 6.2951360E+00 1.5007573E+01 -1.8789771E+01
  0.000E+00  1.680E+00  2.669E-01 6.4691321E+00 7.6908652E+00 -8.2666405E+00
  4.318E-02  1.662E+00  2.502E-01 6.2921494E+00 1.5917361E+01 -1.8052712E+01
  0.000E+00  1.716E+00  3.018E-01 6.5957883E+00 8.0456949E+00 -7.8647267E+00
  4.318E-02  1.698E+00  2.841E-01 6.3706817E+00 1.6836956E+01 -1.7251206E+01
  0.000E+00  1.750E+00  3.383E-01 6.5031467E+00 8.5415257E+00 -7.4588280E+00
  4.318E-02  1.733E+00  3.198E-01 6.2949498E+00 1.7704791E+01 -1.6414913E+01
  0.000E+00  1.782E+00  3.765E-01 6.5191635E+00 8.8119626E+00 -7.0295540E+00
  4.318E-02  1.766E+00  3.572E-01 6.3319885E+00 1.8479579E+01 -1.5495379E+01
  0.000E+00  1.812E+00  4.163E-01 6.3976214E+00 9.2081405E+00 -6.5545705E+00
  4.318E-02  1.797E+00  3.962E-01 6.2683568E+00 1.9248751E+01 -1.4564206E+01
  0.000E+00  1.840E+00  4.575E-01 6.4354417E+00 9.4627121E+00 -6.0821850E+00
  4.318E-02  1.826E+00  4.367E-01 6.1785083E+00 1.9915657E+01 -1.3573440E+01
  0.000E+00  1.866E+00  5.000E-01 6.2061254E+00 9.7616464E+00 -5.5771383E+00
  4.318E-02  1.853E+00  4.786E-01 6.1532745E+00 2.0571366E+01 -1.2557307E+01
  0.000E+00  1.890E+00  5.438E-01 6.2116932E+00 9.9254694E+00 -5.0529957E+00
  4.318E-02  1.878E+00  5.217E-01 5.9353622E+00 2.1141096E+01 -1.1502084E+01
  0.000E+00  1.912E+00  5.887E-01 6.0831468E+00 1.0545216E+01 -4.6960970E+00
  4.318E-02  1.901E+00  5.661E-01 5.9337821E+00 2.1600293E+01 -1.0377332E+01
  0.000E+00  1.931E+00  6.347E-01 5.9555645E+00 9.8064904E+00 -3.7339346E+00
  4.318E-02  1.921E+00  6.116E-01 5.7702039E+00 2.2075479E+01 -9.2478857E+00
  0.000E+00  1.948E+00  6.815E-01 5.6227161E+00 1.0714128E+01 -3.5778613E+00
  4.318E-02  1.940E+00  6.580E-01 5.6362011E+00 2.2615319E+01 -8.1774444E+00
  0.000E+00  1.963E+00  7.292E-01 5.9194669E+00 1.0058814E+01 -2.7538572E+00
  4.318E-02  1.956E+00  7.052E-01 5.5001289E+00 2.2982931E+01 -7.1158608E+00
  0.000E+00  1.975E+00  7.775E-01 5.4631373E+00 1.0258398E+01 -2.3240538E+00
  4.318E-02  1.969E+00  7.532E-01 5.5270828E+00 2.2974975E+01 -5.6725652E+00
  0.000E+00  1.985E+00  8.264E-01 5.6012249E+00 1.0601675E+01 -1.7781595E+00
  4.318E-02  1.980E+00  8.019E-01 5.2000800E+00 2.3200674E+01 -4.6283391E+00
  0.000E+00  1.992E+00  8.757E-01 5.3673590E+00 1.0355323E+01 -1.3632406E+00
  4.318E-02  1.989E+00  8.510E-01 5.2800927E+00 2.3403624E+01 -3.4184019E+00
  0.000E+00  1.997E+00  9.253E-01 5.3123025E+00 1.0856431E+01 -7.7652093E-01
  4.318E-02  1.995E+00  9.004E-01 5.0309871E+00 2.3285550E+01 -2.2777860E+00
  0.000E+00  2.000E+00  9.751E-01 5.3012447E+00 1.0730551E+01 -3.1431986E-01
  4.318E-02  1.999E+00  9.502E-01 5.1130734E+00 2.3784222E+01 -1.1770388E+00
  0.000E+00  2.000E+00  1.025E+00 5.3012306E+00 1.0731467E+01 3.1350065E-01
  4.318E-02  2.000E+00  1.000E+00 5.0178621E+00 2.3321051E+01 -3.6493453E-04
  0.000E+00  1.997E+00  1.075E+00 5.3122186E+00 1.0859053E+01 7.7602809E-01
  4.318E-02  1.999E+00  1.050E+00 5.1131990E+00 2.3785720E+01 1.1764234E+00
  0.000E+00  1.992E+00  1.124E+00 5.3672651E+00 1.0359018E+01 1.3633575E+00
  4.318E-02  1.995E+00  1.100E+00 5.0312208E+00 2.3288330E+01 2.2776285E+00
  0.000E+00  1.985E+00  1.174E+00 5.6010987E+00 1.0605405E+01 1.7788225E+00
  4.318E-02  1.989E+00  1.149E+00 5.2802971E+00 2.3406801E+01 3.4187464E+00
  0.000E+00  1.975E+00  1.223E+00 5.4630798E+00 1.0261346E+01 2.3249117E+00
  4.318E-02  1.980E+00  1.198E+00 5.2002800E+00 2.3203427E+01 4.6291059E+00
  0.000E+00  1.963E+00  1.271E+00 5.9194810E+00 1.0061325E+01 2.7546134E+00
  4.318E-02  1.969E+00  1.247E+00 5.5272848E+00 2.2976851E+01 5.6732933E+00
  0.000E+00  1.948E+00  1.318E+00 5.6229662E+00 1.0717275E+01 3.5786487E+00
  4.318E-02  1.956E+00  1.295E+00 5.5004106E+00 2.2984380E+01 7.1164140E+00
  0.000E+00  1.931E+00  1.365E+00 5.9558344E+00 9.8095208E+00 3.7351030E+00
  4.318E-02  1.940E+00  1.342E+00 5.6373917E+00 2.2617253E+01 8.1786028E+00
  0.000E+00  1.912E+00  1.411E+00 6.0833079E+00 1.0546825E+01 4.6972025E+00
  4.318E-02  1.921E+00  1.388E+00 5.7704110E+00 2.2077054E+01 9.2488733E+00
  0.000E+00  1.890E+00  1.456E+00 6.2118202E+00 9.9269532E+00 5.0538811E+00
  4.318E-02  1.901E+00  1.434E+00 5.9339531E+00 2.1600936E+01 1.0377829E+01
  0.000E+00  1.866E+00  1.500E+00 6.2062422E+00 9.7629145E+00 5.5779642E+00
  4.318E-02  1.878E+00  1.478E+00 5.9355654E+00 2.1141864E+01 1.1502465E+01
  0.000E+00  1.840E+00  1.543E+00 6.4355283E+00 9.4630426E+00 6.0827806E+00
  4.318E-02  1.853E+00  1.521E+00 6.1534326E+00 2.0571502E+01 1.2557594E+01
  0.000E+00  1.812E+00  1.584E+00 6.3977176E+00 9.2083373E+00 6.5548392E+00
  4.318E-02  1.826E+00  1.563E+00 6.1786040E+00 1.9915335E+01 1.3573429E+01
  0.000E+00  1.782E+00  1.623E+00 6.5192596E+00 8.8118391E+00 7.0296232E+00
  4.318E-02  1.797E+00  1.604E+00 6.2684209E+00 1.9248331E+01 1.4563954E+01
  0.000E+00  1.750E+00  1.662E+00 6.5032078E+00 8.5412858E+00 7.4587138E+00
  4.318E-02  1.766E+00  1.643E+00 6.3320372E+00 1.8479062E+01 1.5495003E+01
  0.000E+00  1.716E+00  1.698E+00 6.5958401E+00 8.0454115E+00 7.8644954E+00
  4.318E-02  1.733E+00  1.680E+00 6.2949605E+00 1.7704326E+01 1.6414463E+01
  0.000E+00  1.680E+00  1.733E+00 6.4691996E+00 7.6905041E+00 8.2663164E+00
  4.318E-02  1.698E+00  1.716E+00 6.3706943E+00 1.6836393E+01 1.7250691E+01
  0.000E+00  1.643E+00  1.766E+00 6.5738268E+00 7.2665324E+00 8.6075223E+00
  4.318E-02  1.662E+00  1.750E+00 6.2921666E+00 1.5916867E+01 1.8052132E+01
  0.000E+00  1.604E+00  1.797E+00 6.4685848E+00 6.7121549E+00 8.9029492E+00
  4.318E-02  1.623E+00  1.782E+00 6.2951552E+00 1.5007189E+01 1.8789193E+01
  0.000E+00  1.563E+00  1.826E+00 6.3638781E+00 6.2727785E+00 9.1925431E+00
  4.318E-02  1.584E+00  1.812E+00 6.1468857E+00 1.4043215E+01 1.9546370E+01
  0.000E+00  1.521E+00  1.853E+00 6.3800420E+00 5.9581338E+00 9.6895733E+00
  4.318E-02  1.543E+00  1.840E+00 6.2166770E+00 1.2983945E+01 2.0131265E+01
  0.000E+00  1.478E+00  1.878E+00 6.2094115E+00 5.2975195E+00 9.7101710E+00
  4.318E-02  1.500E+00  1.866E+00 6.0058082E+00 1.1976408E+01 2.0697148E+01
  0.000E+00  1.434E+00  1.901E+00 6.2136165E+00 4.7761823E+00 9.9576386E+00
  4.318E-02  1.456E+00  1.890E+00 5.9470839E+00 1.0952683E+01 2.1321410E+01
  0.000E+00  1.388E+00  1.921E+00 6.0107233E+00 4.2343878E+00 1.0156142E+01
  4.318E-02  1.411E+00  1.912E+00 5.8715702E+00 9.8286399E+00 2.1845064E+01
  0.000E+00  1.342E+00  1.940E+00 5.7855825E+00 3.7385385E+00 1.0354871E+01
  4.318E-02  1.365E+00  1.931E+00 5.6674117E+00 8.7311436E+00 2.2287376E+01
  0.000E+00  1.295E+00  1.956E+00 5.7390246E+00 3.1924734E+00 1.0481031E+01
  4.318E-02  1.318E+00  1.948E+00 5.5925604E+00 7.5937121E+00 2.2658869E+01
  0.000E+00  1.247E+00  1.969E+00 5.6967298E+00 2.6292392E+00 1.0576320E+01
  4.318E-02  1.271E+00  1.963E+00 5.5442669E+00 6.4122405E+00 2.2897262E+01
  0.000E+00  1.198E+00  1.980E+00 5.6224803E+00 2.1237115E+00 1.0739143E+01
  4.318E-02  1.223E+00  1.975E+00 5.4262203E+00 5.2308676E+00 2.3102938E+01
  0.000E+00  1.149E+00  1.989E+00 5.5475050E+00 1.6383360E+00 1.0882327E+01
  4.318E-02  1.174E+00  1.985E+00 5.3035945E+00 4.0863171E+00 2.3355935E+01
  0.000E+00  1.100E+00  1.995E+00 5.4838305E+00 1.1337390E+00 1.0994538E+01
  4.318E-02  1.124E+00  1.992E+00 5.2161175E+00 2.9429000E+00 2.3605662E+01
  0.000E+00  1.050E+00  1.999E+00 5.4576213E+00 5.8465410E-01 1.1042375E+01
  4.318E-02  1.075E+00  1.997E+00 5.1702934E+00 1.7794614E+00 2.3785456E+01
  0.000E+00  1.000E+00  2.000E+00 5.4499046E+00 1.3439994E-05 1.1048555E+01
  4.318E-02  1.025E+00  2.000E+00 5.1601245E+00 5.9768860E-01 2.3866935E+01
  0.000E+00  9.502E-01  1.999E+00 5.4576149E+00 -5.8465852E-01 1.1042398E+01
  4.318E-02  9.751E-01  2.000E+00 5.1601221E+00 -5.9766716E-01 2.3866954E+01
  0.000E+00  9.004E-01  1.995E+00 5.4838288E+00 -1.1337264E+00 1.0994581E+01
  4.318E-02  9.253E-01  1.997E+00 5.1702930E+00 -1.7794737E+00 2.3785499E+01
  0.000E+00  8.510E-01  1.989E+00 5.5474904E+00 -1.6383260E+00 1.0882408E+01
  4.318E-02  8.757E-01  1.992E+00 5.2161150E+00 -2.9428631E+00 2.3605741E+01
  0.000E+00  8.019E-01  1.980E+00 5.6224708E+00 -2.1237332E+00 1.0739255E+01
  4.318E-02  8.264E-01  1.985E+00 5.3035900E+00 -4.0863414E+00 2.3356060E+01
  0.000E+00  7.532E-01  1.969E+00 5.6967103E+00 -2.6292399E+00 1.0576477E+01
  4.318E-02  7.775E-01  1.975E+00 5.4262198E+00 -5.2308768E+00 2.3103095E+01
  0.000E+00  7.052E-01  1.956E+00 5.7389991E+00 -3.1925301E+00 1.0481200E+01
  4.318E-02  7.292E-01  1.963E+00 5.5442637E+00 -6.4122605E+00 2.2897472E+01
  0.000E+00  6.580E-01  1.940E+00 5.7855367E+00 -3.7385786E+00 1.0355059E+01
  4.318E-02  6.815E-01  1.948E+00 5.5925565E+00 -7.5937977E+00 2.2659121E+01
  0.000E+00  6.116E-01  1.921E+00 6.0106868E+00 -4.2344577E+00 1.0156373E+01
  4.318E-02  6.347E-01  1.931E+00 5.6674095E+00 -8.7312065E+00 2.2287659E+01
  0.000E+00  5.661E-01  1.901E+00 6.2135707E+00 -4.7762863E+00 9.9579027E+00
  4.318E-02  5.887E-01  1.912E+00 5.8715483E+00 -9.8287602E+00 2.1845407E+01
  0.000E+00  5.217E-01  1.878E+00 6.2093659E+00 -5.2976486E+00 9.7104726E+00
  4.318E-02  5.438E-01  1.890E+00 5.9470631E+00 -1.0952853E+01 2.1321803E+01
  0.000E+00  4.786E-01  1.853E+00 6.3799784E+00 -5.9583075E+00 9.6899119E+00
  4.318E-02  5.000E-01  1.866E+00 6.0057808E+00 -1.1976603E+01 2.0697598E+01
  0.000E+00  4.367E-01  1.826E+00 6.3638091E+00 -6.2730044E+00 9.1928971E+00
  4.318E-02  4.575E-01  1.840E+00 6.2166430E+00 -1.2984233E+01 2.0131770E+01
  0.000E+00  3.962E-01  1.797E+00 6.4685233E+00 -6.7123948E+00 8.9032944E+00
  4.318E-02  4.163E-01  1.812E+00 6.1468572E+00 -1.4043569E+01 1.9546883E+01
  0.000E+00  3.572E-01  1.766E+00 6.5737510E+00 -7.2667878E+00 8.6078698E+00
  4.318E-02  3.765E-01  1.782E+00 6.2951241E+00 -1.5007536E+01 1.8789723E+01
  0.000E+00  3.198E-01  1.733E+00 6.4691237E+00 -7.6908449E+00 8.2666167E+00
  4.318E-02  3.383E-01  1.750E+00 6.2921353E+00 -1.5917321E+01 1.8052663E+01
  0.000E+00  2.841E-01  1.698E+00 6.5957806E+00 -8.0456726E+00 7.8647019E+00
  4.318E-02  3.018E-01  1.716E+00 6.3706672E+00 -1.6836911E+01 1.7251156E+01
  0.000E+00  2.502E-01  1.662E+00 6.5031399E+00 -8.5414967E+00 7.4588021E+00
  4.318E-02  2.669E-01  1.680E+00 6.2949358E+00 -1.7704740E+01 1.6414861E+01
  0.000E+00  2.182E-01  1.623E+00 6.5191566E+00 -8.8119345E+00 7.0295300E+00
  4.318E-02  2.340E-01  1.643E+00 6.3319749E+00 -1.8479522E+01 1.5495328E+01
  0.000E+00  1.881E-01  1.584E+00 6.3976146E+00 -9.2081099E+00 6.5545495E+00
  4.318E-02  2.029E-01  1.604E+00 6.2683438E+00 -1.9248688E+01 1.4564157E+01
  0.000E+00  1.600E-01  1.543E+00 6.4354352E+00 -9.4626825E+00 6.0821667E+00
  4.318E-02  1.738E-01  1.563E+00 6.1784952E+00 -1.9915591E+01 1.3573395E+01
  0.000E+00  1.340E-01  1.500E+00 6.2061185E+00 -9.7616183E+00 5.5771255E+00
  4.318E-02  1.467E-01  1.521E+00 6.1532615E+00 -2.0571299E+01 1.2557268E+01
  0.000E+00  1.101E-01  1.456E+00 6.2116847E+00 -9.9254475E+00 5.0529894E+00
  4.318E-02  1.218E-01  1.478E+00 5.9353493E+00 -2.1141031E+01 1.1502052E+01
  0.000E+00  8.849E-02  1.411E+00 6.0831375E+00 -1.0545200E+01 4.6960979E+00
  4.318E-02  9.903E-02  1.434E+00 5.9337701E+00 -2.1600235E+01 1.0377310E+01
  0.000E+00  6.913E-02  1.365E+00 5.9555458E+00 -9.8065045E+00 3.7339568E+00
  4.318E-02  7.852E-02  1.388E+00 5.7701949E+00 -2.2075425E+01 9.2478761E+00
  0.000E+00  5.207E-02  1.318E+00 5.6226883E+00 -1.0714173E+01 3.5778903E+00
  4.318E-02  6.031E-02  1.342E+00 5.6361990E+00 -2.2615292E+01 8.1774574E+00
  0.000E+00  3.738E-02  1.271E+00 5.9194295E+00 -1.0058879E+01 2.7538868E+00
  4.318E-02  4.443E-02  1.295E+00 5.5001379E+00 -2.2982917E+01 7.1158666E+00
  0.000E+00  2.507E-02  1.223E+00 5.4631135E+00 -1.0258485E+01 2.3240767E+00
  4.318E-02  3.092E-02  1.247E+00 5.5270908E+00 -2.2975006E+01 5.6725833E+00
  0.000E+00  1.519E-02  1.174E+00 5.6011907E+00 -1.0601775E+01 1.7781802E+00
  4.318E-02  1.983E-02  1.198E+00 5.2000672E+00 -2.3200727E+01 4.6283869E+00
  0.000E+00  7.761E-03  1.124E+00 5.3673135E+00 -1.0355446E+01 1.3632748E+00
  4.318E-02  1.117E-02  1.149E+00 5.2800886E+00 -2.3403664E+01 3.4183987E+00
  0.000E+00  2.796E-03  1.075E+00 5.3122430E+00 -1.0856544E+01 7.7648533E-01
  4.318E-02  4.969E-03  1.100E+00 5.0310198E+00 -2.3285694E+01 2.2778023E+00
  0.000E+00  3.108E-04  1.025E+00 5.3012309E+00 -1.0730550E+01 3.1427335E-01
  4.318E-02  1.243E-03  1.050E+00 5.1130871E+00 -2.3784248E+01 1.1769718E+00
  0.000E+00  3.108E-04  9.751E-01 5.3012431E+00 -1.0731387E+01 -3.1354333E-01
  4.318E-02  0.000E+00  1.000E+00 5.0178570E+00 -2.3320983E+01 3.2204490E-04
  0.000E+00  2.796E-03  9.253E-01 5.3122766E+00 -1.0858860E+01 -7.7605486E-01
  4.318E-02  1.243E-03  9.502E-01 5.1131729E+00 -2.3785555E+01 -1.1764817E+00
  0.000E+00  7.761E-03  8.757E-01 5.3673281E+00 -1.0358819E+01 -1.3633200E+00
  4.318E-02  4.969E-03  9.004E-01 5.0311811E+00 -2.3288040E+01 -2.2776056E+00
  0.000E+00  1.519E-02  8.264E-01 5.6011460E+00 -1.0605226E+01 -1.7787864E+00
  4.318E-02  1.117E-02  8.510E-01 5.2802536E+00 -2.3406656E+01 -3.4187028E+00
  0.000E+00  2.507E-02  7.775E-01 5.4631228E+00 -1.0261194E+01 -2.3248637E+00
  4.318E-02  1.983E-02  8.019E-01 5.2002494E+00 -2.3203255E+01 -4.6290649E+00
  0.000E+00  3.738E-02  7.292E-01 5.9195134E+00 -1.0061202E+01 -2.7545700E+00
  4.318E-02  3.092E-02  7.532E-01 5.5272713E+00 -2.2976684E+01 -5.6732304E+00
  0.000E+00  5.207E-02  6.815E-01 5.6229944E+00 -1.0717163E+01 -3.5785980E+00
  4.318E-02  4.443E-02  7.052E-01 5.5003912E+00 -2.2984274E+01 -7.1163712E+00
  0.000E+00  6.913E-02  6.347E-01 5.9558522E+00 -9.8094492E+00 -3.7350618E+00
  4.318E-02  6.031E-02  6.580E-01 5.6373826E+00 -2.2617160E+01 -8.1785475E+00
  0.000E+00  8.849E-02  5.887E-01 6.0833172E+00 -1.0546777E+01 -4.6971760E+00
  4.318E-02  7.852E-02  6.116E-01 5.7704101E+00 -2.2076994E+01 -9.2488373E+00
  0.000E+00  1.101E-01  5.438E-01 6.2118302E+00 -9.9269208E+00 -5.0538643E+00
  4.318E-02  9.903E-02  5.661E-01 5.9339570E+00 -2.1600887E+01 -1.0377806E+01
  0.000E+00  1.340E-01  5.000E-01 6.2062550E+00 -9.7628953E+00 -5.5779575E+00
  4.318E-02  1.218E-01  5.217E-01 5.9355738E+00 -2.1141834E+01 -1.1502456E+01
  0.000E+00  1.600E-01  4.575E-01 6.4355464E+00 -9.4630382E+00 -6.0827836E+00
  4.318E-02  1.467E-01  4.786E-01 6.1534503E+00 -2.0571490E+01 -1.2557604E+01
  0.000E+00  1.881E-01  4.163E-01 6.3977370E+00 -9.2083464E+00 -6.5548477E+00
  4.318E-02  1.738E-01  4.367E-01 6.1786386E+00 -1.9915352E+01 -1.3573463E+01
  0.000E+00  2.182E-01  3.765E-01 6.5192734E+00 -8.8118544E+00 -7.0296305E+00
  4.318E-02  2.029E-01  3.962E-01 6.2684561E+00 -1.9248379E+01 -1.4563995E+01
  0.000E+00  2.502E-01  3.383E-01 6.5032145E+00 -8.5412978E+00 -7.4587187E+00
  4.318E-02  2.340E-01  3.572E-01 6.3320479E+00 -1.8479097E+01 -1.5495028E+01
  0.000E+00  2.841E-01  3.018E-01 6.5958449E+00 -8.0454160E+00 -7.8644960E+00
  4.318E-02  2.669E-01  3.198E-01 6.2949640E+00 -1.7704337E+01 -1.6414473E+01
  0.000E+00  3.198E-01  2.669E-01 6.4692050E+00 -7.6905035E+00 -8.2663134E+00
  4.318E-02  3.018E-01  2.841E-01 6.3706985E+00 -1.6836393E+01 -1.7250689E+01
  0.000E+00  3.572E-01  2.340E-01 6.5738331E+00 -7.2665292E+00 -8.6075174E+00
  4.318E-02  3.383E-01  2.502E-01 6.2921710E+00 -1.5916865E+01 -1.8052127E+01
  0.000E+00  3.962E-01  2.029E-01 6.4685920E+00 -6.7121525E+00 -8.9029445E+00
  4.318E-02  3.765E-01  2.182E-01 6.2951585E+00 -1.5007187E+01 -1.8789186E+01
  0.000E+00  4.367E-01  1.738E-01 6.3638831E+00 -6.2727789E+00 -9.1925404E+00
  4.318E-02  4.163E-01  1.881E-01 6.1468894E+00 -1.4043214E+01 -1.9546364E+01
  0.000E+00  4.786E-01  1.467E-01 6.3800421E+00 -5.9581371E+00 -9.6895715E+00
  4.318E-02  4.575E-01  1.600E-01 6.2166828E+00 -1.2983944E+01 -2.0131261E+01
  0.000E+00  5.217E-01  1.218E-01 6.2094102E+00 -5.2975244E+00 -9.7101729E+00
  4.318E-02  5.000E-01  1.340E-01 6.0058171E+00 -1.1976406E+01 -2.0697145E+01
  0.000E+00  5.661E-01  9.903E-02 6.2136213E+00 -4.7761852E+00 -9.9576408E+00
  4.318E-02  5.438E-01  1.101E-01 5.9470924E+00 -1.0952682E+01 -2.1321409E+01
  0.000E+00  6.116E-01  7.852E-02 6.0107372E+00 -4.2343894E+00 -1.0156146E+01
  4.318E-02  5.887E-01  8.849E-02 5.8715734E+00 -9.8286410E+00 -2.1845066E+01
  0.000E+00  6.580E-01  6.031E-02 5.7855994E+00 -3.7385361E+00 -1.0354875E+01
  4.318E-02  6.347E-01  6.913E-02 5.6674115E+00 -8.7311472E+00 -2.2287380E+01
  0.000E+00  7.052E-01  4.443E-02 5.7390361E+00 -3.1924671E+00 -1.0481034E+01
  4.318E-02  6.815E-01  5.207E-02 5.5925615E+00 -7.5937199E+00 -2.2658876E+01
  0.000E+00  7.532E-01  3.092E-02 5.6967326E+00 -2.6292310E+00 -1.0576324E+01
  4.318E-02  7.292E-01  3.738E-02 5.5442736E+00 -6.4122522E+00 -2.2897272E+01
  0.000E+00  8.019E-01  1.983E-02 5.6224779E+00 -2.1237062E+00 -1.0739148E+01
  4.318E-02  7.775E-01  2.507E-02 5.4262316E+00 -5.2308818E+00 -2.3102955E+01
  0.000E+00  8.510E-01  1.117E-02 5.5475021E+00 -1.6383375E+00 -1.0882340E+01
  4.318E-02  8.264E-01  1.519E-02 5.3036074E+00 -4.0863305E+00 -2.3355957E+01
  0.000E+00  9.004E-01  4.969E-03 5.4838267E+00 -1.1337473E+00 -1.0994564E+01
  4.318E-02  8.757E-01  7.761E-03 5.2161317E+00 -2.9429128E+00 -2.3605688E+01
  4.318E-02  9.253E-01  2.796E-03 5.1703131E+00 -1.7794737E+00 -2.3785481E+01
  1.000E+01  1.050E+00  1.243E-03 5.4575887E+00 5.8465366E-01 -1.1042489E+01
  1.000E+01  1.000E+00  5.551E-16 5.4498874E+00 -2.4536526E-05 -1.1048626E+01
  9.957E+00  1.025E+00  3.108E-04 6.2779446E+00 -2.4978849E-02 -8.0724121E-02
  1.000E+01  9.502E-01  1.243E-03 5.4576130E+00 -5.8466663E-01 -1.1042422E+01
  9.957E+00  9.751E-01  3.108E-04 6.2779581E+00 2.4968203E-02 -8.0709297E-02
  1.000E+01  9.004E-01  4.969E-03 5.4838267E+00 -1.1337473E+00 -1.0994564E+01
  9.957E+00  9.253E-01  2.796E-03 6.3496863E+00 7.4267752E-02 1.3346754E-01
  1.000E+01  8.510E-01  1.117E-02 5.5475021E+00 -1.6383375E+00 -1.0882340E+01
  9.957E+00  8.757E-01  7.761E-03 6.4571444E+00 1.3690477E-01 4.2212920E-01
  1.000E+01  8.019E-01  1.983E-02 5.6224779E+00 -2.1237062E+00 -1.0739148E+01
  9.957E+00  8.264E-01  1.519E-02 6.6316817E+00 1.6839048E-01 9.0989894E-01
  1.000E+01  7.532E-01  3.092E-02 5.6967326E+00 -2.6292310E+00 -1.0576324E+01
  9.957E+00  7.775E-01  2.507E-02 6.8282062E+00 1.4816780E-01 8.1380303E-01
  1.000E+01  7.052E-01  4.443E-02 5.7390361E+00 -3.1924671E+00 -1.0481034E+01
  9.957E+00  7.292E-01  3.738E-02 6.9563737E+00 5.3848134E-02 4.1663989E-01
  1.000E+01  6.580E-01  6.031E-02 5.7855994E+00 -3.7385361E+00 -1.0354875E+01
  9.957E+00  6.815E-01  5.207E-02 6.9373824E+00 -6.7086115E-03 -3.3626444E-02
  1.000E+01  6.116E-01  7.852E-02 6.0107372E+00 -4.2343894E+00 -1.0156146E+01
  9.957E+00  6.347E-01  6.913E-02 6.9297810E+00 1.4907605E-02 -1.4895454E-01
  1.000E+01  5.661E-01  9.903E-02 6.2136213E+00 -4.7761852E+00 -9.9576408E+00
  9.957E+00  5.887E-01  8.849E-02 7.0775449E+00 -1.6605848E-02 -8.8680025E-02
  1.000E+01  5.217E-01  1.218E-01 6.2094102E+00 -5.2975244E+00 -9.7101729E+00
  9.957E+00  5.438E-01  1.101E-01 7.1158274E+00 -1.2436203E-01 -9.7336226E-02
  1.000E+01  4.786E-01  1.467E-01 6.3800421E+00 -5.9581371E+00 -9.6895715E+00
  9.957E+00  5.000E-01  1.340E-01 7.1968921E+00 3.0638181E-02 9.8350040E-03
  1.000E+01  4.367E-01  1.738E-01 6.3638831E+00 -6.2727789E+00 -9.1925404E+00
  9.957E+00  4.575E-01  1.600E-01 7.5558495E+00 2.1937126E-01 7.7053931E-02
  1.000E+01  3.962E-01  2.029E-01 6.4685920E+00 -6.7121525E+00 -8.9029445E+00
  9.957E+00  4.163E-01  1.881E-01 7.5274067E+00 -6.7674658E-02 -1.2498522E-01
  1.000E+01  3.572E-01  2.340E-01 6.5738331E+00 -7.2665292E+00 -8.6075174E+00
  9.957E+00  3.765E-01  2.182E-01 7.4124367E+00 -1.9771910E-01 -2.2679929E-01
  1.000E+01  3.198E-01  2.669E-01 6.4692050E+00 -7.6905035E+00 -8.2663134E+00
  9.957E+00  3.383E-01  2.502E-01 7.6211712E+00 3.5658747E-01 1.1644734E-01
  1.000E+01  2.841E-01  3.018E-01 6.5958449E+00 -8.0454160E+00 -7.8644960E+00
  9.957E+00  3.018E-01  2.841E-01 7.7375715E+00 -2.7290561E-01 -2.5109957E-01
  1.000E+01  2.502E-01  3.383E-01 6.5032145E+00 -8.5412978E+00 -7.4587187E+00
  9.957E+00  2.669E-01  3.198E-01 7.3657101E+00 -4.9403501E-02 -1.2437261E-01
  1.000E+01  2.182E-01  3.765E-01 6.5192734E+00 -8.8118544E+00 -7.0296305E+00
  9.957E+00  2.340E-01  3.572E-01 7.7896348E+00 1.7692261E-01 3.5325771E-02
  1.000E+01  1.881E-01  4.163E-01 6.3977370E+00 -9.2083464E+00 -6.5548477E+00
  9.957E+00  2.029E-01  3.962E-01 7.3424224E+00 -4.2032853E-01 -2.7177140E-01
  1.000E+01  1.600E-01  4.575E-01 6.4355464E+00 -9.4630382E+00 -6.0827836E+00
  9.957E+00  1.738E-01  4.367E-01 7.5486074E+00 3.9434365E-01 7.9260613E-02
  1.000E+01  1.340E-01  5.000E-01 6.2062550E+00 -9.7628953E+00 -5.5779575E+00
  9.957E+00  1.467E-01  4.786E-01 7.2918187E+00 -4.8424013E-01 -1.4560639E-01
  1.000E+01  1.101E-01  5.438E-01 6.2118302E+00 -9.9269208E+00 -5.0538643E+00
  9.957E+00  1.218E-01  5.217E-01 7.2640034E+00 4.1155542E-01 2.3730186E-02
  1.000E+01  8.849E-02  5.887E-01 6.0833172E+00 -1.0546777E+01 -4.6971760E+00
  9.957E+00  9.903E-02  5.661E-01 7.1029481E+00 -2.3041648E-01 5.9527857E-02
  1.000E+01  6.913E-02  6.347E-01 5.9558522E+00 -9.8094492E+00 -3.7350618E+00
  9.957E+00  7.852E-02  6.116E-01 7.0644809E+00 3.8372849E-01 1.0955484E-01
  1.000E+01  5.207E-02  6.815E-01 5.6229944E+00 -1.0717163E+01 -3.5785980E+00
  9.957E+00  6.031E-02  6.580E-01 6.7863436E+00 2.5482683E-02 7.3893022E-02
  1.000E+01  3.738E-02  7.292E-01 5.9195134E+00 -1.0061202E+01 -2.7545700E+00
  9.957E+00  4.443E-02  7.052E-01 6.8643543E+00 4.3066153E-01 2.0642732E-01
  1.000E+01  2.507E-02  7.775E-01 5.4631228E+00 -1.0261194E+01 -2.3248637E+00
  9.957E+00  3.092E-02  7.532E-01 6.6946700E+00 3.9631657E-01 1.2950071E-01
  1.000E+01  1.519E-02  8.264E-01 5.6011460E+00 -1.0605226E+01 -1.7787864E+00
  9.957E+00  1.983E-02  8.019E-01 6.7422966E+00 7.3396586E-01 3.3407003E-01
  1.000E+01  7.761E-03  8.757E-01 5.3673281E+00 -1.0358819E+01 -1.3633200E+00
  9.957E+00  1.117E-02  8.510E-01 6.4377267E+00 6.8864678E-01 1.5896307E-01
  1.000E+01  2.796E-03  9.253E-01 5.3122766E+00 -1.0858860E+01 -7.7605486E-01
  9.957E+00  4.969E-03  9.004E-01 6.5101539E+00 5.1199915E-01 1.1160833E-01
  1.000E+01  3.108E-04  9.751E-01 5.3012431E+00 -1.0731387E+01 -3.1354333E-01
  9.957E+00  1.243E-03  9.502E-01 6.3886683E+00 8.5177117E-01 6.3012750E-02
  1.000E+01  3.108E-04  1.025E+00 5.3012309E+00 -1.0730550E+01 3.1427335E-01
  9.957E+00  0.000E+00  1.000E+00 6.3814714E+00 4.8264931E-01 4.1458916E-04
  1.000E+01  2.796E-03  1.075E+00 5.3122430E+00 -1.0856544E+01 7.7648533E-01
  9.957E+00  1.243E-03  1.050E+00 6.3888192E+00 8.5350472E-01 -6.2346416E-02
  1.000E+01  7.761E-03  1.124E+00 5.3673135E+00 -1.0355446E+01 1.3632748E+00
  9.957E+00  4.969E-03  1.100E+00 6.5104482E+00 5.1506664E-01 -1.1139321E-01
  1.000E+01  1.519E-02  1.174E+00 5.6011907E+00 -1.0601775E+01 1.7781802E+00
  9.957E+00  1.117E-02  1.149E+00 6.4381003E+00 6.9225198E-01 -1.5930450E-01
  1.000E+01  2.507E-02  1.223E+00 5.4631135E+00 -1.0258485E+01 2.3240767E+00
  9.957E+00  1.983E-02  1.198E+00 6.7426709E+00 7.3718805E-01 -3.3477588E-01
  1.000E+01  3.738E-02  1.271E+00 5.9194295E+00 -1.0058879E+01 2.7538868E+00
  9.957E+00  3.092E-02  1.247E+00 6.6949044E+00 3.9905250E-01 -1.3019209E-01
  1.000E+01  5.207E-02  1.318E+00 5.6226883E+00 -1.0714173E+01 3.5778903E+00
  9.957E+00  4.443E-02  1.295E+00 6.8645000E+00 4.3408119E-01 -2.0716374E-01
  1.000E+01  6.913E-02  1.365E+00 5.9555458E+00 -9.8065045E+00 3.7339568E+00
  9.957E+00  6.031E-02  1.342E+00 6.7864343E+00 2.9562781E-02 -7.5219493E-02
  1.000E+01  8.849E-02  1.411E+00 6.0831375E+00 -1.0545200E+01 4.6960979E+00
  9.957E+00  7.852E-02  1.388E+00 7.0645432E+00 3.8665299E-01 -1.1116323E-01
  1.000E+01  1.101E-01  1.456E+00 6.2116847E+00 -9.9254475E+00 5.0529894E+00
  9.957E+00  9.903E-02  1.434E+00 7.1029914E+00 -2.2854250E-01 -6.0846522E-02
  1.000E+01  1.340E-01  1.500E+00 6.2061185E+00 -9.7616183E+00 5.5771255E+00
  9.957E+00  1.218E-01  1.478E+00 7.2640397E+00 4.1376303E-01 -2.4919004E-02
  1.000E+01  1.600E-01  1.543E+00 6.4354352E+00 -9.4626825E+00 6.0821667E+00
  9.957E+00  1.467E-01  1.521E+00 7.2918333E+00 -4.8311657E-01 1.4454456E-01
  1.000E+01  1.881E-01  1.584E+00 6.3976146E+00 -9.2081099E+00 6.5545495E+00
  9.957E+00  1.738E-01  1.563E+00 7.5485840E+00 3.9517241E-01 -8.0063572E-02
  1.000E+01  2.182E-01  1.623E+00 6.5191566E+00 -8.8119345E+00 7.0295300E+00
  9.957E+00  2.029E-01  1.604E+00 7.3423289E+00 -4.1980946E-01 2.7123381E-01
  1.000E+01  2.502E-01  1.662E+00 6.5031399E+00 -8.5414967E+00 7.4588021E+00
  9.957E+00  2.340E-01  1.643E+00 7.7895713E+00 1.7706508E-01 -3.5688169E-02
  1.000E+01  2.841E-01  1.698E+00 6.5957806E+00 -8.0456726E+00 7.8647019E+00
  9.957E+00  2.669E-01  1.680E+00 7.3656248E+00 -4.9353690E-02 1.2425105E-01
  1.000E+01  3.198E-01  1.733E+00 6.4691237E+00 -7.6908449E+00 8.2666167E+00
  9.957E+00  3.018E-01  1.716E+00 7.7374954E+00 -2.7297022E-01 2.5108996E-01
  1.000E+01  3.572E-01  1.766E+00 6.5737510E+00 -7.2667878E+00 8.6078698E+00
  9.957E+00  3.383E-01  1.750E+00 7.6210664E+00 3.5654015E-01 -1.1640422E-01
  1.000E+01  3.962E-01  1.797E+00 6.4685233E+00 -6.7123948E+00 8.9032944E+00
  9.957E+00  3.765E-01  1.782E+00 7.4123462E+00 -1.9783099E-01 2.2691747E-01
  1.000E+01  4.367E-01  1.826E+00 6.3638091E+00 -6.2730044E+00 9.1928971E+00
  9.957E+00  4.163E-01  1.812E+00 7.5273328E+00 -6.7752736E-02 1.2511879E-01
  1.000E+01  4.786E-01  1.853E+00 6.3799784E+00 -5.9583075E+00 9.6899119E+00
  9.957E+00  4.575E-01  1.840E+00 7.5557575E+00 2.1931301E-01 -7.6925472E-02
  1.000E+01  5.217E-01  1.878E+00 6.2093659E+00 -5.2976486E+00 9.7104726E+00
  9.957E+00  5.000E-01  1.866E+00 7.1968111E+00 3.0546746E-02 -9.6968795E-03
  1.000E+01  5.661E-01  1.901E+00 6.2135707E+00 -4.7762863E+00 9.9579027E+00
  9.957E+00  5.438E-01  1.890E+00 7.1157636E+00 -1.2439695E-01 9.7467389E-02
  1.000E+01  6.116E-01  1.921E+00 6.0106868E+00 -4.2344577E+00 1.0156373E+01
  9.957E+00  5.887E-01  1.912E+00 7.0774824E+00 -1.6650097E-02 8.8788018E-02
  1.000E+01  6.580E-01  1.940E+00 5.7855367E+00 -3.7385786E+00 1.0355059E+01
  9.957E+00  6.347E-01  1.931E+00 6.9297517E+00 1.4892188E-02 1.4905054E-01
  1.000E+01  7.052E-01  1.956E+00 5.7389991E+00 -3.1925301E+00 1.0481200E+01
  9.957E+00  6.815E-01  1.948E+00 6.9373783E+00 -6.7655698E-03 3.3748485E-02
  1.000E+01  7.532E-01  1.969E+00 5.6967103E+00 -2.6292399E+00 1.0576477E+01
  9.957E+00  7.292E-01  1.963E+00 6.9563384E+00 5.3858800E-02 -4.1655616E-01
  1.000E+01  8.019E-01  1.980E+00 5.6224708E+00 -2.1237332E+00 1.0739255E+01
  9.957E+00  7.775E-01  1.975E+00 6.8281854E+00 1.4816337E-01 -8.1374145E-01
  1.000E+01  8.510E-01  1.989E+00 5.5474904E+00 -1.6383260E+00 1.0882408E+01
  9.957E+00  8.264E-01  1.985E+00 6.6316493E+00 1.6841094E-01 -9.0986206E-01
  1.000E+01  9.004E-01  1.995E+00 5.4838288E+00 -1.1337264E+00 1.0994581E+01
  9.957E+00  8.757E-01  1.992E+00 6.4571275E+00 1.3691039E-01 -4.2211411E-01
  1.000E+01  9.502E-01  1.999E+00 5.4576149E+00 -5.8465852E-01 1.1042398E+01
  9.957E+00  9.253E-01  1.997E+00 6.3496831E+00 7.4284057E-02 -1.3347411E-01
  1.000E+01  1.000E+00  2.000E+00 5.4499046E+00 1.3439994E-05 1.1048555E+01
  9.957E+00  9.751E-01  2.000E+00 6.2779524E+00 2.4974832E-02 8.0679747E-02
  1.000E+01  1.050E+00  1.999E+00 5.4576213E+00 5.8465410E-01 1.1042375E+01
  9.957E+00  1.025E+00  2.000E+00 6.2779627E+00 -2.4974202E-02 8.0675682E-02
  1.000E+01  1.100E+00  1.995E+00 5.4838305E+00 1.1337390E+00 1.0994538E+01
  9.957E+00  1.075E+00  1.997E+00 6.3496863E+00 -7.4275017E-02 -1.3348941E-01
  1.000E+01  1.149E+00  1.989E+00 5.5475050E+00 1.6383360E+00 1.0882327E+01
  9.957E+00  1.124E+00  1.992E+00 6.4571397E+00 -1.3691236E-01 -4.2214326E-01
  1.000E+01  1.198E+00  1.980E+00 5.6224803E+00 2.1237115E+00 1.0739143E+01