# TIME = 8.000000
VARIABLES = X, Y, Z, FX, FY, FZ
ZONE N=29232 E=58212 F=FEPOINT ET=TRIANGLE
  0.000E+00  9.502E-01  1.243E-03 7.0503889E+00 3.6086228E-01 7.2828328E+00
  0.000E+00  1.000E+00  0.000E+00 7.0393968E+00 4.8465096E-06 7.2922760E+00
  4.318E-02  9.751E-01  3.108E-04 6.9240017E+00 1.8093664E-01 7.3119987E+00
  0.000E+00  1.050E+00  1.243E-03 7.0503893E+00 -3.6085177E-01 7.2828320E+00
  4.318E-02  1.025E+00  3.108E-04 6.9240019E+00 -1.8092710E-01 7.3119983E+00
  0.000E+00  1.100E+00  4.969E-03 7.0874917E+00 -7.2258052E-01 7.2555853E+00
  4.318E-02  1.075E+00  2.796E-03 6.9493559E+00 -5.4319203E-01 7.2934739E+00
  0.000E+00  1.149E+00  1.117E-02 7.1585777E+00 -1.0863185E+00 7.2123657E+00
  4.318E-02  1.124E+00  7.761E-03 7.0037904E+00 -9.0693212E-01 7.2578915E+00
  0.000E+00  1.198E+00  1.983E-02 7.2619148E+00 -1.4501514E+00 7.1527996E+00
  4.318E-02  1.174E+00  1.519E-02 7.0900833E+00 -1.2724457E+00 7.2065805E+00
  0.000E+00  1.247E+00  3.092E-02 7.3746185E+00 -1.8068457E+00 7.0726848E+00
  4.318E-02  1.223E+00  2.507E-02 7.2009205E+00 -1.6348624E+00 7.1373128E+00
  0.000E+00  1.295E+00  4.443E-02 7.4654709E+00 -2.1505920E+00 6.9686687E+00
  4.318E-02  1.271E+00  3.738E-02 7.3076217E+00 -1.9861637E+00 7.0448818E+00
  0.000E+00  1.342E+00  6.031E-02 7.5415492E+00 -2.4894699E+00 6.8490989E+00
  4.318E-02  1.318E+00  5.207E-02 7.3857771E+00 -2.3267135E+00 6.9310599E+00
  0.000E+00  1.388E+00  7.852E-02 7.7075570E+00 -2.8320097E+00 6.7209372E+00
  4.318E-02  1.365E+00  6.913E-02 7.4945451E+00 -2.6685124E+00 6.8071538E+00
  0.000E+00  1.434E+00  9.903E-02 7.8463695E+00 -3.1674144E+00 6.5729348E+00
  4.318E-02  1.411E+00  8.849E-02 7.6749747E+00 -3.0107177E+00 6.6704854E+00
  0.000E+00  1.478E+00  1.218E-01 7.8988236E+00 -3.4884541E+00 6.4039350E+00
  4.318E-02  1.456E+00  1.101E-01 7.7669331E+00 -3.3394882E+00 6.5102596E+00
  0.000E+00  1.521E+00  1.467E-01 8.0671172E+00 -3.8030324E+00 6.2234047E+00
  4.318E-02  1.500E+00  1.340E-01 7.8454963E+00 -3.6571178E+00 6.3343821E+00
  0.000E+00  1.563E+00  1.738E-01 8.1126265E+00 -4.1089502E+00 6.0251919E+00
  4.318E-02  1.543E+00  1.600E-01 7.9989213E+00 -3.9696665E+00 6.1455161E+00
  0.000E+00  1.604E+00  2.029E-01 8.2039298E+00 -4.4044467E+00 5.8139938E+00
  4.318E-02  1.584E+00  1.881E-01 8.0210165E+00 -4.2710410E+00 5.9393336E+00
  0.000E+00  1.643E+00  2.340E-01 8.2613522E+00 -4.6880639E+00 5.5860975E+00
  4.318E-02  1.623E+00  2.182E-01 8.1200294E+00 -4.5611912E+00 5.7193361E+00
  0.000E+00  1.680E+00  2.669E-01 8.2615471E+00 -4.9609804E+00 5.3463392E+00
  4.318E-02  1.662E+00  2.502E-01 8.1316490E+00 -4.8411319E+00 5.4846173E+00
  0.000E+00  1.716E+00  3.018E-01 8.2982955E+00 -5.2210856E+00 5.0916591E+00
  4.318E-02  1.698E+00  2.841E-01 8.1812348E+00 -5.1078065E+00 5.2366219E+00
  0.000E+00  1.750E+00  3.383E-01 8.2482719E+00 -5.4681751E+00 4.8257767E+00
  4.318E-02  1.733E+00  3.198E-01 8.1451320E+00 -5.3631178E+00 4.9756349E+00
  0.000E+00  1.782E+00  3.765E-01 8.2371939E+00 -5.7021357E+00 4.5465984E+00
  4.318E-02  1.766E+00  3.572E-01 8.1444754E+00 -5.6035995E+00 4.7018235E+00
  0.000E+00  1.812E+00  4.163E-01 8.1376988E+00 -5.9212571E+00 4.2573025E+00
  4.318E-02  1.797E+00  3.962E-01 8.0874531E+00 -5.8319570E+00 4.4171944E+00
  0.000E+00  1.840E+00  4.575E-01 8.1165442E+00 -6.1267823E+00 3.9568383E+00
  4.318E-02  1.826E+00  4.367E-01 7.9962915E+00 -6.0438701E+00 4.1208378E+00
  0.000E+00  1.866E+00  5.000E-01 7.9623095E+00 -6.3149287E+00 3.6452101E+00
  4.318E-02  1.853E+00  4.786E-01 7.9504654E+00 -6.2423426E+00 3.8138511E+00
  0.000E+00  1.890E+00  5.438E-01 7.8844244E+00 -6.4900514E+00 3.3285553E+00
  4.318E-02  1.878E+00  5.217E-01 7.7831268E+00 -6.4234952E+00 3.4983314E+00
  0.000E+00  1.912E+00  5.887E-01 7.7928199E+00 -6.6498257E+00 3.0008181E+00
  4.318E-02  1.901E+00  5.661E-01 7.7297734E+00 -6.5927830E+00 3.1762980E+00
  0.000E+00  1.931E+00  6.347E-01 7.6115571E+00 -6.7858957E+00 2.6596860E+00
  4.318E-02  1.921E+00  6.116E-01 7.5914620E+00 -6.7409936E+00 2.8398674E+00
  0.000E+00  1.948E+00  6.815E-01 7.5031794E+00 -6.9092123E+00 2.3189984E+00
  4.318E-02  1.940E+00  6.580E-01 7.4261290E+00 -6.8695727E+00 2.4963194E+00
  0.000E+00  1.963E+00  7.292E-01 7.4256753E+00 -7.0226588E+00 1.9795329E+00
  4.318E-02  1.956E+00  7.052E-01 7.3493746E+00 -6.9893535E+00 2.1564576E+00
  0.000E+00  1.975E+00  7.775E-01 7.3189900E+00 -7.1147729E+00 1.6293439E+00
  4.318E-02  1.969E+00  7.532E-01 7.2582904E+00 -7.0934793E+00 1.8117686E+00
  0.000E+00  1.985E+00  8.264E-01 7.2078854E+00 -7.1837390E+00 1.2681097E+00
  4.318E-02  1.980E+00  8.019E-01 7.1458739E+00 -7.1737167E+00 1.4541172E+00
  0.000E+00  1.992E+00  8.757E-01 7.1214115E+00 -7.2347963E+00 9.0382598E-01
  4.318E-02  1.989E+00  8.510E-01 7.0428968E+00 -7.2334153E+00 1.0892929E+00
  0.000E+00  1.997E+00  9.253E-01 7.0669411E+00 -7.2702069E+00 5.4132799E-01
  4.318E-02  1.995E+00  9.004E-01 6.9719732E+00 -7.2767375E+00 7.2455278E-01
  0.000E+00  2.000E+00  9.751E-01 7.0416134E+00 -7.2886471E+00 1.8030534E-01
  4.318E-02  1.999E+00  9.502E-01 6.9348730E+00 -7.3040387E+00 3.6183116E-01
  0.000E+00  2.000E+00  1.025E+00 7.0416141E+00 -7.2886450E+00 -1.8031646E-01
  4.318E-02  2.000E+00  1.000E+00 6.9238608E+00 -7.3134956E+00 -5.0617670E-06
  0.000E+00  1.997E+00  1.075E+00 7.0669432E+00 -7.2701997E+00 -5.4133905E-01
  4.318E-02  1.999E+00  1.050E+00 6.9348743E+00 -7.3040346E+00 -3.6184125E-01
  0.000E+00  1.992E+00  1.124E+00 7.1214151E+00 -7.2347850E+00 -9.0383692E-01
  4.318E-02  1.995E+00  1.100E+00 6.9719757E+00 -7.2767279E+00 -7.2456279E-01
  0.000E+00  1.985E+00  1.174E+00 7.2078904E+00 -7.1837335E+00 -1.2681205E+00
  4.318E-02  1.989E+00  1.149E+00 7.0429007E+00 -7.2334056E+00 -1.0893028E+00
  0.000E+00  1.975E+00  1.223E+00 7.3189961E+00 -7.1147874E+00 -1.6293545E+00
  4.318E-02  1.980E+00  1.198E+00 7.1458791E+00 -7.1737209E+00 -1.4541270E+00
  0.000E+00  1.963E+00  1.271E+00 7.4256825E+00 -7.0226772E+00 -1.9795433E+00
  4.318E-02  1.969E+00  1.247E+00 7.2582969E+00 -7.0935000E+00 -1.8117781E+00
  0.000E+00  1.948E+00  1.318E+00 7.5031874E+00 -6.9091968E+00 -2.3190083E+00
  4.318E-02  1.956E+00  1.295E+00 7.3493823E+00 -6.9893572E+00 -2.1564668E+00
  0.000E+00  1.931E+00  1.365E+00 7.6115659E+00 -6.7858820E+00 -2.6596956E+00
  4.318E-02  1.940E+00  1.342E+00 7.4261377E+00 -6.8695466E+00 -2.4963283E+00
  0.000E+00  1.912E+00  1.411E+00 7.7928289E+00 -6.6498577E+00 -3.0008274E+00
  4.318E-02  1.921E+00  1.388E+00 7.5914719E+00 -6.7410083E+00 -2.8398765E+00
  0.000E+00  1.890E+00  1.456E+00 7.8844350E+00 -6.4900479E+00 -3.3285644E+00
  4.318E-02  1.901E+00  1.434E+00 7.7297842E+00 -6.5928077E+00 -3.1763067E+00
  0.000E+00  1.866E+00  1.500E+00 7.9623207E+00 -6.3149153E+00 -3.6452186E+00
  4.318E-02  1.878E+00  1.478E+00 7.7831382E+00 -6.4234713E+00 -3.4983393E+00
  0.000E+00  1.840E+00  1.543E+00 8.1165562E+00 -6.1268094E+00 -3.9568473E+00
  4.318E-02  1.853E+00  1.521E+00 7.9504776E+00 -6.2423587E+00 -3.8138596E+00
  0.000E+00  1.812E+00  1.584E+00 8.1377115E+00 -5.9212548E+00 -4.2573104E+00
  4.318E-02  1.826E+00  1.563E+00 7.9963042E+00 -6.0438830E+00 -4.1208456E+00
  0.000E+00  1.782E+00  1.623E+00 8.2372073E+00 -5.7021495E+00 -4.5466067E+00
  4.318E-02  1.797E+00  1.604E+00 8.0874661E+00 -5.8319581E+00 -4.4172021E+00
  0.000E+00  1.750E+00  1.662E+00 8.2482859E+00 -5.4681836E+00 -4.8257846E+00
  4.318E-02  1.766E+00  1.643E+00 8.1444888E+00 -5.6036162E+00 -4.7018312E+00
  0.000E+00  1.716E+00  1.698E+00 8.2983099E+00 -5.2210948E+00 -5.0916669E+00
  4.318E-02  1.733E+00  1.680E+00 8.1451457E+00 -5.3631203E+00 -4.9756419E+00
  0.000E+00  1.680E+00  1.733E+00 8.2615611E+00 -4.9609924E+00 -5.3463463E+00
  4.318E-02  1.698E+00  1.716E+00 8.1812491E+00 -5.1078214E+00 -5.2366294E+00
  0.000E+00  1.643E+00  1.766E+00 8.2613653E+00 -4.6880694E+00 -5.5861040E+00
  4.318E-02  1.662E+00  1.750E+00 8.1316641E+00 -4.8411403E+00 -5.4846245E+00
  0.000E+00  1.604E+00  1.797E+00 8.2039430E+00 -4.4044563E+00 -5.8140004E+00
  4.318E-02  1.623E+00  1.782E+00 8.1200456E+00 -4.5612016E+00 -5.7193432E+00
  0.000E+00  1.563E+00  1.826E+00 8.1126418E+00 -4.1089629E+00 -6.0251993E+00
  4.318E-02  1.584E+00  1.812E+00 8.0210325E+00 -4.2710493E+00 -5.9393396E+00
  0.000E+00  1.521E+00  1.853E+00 8.0671367E+00 -3.8030463E+00 -6.2234124E+00
  4.318E-02  1.543E+00  1.840E+00 7.9989349E+00 -3.9696748E+00 -6.1455212E+00
  0.000E+00  1.478E+00  1.878E+00 7.8988443E+00 -3.4884632E+00 -6.4039412E+00
  4.318E-02  1.500E+00  1.866E+00 7.8455073E+00 -3.6571237E+00 -6.3343870E+00
  0.000E+00  1.434E+00  1.901E+00 7.8463852E+00 -3.1674224E+00 -6.5729390E+00
  4.318E-02  1.456E+00  1.890E+00 7.7669453E+00 -3.3395005E+00 -6.5102655E+00
  0.000E+00  1.388E+00  1.921E+00 7.7075642E+00 -2.8320138E+00 -6.7209403E+00
  4.318E-02  1.411E+00  1.912E+00 7.6749924E+00 -3.0107305E+00 -6.6704917E+00
  0.000E+00  1.342E+00  1.940E+00 7.5415528E+00 -2.4894804E+00 -6.8491024E+00
  4.318E-02  1.365E+00  1.931E+00 7.4945680E+00 -2.6685224E+00 -6.8071592E+00
  0.000E+00  1.295E+00  1.956E+00 7.4654786E+00 -2.1506053E+00 -6.9686724E+00
  4.318E-02  1.318E+00  1.948E+00 7.3857996E+00 -2.3267243E+00 -6.9310638E+00
  0.000E+00  1.247E+00  1.969E+00 7.3746344E+00 -1.8068557E+00 -7.0726878E+00
  4.318E-02  1.271E+00  1.963E+00 7.3076387E+00 -1.9861734E+00 -7.0448847E+00
  0.000E+00  1.198E+00  1.980E+00 7.2619360E+00 -1.4501597E+00 -7.1528010E+00
  4.318E-02  1.223E+00  1.975E+00 7.2009325E+00 -1.6348743E+00 -7.1373156E+00
  0.000E+00  1.149E+00  1.989E+00 7.1585988E+00 -1.0863247E+00 -7.2123654E+00
  4.318E-02  1.174E+00  1.985E+00 7.0900937E+00 -1.2724591E+00 -7.2065833E+00
  0.000E+00  1.100E+00  1.995E+00 7.0875098E+00 -7.2258778E-01 -7.2555835E+00
  4.318E-02  1.124E+00  1.992E+00 7.0038024E+00 -9.0694467E-01 -7.2578941E+00
  0.000E+00  1.050E+00  1.999E+00 7.0504042E+00 -3.6086135E-01 -7.2828290E+00
  4.318E-02  1.075E+00  1.997E+00 6.9493704E+00 -5.4320423E-01 -7.2934761E+00
  0.000E+00  1.000E+00  2.000E+00 7.0394104E+00 -5.7646422E-06 -7.2922722E+00
  4.318E-02  1.025E+00  2.000E+00 6.9240178E+00 -1.8093800E-01 -7.3119998E+00
  0.000E+00  9.502E-01  1.999E+00 7.0504038E+00 3.6084901E-01 -7.2828282E+00
  4.318E-02  9.751E-01  2.000E+00 6.9240177E+00 1.8092666E-01 -7.3119994E+00
  0.000E+00  9.004E-01  1.995E+00 7.0875089E+00 7.2257596E-01 -7.2555820E+00
  4.318E-02  9.253E-01  1.997E+00 6.9493697E+00 5.4319258E-01 -7.2934749E+00
  0.000E+00  8.510E-01  1.989E+00 7.1585976E+00 1.0863131E+00 -7.2123631E+00
  4.318E-02  8.757E-01  1.992E+00 7.0038013E+00 9.0693365E-01 -7.2578922E+00
  0.000E+00  8.019E-01  1.980E+00 7.2619343E+00 1.4501474E+00 -7.1527980E+00
  4.318E-02  8.264E-01  1.985E+00 7.0900922E+00 1.2724475E+00 -7.2065806E+00
  0.000E+00  7.532E-01  1.969E+00 7.3746323E+00 1.8068449E+00 -7.0726841E+00
  4.318E-02  7.775E-01  1.975E+00 7.2009305E+00 1.6348631E+00 -7.1373123E+00
  0.000E+00  7.052E-01  1.956E+00 7.4654761E+00 2.1505932E+00 -6.9686681E+00
  4.318E-02  7.292E-01  1.963E+00 7.3076364E+00 1.9861628E+00 -7.0448807E+00
  0.000E+00  6.580E-01  1.940E+00 7.5415499E+00 2.4894687E+00 -6.8490975E+00
  4.318E-02  6.815E-01  1.948E+00 7.3857968E+00 2.3267121E+00 -6.9310592E+00
  0.000E+00  6.116E-01  1.921E+00 7.7075612E+00 2.8320044E+00 -6.7209351E+00
  4.318E-02  6.347E-01  1.931E+00 7.4945648E+00 2.6685129E+00 -6.8071541E+00
  0.000E+00  5.661E-01  1.901E+00 7.8463817E+00 3.1674088E+00 -6.5729331E+00
  4.318E-02  5.887E-01  1.912E+00 7.6749887E+00 3.0107192E+00 -6.6704858E+00
  0.000E+00  5.217E-01  1.878E+00 7.8988405E+00 3.4884537E+00 -6.4039350E+00
  4.318E-02  5.438E-01  1.890E+00 7.7669415E+00 3.3394886E+00 -6.5102596E+00
  0.000E+00  4.786E-01  1.853E+00 8.0671326E+00 3.8030357E+00 -6.2234057E+00
  4.318E-02  5.000E-01  1.866E+00 7.8455032E+00 3.6571152E+00 -6.3343807E+00
  0.000E+00  4.367E-01  1.826E+00 8.1126374E+00 4.1089523E+00 -6.0251923E+00
  4.318E-02  4.575E-01  1.840E+00 7.9989305E+00 3.9696636E+00 -6.1455145E+00
  0.000E+00  3.962E-01  1.797E+00 8.2039383E+00 4.4044455E+00 -5.8139931E+00
  4.318E-02  4.163E-01  1.812E+00 8.0210278E+00 4.2710396E+00 -5.9393328E+00
  0.000E+00  3.572E-01  1.766E+00 8.2613604E+00 4.6880612E+00 -5.5860965E+00
  4.318E-02  3.765E-01  1.782E+00 8.1200407E+00 4.5611914E+00 -5.7193359E+00
  0.000E+00  3.198E-01  1.733E+00 8.2615560E+00 4.9609789E+00 -5.3463385E+00
  4.318E-02  3.383E-01  1.750E+00 8.1316590E+00 4.8411319E+00 -5.4846173E+00
  0.000E+00  2.841E-01  1.698E+00 8.2983045E+00 5.2210851E+00 -5.0916588E+00
  4.318E-02  3.018E-01  1.716E+00 8.1812437E+00 5.1078058E+00 -5.2366216E+00
  0.000E+00  2.502E-01  1.662E+00 8.2482804E+00 5.4681747E+00 -4.8257765E+00
  4.318E-02  2.669E-01  1.680E+00 8.1451402E+00 5.3631168E+00 -4.9756345E+00
  0.000E+00  2.182E-01  1.623E+00 8.2372016E+00 5.7021352E+00 -4.5465982E+00
  4.318E-02  2.340E-01  1.643E+00 8.1444832E+00 5.6035986E+00 -4.7018231E+00
  0.000E+00  1.881E-01  1.584E+00 8.1377057E+00 5.9212563E+00 -4.2573023E+00
  4.318E-02  2.029E-01  1.604E+00 8.0874603E+00 5.8319562E+00 -4.4171941E+00
  0.000E+00  1.600E-01  1.543E+00 8.1165502E+00 6.1267815E+00 -3.9568381E+00
  4.318E-02  1.738E-01  1.563E+00 7.9962982E+00 6.0438696E+00 -4.1208376E+00
  0.000E+00  1.340E-01  1.500E+00 7.9623147E+00 6.3149279E+00 -3.6452099E+00
  4.318E-02  1.467E-01  1.521E+00 7.9504715E+00 6.2423420E+00 -3.8138509E+00
  0.000E+00  1.101E-01  1.456E+00 7.8844288E+00 6.4900507E+00 -3.3285552E+00
  4.318E-02  1.218E-01  1.478E+00 7.7831321E+00 6.4234947E+00 -3.4983312E+00
  0.000E+00  8.849E-02  1.411E+00 7.7928233E+00 6.6498247E+00 -3.0008179E+00
  4.318E-02  9.903E-02  1.434E+00 7.7297780E+00 6.5927825E+00 -3.1762980E+00
  0.000E+00  6.913E-02  1.365E+00 7.6115598E+00 6.7858951E+00 -2.6596860E+00
  4.318E-02  7.852E-02  1.388E+00 7.5914657E+00 6.7409931E+00 -2.8398674E+00
  0.000E+00  5.207E-02  1.318E+00 7.5031813E+00 6.9092118E+00 -2.3189984E+00
  4.318E-02  6.031E-02  1.342E+00 7.4261316E+00 6.8695721E+00 -2.4963194E+00
  0.000E+00  3.738E-02  1.271E+00 7.4256763E+00 7.0226584E+00 -1.9795330E+00
  4.318E-02  4.443E-02  1.295E+00 7.3493762E+00 6.9893529E+00 -2.1564575E+00
  0.000E+00  2.507E-02  1.223E+00 7.3189901E+00 7.1147726E+00 -1.6293440E+00
  4.318E-02  3.092E-02  1.247E+00 7.2582908E+00 7.0934787E+00 -1.8117686E+00
  0.000E+00  1.519E-02  1.174E+00 7.2078845E+00 7.1837388E+00 -1.2681098E+00
  4.318E-02  1.983E-02  1.198E+00 7.1458732E+00 7.1737161E+00 -1.4541172E+00
  0.000E+00  7.761E-03  1.124E+00 7.1214094E+00 7.2347960E+00 -9.0382600E-01
  4.318E-02  1.117E-02  1.149E+00 7.0428950E+00 7.2334148E+00 -1.0892929E+00
  0.000E+00  2.796E-03  1.075E+00 7.0669377E+00 7.2702066E+00 -5.4132800E-01
  4.318E-02  4.969E-03  1.100E+00 6.9719702E+00 7.2767371E+00 -7.2455281E-01
  0.000E+00  3.108E-04  1.025E+00 7.0416088E+00 7.2886468E+00 -1.8030532E-01
  4.318E-02  1.243E-03  1.050E+00 6.9348689E+00 7.3040384E+00 -3.6183119E-01
  0.000E+00  3.108E-04  9.751E-01 7.0416083E+00 7.2886447E+00 1.8031651E-01
  4.318E-02  0.000E+00  1.000E+00 6.9238556E+00 7.3134953E+00 5.0510083E-06
  0.000E+00  2.796E-03  9.253E-01 7.0669362E+00 7.2701993E+00 5.4133911E-01
  4.318E-02  1.243E-03  9.502E-01 6.9348679E+00 7.3040344E+00 3.6184127E-01
  0.000E+00  7.761E-03  8.757E-01 7.1214068E+00 7.2347846E+00 9.0383701E-01
  4.318E-02  4.969E-03  9.004E-01 6.9719683E+00 7.2767278E+00 7.2456285E-01
  0.000E+00  1.519E-02  8.264E-01 7.2078809E+00 7.1837332E+00 1.2681207E+00
  4.318E-02  1.117E-02  8.510E-01 7.0428921E+00 7.2334055E+00 1.0893029E+00
  0.000E+00  2.507E-02  7.775E-01 7.3189856E+00 7.1147870E+00 1.6293547E+00
  4.318E-02  1.983E-02  8.019E-01 7.1458694E+00 7.1737209E+00 1.4541271E+00
  0.000E+00  3.738E-02  7.292E-01 7.4256710E+00 7.0226770E+00 1.9795435E+00
  4.318E-02  3.092E-02  7.532E-01 7.2582860E+00 7.0935000E+00 1.8117783E+00
  0.000E+00  5.207E-02  6.815E-01 7.5031752E+00 6.9091967E+00 2.3190086E+00
  4.318E-02  4.443E-02  7.052E-01 7.3493702E+00 6.9893571E+00 2.1564671E+00
  0.000E+00  6.913E-02  6.347E-01 7.6115528E+00 6.7858819E+00 2.6596959E+00
  4.318E-02  6.031E-02  6.580E-01 7.4261246E+00 6.8695465E+00 2.4963287E+00
  0.000E+00  8.849E-02  5.887E-01 7.7928151E+00 6.6498580E+00 3.0008280E+00
  4.318E-02  7.852E-02  6.116E-01 7.5914578E+00 6.7410081E+00 2.8398769E+00
  0.000E+00  1.101E-01  5.438E-01 7.8844202E+00 6.4900479E+00 3.3285649E+00
  4.318E-02  9.903E-02  5.661E-01 7.7297693E+00 6.5928075E+00 3.1763072E+00
  0.000E+00  1.340E-01  5.000E-01 7.9623052E+00 6.3149154E+00 3.6452193E+00
  4.318E-02  1.218E-01  5.217E-01 7.7831225E+00 6.4234711E+00 3.4983398E+00
  0.000E+00  1.600E-01  4.575E-01 8.1165400E+00 6.1268095E+00 3.9568480E+00
  4.318E-02  1.467E-01  4.786E-01 7.9504612E+00 6.2423584E+00 3.8138602E+00
  0.000E+00  1.881E-01  4.163E-01 8.1376945E+00 5.9212547E+00 4.2573112E+00
  4.318E-02  1.738E-01  4.367E-01 7.9962873E+00 6.0438827E+00 4.1208462E+00
  0.000E+00  2.182E-01  3.765E-01 8.2371897E+00 5.7021491E+00 4.5466075E+00
  4.318E-02  2.029E-01  3.962E-01 8.0874489E+00 5.8319579E+00 4.4172028E+00
  0.000E+00  2.502E-01  3.383E-01 8.2482678E+00 5.4681830E+00 4.8257853E+00
  4.318E-02  2.340E-01  3.572E-01 8.1444713E+00 5.6036161E+00 4.7018320E+00
  0.000E+00  2.841E-01  3.018E-01 8.2982914E+00 5.2210942E+00 5.0916677E+00
  4.318E-02  2.669E-01  3.198E-01 8.1451280E+00 5.3631203E+00 4.9756428E+00
  0.000E+00  3.198E-01  2.669E-01 8.2615431E+00 4.9609927E+00 5.3463474E+00
  4.318E-02  3.018E-01  2.841E-01 8.1812309E+00 5.1078211E+00 5.2366302E+00
  0.000E+00  3.572E-01  2.340E-01 8.2613483E+00 4.6880709E+00 5.5861056E+00
  4.318E-02  3.383E-01  2.502E-01 8.1316451E+00 4.8411390E+00 5.4846250E+00
  0.000E+00  3.962E-01  2.029E-01 8.2039261E+00 4.4044561E+00 5.8140016E+00
  4.318E-02  3.765E-01  2.182E-01 8.1200257E+00 4.5612002E+00 5.7193438E+00
  0.000E+00  4.367E-01  1.738E-01 8.1126228E+00 4.1089595E+00 6.0251994E+00
  4.318E-02  4.163E-01  1.881E-01 8.0210129E+00 4.2710495E+00 5.9393409E+00
  0.000E+00  4.786E-01  1.467E-01 8.0671137E+00 3.8030417E+00 6.2234119E+00
  4.318E-02  4.575E-01  1.600E-01 7.9989178E+00 3.9696764E+00 6.1455232E+00
  0.000E+00  5.217E-01  1.218E-01 7.8988204E+00 3.4884622E+00 6.4039417E+00
  4.318E-02  5.000E-01  1.340E-01 7.8454931E+00 3.6571249E+00 6.3343888E+00
  0.000E+00  5.661E-01  9.903E-02 7.8463664E+00 3.1674265E+00 6.5729410E+00
  4.318E-02  5.438E-01  1.101E-01 7.7669302E+00 3.3394987E+00 6.5102661E+00
  0.000E+00  6.116E-01  7.852E-02 7.7075543E+00 2.8320175E+00 6.7209430E+00
  4.318E-02  5.887E-01  8.849E-02 7.6749717E+00 3.0107271E+00 6.6704910E+00
  0.000E+00  6.580E-01  6.031E-02 7.5415468E+00 2.4894800E+00 6.8491042E+00
  4.318E-02  6.347E-01  6.913E-02 7.4945426E+00 2.6685204E+00 6.8071593E+00
  0.000E+00  7.052E-01  4.443E-02 7.4654687E+00 2.1506024E+00 6.9686733E+00
  4.318E-02  6.815E-01  5.207E-02 7.3857749E+00 2.3267240E+00 6.9310648E+00
  0.000E+00  7.532E-01  3.092E-02 7.3746167E+00 1.8068548E+00 7.0726888E+00
  4.318E-02  7.292E-01  3.738E-02 7.3076197E+00 1.9861726E+00 7.0448860E+00
  0.000E+00  8.019E-01  1.983E-02 7.2619133E+00 1.4501620E+00 7.1528028E+00
  4.318E-02  7.775E-01  2.507E-02 7.2009190E+00 1.6348719E+00 7.1373164E+00
  0.000E+00  8.510E-01  1.117E-02 7.1585765E+00 1.0863283E+00 7.2123682E+00
  4.318E-02  8.264E-01  1.519E-02 7.0900821E+00 1.2724555E+00 7.2065832E+00
  0.000E+00  9.004E-01  4.969E-03 7.0874910E+00 7.2259051E-01 7.2555869E+00
  4.318E-02  8.757E-01  7.761E-03 7.0037895E+00 9.0694137E-01 7.2578935E+00
  4.318E-02  9.253E-01  2.796E-03 6.9493554E+00 5.4320189E-01 7.2934751E+00
  1.000E+01  1.050E+00  1.243E-03 7.0503893E+00 -3.6085177E-01 7.2828320E+00
  1.000E+01  1.000E+00  5.551E-16 7.0393968E+00 4.8465096E-06 7.2922760E+00
  9.957E+00  1.025E+00  3.108E-04 7.1720150E+00 -1.7908433E-01 7.2376691E+00
  1.000E+01  9.502E-01  1.243E-03 7.0503889E+00 3.6086228E-01 7.2828328E+00
  9.957E+00  9.751E-01  3.108E-04 7.1720149E+00 1.7909484E-01 7.2376695E+00
  1.000E+01  9.004E-01  4.969E-03 7.0874910E+00 7.2259051E-01 7.2555869E+00
  9.957E+00  9.253E-01  2.796E-03 7.1973461E+00 5.3766927E-01 7.2193415E+00
  1.000E+01  8.510E-01  1.117E-02 7.1585765E+00 1.0863283E+00 7.2123682E+00
  9.957E+00  8.757E-01  7.761E-03 7.2519148E+00 8.9769996E-01 7.1841461E+00
  1.000E+01  8.019E-01  1.983E-02 7.2619133E+00 1.4501620E+00 7.1528028E+00
  9.957E+00  8.264E-01  1.519E-02 7.3386668E+00 1.2595020E+00 7.1333999E+00
  1.000E+01  7.532E-01  3.092E-02 7.3746167E+00 1.8068548E+00 7.0726888E+00
  9.957E+00  7.775E-01  2.507E-02 7.4501653E+00 1.6182909E+00 7.0648377E+00
  1.000E+01  7.052E-01  4.443E-02 7.4654687E+00 2.1506024E+00 6.9686733E+00
  9.957E+00  7.292E-01  3.738E-02 7.5569556E+00 1.9661178E+00 6.9731900E+00
  1.000E+01  6.580E-01  6.031E-02 7.5415468E+00 2.4894800E+00 6.8491042E+00
  9.957E+00  6.815E-01  5.207E-02 7.6338817E+00 2.3032418E+00 6.8602910E+00
  1.000E+01  6.116E-01  7.852E-02 7.7075543E+00 2.8320175E+00 6.7209430E+00
  9.957E+00  6.347E-01  6.913E-02 7.7419768E+00 2.6415105E+00 6.7377997E+00
  1.000E+01  5.661E-01  9.903E-02 7.8463664E+00 3.1674265E+00 6.5729410E+00
  9.957E+00  5.887E-01  8.849E-02 7.9243381E+00 2.9802414E+00 6.6026441E+00
  1.000E+01  5.217E-01  1.218E-01 7.8988204E+00 3.4884622E+00 6.4039417E+00
  9.957E+00  5.438E-01  1.101E-01 8.0157496E+00 3.3056089E+00 6.4436349E+00
  1.000E+01  4.786E-01  1.467E-01 8.0671137E+00 3.8030417E+00 6.2234119E+00
  9.957E+00  5.000E-01  1.340E-01 8.0930704E+00 3.6199613E+00 6.2696997E+00
  1.000E+01  4.367E-01  1.738E-01 8.1126228E+00 4.1089595E+00 6.0251994E+00
  9.957E+00  4.575E-01  1.600E-01 8.2484019E+00 3.9293471E+00 6.0828045E+00
  1.000E+01  3.962E-01  2.029E-01 8.2039261E+00 4.4044561E+00 5.8140016E+00
  9.957E+00  4.163E-01  1.881E-01 8.2687120E+00 4.2275491E+00 5.8784801E+00
  1.000E+01  3.572E-01  2.340E-01 8.2613483E+00 4.6880709E+00 5.5861056E+00
  9.957E+00  3.765E-01  2.182E-01 8.3689535E+00 4.5146891E+00 5.6609093E+00
  1.000E+01  3.198E-01  2.669E-01 8.2615431E+00 4.9609927E+00 5.3463474E+00
  9.957E+00  3.383E-01  2.502E-01 8.3796335E+00 4.7917982E+00 5.4284361E+00
  1.000E+01  2.841E-01  3.018E-01 8.2982914E+00 5.2210942E+00 5.0916677E+00
  9.957E+00  3.018E-01  2.841E-01 8.4303653E+00 5.0556226E+00 5.1830599E+00
  1.000E+01  2.502E-01  3.383E-01 8.2482678E+00 5.4681830E+00 4.8257853E+00
  9.957E+00  2.669E-01  3.198E-01 8.3930950E+00 5.3084199E+00 4.9247323E+00
  1.000E+01  2.182E-01  3.765E-01 8.2371897E+00 5.7021491E+00 4.5466075E+00
  9.957E+00  2.340E-01  3.572E-01 8.3936393E+00 5.5462447E+00 4.6536601E+00
  1.000E+01  1.881E-01  4.163E-01 8.1376945E+00 5.9212547E+00 4.2573112E+00
  9.957E+00  2.029E-01  3.962E-01 8.3359645E+00 5.7725123E+00 4.3721057E+00
  1.000E+01  1.600E-01  4.575E-01 8.1165400E+00 6.1268095E+00 3.9568480E+00
  9.957E+00  1.738E-01  4.367E-01 8.2447252E+00 5.9818493E+00 4.0785804E+00
  1.000E+01  1.340E-01  5.000E-01 7.9623052E+00 6.3149154E+00 3.6452193E+00
  9.957E+00  1.467E-01  4.786E-01 8.1997673E+00 6.1787400E+00 3.7749230E+00
  1.000E+01  1.101E-01  5.438E-01 7.8844202E+00 6.4900479E+00 3.3285649E+00
  9.957E+00  1.218E-01  5.217E-01 8.0306007E+00 6.3575860E+00 3.4625510E+00
  1.000E+01  8.849E-02  5.887E-01 7.7928151E+00 6.6498580E+00 3.0008280E+00
  9.957E+00  9.903E-02  5.661E-01 7.9793526E+00 6.5253347E+00 3.1438184E+00
  1.000E+01  6.913E-02  6.347E-01 7.6115528E+00 6.7858819E+00 2.6596959E+00
  9.957E+00  7.852E-02  6.116E-01 7.8401343E+00 6.6722335E+00 2.8108701E+00
  1.000E+01  5.207E-02  6.815E-01 7.5031752E+00 6.9091967E+00 2.3190086E+00
  9.957E+00  6.031E-02  6.580E-01 7.6735278E+00 6.7991446E+00 2.4708511E+00
  1.000E+01  3.738E-02  7.292E-01 7.4256710E+00 7.0226770E+00 1.9795435E+00
  9.957E+00  4.443E-02  7.052E-01 7.5983780E+00 6.9177569E+00 2.1344721E+00
  1.000E+01  2.507E-02  7.775E-01 7.3189856E+00 7.1147870E+00 1.6293547E+00
  9.957E+00  3.092E-02  7.532E-01 7.5079330E+00 7.0210097E+00 1.7932386E+00
  1.000E+01  1.519E-02  8.264E-01 7.2078809E+00 7.1837332E+00 1.2681207E+00
  9.957E+00  1.983E-02  8.019E-01 7.3950192E+00 7.1004583E+00 1.4391697E+00
  1.000E+01  7.761E-03  8.757E-01 7.1214068E+00 7.2347846E+00 9.0383701E-01
  9.957E+00  1.117E-02  8.510E-01 7.2913594E+00 7.1594599E+00 1.0780600E+00
  1.000E+01  2.796E-03  9.253E-01 7.0669362E+00 7.2701993E+00 5.4133911E-01
  9.957E+00  4.969E-03  9.004E-01 7.2201514E+00 7.2022663E+00 7.1708284E-01
  1.000E+01  3.108E-04  9.751E-01 7.0416083E+00 7.2886447E+00 1.8031651E-01
  9.957E+00  1.243E-03  9.502E-01 7.1830869E+00 7.2292765E+00 3.5811407E-01
  1.000E+01  3.108E-04  1.025E+00 7.0416088E+00 7.2886468E+00 -1.8030532E-01
  9.957E+00  0.000E+00  1.000E+00 7.1721324E+00 7.2386493E+00 6.1253446E-06
  1.000E+01  2.796E-03  1.075E+00 7.0669377E+00 7.2702066E+00 -5.4132800E-01
  9.957E+00  1.243E-03  1.050E+00 7.1830878E+00 7.2292817E+00 -3.5810187E-01
  1.000E+01  7.761E-03  1.124E+00 7.1214094E+00 7.2347960E+00 -9.0382600E-01
  9.957E+00  4.969E-03  1.100E+00 7.2201531E+00 7.2022776E+00 -7.1707079E-01
  1.000E+01  1.519E-02  1.174E+00 7.2078845E+00 7.1837388E+00 -1.2681098E+00
  9.957E+00  1.117E-02  1.149E+00 7.2913621E+00 7.1594715E+00 -1.0780481E+00
  1.000E+01  2.507E-02  1.223E+00 7.3189901E+00 7.1147726E+00 -1.6293440E+00
  9.957E+00  1.983E-02  1.198E+00 7.3950228E+00 7.1004551E+00 -1.4391580E+00
  1.000E+01  3.738E-02  1.271E+00 7.4256763E+00 7.0226584E+00 -1.9795330E+00
  9.957E+00  3.092E-02  1.247E+00 7.5079376E+00 7.0209886E+00 -1.7932270E+00
  1.000E+01  5.207E-02  1.318E+00 7.5031813E+00 6.9092118E+00 -2.3189984E+00
  9.957E+00  4.443E-02  1.295E+00 7.5983837E+00 6.9177517E+00 -2.1344608E+00
  1.000E+01  6.913E-02  1.365E+00 7.6115598E+00 6.7858951E+00 -2.6596860E+00
  9.957E+00  6.031E-02  1.342E+00 7.6735345E+00 6.7991690E+00 -2.4708401E+00
  1.000E+01  8.849E-02  1.411E+00 7.7928233E+00 6.6498247E+00 -3.0008179E+00
  9.957E+00  7.852E-02  1.388E+00 7.8401423E+00 6.6722190E+00 -2.8108594E+00
  1.000E+01  1.101E-01  1.456E+00 7.8844288E+00 6.4900507E+00 -3.3285552E+00
  9.957E+00  9.903E-02  1.434E+00 7.9793613E+00 6.5253104E+00 -3.1438077E+00
  1.000E+01  1.340E-01  1.500E+00 7.9623147E+00 6.3149279E+00 -3.6452099E+00
  9.957E+00  1.218E-01  1.478E+00 8.0306102E+00 6.3576096E+00 -3.4625412E+00
  1.000E+01  1.600E-01  1.543E+00 8.1165502E+00 6.1267815E+00 -3.9568381E+00
  9.957E+00  1.467E-01  1.521E+00 8.1997776E+00 6.1787241E+00 -3.7749126E+00
  1.000E+01  1.881E-01  1.584E+00 8.1377057E+00 5.9212563E+00 -4.2573023E+00
  9.957E+00  1.738E-01  1.563E+00 8.2447361E+00 5.9818357E+00 -4.0785707E+00
  1.000E+01  2.182E-01  1.623E+00 8.2372016E+00 5.7021352E+00 -4.5465982E+00
  9.957E+00  2.029E-01  1.604E+00 8.3359759E+00 5.7725101E+00 -4.3720960E+00
  1.000E+01  2.502E-01  1.662E+00 8.2482804E+00 5.4681747E+00 -4.8257765E+00
  9.957E+00  2.340E-01  1.643E+00 8.3936512E+00 5.5462274E+00 -4.6536504E+00
  1.000E+01  2.841E-01  1.698E+00 8.2983045E+00 5.2210851E+00 -5.0916588E+00
  9.957E+00  2.669E-01  1.680E+00 8.3931075E+00 5.3084163E+00 -4.9247232E+00
  1.000E+01  3.198E-01  1.733E+00 8.2615560E+00 4.9609789E+00 -5.3463385E+00
  9.957E+00  3.018E-01  1.716E+00 8.4303785E+00 5.0556070E+00 -5.1830504E+00
  1.000E+01  3.572E-01  1.766E+00 8.2613604E+00 4.6880612E+00 -5.5860965E+00
  9.957E+00  3.383E-01  1.750E+00 8.3796477E+00 4.7917908E+00 -5.4284276E+00
  1.000E+01  3.962E-01  1.797E+00 8.2039383E+00 4.4044455E+00 -5.8139931E+00
  9.957E+00  3.765E-01  1.782E+00 8.3689683E+00 4.5146803E+00 -5.6609009E+00
  1.000E+01  4.367E-01  1.826E+00 8.1126374E+00 4.1089523E+00 -6.0251923E+00
  9.957E+00  4.163E-01  1.812E+00 8.2687265E+00 4.2275382E+00 -5.8784717E+00
  1.000E+01  4.786E-01  1.853E+00 8.0671326E+00 3.8030357E+00 -6.2234057E+00
  9.957E+00  4.575E-01  1.840E+00 8.2484146E+00 3.9293328E+00 -6.0827957E+00
  1.000E+01  5.217E-01  1.878E+00 7.8988405E+00 3.4884537E+00 -6.4039350E+00
  9.957E+00  5.000E-01  1.866E+00 8.0930818E+00 3.6199510E+00 -6.2696913E+00
  1.000E+01  5.661E-01  1.901E+00 7.8463817E+00 3.1674088E+00 -6.5729331E+00
  9.957E+00  5.438E-01  1.890E+00 8.0157625E+00 3.3055989E+00 -6.4436275E+00
  1.000E+01  6.116E-01  1.921E+00 7.7075612E+00 2.8320044E+00 -6.7209351E+00
  9.957E+00  5.887E-01  1.912E+00 7.9243550E+00 2.9802342E+00 -6.6026375E+00
  1.000E+01  6.580E-01  1.940E+00 7.5415499E+00 2.4894687E+00 -6.8490975E+00
  9.957E+00  6.347E-01  1.931E+00 7.7419980E+00 2.6415032E+00 -6.7377942E+00
  1.000E+01  7.052E-01  1.956E+00 7.4654761E+00 2.1505932E+00 -6.9686681E+00
  9.957E+00  6.815E-01  1.948E+00 7.6339029E+00 2.3032279E+00 -6.8602857E+00
  1.000E+01  7.532E-01  1.969E+00 7.3746323E+00 1.8068449E+00 -7.0726841E+00
  9.957E+00  7.292E-01  1.963E+00 7.5569728E+00 1.9661055E+00 -6.9731851E+00
  1.000E+01  8.019E-01  1.980E+00 7.2619343E+00 1.4501474E+00 -7.1527980E+00
  9.957E+00  7.775E-01  1.975E+00 7.4501782E+00 1.6182800E+00 -7.0648337E+00
  1.000E+01  8.510E-01  1.989E+00 7.1585976E+00 1.0863131E+00 -7.2123631E+00
  9.957E+00  8.264E-01  1.985E+00 7.3386776E+00 1.2594927E+00 -7.1333971E+00
  1.000E+01  9.004E-01  1.995E+00 7.0875089E+00 7.2257596E-01 -7.2555820E+00
  9.957E+00  8.757E-01  1.992E+00 7.2519265E+00 8.9769211E-01 -7.1841446E+00
  1.000E+01  9.502E-01  1.999E+00 7.0504038E+00 3.6084901E-01 -7.2828282E+00
  9.957E+00  9.253E-01  1.997E+00 7.1973598E+00 5.3765935E-01 -7.2193412E+00
  1.000E+01  1.000E+00  2.000E+00 7.0394104E+00 -5.7646422E-06 -7.2922722E+00
  9.957E+00  9.751E-01  2.000E+00 7.1720299E+00 1.7908413E-01 -7.2376702E+00
  1.000E+01  1.050E+00  1.999E+00 7.0504042E+00 -3.6086135E-01 -7.2828290E+00
  9.957E+00  1.025E+00  2.000E+00 7.1720301E+00 -1.7909650E-01 -7.2376706E+00
  1.000E+01  1.100E+00  1.995E+00 7.0875098E+00 -7.2258778E-01 -7.2555835E+00
  9.957E+00  1.075E+00  1.997E+00 7.1973604E+00 -5.3767233E-01 -7.2193424E+00
  1.000E+01  1.149E+00  1.989E+00 7.1585988E+00 -1.0863247E+00 -7.2123654E+00
  9.957E+00  1.124E+00  1.992E+00 7.2519275E+00 -8.9770395E-01 -7.1841466E+00
  1.000E+01  1.198E+00  1.980E+00 7.2619360E+00 -1.4501597E+00 -7.1528010E+00
  9.957E+00  1.174E+00  1.985E+00 7.3386790E+00 -1.2595056E+00 -7.1333999E+00