# TIME = 3.400000
variables = x, y, z
zone N=5762 E=11520 F=FEPOINT ET=TRIANGLE
 6.8707843E+00 1.4713488E+00 1.7625847E+00
 6.8707843E+00 1.4713485E+00 2.3741551E-01
 6.8707843E+00 5.2865261E-01 1.7625846E+00
 6.8707843E+00 5.2865259E-01 2.3741506E-01
 5.7421683E+00 1.0000007E+00 1.5711263E+00
 8.0141082E+00 1.0000007E+00 1.5810293E+00
 5.7421673E+00 1.0000007E+00 4.2887262E-01
 8.0141077E+00 1.0000007E+00 4.1897098E-01
 6.2089656E+00 1.8627518E+00 9.9999983E-01
 6.2089658E+00 1.3725026E-01 9.9999983E-01
 7.5185702E+00 1.7997819E+00 9.9999984E-01
 7.5185704E+00 2.0021891E-01 9.9999983E-01
 6.8297104E+00 1.4646864E+00 1.7709117E+00
 6.7844125E+00 1.4568859E+00 1.7795952E+00
 6.7367912E+00 1.4481853E+00 1.7881391E+00
 6.6871377E+00 1.4384939E+00 1.7963238E+00
 6.6356292E+00 1.4276975E+00 1.8039122E+00
 6.5824535E+00 1.4156645E+00 1.8106306E+00
 6.5278013E+00 1.4022549E+00 1.8161753E+00
 6.4719173E+00 1.3873392E+00 1.8202129E+00
 6.4151105E+00 1.3708116E+00 1.8223976E+00
 6.3577577E+00 1.3526041E+00 1.8223925E+00
 6.3002990E+00 1.3326988E+00 1.8198966E+00
 6.2432269E+00 1.3111373E+00 1.8146701E+00
 6.1870666E+00 1.2880241E+00 1.8065573E+00
 6.1323499E+00 1.2635253E+00 1.7955010E+00
 6.0795866E+00 1.2378602E+00 1.7815493E+00
 6.0292351E+00 1.2112877E+00 1.7648499E+00
 5.9816787E+00 1.1840904E+00 1.7456377E+00
 5.9372091E+00 1.1565560E+00 1.7242136E+00
 5.8960205E+00 1.1289629E+00 1.7009226E+00
 5.8582155E+00 1.1015695E+00 1.6761320E+00
 5.8238365E+00 1.0746265E+00 1.6502329E+00
 5.7928772E+00 1.0483757E+00 1.6236254E+00
 5.7653418E+00 1.0231098E+00 1.5967734E+00
 6.8250405E+00 5.6746350E-01 1.7898299E+00
 6.7781646E+00 5.7723384E-01 1.7990956E+00
 6.7294900E+00 5.8748099E-01 1.8078239E+00
 6.6790605E+00 5.9866018E-01 1.8160151E+00
 6.6269500E+00 6.1099360E-01 1.8234881E+00
 6.5732891E+00 6.2461772E-01 1.8299667E+00
 6.5182747E+00 6.3964791E-01 1.8351290E+00
 6.4621667E+00 6.5618177E-01 1.8386277E+00
 6.4052951E+00 6.7428738E-01 1.8401109E+00
 6.3480563E+00 6.9399089E-01 1.8392459E+00
 6.2909053E+00 7.1526609E-01 1.8357468E+00
 6.2343418E+00 7.3802837E-01 1.8293992E+00
 6.1788885E+00 7.6213418E-01 1.8200813E+00
 6.1250646E+00 7.8738648E-01 1.8077752E+00
 6.0733563E+00 8.1354578E-01 1.7925697E+00
 6.0241901E+00 8.4034572E-01 1.7746513E+00
 5.9779116E+00 8.6751121E-01 1.7542880E+00
 5.9347712E+00 8.9477754E-01 1.7318058E+00
 5.8949211E+00 9.2190346E-01 1.7075636E+00
 5.8584036E+00 9.4867009E-01 1.6819128E+00
 5.8250981E+00 9.7483776E-01 1.6551122E+00
 5.7945906E+00 1.0000007E+00 1.6271531E+00
 6.8232018E+00 6.0081446E-01 1.8073634E+00
 6.7748274E+00 6.1242281E-01 1.8169960E+00
 6.7250760E+00 6.2425058E-01 1.8258276E+00
 6.6737571E+00 6.3699475E-01 1.8339814E+00
 6.6208877E+00 6.5092471E-01 1.8412850E+00
 6.5665755E+00 6.6617997E-01 1.8474541E+00
 6.5110212E+00 6.8285498E-01 1.8521507E+00
 6.4545055E+00 7.0101679E-01 1.8550145E+00
 6.3973810E+00 7.2069669E-01 1.8556886E+00
 6.3400661E+00 7.4187978E-01 1.8538457E+00
 6.2830333E+00 7.6449690E-01 1.8492168E+00
 6.2267924E+00 7.8842227E-01 1.8416151E+00
 6.1718667E+00 8.1347615E-01 1.8309558E+00
 6.1187649E+00 8.3943420E-01 1.8172631E+00
 6.0679514E+00 8.6604141E-01 1.8006696E+00
 6.0198212E+00 8.9303077E-01 1.7814018E+00
 5.9746787E+00 9.2014395E-01 1.7597598E+00
 5.9327208E+00 9.4715028E-01 1.7360838E+00
 5.8940034E+00 9.7384744E-01 1.7106981E+00
 5.8583516E+00 1.0000007E+00 1.6837920E+00
 5.8250981E+00 1.0251636E+00 1.6551122E+00
 6.8220307E+00 6.3598947E-01 1.8239309E+00
 6.7726066E+00 6.4916551E-01 1.8336017E+00
 6.7218842E+00 6.6257288E-01 1.8423971E+00
 6.6697143E+00 6.7690872E-01 1.8503921E+00
 6.6160842E+00 6.9246337E-01 1.8574065E+00
 6.5611116E+00 7.0936023E-01 1.8631365E+00
 6.5050133E+00 7.2767010E-01 1.8672295E+00
 6.4480927E+00 7.4742734E-01 1.8693159E+00
 6.3907265E+00 7.6862528E-01 1.8690382E+00
 6.3333544E+00 7.9120748E-01 1.8660799E+00
 6.2764647E+00 8.1506334E-01 1.8601942E+00
 6.2205749E+00 8.4002859E-01 1.8512278E+00
 6.1662049E+00 8.6589241E-01 1.8391366E+00
 6.1138487E+00 8.9241002E-01 1.8239900E+00
 6.0639442E+00 9.1932064E-01 1.8059638E+00
 6.0168471E+00 9.4636942E-01 1.7853207E+00
 5.9728053E+00 9.7332855E-01 1.7623776E+00
 5.9319156E+00 1.0000007E+00 1.7374466E+00
 5.8940033E+00 1.0261539E+00 1.7106981E+00
 5.8584035E+00 1.0513313E+00 1.6819129E+00
 6.8210584E+00 6.7307047E-01 1.8394264E+00
 6.7707302E+00 6.8773559E-01 1.8489445E+00
 6.7191632E+00 7.0269837E-01 1.8575355E+00
 6.6662267E+00 7.1863547E-01 1.8652210E+00
 6.6119252E+00 7.3581025E-01 1.8717882E+00
 6.5563895E+00 7.5432507E-01 1.8769170E+00
 6.4998588E+00 7.7422002E-01 1.8802429E+00
 6.4426592E+00 7.9549439E-01 1.8813928E+00
 6.3851893E+00 8.1810178E-01 1.8800159E+00
 6.3279062E+00 8.4194491E-01 1.8758140E+00
 6.2713086E+00 8.6687397E-01 1.8685700E+00
 6.2159149E+00 8.9269158E-01 1.8581690E+00
 6.1622342E+00 9.1916352E-01 1.8446112E+00
 6.1107374E+00 9.4603586E-01 1.8280104E+00
 6.0618255E+00 9.7305699E-01 1.8085804E+00
 6.0157990E+00 1.0000007E+00 1.7866045E+00
 5.9728052E+00 1.0266728E+00 1.7623776E+00
 5.9327208E+00 1.0528511E+00 1.7360839E+00
 5.8949210E+00 1.0780979E+00 1.7075638E+00
 6.8201607E+00 7.1205497E-01 1.8536686E+00
 6.7690255E+00 7.2816720E-01 1.8628682E+00
 6.7167221E+00 7.4467481E-01 1.8710926E+00
 6.6631405E+00 7.6219619E-01 1.8783008E+00
 6.6083002E+00 7.8095935E-01 1.8842506E+00
 6.5523515E+00 8.0103405E-01 1.8886068E+00
 6.4955542E+00 8.2242729E-01 1.8909997E+00
 6.4382553E+00 8.4510039E-01 1.8910603E+00
 6.3808707E+00 8.6896731E-01 1.8884527E+00
 6.3238692E+00 8.9389165E-01 1.8829046E+00
 6.2677525E+00 9.1968938E-01 1.8742349E+00
 6.2130307E+00 9.4613761E-01 1.8623714E+00
 6.1601929E+00 9.7299044E-01 1.8473585E+00
 6.1096754E+00 1.0000007E+00 1.8293492E+00
 6.0618255E+00 1.0269443E+00 1.8085804E+00
 6.0168471E+00 1.0536319E+00 1.7853208E+00
 5.9746786E+00 1.0798574E+00 1.7597600E+00
 5.9347711E+00 1.1052238E+00 1.7318060E+00
 6.8193375E+00 7.5284867E-01 1.8664355E+00
 6.7674961E+00 7.7037590E-01 1.8751594E+00
 6.7145791E+00 7.8840026E-01 1.8828513E+00
 6.6604920E+00 8.0746468E-01 1.8894111E+00
 6.6052701E+00 8.2775079E-01 1.8945711E+00
 6.5490817E+00 8.4929259E-01 1.8979875E+00
 6.4922054E+00 8.7206045E-01 1.8992926E+00
 6.4350049E+00 8.9597771E-01 1.8981293E+00
 6.3779078E+00 9.2091993E-01 1.8941850E+00
 6.3213871E+00 9.4671610E-01 1.8872203E+00
 6.2659388E+00 9.7315526E-01 1.8770947E+00
 6.2120551E+00 1.0000007E+00 1.8637794E+00
 6.1601929E+00 1.0270109E+00 1.8473585E+00
 6.1107374E+00 1.0539655E+00 1.8280105E+00
 6.0639441E+00 1.0806807E+00 1.8059639E+00
 6.0198211E+00 1.1069706E+00 1.7814020E+00
 5.9779115E+00 1.1324902E+00 1.7542882E+00
 6.8186123E+00 7.9529397E-01 1.8775000E+00
 6.7661825E+00 8.1418988E-01 1.8855928E+00
 6.7127891E+00 8.3367686E-01 1.8925860E+00
 6.6583512E+00 8.5421020E-01 1.8983279E+00
 6.6029182E+00 8.7591916E-01 1.9025326E+00
 6.5466747E+00 8.9879861E-01 1.9048547E+00
 6.4899143E+00 9.2278216E-01 1.9049364E+00
 6.4330122E+00 9.4775610E-01 1.9024410E+00
 6.3764011E+00 9.7356183E-01 1.8970857E+00
 6.3205498E+00 1.0000007E+00 1.8886698E+00
 6.2659388E+00 1.0268461E+00 1.8770947E+00
 6.2130307E+00 1.0538637E+00 1.8623715E+00
 6.1622342E+00 1.0808378E+00 1.8446113E+00
 6.1138486E+00 1.1075913E+00 1.8239902E+00
 6.0679513E+00 1.1339600E+00 1.8006698E+00
 6.0241900E+00 1.1596557E+00 1.7746516E+00
 6.8180070E+00 8.3918030E-01 1.8866486E+00
 6.7651223E+00 8.5937102E-01 1.8939572E+00
 6.7114025E+00 8.8023434E-01 1.9000899E+00
 6.6567785E+00 9.0212754E-01 1.9048532E+00
 6.6013125E+00 9.2512302E-01 1.9079512E+00
 6.5452019E+00 9.4917596E-01 1.9090450E+00
 6.4887513E+00 9.7418407E-01 1.9077945E+00
 6.4323409E+00 1.0000007E+00 1.9038903E+00
 6.3764010E+00 1.0264395E+00 1.8970858E+00
 6.3213871E+00 1.0532852E+00 1.8872204E+00
 6.2677525E+00 1.0803120E+00 1.8742350E+00
 6.2159148E+00 1.1073098E+00 1.8581691E+00
 6.1662048E+00 1.1341090E+00 1.8391368E+00
 6.1187648E+00 1.1605672E+00 1.8172634E+00
 6.0733561E+00 1.1864556E+00 1.7925700E+00
 6.8175387E+00 8.8424649E-01 1.8936921E+00
 6.7643444E+00 9.0562735E-01 1.9000719E+00
 6.7104570E+00 9.2774725E-01 1.9051934E+00
 6.6558174E+00 9.5085657E-01 1.9088333E+00
 6.6004982E+00 9.7496898E-01 1.9106949E+00
 6.5447062E+00 1.0000007E+00 1.9104538E+00
 6.4887513E+00 1.0258173E+00 1.9077945E+00
 6.4330122E+00 1.0522452E+00 1.9024410E+00
 6.3779078E+00 1.0790814E+00 1.8941851E+00
 6.3238692E+00 1.1061097E+00 1.8829048E+00
 6.2713086E+00 1.1331274E+00 1.8685702E+00
 6.2205748E+00 1.1599728E+00 1.8512280E+00
 6.1718666E+00 1.1865253E+00 1.8309561E+00
 6.1250644E+00 1.2126150E+00 1.8077756E+00
 6.8172195E+00 9.3018832E-01 1.8984779E+00
 6.7638694E+00 9.5262496E-01 1.9037987E+00
 6.7099779E+00 9.7584973E-01 1.9077763E+00
 6.6554942E+00 1.0000007E+00 1.9101711E+00
 6.6004982E+00 1.0250324E+00 1.9106949E+00
 6.5452019E+00 1.0508254E+00 1.9090451E+00
 6.4899143E+00 1.0772192E+00 1.9049365E+00
 6.4350049E+00 1.1040236E+00 1.8981295E+00
 6.3808707E+00 1.1310340E+00 1.8884528E+00
 6.3279061E+00 1.1580565E+00 1.8758143E+00
 6.2764647E+00 1.1849381E+00 1.8601945E+00
 6.2267923E+00 1.2115792E+00 1.8416155E+00
 6.1788883E+00 1.2378673E+00 1.8200817E+00
 6.8170578E+00 9.7666925E-01 1.9008985E+00
 6.7637097E+00 1.0000007E+00 1.9050508E+00
 6.7099779E+00 1.0241516E+00 1.9077763E+00
 6.6558174E+00 1.0491448E+00 1.9088334E+00
 6.6013125E+00 1.0748783E+00 1.9079512E+00
 6.5466747E+00 1.1012027E+00 1.9048548E+00
 6.4922054E+00 1.1279409E+00 1.8992927E+00
 6.4382553E+00 1.1549010E+00 1.8910605E+00
 6.3851892E+00 1.1818996E+00 1.8800162E+00
 6.3333544E+00 1.2087939E+00 1.8660802E+00
 6.2830332E+00 1.2355045E+00 1.8492171E+00
 6.2343416E+00 1.2619731E+00 1.8293996E+00
 6.8170578E+00 1.0233321E+00 1.9008985E+00
 6.7638694E+00 1.0473764E+00 1.9037987E+00
 6.7104570E+00 1.0722541E+00 1.9051934E+00
 6.6567785E+00 1.0978738E+00 1.9048533E+00
 6.6029182E+00 1.1240822E+00 1.9025327E+00
 6.5490817E+00 1.1507088E+00 1.8979877E+00
 6.4955542E+00 1.1775741E+00 1.8909999E+00
 6.4426592E+00 1.2045070E+00 1.8813930E+00
 6.3907265E+00 1.2313761E+00 1.8690385E+00
 6.3400660E+00 1.2581217E+00 1.8538461E+00
 6.2909052E+00 1.2847354E+00 1.8357472E+00
 6.8172195E+00 1.0698130E+00 1.8984779E+00
 6.7643444E+00 1.0943740E+00 1.9000720E+00
 6.7114025E+00 1.1197670E+00 1.9000900E+00
 6.6583512E+00 1.1457911E+00 1.8983280E+00
 6.6052701E+00 1.1722506E+00 1.8945712E+00
 6.5523515E+00 1.1989673E+00 1.8886070E+00
 6.4998588E+00 1.2257814E+00 1.8802431E+00
 6.4480927E+00 1.2525741E+00 1.8693162E+00
 6.3973810E+00 1.2793048E+00 1.8556890E+00
 6.3480563E+00 1.3060106E+00 1.8392464E+00
 6.8175387E+00 1.1157549E+00 1.8936922E+00
 6.7651223E+00 1.1406303E+00 1.8939572E+00
 6.7127891E+00 1.1663245E+00 1.8925861E+00
 6.6604920E+00 1.1925367E+00 1.8894112E+00
 6.6083002E+00 1.2190420E+00 1.8842508E+00
 6.5563895E+00 1.2456763E+00 1.8769173E+00
 6.5050133E+00 1.2723313E+00 1.8672298E+00
 6.4545054E+00 1.2989847E+00 1.8550148E+00
 6.4052951E+00 1.3257141E+00 1.8401113E+00
 6.8180071E+00 1.1608210E+00 1.8866486E+00
 6.7661825E+00 1.1858115E+00 1.8855929E+00
 6.7145791E+00 1.2116011E+00 1.8828515E+00
 6.6631405E+00 1.2378052E+00 1.8783009E+00
 6.6119252E+00 1.2641912E+00 1.8717884E+00
 6.5611116E+00 1.2906412E+00 1.8631367E+00
 6.5110212E+00 1.3171465E+00 1.8521510E+00
 6.4621666E+00 1.3438197E+00 1.8386281E+00
 6.8186123E+00 1.2047074E+00 1.8775001E+00
 6.7674961E+00 1.2296255E+00 1.8751595E+00
 6.7167221E+00 1.2553266E+00 1.8710928E+00
 6.6662267E+00 1.2813659E+00 1.8652212E+00
 6.6160842E+00 1.3075381E+00 1.8574067E+00
 6.5665755E+00 1.3338215E+00 1.8474544E+00
 6.5182747E+00 1.3603536E+00 1.8351294E+00
 6.8193375E+00 1.2471527E+00 1.8664356E+00
 6.7690255E+00 1.2718342E+00 1.8628684E+00
 6.7191632E+00 1.2973030E+00 1.8575357E+00
 6.6697143E+00 1.3230927E+00 1.8503924E+00
 6.6208877E+00 1.3490767E+00 1.8412853E+00
 6.5732891E+00 1.3753838E+00 1.8299670E+00
 6.8201607E+00 1.2879464E+00 1.8536687E+00
 6.7707303E+00 1.3122658E+00 1.8489446E+00
 6.7218842E+00 1.3374285E+00 1.8423972E+00
 6.6737571E+00 1.3630067E+00 1.8339816E+00
 6.6269500E+00 1.3890079E+00 1.8234883E+00
 6.8210584E+00 1.3269309E+00 1.8394266E+00
 6.7726066E+00 1.3508359E+00 1.8336018E+00
 6.7250760E+00 1.3757509E+00 1.8258278E+00
 6.6790605E+00 1.4013413E+00 1.8160154E+00
 6.8220307E+00 1.3640119E+00 1.8239311E+00
 6.7748274E+00 1.3875786E+00 1.8169962E+00
 6.7294900E+00 1.4125205E+00 1.8078241E+00
 6.8232018E+00 1.3991869E+00 1.8073636E+00
 6.7781646E+00 1.4227676E+00 1.7990957E+00
 6.8250406E+00 1.4325379E+00 1.7898300E+00
 6.8706475E+00 1.4434837E+00 1.7791963E+00
 6.8705064E+00 1.4119935E+00 1.7963309E+00
 6.8704175E+00 1.3783207E+00 1.8128905E+00
 6.8703537E+00 1.3425659E+00 1.8286073E+00
 6.8703027E+00 1.3048337E+00 1.8432322E+00
 6.8702581E+00 1.2652514E+00 1.8565204E+00
 6.8702191E+00 1.2239614E+00 1.8682434E+00
 6.8701858E+00 1.1811503E+00 1.8781841E+00
 6.8701589E+00 1.1370534E+00 1.8861454E+00
 6.8701392E+00 1.0919489E+00 1.8919605E+00
 6.8701271E+00 1.0461513E+00 1.8955025E+00
 6.8701230E+00 1.0000007E+00 1.8966922E+00
 6.8701271E+00 9.5385002E-01 1.8955025E+00
 6.8701392E+00 9.0805249E-01 1.8919605E+00
 6.8701589E+00 8.6294796E-01 1.8861454E+00
 6.8701857E+00 8.1885103E-01 1.8781841E+00
 6.8702191E+00 7.7603999E-01 1.8682433E+00
 6.8702581E+00 7.3474999E-01 1.8565204E+00
 6.8703026E+00 6.9516763E-01 1.8432322E+00
 6.8703537E+00 6.5743544E-01 1.8286072E+00
 6.8704175E+00 6.2168071E-01 1.8128904E+00
 6.8705064E+00 5.8800785E-01 1.7963308E+00
 6.8706475E+00 5.5651766E-01 1.7791962E+00
 6.9116863E+00 5.3916975E-01 1.7645770E+00
 6.9566565E+00 5.5098290E-01 1.7662728E+00
 7.0038039E+00 5.6356388E-01 1.7675847E+00
 7.0528253E+00 5.7687582E-01 1.7684959E+00
 7.1035194E+00 5.9091394E-01 1.7689823E+00
 7.1556791E+00 6.0569101E-01 1.7690052E+00
 7.2091015E+00 6.2123830E-01 1.7685065E+00
 7.2635451E+00 6.3759262E-01 1.7674040E+00
 7.3187305E+00 6.5479451E-01 1.7655908E+00
 7.3743439E+00 6.7288350E-01 1.7629367E+00
 7.4300477E+00 6.9189338E-01 1.7592943E+00
 7.4854882E+00 7.1184638E-01 1.7545059E+00
 7.5403049E+00 7.3274663E-01 1.7484153E+00
 7.5941390E+00 7.5457489E-01 1.7408786E+00
 7.6466415E+00 7.7728426E-01 1.7317766E+00
 7.6974824E+00 8.0079899E-01 1.7210238E+00
 7.7463603E+00 8.2501543E-01 1.7085762E+00
 7.7930098E+00 8.4980648E-01 1.6944344E+00
 7.8372080E+00 8.7502654E-01 1.6786447E+00
 7.8787715E+00 9.0051751E-01 1.6612976E+00
 7.9175297E+00 9.2609686E-01 1.6425419E+00
 7.9533255E+00 9.5156543E-01 1.6225779E+00
 7.9859479E+00 9.7663124E-01 1.6017140E+00
 6.9160725E+00 1.4284864E+00 1.7826631E+00
 6.9626426E+00 1.4148924E+00 1.7845415E+00
 7.0108477E+00 1.4010735E+00 1.7857306E+00
 7.0606392E+00 1.3866530E+00 1.7864173E+00
 7.1119243E+00 1.3715029E+00 1.7866311E+00
 7.1645551E+00 1.3555871E+00 1.7863313E+00
 7.2183249E+00 1.3388818E+00 1.7854485E+00
 7.2729806E+00 1.3213610E+00 1.7838891E+00
 7.3282257E+00 1.3029977E+00 1.7815371E+00
 7.3837330E+00 1.2837677E+00 1.7782555E+00
 7.4391547E+00 1.2636559E+00 1.7738935E+00
 7.4941322E+00 1.2426619E+00 1.7682950E+00
 7.5483053E+00 1.2208054E+00 1.7613100E+00
 7.6013206E+00 1.1981307E+00 1.7528070E+00
 7.6528403E+00 1.1747082E+00 1.7426836E+00
 7.7025516E+00 1.1506337E+00 1.7308757E+00
 7.7501748E+00 1.1260233E+00 1.7173631E+00
 7.7954720E+00 1.1010054E+00 1.7021705E+00
 7.8382528E+00 1.0757128E+00 1.6853647E+00
 7.8783942E+00 1.0502875E+00 1.6670359E+00
 7.9159179E+00 1.0249181E+00 1.6472384E+00
 7.9511782E+00 1.0000007E+00 1.6258452E+00
 6.9176662E+00 1.3952683E+00 1.7997744E+00
 6.9657523E+00 1.3800556E+00 1.8016258E+00
 7.0150453E+00 1.3649645E+00 1.8026085E+00
 7.0657266E+00 1.3493450E+00 1.8030092E+00
 7.1177642E+00 1.3330038E+00 1.8028705E+00
 7.1710359E+00 1.3158851E+00 1.8021506E+00
 7.2253328E+00 1.2979685E+00 1.8007718E+00
 7.2803842E+00 1.2792375E+00 1.7986322E+00
 7.3358757E+00 1.2596778E+00 1.7956081E+00
 7.3914634E+00 1.2392816E+00 1.7915573E+00
 7.4467873E+00 1.2180533E+00 1.7863272E+00
 7.5014810E+00 1.1960148E+00 1.7797645E+00
 7.5551824E+00 1.1732098E+00 1.7717280E+00
 7.6075419E+00 1.1497064E+00 1.7621002E+00
 7.6582326E+00 1.1255960E+00 1.7507982E+00
 7.7069594E+00 1.1009888E+00 1.7377805E+00
 7.7534699E+00 1.0760036E+00 1.7230498E+00
 7.7975701E+00 1.0507565E+00 1.7066456E+00
 7.8391663E+00 1.0253638E+00 1.6886157E+00
 7.8783872E+00 1.0000007E+00 1.6689295E+00
 7.9159179E+00 9.7508322E-01 1.6472384E+00
 6.9186714E+00 1.3603403E+00 1.8160043E+00
 6.9678130E+00 1.3438501E+00 1.8175721E+00
 7.0180784E+00 1.3275194E+00 1.8182304E+00
 7.0696062E+00 1.3106911E+00 1.8182377E+00
 7.1223957E+00 1.2931376E+00 1.8176353E+00
 7.1763150E+00 1.2748048E+00 1.8163740E+00
 7.2311414E+00 1.2556778E+00 1.8143698E+00
 7.2865843E+00 1.2357510E+00 1.8115140E+00
 7.3423100E+00 1.2150246E+00 1.8076777E+00
 7.3979587E+00 1.1935085E+00 1.8027162E+00
 7.4531586E+00 1.1712277E+00 1.7964781E+00
 7.5075376E+00 1.1482268E+00 1.7888167E+00
 7.5607339E+00 1.1245725E+00 1.7796033E+00
 7.6124053E+00 1.1003535E+00 1.7687380E+00
 7.6622404E+00 1.0756759E+00 1.7561594E+00
 7.7099700E+00 1.0506533E+00 1.7418480E+00
 7.7553883E+00 1.0253935E+00 1.7258197E+00
 7.7983991E+00 1.0000007E+00 1.7080972E+00
 7.8391664E+00 9.7463755E-01 1.6886157E+00
 7.8783942E+00 9.4971387E-01 1.6670359E+00
 6.9195243E+00 1.3235634E+00 1.8311896E+00
 6.9695697E+00 1.3059247E+00 1.8323110E+00
 7.0206766E+00 1.2884160E+00 1.8325074E+00
 7.0729643E+00 1.2703958E+00 1.8319970E+00
 7.1264147E+00 1.2516531E+00 1.8308020E+00
 7.1808842E+00 1.2321393E+00 1.8288660E+00
 7.2361295E+00 1.2118510E+00 1.8260994E+00
 7.2918406E+00 1.1907954E+00 1.8223893E+00
 7.3476661E+00 1.1689890E+00 1.8176046E+00
 7.4032331E+00 1.1464607E+00 1.8116018E+00
 7.4581624E+00 1.1232565E+00 1.8042353E+00
 7.5120804E+00 1.0994425E+00 1.7953697E+00
 7.5646314E+00 1.0751054E+00 1.7848928E+00
 7.6154876E+00 1.0503477E+00 1.7727250E+00
 7.6643629E+00 1.0252787E+00 1.7588262E+00
 7.7110332E+00 1.0000007E+00 1.7431904E+00
 7.7553883E+00 9.7460782E-01 1.7258198E+00
 7.7975701E+00 9.4924487E-01 1.7066456E+00
 7.8382528E+00 9.2428855E-01 1.6853647E+00
 6.9203237E+00 1.2849262E+00 1.8451374E+00
 6.9711755E+00 1.2662210E+00 1.8456728E+00
 7.0230151E+00 1.2475793E+00 1.8452769E+00
 7.0759414E+00 1.2284114E+00 1.8441172E+00
 7.1299219E+00 1.2085304E+00 1.8421965E+00
 7.1847944E+00 1.1879037E+00 1.8394507E+00
 7.2402971E+00 1.1665402E+00 1.8357871E+00
 7.2961022E+00 1.1444626E+00 1.8310916E+00
 7.3518446E+00 1.1217043E+00 1.8252348E+00
 7.4071427E+00 1.0983137E+00 1.8180787E+00
 7.4616151E+00 1.0743570E+00 1.8094884E+00
 7.5148937E+00 1.0499186E+00 1.7993442E+00
 7.5666365E+00 1.0250982E+00 1.7875530E+00
 7.6165403E+00 1.0000007E+00 1.7740559E+00
 7.6643629E+00 9.7472261E-01 1.7588262E+00
 7.7099700E+00 9.4934805E-01 1.7418480E+00
 7.7534699E+00 9.2399778E-01 1.7230499E+00
 7.7954721E+00 8.9899594E-01 1.7021706E+00
 6.9210611E+00 1.2445182E+00 1.8576320E+00
 6.9726190E+00 1.2248145E+00 1.8574556E+00
 7.0250700E+00 1.2050981E+00 1.8563390E+00
 7.0784977E+00 1.1848476E+00 1.8543996E+00
 7.1328544E+00 1.1639091E+00 1.8516220E+00
 7.1879612E+00 1.1422680E+00 1.8479370E+00
 7.2435396E+00 1.1199483E+00 1.8432514E+00
 7.2992479E+00 1.0969882E+00 1.8374536E+00
 7.3547119E+00 1.0734390E+00 1.8304201E+00
 7.4095471E+00 1.0493671E+00 1.8220231E+00
 7.4633767E+00 1.0248556E+00 1.8121425E+00
 7.5158458E+00 1.0000007E+00 1.8006769E+00
 7.5666365E+00 9.7490319E-01 1.7875530E+00
 7.6154876E+00 9.4965369E-01 1.7727250E+00
 7.6622404E+00 9.2432543E-01 1.7561594E+00
 7.7069594E+00 8.9901258E-01 1.7377806E+00
 7.7501748E+00 8.7397803E-01 1.7173632E+00
 6.9217119E+00 1.2024948E+00 1.8684549E+00
 6.9738596E+00 1.1818706E+00 1.8674491E+00
 7.0267869E+00 1.1611592E+00 1.8654882E+00
 7.0805641E+00 1.1399180E+00 1.8626443E+00
 7.1351305E+00 1.1180316E+00 1.8588870E+00
 7.1902923E+00 1.0955050E+00 1.8541456E+00
 7.2457579E+00 1.0723778E+00 1.8483296E+00
 7.3011764E+00 1.0487040E+00 1.8413337E+00
 7.3561701E+00 1.0245511E+00 1.8330445E+00
 7.4103583E+00 1.0000007E+00 1.8233483E+00
 7.4633767E+00 9.7514575E-01 1.8121425E+00
 7.5148937E+00 9.5008270E-01 1.7993442E+00
 7.5646314E+00 9.2489597E-01 1.7848928E+00
 7.6124053E+00 8.9964783E-01 1.7687380E+00
 7.6582326E+00 8.7440529E-01 1.7507983E+00
 7.7025516E+00 8.4936768E-01 1.7308758E+00
 6.9222552E+00 1.1590627E+00 1.8774002E+00
 6.9748609E+00 1.1376184E+00 1.8754560E+00
 7.0281168E+00 1.1160175E+00 1.8725359E+00
 7.0820821E+00 1.0939060E+00 1.8686737E+00
 7.1366844E+00 1.0712098E+00 1.8638290E+00
 7.1917186E+00 1.0479548E+00 1.8579327E+00
 7.2468840E+00 1.0241957E+00 1.8509008E+00
 7.3018261E+00 1.0000007E+00 1.8426380E+00
 7.3561701E+00 9.7545023E-01 1.8330445E+00
 7.4095471E+00 9.5063424E-01 1.8220231E+00
 7.4616151E+00 9.2564436E-01 1.8094884E+00
 7.5120804E+00 9.0055882E-01 1.7953698E+00
 7.5607339E+00 8.7542887E-01 1.7796033E+00
 7.6075419E+00 8.5029496E-01 1.7621002E+00
 7.6528404E+00 8.2529317E-01 1.7426836E+00
 6.9226756E+00 1.1144781E+00 1.8842852E+00
 6.9755955E+00 1.0923383E+00 1.8813068E+00
 7.0290236E+00 1.0699798E+00 1.8773269E+00
 7.0830097E+00 1.0471448E+00 1.8723499E+00
 7.1374723E+00 1.0238031E+00 1.8663307E+00
 7.1921986E+00 1.0000007E+00 1.8592057E+00
 7.2468840E+00 9.7580568E-01 1.8509008E+00
 7.3011764E+00 9.5129734E-01 1.8413338E+00
 7.3547119E+00 9.2656236E-01 1.8304201E+00
 7.4071427E+00 9.0168759E-01 1.8180787E+00
 7.4581624E+00 8.7674486E-01 1.8042353E+00
 7.5075376E+00 8.5177456E-01 1.7888168E+00
 7.5551825E+00 8.2679155E-01 1.7717281E+00
 7.6013206E+00 8.0187067E-01 1.7528071E+00
 6.9229620E+00 1.0690384E+00 1.8889624E+00
 6.9760441E+00 1.0463500E+00 1.8848716E+00
 7.0294831E+00 1.0233893E+00 1.8797509E+00
 7.0833217E+00 1.0000007E+00 1.8735852E+00
 7.1374723E+00 9.7619824E-01 1.8663307E+00
 7.1917186E+00 9.5204651E-01 1.8579327E+00
 7.2457579E+00 9.2762358E-01 1.8483296E+00
 7.2992479E+00 9.0301312E-01 1.8374536E+00
 7.3518446E+00 8.7829704E-01 1.8252348E+00
 7.4032331E+00 8.5354065E-01 1.8116018E+00
 7.4531586E+00 8.2877366E-01 1.7964781E+00
 7.5014811E+00 8.0398658E-01 1.7797646E+00
 7.5483053E+00 7.7919592E-01 1.7613101E+00
 6.9231071E+00 1.0230724E+00 1.8913278E+00
 6.9761949E+00 1.0000007E+00 1.8860692E+00
 7.0294831E+00 9.7661203E-01 1.8797509E+00
 7.0830097E+00 9.5285656E-01 1.8723499E+00
 7.1366844E+00 9.2879149E-01 1.8638291E+00
 7.1902923E+00 9.0449633E-01 1.8541456E+00
 7.2435396E+00 8.8005304E-01 1.8432514E+00
 7.2961022E+00 8.5553875E-01 1.8310916E+00
 7.3476661E+00 8.3101228E-01 1.8176047E+00
 7.3979587E+00 8.0649287E-01 1.8027162E+00
 7.4467873E+00 7.8194802E-01 1.7863273E+00
 7.4941322E+00 7.5733943E-01 1.7682950E+00
 6.9231071E+00 9.7692889E-01 1.8913278E+00
 6.9760441E+00 9.5365129E-01 1.8848716E+00
 7.0290236E+00 9.3002155E-01 1.8773269E+00
 7.0820821E+00 9.0609536E-01 1.8686737E+00
 7.1351305E+00 8.8196974E-01 1.8588870E+00
 7.1879612E+00 8.5773331E-01 1.8479370E+00
 7.2402971E+00 8.3346110E-01 1.8357871E+00
 7.2918406E+00 8.0920590E-01 1.8223893E+00
 7.3423100E+00 7.8497677E-01 1.8076778E+00
 7.3914634E+00 7.6071971E-01 1.7915574E+00
 7.4391547E+00 7.3634541E-01 1.7738936E+00
 6.9229620E+00 9.3096295E-01 1.8889624E+00
 6.9755955E+00 9.0766303E-01 1.8813068E+00
 7.0281168E+00 8.8398380E-01 1.8725359E+00
 7.0805641E+00 8.6008332E-01 1.8626443E+00
 7.1328544E+00 8.3609219E-01 1.8516220E+00
 7.1847944E+00 8.1209763E-01 1.8394508E+00
 7.2361295E+00 7.8815036E-01 1.8260994E+00
 7.2865843E+00 7.6425032E-01 1.8115140E+00
 7.3358757E+00 7.4032351E-01 1.7956082E+00
 7.3837330E+00 7.1623362E-01 1.7782556E+00
 6.9226756E+00 8.8552324E-01 1.8842852E+00
 6.9748609E+00 8.6238298E-01 1.8754560E+00
 7.0267869E+00 8.3884216E-01 1.8654881E+00
 7.0784977E+00 8.1515377E-01 1.8543996E+00
 7.1299219E+00 7.9147091E-01 1.8421965E+00
 7.1808842E+00 7.6786205E-01 1.8288660E+00
 7.2311414E+00 7.4432354E-01 1.8143698E+00
 7.2803842E+00 7.2076381E-01 1.7986323E+00
 7.3282257E+00 6.9700364E-01 1.7815371E+00
 6.9222552E+00 8.4093863E-01 1.8774001E+00
 6.9738596E+00 8.1813079E-01 1.8674491E+00
 7.0250700E+00 7.9490322E-01 1.8563389E+00
 7.0759414E+00 7.7158991E-01 1.8441172E+00
 7.1264147E+00 7.4834829E-01 1.8308020E+00
 7.1763150E+00 7.2519649E-01 1.8163740E+00
 7.2253328E+00 7.0203283E-01 1.8007719E+00
 7.2729806E+00 6.7864028E-01 1.7838892E+00
 6.9217119E+00 7.9750655E-01 1.8684549E+00
 6.9726190E+00 7.7518680E-01 1.8574555E+00
 7.0230151E+00 7.5242203E-01 1.8452768E+00
 7.0729643E+00 7.2960554E-01 1.8319970E+00
 7.1223957E+00 7.0686370E-01 1.8176353E+00
 7.1710359E+00 6.8411626E-01 1.8021506E+00
 7.2183249E+00 6.6111953E-01 1.7854486E+00
 6.9210611E+00 7.5548316E-01 1.8576320E+00
 6.9711755E+00 7.3378032E-01 1.8456728E+00
 7.0206766E+00 7.1158532E-01 1.8325073E+00
 7.0696062E+00 6.8931023E-01 1.8182377E+00
 7.1177642E+00 6.6699755E-01 1.8028705E+00
 7.1645551E+00 6.4441426E-01 1.7863313E+00
 6.9203237E+00 7.1507514E-01 1.8451373E+00
 6.9695697E+00 6.9407666E-01 1.8323109E+00
 7.0180783E+00 6.7248191E-01 1.8182304E+00
 7.0657266E+00 6.5065637E-01 1.8030092E+00
 7.1119243E+00 6.2849839E-01 1.7866311E+00
 6.9195243E+00 6.7643800E-01 1.8311895E+00
 6.9678130E+00 6.5615121E-01 1.8175721E+00
 7.0150453E+00 6.3503683E-01 1.8026085E+00
 7.0606392E+00 6.1334834E-01 1.7864173E+00
 6.9186714E+00 6.3966112E-01 1.8160042E+00
 6.9657523E+00 6.1994579E-01 1.8016257E+00
 7.0108477E+00 5.9892788E-01 1.7857306E+00
 6.9176661E+00 6.0473304E-01 1.7997743E+00
 6.9626426E+00 5.8510902E-01 1.7845414E+00
 6.9160725E+00 5.7151496E-01 1.7826631E+00
 6.8453328E+00 1.4946773E+00 1.7504496E+00
 6.8172653E+00 1.5200058E+00 1.7360013E+00
 6.7879101E+00 1.5460537E+00 1.7197057E+00
 6.7574312E+00 1.5725678E+00 1.7014857E+00
 6.7259718E+00 1.5993331E+00 1.6812415E+00
 6.6936884E+00 1.6261244E+00 1.6588743E+00
 6.6607443E+00 1.6527106E+00 1.6342923E+00
 6.6273290E+00 1.6788342E+00 1.6074347E+00
 6.5936607E+00 1.7042153E+00 1.5782826E+00
 6.5599801E+00 1.7285610E+00 1.5468685E+00
 6.5265439E+00 1.7515776E+00 1.5132821E+00
 6.4936161E+00 1.7729846E+00 1.4776730E+00
 6.4614580E+00 1.7925295E+00 1.4402496E+00
 6.4303190E+00 1.8099999E+00 1.4012732E+00
 6.4004270E+00 1.8252349E+00 1.3610493E+00
 6.3719803E+00 1.8381312E+00 1.3199137E+00
 6.3451401E+00 1.8486465E+00 1.2782171E+00
 6.3200271E+00 1.8567973E+00 1.2363087E+00
 6.2967207E+00 1.8626538E+00 1.1945221E+00
 6.2752660E+00 1.8663308E+00 1.1531685E+00
 6.2556935E+00 1.8679798E+00 1.1125583E+00
 6.2380191E+00 1.8677796E+00 1.0729895E+00
 6.2222929E+00 1.8659458E+00 1.0349109E+00
 5.7600478E+00 1.0670941E+00 1.5877869E+00
 5.7550972E+00 1.1106778E+00 1.5757023E+00
 5.7518272E+00 1.1552722E+00 1.5616100E+00
 5.7507865E+00 1.2010274E+00 1.5457383E+00
 5.7522937E+00 1.2478080E+00 1.5280955E+00
 5.7565863E+00 1.2953465E+00 1.5086498E+00
 5.7638621E+00 1.3433014E+00 1.4873917E+00
 5.7742799E+00 1.3912789E+00 1.4643550E+00
 5.7879453E+00 1.4388436E+00 1.4396219E+00
 5.8048978E+00 1.4855347E+00 1.4133237E+00
 5.8251018E+00 1.5308851E+00 1.3856382E+00
 5.8484410E+00 1.5744414E+00 1.3567858E+00
 5.8747196E+00 1.6157848E+00 1.3270223E+00
 5.9036677E+00 1.6545504E+00 1.2966295E+00
 5.9349528E+00 1.6904432E+00 1.2659033E+00
 5.9681962E+00 1.7232506E+00 1.2351412E+00
 6.0029926E+00 1.7528483E+00 1.2046296E+00
 6.0389335E+00 1.7792018E+00 1.1746320E+00
 6.0756256E+00 1.8023582E+00 1.1453797E+00
 6.1127026E+00 1.8224348E+00 1.1170478E+00
 6.1498147E+00 1.8396017E+00 1.0896691E+00
 6.1865455E+00 1.8540495E+00 1.0629175E+00
 5.7891910E+00 1.0947221E+00 1.6146688E+00
 5.7858902E+00 1.1402873E+00 1.6025878E+00
 5.7842221E+00 1.1862735E+00 1.5883073E+00
 5.7848629E+00 1.2331141E+00 1.5721369E+00
 5.7881573E+00 1.2807564E+00 1.5540966E+00
 5.7943284E+00 1.3289415E+00 1.5341483E+00
 5.8035463E+00 1.3773073E+00 1.5122827E+00
 5.8159349E+00 1.4254289E+00 1.4885431E+00
 5.8315580E+00 1.4728440E+00 1.4630287E+00
 5.8504084E+00 1.5190741E+00 1.4358925E+00
 5.8723993E+00 1.5636463E+00 1.4073373E+00
 5.8973637E+00 1.6061158E+00 1.3776099E+00
 5.9250575E+00 1.6460868E+00 1.3469916E+00
 5.9551700E+00 1.6832310E+00 1.3157870E+00
 5.9873389E+00 1.7173022E+00 1.2843103E+00
 6.0211709E+00 1.7481453E+00 1.2528714E+00
 6.0562667E+00 1.7756997E+00 1.2217614E+00
 6.0922474E+00 1.7999970E+00 1.1912341E+00
 6.1287728E+00 1.8211535E+00 1.1614614E+00
 6.1655221E+00 1.8393533E+00 1.1324077E+00
 6.2021268E+00 1.8548283E+00 1.1034638E+00
 5.8216825E+00 1.1223449E+00 1.6410520E+00
 5.8199904E+00 1.1692634E+00 1.6287735E+00
 5.8199875E+00 1.2164220E+00 1.6142031E+00
 5.8223801E+00 1.2642241E+00 1.5976286E+00
 5.8275183E+00 1.3126228E+00 1.5790660E+00
 5.8356042E+00 1.3613374E+00 1.5584769E+00
 5.8467775E+00 1.4099759E+00 1.5358606E+00
 5.8611230E+00 1.4580842E+00 1.5112768E+00
 5.8786598E+00 1.5051775E+00 1.4848470E+00
 5.8993305E+00 1.5507658E+00 1.4567510E+00
 5.9229971E+00 1.5943793E+00 1.4272212E+00
 5.9494427E+00 1.6355908E+00 1.3965337E+00
 5.9783794E+00 1.6740370E+00 1.3649972E+00
 6.0094628E+00 1.7094357E+00 1.3329393E+00
 6.0423123E+00 1.7415974E+00 1.3006907E+00
 6.0765367E+00 1.7704317E+00 1.2685687E+00
 6.1117638E+00 1.7959475E+00 1.2368532E+00
 6.1476602E+00 1.8182484E+00 1.2057390E+00
 6.1839128E+00 1.8375232E+00 1.1751845E+00
 6.2201249E+00 1.8540208E+00 1.1446018E+00
 5.8575715E+00 1.1502768E+00 1.6665134E+00
 5.8575200E+00 1.1982359E+00 1.6538685E+00
 5.8592580E+00 1.2463271E+00 1.6388765E+00
 5.8634854E+00 1.2948884E+00 1.6217776E+00
 5.8705282E+00 1.3438291E+00 1.6025717E+00
 5.8805586E+00 1.3928370E+00 1.5812246E+00
 5.8936785E+00 1.4414897E+00 1.5577500E+00
 5.9099288E+00 1.4893091E+00 1.5322295E+00
 5.9292795E+00 1.5357970E+00 1.5048119E+00
 5.9516225E+00 1.5804632E+00 1.4757077E+00
 5.9767697E+00 1.6228527E+00 1.4451809E+00
 6.0044596E+00 1.6625685E+00 1.4135375E+00
 6.0343695E+00 1.6992921E+00 1.3811123E+00
 6.0661355E+00 1.7327971E+00 1.3482518E+00
 6.0993777E+00 1.7629596E+00 1.3152958E+00
 6.1337315E+00 1.7897598E+00 1.2825528E+00
 6.1688697E+00 1.8132819E+00 1.2502468E+00
 6.2044812E+00 1.8337071E+00 1.2183800E+00
 6.2401556E+00 1.8512980E+00 1.1864385E+00
 5.8969031E+00 1.1784383E+00 1.6906937E+00
 5.8985479E+00 1.2272001E+00 1.6775308E+00
 5.9021060E+00 1.2759895E+00 1.6619887E+00