# TIME = 3.000000
VARIABLES = X, Y, Z, FX, FY, FZ
ZONE N=29232 E=58212 F=FEPOINT ET=TRIANGLE
  0.000E+00  9.502E-01  1.243E-03 6.4100180E+00 1.9320802E-01 3.8985553E+00
  0.000E+00  1.000E+00  0.000E+00 6.3992583E+00 -1.0031828E-06 3.9035933E+00
  4.318E-02  9.751E-01  3.108E-04 6.4004668E+00 9.4811988E-02 3.8307950E+00
  0.000E+00  1.050E+00  1.243E-03 6.4100180E+00 -1.9321056E-01 3.8985552E+00
  4.318E-02  1.025E+00  3.108E-04 6.4004668E+00 -9.4814233E-02 3.8307949E+00
  0.000E+00  1.100E+00  4.969E-03 6.4460655E+00 -3.8690739E-01 3.8839492E+00
  4.318E-02  1.075E+00  2.796E-03 6.4250966E+00 -2.8465231E-01 3.8210589E+00
  0.000E+00  1.149E+00  1.117E-02 6.5144787E+00 -5.8164601E-01 3.8606884E+00
  4.318E-02  1.124E+00  7.761E-03 6.4777053E+00 -4.7525827E-01 3.8023516E+00
  0.000E+00  1.198E+00  1.983E-02 6.6133999E+00 -7.7632993E-01 3.8287117E+00
  4.318E-02  1.174E+00  1.519E-02 6.5607446E+00 -6.6674689E-01 3.7753783E+00
  0.000E+00  1.247E+00  3.092E-02 6.7216693E+00 -9.6708460E-01 3.7860066E+00
  4.318E-02  1.223E+00  2.507E-02 6.6672687E+00 -8.5649557E-01 3.7390796E+00
  0.000E+00  1.295E+00  4.443E-02 6.8107786E+00 -1.1509328E+00 3.7307290E+00
  4.318E-02  1.271E+00  3.738E-02 6.7705006E+00 -1.0403483E+00 3.6909167E+00
  0.000E+00  1.342E+00  6.031E-02 6.8873523E+00 -1.3323189E+00 3.6667256E+00
  4.318E-02  1.318E+00  5.207E-02 6.8478230E+00 -1.2186829E+00 3.6316218E+00
  0.000E+00  1.388E+00  7.852E-02 7.0457774E+00 -1.5157263E+00 3.5975594E+00
  4.318E-02  1.365E+00  6.913E-02 6.9540967E+00 -1.3978239E+00 3.5663193E+00
  0.000E+00  1.434E+00  9.903E-02 7.1785130E+00 -1.6953661E+00 3.5189176E+00
  4.318E-02  1.411E+00  8.849E-02 7.1262324E+00 -1.5770850E+00 3.4945342E+00
  0.000E+00  1.478E+00  1.218E-01 7.2331386E+00 -1.8671821E+00 3.4286940E+00
  4.318E-02  1.456E+00  1.101E-01 7.2159867E+00 -1.7493799E+00 3.4113056E+00
  0.000E+00  1.521E+00  1.467E-01 7.3927519E+00 -2.0354953E+00 3.3313046E+00
  4.318E-02  1.500E+00  1.340E-01 7.2937504E+00 -1.9158205E+00 3.3187726E+00
  0.000E+00  1.563E+00  1.738E-01 7.4382922E+00 -2.1996630E+00 3.2262095E+00
  4.318E-02  1.543E+00  1.600E-01 7.4397483E+00 -2.0795298E+00 3.2197982E+00
  0.000E+00  1.604E+00  2.029E-01 7.5265908E+00 -2.3574425E+00 3.1122638E+00
  4.318E-02  1.584E+00  1.881E-01 7.4635556E+00 -2.2375163E+00 3.1121239E+00
  0.000E+00  1.643E+00  2.340E-01 7.5809034E+00 -2.5096970E+00 2.9909479E+00
  4.318E-02  1.623E+00  2.182E-01 7.5577251E+00 -2.3896556E+00 2.9965643E+00
  0.000E+00  1.680E+00  2.669E-01 7.5832473E+00 -2.6556767E+00 2.8621245E+00
  4.318E-02  1.662E+00  2.502E-01 7.5702585E+00 -2.5361780E+00 2.8738250E+00
  0.000E+00  1.716E+00  3.018E-01 7.6166264E+00 -2.7949942E+00 2.7261577E+00
  4.318E-02  1.698E+00  2.841E-01 7.6166641E+00 -2.6761980E+00 2.7437611E+00
  0.000E+00  1.750E+00  3.383E-01 7.5702224E+00 -2.9274853E+00 2.5835213E+00
  4.318E-02  1.733E+00  3.198E-01 7.5832866E+00 -2.8096752E+00 2.6069975E+00
  0.000E+00  1.782E+00  3.765E-01 7.5576905E+00 -3.0525146E+00 2.4342643E+00
  4.318E-02  1.766E+00  3.572E-01 7.5809441E+00 -2.9361328E+00 2.4636918E+00
  0.000E+00  1.812E+00  4.163E-01 7.4635227E+00 -3.1702364E+00 2.2792853E+00
  4.318E-02  1.797E+00  3.962E-01 7.5266326E+00 -3.0552295E+00 2.3142287E+00
  0.000E+00  1.840E+00  4.575E-01 7.4397163E+00 -3.2799121E+00 2.1183497E+00
  4.318E-02  1.826E+00  4.367E-01 7.4383350E+00 -3.1670835E+00 2.1593412E+00
  0.000E+00  1.866E+00  5.000E-01 7.2937185E+00 -3.3807434E+00 1.9515825E+00
  4.318E-02  1.853E+00  4.786E-01 7.3927947E+00 -3.2702500E+00 1.9981829E+00
  0.000E+00  1.890E+00  5.438E-01 7.2159560E+00 -3.4750028E+00 1.7820343E+00
  4.318E-02  1.878E+00  5.217E-01 7.2331823E+00 -3.3658656E+00 1.8329555E+00
  0.000E+00  1.912E+00  5.887E-01 7.1262029E+00 -3.5597753E+00 1.6065235E+00
  4.318E-02  1.901E+00  5.661E-01 7.1785581E+00 -3.4544235E+00 1.6642896E+00
  0.000E+00  1.931E+00  6.347E-01 6.9540679E+00 -3.6329114E+00 1.4239171E+00
  4.318E-02  1.921E+00  6.116E-01 7.0458224E+00 -3.5316247E+00 1.4879399E+00
  0.000E+00  1.948E+00  6.815E-01 6.8477956E+00 -3.6994342E+00 1.2414328E+00
  4.318E-02  1.940E+00  6.580E-01 6.8873966E+00 -3.5995319E+00 1.3078907E+00
  0.000E+00  1.963E+00  7.292E-01 6.7704762E+00 -3.7598298E+00 1.0597694E+00
  4.318E-02  1.956E+00  7.052E-01 6.8108229E+00 -3.6623536E+00 1.1298273E+00
  0.000E+00  1.975E+00  7.775E-01 6.6672458E+00 -3.8088927E+00 8.7248354E-01
  4.318E-02  1.969E+00  7.532E-01 6.7217152E+00 -3.7166143E+00 9.4935162E-01
  0.000E+00  1.985E+00  8.264E-01 6.5607208E+00 -3.8458706E+00 6.7919058E-01
  4.318E-02  1.980E+00  8.019E-01 6.6134463E+00 -3.7585397E+00 7.6209787E-01
  0.000E+00  1.992E+00  8.757E-01 6.4776800E+00 -3.8733457E+00 4.8412552E-01
  4.318E-02  1.989E+00  8.510E-01 6.5145246E+00 -3.7899318E+00 5.7098464E-01
  0.000E+00  1.997E+00  9.253E-01 6.4250718E+00 -3.8924023E+00 2.8996056E-01
  4.318E-02  1.995E+00  9.004E-01 6.4461117E+00 -3.8127663E+00 3.7981512E-01
  0.000E+00  2.000E+00  9.751E-01 6.4004431E+00 -3.9023213E+00 9.6580480E-02
  4.318E-02  1.999E+00  9.502E-01 6.4100665E+00 -3.8271067E+00 1.8966714E-01
  0.000E+00  2.000E+00  1.025E+00 6.4004429E+00 -3.9023201E+00 -9.6583361E-02
  4.318E-02  2.000E+00  1.000E+00 6.3993072E+00 -3.8320527E+00 -1.4651595E-06
  0.000E+00  1.997E+00  1.075E+00 6.4250713E+00 -3.8923983E+00 -2.8996342E-01
  4.318E-02  1.999E+00  1.050E+00 6.4100663E+00 -3.8271042E+00 -1.8967007E-01
  0.000E+00  1.992E+00  1.124E+00 6.4776793E+00 -3.8733396E+00 -4.8412837E-01
  4.318E-02  1.995E+00  1.100E+00 6.4461113E+00 -3.8127610E+00 -3.7981803E-01
  0.000E+00  1.985E+00  1.174E+00 6.5607200E+00 -3.8458675E+00 -6.7919343E-01
  4.318E-02  1.989E+00  1.149E+00 6.5145238E+00 -3.7899263E+00 -5.7098755E-01
  0.000E+00  1.975E+00  1.223E+00 6.6672447E+00 -3.8088988E+00 -8.7248638E-01
  4.318E-02  1.980E+00  1.198E+00 6.6134453E+00 -3.7585410E+00 -7.6210077E-01
  0.000E+00  1.963E+00  1.271E+00 6.7704749E+00 -3.7598357E+00 -1.0597722E+00
  4.318E-02  1.969E+00  1.247E+00 6.7217140E+00 -3.7166226E+00 -9.4935447E-01
  0.000E+00  1.948E+00  1.318E+00 6.8477940E+00 -3.6994210E+00 -1.2414355E+00
  4.318E-02  1.956E+00  1.295E+00 6.8108215E+00 -3.6623512E+00 -1.1298301E+00
  0.000E+00  1.931E+00  1.365E+00 6.9540663E+00 -3.6329005E+00 -1.4239198E+00
  4.318E-02  1.940E+00  1.342E+00 6.8873949E+00 -3.5995140E+00 -1.3078934E+00
  0.000E+00  1.912E+00  1.411E+00 7.1262003E+00 -3.5597889E+00 -1.6065261E+00
  4.318E-02  1.921E+00  1.388E+00 7.0458208E+00 -3.5316292E+00 -1.4879429E+00
  0.000E+00  1.890E+00  1.456E+00 7.2159539E+00 -3.4749963E+00 -1.7820369E+00
  4.318E-02  1.901E+00  1.434E+00 7.1785563E+00 -3.4544323E+00 -1.6642923E+00
  0.000E+00  1.866E+00  1.500E+00 7.2937163E+00 -3.3807321E+00 -1.9515850E+00
  4.318E-02  1.878E+00  1.478E+00 7.2331802E+00 -3.3658486E+00 -1.8329579E+00
  0.000E+00  1.840E+00  1.543E+00 7.4397139E+00 -3.2799217E+00 -2.1183525E+00
  4.318E-02  1.853E+00  1.521E+00 7.3927924E+00 -3.2702541E+00 -1.9981857E+00
  0.000E+00  1.812E+00  1.584E+00 7.4635202E+00 -3.1702289E+00 -2.2792876E+00
  4.318E-02  1.826E+00  1.563E+00 7.4383325E+00 -3.1670845E+00 -2.1593437E+00
  0.000E+00  1.782E+00  1.623E+00 7.5576879E+00 -3.0525164E+00 -2.4342668E+00
  4.318E-02  1.797E+00  1.604E+00 7.5266300E+00 -3.0552243E+00 -2.3142312E+00
  0.000E+00  1.750E+00  1.662E+00 7.5702197E+00 -2.9274845E+00 -2.5835236E+00
  4.318E-02  1.766E+00  1.643E+00 7.5809414E+00 -2.9361365E+00 -2.4636944E+00
  0.000E+00  1.716E+00  1.698E+00 7.6166236E+00 -2.7949929E+00 -2.7261600E+00
  4.318E-02  1.733E+00  1.680E+00 7.5832838E+00 -2.8096710E+00 -2.6069997E+00
  0.000E+00  1.680E+00  1.733E+00 7.5832446E+00 -2.6556767E+00 -2.8621268E+00
  4.318E-02  1.698E+00  1.716E+00 7.6166612E+00 -2.6761993E+00 -2.7437635E+00
  0.000E+00  1.643E+00  1.766E+00 7.5809006E+00 -2.5096949E+00 -2.9909501E+00
  4.318E-02  1.662E+00  1.750E+00 7.5702554E+00 -2.5361755E+00 -2.8738271E+00
  0.000E+00  1.604E+00  1.797E+00 7.5265876E+00 -2.3574408E+00 -3.1122657E+00
  4.318E-02  1.623E+00  1.782E+00 7.5577220E+00 -2.3896548E+00 -2.9965666E+00
  0.000E+00  1.563E+00  1.826E+00 7.4382887E+00 -2.1996598E+00 -3.2262111E+00
  4.318E-02  1.584E+00  1.812E+00 7.4635527E+00 -2.2375147E+00 -3.1121262E+00
  0.000E+00  1.521E+00  1.853E+00 7.3927487E+00 -2.0354941E+00 -3.3313066E+00
  4.318E-02  1.543E+00  1.840E+00 7.4397456E+00 -2.0795287E+00 -3.2198003E+00
  0.000E+00  1.478E+00  1.878E+00 7.2331363E+00 -1.8671828E+00 -3.4286967E+00
  4.318E-02  1.500E+00  1.866E+00 7.2937474E+00 -1.9158174E+00 -3.3187741E+00
  0.000E+00  1.434E+00  1.901E+00 7.1785112E+00 -1.6953688E+00 -3.5189207E+00
  4.318E-02  1.456E+00  1.890E+00 7.2159827E+00 -1.7493760E+00 -3.4113066E+00
  0.000E+00  1.388E+00  1.921E+00 7.0457747E+00 -1.5157233E+00 -3.5975614E+00
  4.318E-02  1.411E+00  1.912E+00 7.1262278E+00 -1.5770818E+00 -3.4945353E+00
  0.000E+00  1.342E+00  1.940E+00 6.8873482E+00 -1.3323099E+00 -3.6667253E+00
  4.318E-02  1.365E+00  1.931E+00 6.9540927E+00 -1.3978242E+00 -3.5663214E+00
  0.000E+00  1.295E+00  1.956E+00 6.8107735E+00 -1.1509208E+00 -3.7307267E+00
  4.318E-02  1.318E+00  1.948E+00 6.8478204E+00 -1.2186873E+00 -3.6316252E+00
  0.000E+00  1.247E+00  1.969E+00 6.7216643E+00 -9.6707680E-01 -3.7860037E+00
  4.318E-02  1.271E+00  1.963E+00 6.7704994E+00 -1.0403520E+00 -3.6909208E+00
  0.000E+00  1.198E+00  1.980E+00 6.6133956E+00 -7.7632881E-01 -3.8287095E+00
  4.318E-02  1.223E+00  1.975E+00 6.6672677E+00 -8.5649549E-01 -3.7390834E+00
  0.000E+00  1.149E+00  1.989E+00 6.5144755E+00 -5.8164977E-01 -3.8606875E+00
  4.318E-02  1.174E+00  1.985E+00 6.5607426E+00 -6.6674248E-01 -3.7753812E+00
  0.000E+00  1.100E+00  1.995E+00 6.4460632E+00 -3.8691175E-01 -3.8839494E+00
  4.318E-02  1.124E+00  1.992E+00 6.4777018E+00 -4.7525263E-01 -3.8023535E+00
  0.000E+00  1.050E+00  1.999E+00 6.4100163E+00 -1.9321214E-01 -3.8985561E+00
  4.318E-02  1.075E+00  1.997E+00 6.4250920E+00 -2.8464687E-01 -3.8210600E+00
  0.000E+00  1.000E+00  2.000E+00 6.3992567E+00 5.8437390E-07 -3.9035943E+00
  4.318E-02  1.025E+00  2.000E+00 6.4004617E+00 -9.4811176E-02 -3.8307956E+00
  0.000E+00  9.502E-01  1.999E+00 6.4100163E+00 1.9321384E-01 -3.8985560E+00
  4.318E-02  9.751E-01  2.000E+00 6.4004617E+00 9.4812587E-02 -3.8307955E+00
  0.000E+00  9.004E-01  1.995E+00 6.4460632E+00 3.8691313E-01 -3.8839492E+00
  4.318E-02  9.253E-01  1.997E+00 6.4250919E+00 2.8464861E-01 -3.8210598E+00
  0.000E+00  8.510E-01  1.989E+00 6.5144754E+00 5.8165115E-01 -3.8606871E+00
  4.318E-02  8.757E-01  1.992E+00 6.4777018E+00 4.7525385E-01 -3.8023532E+00
  0.000E+00  8.019E-01  1.980E+00 6.6133955E+00 7.7633043E-01 -3.8287090E+00
  4.318E-02  8.264E-01  1.985E+00 6.5607425E+00 6.6674416E-01 -3.7753808E+00
  0.000E+00  7.532E-01  1.969E+00 6.7216641E+00 9.6707812E-01 -3.7860032E+00
  4.318E-02  7.775E-01  1.975E+00 6.6672675E+00 8.5649690E-01 -3.7390829E+00
  0.000E+00  7.052E-01  1.956E+00 6.8107733E+00 1.1509223E+00 -3.7307260E+00
  4.318E-02  7.292E-01  1.963E+00 6.7704992E+00 1.0403535E+00 -3.6909201E+00
  0.000E+00  6.580E-01  1.940E+00 6.8873480E+00 1.3323111E+00 -3.6667246E+00
  4.318E-02  6.815E-01  1.948E+00 6.8478202E+00 1.2186886E+00 -3.6316244E+00
  0.000E+00  6.116E-01  1.921E+00 7.0457746E+00 1.5157252E+00 -3.5975606E+00
  4.318E-02  6.347E-01  1.931E+00 6.9540924E+00 1.3978260E+00 -3.5663206E+00
  0.000E+00  5.661E-01  1.901E+00 7.1785110E+00 1.6953695E+00 -3.5189197E+00
  4.318E-02  5.887E-01  1.912E+00 7.1262273E+00 1.5770830E+00 -3.4945342E+00
  0.000E+00  5.217E-01  1.878E+00 7.2331360E+00 1.8671846E+00 -3.4286957E+00
  4.318E-02  5.438E-01  1.890E+00 7.2159824E+00 1.7493770E+00 -3.4113056E+00
  0.000E+00  4.786E-01  1.853E+00 7.3927484E+00 2.0354951E+00 -3.3313055E+00
  4.318E-02  5.000E-01  1.866E+00 7.2937471E+00 1.9158192E+00 -3.3187731E+00
  0.000E+00  4.367E-01  1.826E+00 7.4382884E+00 2.1996616E+00 -3.2262100E+00
  4.318E-02  4.575E-01  1.840E+00 7.4397453E+00 2.0795298E+00 -3.2197991E+00
  0.000E+00  3.962E-01  1.797E+00 7.5265872E+00 2.3574415E+00 -3.1122644E+00
  4.318E-02  4.163E-01  1.812E+00 7.4635524E+00 2.2375165E+00 -3.1121250E+00
  0.000E+00  3.572E-01  1.766E+00 7.5809002E+00 2.5096967E+00 -2.9909488E+00
  4.318E-02  3.765E-01  1.782E+00 7.5577216E+00 2.3896553E+00 -2.9965653E+00
  0.000E+00  3.198E-01  1.733E+00 7.5832442E+00 2.6556765E+00 -2.8621254E+00
  4.318E-02  3.383E-01  1.750E+00 7.5702551E+00 2.5361775E+00 -2.8738259E+00
  0.000E+00  2.841E-01  1.698E+00 7.6166232E+00 2.7949939E+00 -2.7261586E+00
  4.318E-02  3.018E-01  1.716E+00 7.6166608E+00 2.6761976E+00 -2.7437620E+00
  0.000E+00  2.502E-01  1.662E+00 7.5702193E+00 2.9274850E+00 -2.5835222E+00
  4.318E-02  2.669E-01  1.680E+00 7.5832834E+00 2.8096748E+00 -2.6069984E+00
  0.000E+00  2.182E-01  1.623E+00 7.5576875E+00 3.0525143E+00 -2.4342652E+00
  4.318E-02  2.340E-01  1.643E+00 7.5809410E+00 2.9361325E+00 -2.4636928E+00
  0.000E+00  1.881E-01  1.584E+00 7.4635198E+00 3.1702361E+00 -2.2792863E+00
  4.318E-02  2.029E-01  1.604E+00 7.5266296E+00 3.0552291E+00 -2.3142297E+00
  0.000E+00  1.600E-01  1.543E+00 7.4397135E+00 3.2799117E+00 -2.1183507E+00
  4.318E-02  1.738E-01  1.563E+00 7.4383321E+00 3.1670832E+00 -2.1593422E+00
  0.000E+00  1.340E-01  1.500E+00 7.2937159E+00 3.3807430E+00 -1.9515835E+00
  4.318E-02  1.467E-01  1.521E+00 7.3927920E+00 3.2702497E+00 -1.9981839E+00
  0.000E+00  1.101E-01  1.456E+00 7.2159535E+00 3.4750024E+00 -1.7820353E+00
  4.318E-02  1.218E-01  1.478E+00 7.2331798E+00 3.3658653E+00 -1.8329565E+00
  0.000E+00  8.849E-02  1.411E+00 7.1262004E+00 3.5597747E+00 -1.6065244E+00
  4.318E-02  9.903E-02  1.434E+00 7.1785558E+00 3.4544232E+00 -1.6642906E+00
  0.000E+00  6.913E-02  1.365E+00 6.9540658E+00 3.6329111E+00 -1.4239182E+00
  4.318E-02  7.852E-02  1.388E+00 7.0458202E+00 3.5316244E+00 -1.4879410E+00
  0.000E+00  5.207E-02  1.318E+00 6.8477937E+00 3.6994339E+00 -1.2414339E+00
  4.318E-02  6.031E-02  1.342E+00 6.8873946E+00 3.5995316E+00 -1.3078918E+00
  0.000E+00  3.738E-02  1.271E+00 6.7704745E+00 3.7598294E+00 -1.0597705E+00
  4.318E-02  4.443E-02  1.295E+00 6.8108211E+00 3.6623533E+00 -1.1298284E+00
  0.000E+00  2.507E-02  1.223E+00 6.6672443E+00 3.8088924E+00 -8.7248463E-01
  4.318E-02  3.092E-02  1.247E+00 6.7217137E+00 3.7166140E+00 -9.4935273E-01
  0.000E+00  1.519E-02  1.174E+00 6.5607196E+00 3.8458704E+00 -6.7919168E-01
  4.318E-02  1.983E-02  1.198E+00 6.6134449E+00 3.7585394E+00 -7.6209898E-01
  0.000E+00  7.761E-03  1.124E+00 6.4776790E+00 3.8733454E+00 -4.8412662E-01
  4.318E-02  1.117E-02  1.149E+00 6.5145235E+00 3.7899314E+00 -5.7098576E-01
  0.000E+00  2.796E-03  1.075E+00 6.4250709E+00 3.8924020E+00 -2.8996167E-01
  4.318E-02  4.969E-03  1.100E+00 6.4461109E+00 3.8127660E+00 -3.7981625E-01
  0.000E+00  3.108E-04  1.025E+00 6.4004425E+00 3.9023211E+00 -9.6581592E-02
  4.318E-02  1.243E-03  1.050E+00 6.4100659E+00 3.8271064E+00 -1.8966827E-01
  0.000E+00  3.108E-04  9.751E-01 6.4004427E+00 3.9023198E+00 9.6582250E-02
  4.318E-02  0.000E+00  1.000E+00 6.3993068E+00 3.8320524E+00 3.3505637E-07
  0.000E+00  2.796E-03  9.253E-01 6.4250714E+00 3.8923980E+00 2.8996233E-01
  4.318E-02  1.243E-03  9.502E-01 6.4100661E+00 3.8271039E+00 1.8966894E-01
  0.000E+00  7.761E-03  8.757E-01 6.4776796E+00 3.8733393E+00 4.8412729E-01
  4.318E-02  4.969E-03  9.004E-01 6.4461114E+00 3.8127606E+00 3.7981691E-01
  0.000E+00  1.519E-02  8.264E-01 6.5607205E+00 3.8458672E+00 6.7919234E-01
  4.318E-02  1.117E-02  8.510E-01 6.5145242E+00 3.7899260E+00 5.7098644E-01
  0.000E+00  2.507E-02  7.775E-01 6.6672454E+00 3.8088985E+00 8.7248530E-01
  4.318E-02  1.983E-02  8.019E-01 6.6134459E+00 3.7585406E+00 7.6209967E-01
  0.000E+00  3.738E-02  7.292E-01 6.7704759E+00 3.7598354E+00 1.0597711E+00
  4.318E-02  3.092E-02  7.532E-01 6.7217149E+00 3.7166223E+00 9.4935337E-01
  0.000E+00  5.207E-02  6.815E-01 6.8477952E+00 3.6994207E+00 1.2414345E+00
  4.318E-02  4.443E-02  7.052E-01 6.8108226E+00 3.6623509E+00 1.1298290E+00
  0.000E+00  6.913E-02  6.347E-01 6.9540676E+00 3.6329001E+00 1.4239188E+00
  4.318E-02  6.031E-02  6.580E-01 6.8873962E+00 3.5995136E+00 1.3078924E+00
  0.000E+00  8.849E-02  5.887E-01 7.1262021E+00 3.5597888E+00 1.6065252E+00
  4.318E-02  7.852E-02  6.116E-01 7.0458222E+00 3.5316288E+00 1.4879418E+00
  0.000E+00  1.101E-01  5.438E-01 7.2159557E+00 3.4749960E+00 1.7820359E+00
  4.318E-02  9.903E-02  5.661E-01 7.1785579E+00 3.4544319E+00 1.6642913E+00
  0.000E+00  1.340E-01  5.000E-01 7.2937183E+00 3.3807318E+00 1.9515840E+00
  4.318E-02  1.218E-01  5.217E-01 7.2331820E+00 3.3658482E+00 1.8329569E+00
  0.000E+00  1.600E-01  4.575E-01 7.4397160E+00 3.2799214E+00 2.1183515E+00
  4.318E-02  1.467E-01  4.786E-01 7.3927945E+00 3.2702537E+00 1.9981847E+00
  0.000E+00  1.881E-01  4.163E-01 7.4635224E+00 3.1702286E+00 2.2792866E+00
  4.318E-02  1.738E-01  4.367E-01 7.4383347E+00 3.1670842E+00 2.1593427E+00
  0.000E+00  2.182E-01  3.765E-01 7.5576902E+00 3.0525161E+00 2.4342659E+00
  4.318E-02  2.029E-01  3.962E-01 7.5266324E+00 3.0552240E+00 2.3142302E+00
  0.000E+00  2.502E-01  3.383E-01 7.5702221E+00 2.9274841E+00 2.5835227E+00
  4.318E-02  2.340E-01  3.572E-01 7.5809438E+00 2.9361361E+00 2.4636935E+00
  0.000E+00  2.841E-01  3.018E-01 7.6166261E+00 2.7949925E+00 2.7261591E+00
  4.318E-02  2.669E-01  3.198E-01 7.5832864E+00 2.8096707E+00 2.6069988E+00
  0.000E+00  3.198E-01  2.669E-01 7.5832471E+00 2.6556762E+00 2.8621258E+00
  4.318E-02  3.018E-01  2.841E-01 7.6166638E+00 2.6761990E+00 2.7437626E+00
  0.000E+00  3.572E-01  2.340E-01 7.5809031E+00 2.5096945E+00 2.9909492E+00
  4.318E-02  3.383E-01  2.502E-01 7.5702583E+00 2.5361752E+00 2.8738262E+00
  0.000E+00  3.962E-01  2.029E-01 7.5265905E+00 2.3574410E+00 3.1122650E+00
  4.318E-02  3.765E-01  2.182E-01 7.5577249E+00 2.3896543E+00 2.9965657E+00
  0.000E+00  4.367E-01  1.738E-01 7.4382920E+00 2.1996604E+00 3.2262106E+00
  4.318E-02  4.163E-01  1.881E-01 7.4635553E+00 2.2375138E+00 3.1121251E+00
  0.000E+00  4.786E-01  1.467E-01 7.3927517E+00 2.0354934E+00 3.3313057E+00
  4.318E-02  4.575E-01  1.600E-01 7.4397481E+00 2.0795279E+00 3.2197994E+00
  0.000E+00  5.217E-01  1.218E-01 7.2331384E+00 1.8671795E+00 3.4286949E+00
  4.318E-02  5.000E-01  1.340E-01 7.2937502E+00 1.9158179E+00 3.3187736E+00
  0.000E+00  5.661E-01  9.903E-02 7.1785128E+00 1.6953647E+00 3.5189185E+00
  4.318E-02  5.438E-01  1.101E-01 7.2159866E+00 1.7493781E+00 3.4113066E+00
  0.000E+00  6.116E-01  7.852E-02 7.0457772E+00 1.5157236E+00 3.5975603E+00
  4.318E-02  5.887E-01  8.849E-02 7.1262321E+00 1.5770827E+00 3.4945349E+00
  0.000E+00  6.580E-01  6.031E-02 6.8873522E+00 1.3323169E+00 3.6667264E+00
  4.318E-02  6.347E-01  6.913E-02 6.9540966E+00 1.3978214E+00 3.5663201E+00
  0.000E+00  7.052E-01  4.443E-02 6.8107784E+00 1.1509305E+00 3.7307296E+00
  4.318E-02  6.815E-01  5.207E-02 6.8478228E+00 1.2186807E+00 3.6316225E+00
  0.000E+00  7.532E-01  3.092E-02 6.7216692E+00 9.6708247E-01 3.7860072E+00
  4.318E-02  7.292E-01  3.738E-02 6.7705005E+00 1.0403460E+00 3.6909173E+00
  0.000E+00  8.019E-01  1.983E-02 6.6133998E+00 7.7632748E-01 3.8287121E+00
  4.318E-02  7.775E-01  2.507E-02 6.6672686E+00 8.5649334E-01 3.7390801E+00
  0.000E+00  8.510E-01  1.117E-02 6.5144786E+00 5.8164379E-01 3.8606888E+00
  4.318E-02  8.264E-01  1.519E-02 6.5607446E+00 6.6674438E-01 3.7753787E+00
  0.000E+00  9.004E-01  4.969E-03 6.4460654E+00 3.8690518E-01 3.8839494E+00
  4.318E-02  8.757E-01  7.761E-03 6.4777053E+00 4.7525622E-01 3.8023519E+00
  4.318E-02  9.253E-01  2.796E-03 6.4250966E+00 2.8464974E-01 3.8210590E+00
  1.000E+01  1.050E+00  1.243E-03 6.4100180E+00 -1.9321056E-01 3.8985552E+00
  1.000E+01  1.000E+00  5.551E-16 6.3992583E+00 -1.0031828E-06 3.9035933E+00
  9.957E+00  1.025E+00  3.108E-04 6.4004261E+00 -9.8361276E-02 3.9741527E+00
  1.000E+01  9.502E-01  1.243E-03 6.4100180E+00 1.9320802E-01 3.8985553E+00
  9.957E+00  9.751E-01  3.108E-04 6.4004261E+00 9.8359093E-02 3.9741528E+00
  1.000E+01  9.004E-01  4.969E-03 6.4460654E+00 3.8690518E-01 3.8839494E+00
  9.957E+00  9.253E-01  2.796E-03 6.4250562E+00 2.9530027E-01 3.9640524E+00
  1.000E+01  8.510E-01  1.117E-02 6.5144786E+00 5.8164379E-01 3.8606888E+00
  9.957E+00  8.757E-01  7.761E-03 6.4776653E+00 4.9304170E-01 3.9446449E+00
  1.000E+01  8.019E-01  1.983E-02 6.6133998E+00 7.7632748E-01 3.8287121E+00
  9.957E+00  8.264E-01  1.519E-02 6.5607054E+00 6.9169731E-01 3.9166623E+00
  1.000E+01  7.532E-01  3.092E-02 6.7216692E+00 9.6708247E-01 3.7860072E+00
  9.957E+00  7.775E-01  2.507E-02 6.6672296E+00 8.8854586E-01 3.8790053E+00
  1.000E+01  7.052E-01  4.443E-02 6.8107784E+00 1.1509305E+00 3.7307296E+00
  9.957E+00  7.292E-01  3.738E-02 6.7704609E+00 1.0792772E+00 3.8290400E+00
  1.000E+01  6.580E-01  6.031E-02 6.8873522E+00 1.3323169E+00 3.6667264E+00
  9.957E+00  6.815E-01  5.207E-02 6.8477824E+00 1.2642858E+00 3.7675261E+00
  1.000E+01  6.116E-01  7.852E-02 7.0457772E+00 1.5157236E+00 3.5975603E+00
  9.957E+00  6.347E-01  6.913E-02 6.9540559E+00 1.4501319E+00 3.6997799E+00
  1.000E+01  5.661E-01  9.903E-02 7.1785128E+00 1.6953647E+00 3.5189185E+00
  9.957E+00  5.887E-01  8.849E-02 7.1261911E+00 1.6361011E+00 3.6253080E+00
  1.000E+01  5.217E-01  1.218E-01 7.2331384E+00 1.8671795E+00 3.4286949E+00
  9.957E+00  5.438E-01  1.101E-01 7.2159466E+00 1.8148441E+00 3.5389652E+00
  1.000E+01  4.786E-01  1.467E-01 7.3927517E+00 2.0354934E+00 3.3313057E+00
  9.957E+00  5.000E-01  1.340E-01 7.2937109E+00 1.9875132E+00 3.4429687E+00
  1.000E+01  4.367E-01  1.738E-01 7.4382920E+00 2.1996604E+00 3.2262106E+00
  9.957E+00  4.575E-01  1.600E-01 7.4397086E+00 2.1573501E+00 3.3402906E+00
  1.000E+01  3.962E-01  2.029E-01 7.5265905E+00 2.3574410E+00 3.1122650E+00
  9.957E+00  4.163E-01  1.881E-01 7.4635159E+00 2.3212473E+00 3.2285874E+00
  1.000E+01  3.572E-01  2.340E-01 7.5809031E+00 2.5096945E+00 2.9909492E+00
  9.957E+00  3.765E-01  2.182E-01 7.5576852E+00 2.4790800E+00 3.1087040E+00
  1.000E+01  3.198E-01  2.669E-01 7.5832471E+00 2.6556762E+00 2.8621258E+00
  9.957E+00  3.383E-01  2.502E-01 7.5702189E+00 2.6310837E+00 2.9813721E+00
  1.000E+01  2.841E-01  3.018E-01 7.6166261E+00 2.7949925E+00 2.7261591E+00
  9.957E+00  3.018E-01  2.841E-01 7.6166244E+00 2.7763471E+00 2.8464414E+00
  1.000E+01  2.502E-01  3.383E-01 7.5702221E+00 2.9274841E+00 2.5835227E+00
  9.957E+00  2.669E-01  3.198E-01 7.5832470E+00 2.9148135E+00 2.7045595E+00
  1.000E+01  2.182E-01  3.765E-01 7.5576902E+00 3.0525161E+00 2.4342659E+00
  9.957E+00  2.340E-01  3.572E-01 7.5809043E+00 3.0460120E+00 2.5558913E+00
  1.000E+01  1.881E-01  4.163E-01 7.4635224E+00 3.1702286E+00 2.2792866E+00
  9.957E+00  2.029E-01  3.962E-01 7.5265931E+00 3.1695569E+00 2.4008341E+00
  1.000E+01  1.600E-01  4.575E-01 7.4397160E+00 3.2799214E+00 2.1183515E+00
  9.957E+00  1.738E-01  4.367E-01 7.4382952E+00 3.2856037E+00 2.2401492E+00
  1.000E+01  1.340E-01  5.000E-01 7.2937183E+00 3.3807318E+00 1.9515840E+00
  9.957E+00  1.467E-01  4.786E-01 7.3927550E+00 3.3926342E+00 2.0729602E+00
  1.000E+01  1.101E-01  5.438E-01 7.2159557E+00 3.4749960E+00 1.7820359E+00
  9.957E+00  1.218E-01  5.217E-01 7.2331429E+00 3.4918058E+00 1.9015502E+00
  1.000E+01  8.849E-02  5.887E-01 7.1262021E+00 3.5597888E+00 1.6065252E+00
  9.957E+00  9.903E-02  5.661E-01 7.1785185E+00 3.5837041E+00 1.7265733E+00
  1.000E+01  6.913E-02  6.347E-01 6.9540676E+00 3.6329001E+00 1.4239188E+00
  9.957E+00  7.852E-02  6.116E-01 7.0457827E+00 3.6637899E+00 1.5436231E+00
  1.000E+01  5.207E-02  6.815E-01 6.8477952E+00 3.6994207E+00 1.2414345E+00
  9.957E+00  6.031E-02  6.580E-01 6.8873571E+00 3.7342154E+00 1.3568371E+00
  1.000E+01  3.738E-02  7.292E-01 6.7704759E+00 3.7598354E+00 1.0597711E+00
  9.957E+00  4.443E-02  7.052E-01 6.8107834E+00 3.7994042E+00 1.1721114E+00
  1.000E+01  2.507E-02  7.775E-01 6.6672454E+00 3.8088985E+00 8.7248530E-01
  9.957E+00  3.092E-02  7.532E-01 6.7216755E+00 3.8557065E+00 9.8488144E-01
  1.000E+01  1.519E-02  8.264E-01 6.5607205E+00 3.8458672E+00 6.7919234E-01
  9.957E+00  1.983E-02  8.019E-01 6.6134063E+00 3.8991936E+00 7.9061793E-01
  1.000E+01  7.761E-03  8.757E-01 6.4776796E+00 3.8733393E+00 4.8412729E-01
  9.957E+00  1.117E-02  8.510E-01 6.5144848E+00 3.9317537E+00 5.9235307E-01
  1.000E+01  2.796E-03  9.253E-01 6.4250714E+00 3.8923980E+00 2.8996233E-01
  9.957E+00  4.969E-03  9.004E-01 6.4460722E+00 3.9554432E+00 3.9403137E-01
  1.000E+01  3.108E-04  9.751E-01 6.4004427E+00 3.9023198E+00 9.6582250E-02
  9.957E+00  1.243E-03  9.502E-01 6.4100258E+00 3.9703223E+00 1.9676873E-01
  1.000E+01  3.108E-04  1.025E+00 6.4004425E+00 3.9023211E+00 -9.6581592E-02
  9.957E+00  0.000E+00  1.000E+00 6.3992677E+00 3.9754571E+00 3.3189950E-07
  1.000E+01  2.796E-03  1.075E+00 6.4250709E+00 3.8924020E+00 -2.8996167E-01
  9.957E+00  1.243E-03  1.050E+00 6.4100256E+00 3.9703248E+00 -1.9676808E-01
  1.000E+01  7.761E-03  1.124E+00 6.4776790E+00 3.8733454E+00 -4.8412662E-01
  9.957E+00  4.969E-03  1.100E+00 6.4460717E+00 3.9554488E+00 -3.9403074E-01
  1.000E+01  1.519E-02  1.174E+00 6.5607196E+00 3.8458704E+00 -6.7919168E-01
  9.957E+00  1.117E-02  1.149E+00 6.5144840E+00 3.9317594E+00 -5.9235243E-01
  1.000E+01  2.507E-02  1.223E+00 6.6672443E+00 3.8088924E+00 -8.7248463E-01
  9.957E+00  1.983E-02  1.198E+00 6.6134053E+00 3.8991923E+00 -7.9061726E-01
  1.000E+01  3.738E-02  1.271E+00 6.7704745E+00 3.7598294E+00 -1.0597705E+00
  9.957E+00  3.092E-02  1.247E+00 6.7216743E+00 3.8556979E+00 -9.8488081E-01
  1.000E+01  5.207E-02  1.318E+00 6.8477937E+00 3.6994339E+00 -1.2414339E+00
  9.957E+00  4.443E-02  1.295E+00 6.8107820E+00 3.7994067E+00 -1.1721108E+00
  1.000E+01  6.913E-02  1.365E+00 6.9540658E+00 3.6329111E+00 -1.4239182E+00
  9.957E+00  6.031E-02  1.342E+00 6.8873554E+00 3.7342340E+00 -1.3568366E+00
  1.000E+01  8.849E-02  1.411E+00 7.1262004E+00 3.5597747E+00 -1.6065244E+00
  9.957E+00  7.852E-02  1.388E+00 7.0457810E+00 3.6637855E+00 -1.5436227E+00
  1.000E+01  1.101E-01  1.456E+00 7.2159535E+00 3.4750024E+00 -1.7820353E+00
  9.957E+00  9.903E-02  1.434E+00 7.1785166E+00 3.5836952E+00 -1.7265726E+00
  1.000E+01  1.340E-01  1.500E+00 7.2937159E+00 3.3807430E+00 -1.9515835E+00
  9.957E+00  1.218E-01  1.478E+00 7.2331407E+00 3.4918235E+00 -1.9015499E+00
  1.000E+01  1.600E-01  1.543E+00 7.4397135E+00 3.2799117E+00 -2.1183507E+00
  9.957E+00  1.467E-01  1.521E+00 7.3927525E+00 3.3926299E+00 -2.0729595E+00
  1.000E+01  1.881E-01  1.584E+00 7.4635198E+00 3.1702361E+00 -2.2792863E+00
  9.957E+00  1.738E-01  1.563E+00 7.4382927E+00 3.2856026E+00 -2.2401487E+00
  1.000E+01  2.182E-01  1.623E+00 7.5576875E+00 3.0525143E+00 -2.4342652E+00
  9.957E+00  2.029E-01  1.604E+00 7.5265904E+00 3.1695622E+00 -2.4008336E+00
  1.000E+01  2.502E-01  1.662E+00 7.5702193E+00 2.9274850E+00 -2.5835222E+00
  9.957E+00  2.340E-01  1.643E+00 7.5809016E+00 3.0460081E+00 -2.5558906E+00
  1.000E+01  2.841E-01  1.698E+00 7.6166232E+00 2.7949939E+00 -2.7261586E+00
  9.957E+00  2.669E-01  1.680E+00 7.5832441E+00 2.9148176E+00 -2.7045592E+00
  1.000E+01  3.198E-01  1.733E+00 7.5832442E+00 2.6556765E+00 -2.8621254E+00
  9.957E+00  3.018E-01  1.716E+00 7.6166213E+00 2.7763455E+00 -2.8464408E+00
  1.000E+01  3.572E-01  1.766E+00 7.5809002E+00 2.5096967E+00 -2.9909488E+00
  9.957E+00  3.383E-01  1.750E+00 7.5702158E+00 2.6310860E+00 -2.9813718E+00
  1.000E+01  3.962E-01  1.797E+00 7.5265872E+00 2.3574415E+00 -3.1122644E+00
  9.957E+00  3.765E-01  1.782E+00 7.5576821E+00 2.4790809E+00 -3.1087036E+00
  1.000E+01  4.367E-01  1.826E+00 7.4382884E+00 2.1996616E+00 -3.2262100E+00
  9.957E+00  4.163E-01  1.812E+00 7.4635130E+00 2.3212501E+00 -3.2285873E+00
  1.000E+01  4.786E-01  1.853E+00 7.3927484E+00 2.0354951E+00 -3.3313055E+00
  9.957E+00  4.575E-01  1.840E+00 7.4397054E+00 2.1573518E+00 -3.3402904E+00
  1.000E+01  5.217E-01  1.878E+00 7.2331360E+00 1.8671846E+00 -3.4286957E+00
  9.957E+00  5.000E-01  1.866E+00 7.2937072E+00 1.9875143E+00 -3.4429683E+00
  1.000E+01  5.661E-01  1.901E+00 7.1785110E+00 1.6953695E+00 -3.5189197E+00
  9.957E+00  5.438E-01  1.890E+00 7.2159426E+00 1.8148428E+00 -3.5389642E+00
  1.000E+01  6.116E-01  1.921E+00 7.0457746E+00 1.5157252E+00 -3.5975606E+00
  9.957E+00  5.887E-01  1.912E+00 7.1261876E+00 1.6361015E+00 -3.6253070E+00
  1.000E+01  6.580E-01  1.940E+00 6.8873480E+00 1.3323111E+00 -3.6667246E+00
  9.957E+00  6.347E-01  1.931E+00 6.9540537E+00 1.4501367E+00 -3.6997803E+00
  1.000E+01  7.052E-01  1.956E+00 6.8107733E+00 1.1509223E+00 -3.7307260E+00
  9.957E+00  6.815E-01  1.948E+00 6.8477804E+00 1.2642938E+00 -3.7675281E+00
  1.000E+01  7.532E-01  1.969E+00 6.7216641E+00 9.6707812E-01 -3.7860032E+00
  9.957E+00  7.292E-01  1.963E+00 6.7704581E+00 1.0792846E+00 -3.8290429E+00
  1.000E+01  8.019E-01  1.980E+00 6.6133955E+00 7.7633043E-01 -3.8287090E+00
  9.957E+00  7.775E-01  1.975E+00 6.6672261E+00 8.8854919E-01 -3.8790081E+00
  1.000E+01  8.510E-01  1.989E+00 6.5144754E+00 5.8165115E-01 -3.8606871E+00
  9.957E+00  8.264E-01  1.985E+00 6.5607016E+00 6.9169682E-01 -3.9166645E+00
  1.000E+01  9.004E-01  1.995E+00 6.4460632E+00 3.8691313E-01 -3.8839492E+00
  9.957E+00  8.757E-01  1.992E+00 6.4776616E+00 4.9303909E-01 -3.9446463E+00
  1.000E+01  9.502E-01  1.999E+00 6.4100163E+00 1.9321384E-01 -3.8985560E+00
  9.957E+00  9.253E-01  1.997E+00 6.4250526E+00 2.9529897E-01 -3.9640533E+00
  1.000E+01  1.000E+00  2.000E+00 6.3992567E+00 5.8437390E-07 -3.9035943E+00
  9.957E+00  9.751E-01  2.000E+00 6.4004226E+00 9.8359598E-02 -3.9741533E+00
  1.000E+01  1.050E+00  1.999E+00 6.4100163E+00 -1.9321214E-01 -3.8985561E+00
  9.957E+00  1.025E+00  2.000E+00 6.4004226E+00 -9.8358253E-02 -3.9741534E+00
  1.000E+01  1.100E+00  1.995E+00 6.4460632E+00 -3.8691175E-01 -3.8839494E+00
  9.957E+00  1.075E+00  1.997E+00 6.4250526E+00 -2.9529730E-01 -3.9640534E+00
  1.000E+01  1.149E+00  1.989E+00 6.5144755E+00 -5.8164977E-01 -3.8606875E+00
  9.957E+00  1.124E+00  1.992E+00 6.4776617E+00 -4.9303794E-01 -3.9446466E+00
  1.000E+01  1.198E+00  1.980E+00 6.6133956E+00 -7.7632881E-01 -3.8287095E+00
  9.957E+00  1.174E+00  1.985E+00 6.5607017E+00 -6.9169520E-01 -3.9166649E+00