# TIME = 0.000000
VARIABLES = X, Y, Z, FX, FY, FZ
ZONE N=29232 E=58212 F=FEPOINT ET=TRIANGLE
  0.000E+00  9.502E-01  1.243E-03 6.7499131E+00 3.1678694E-01 6.3919139E+00
  0.000E+00  1.000E+00  0.000E+00 6.7400781E+00 3.2554916E-07 6.4001748E+00
  4.318E-02  9.751E-01  3.108E-04 6.7409724E+00 1.5836093E-01 6.3983184E+00
  0.000E+00  1.050E+00  1.243E-03 6.7499138E+00 -3.1678721E-01 6.3919140E+00
  4.318E-02  1.025E+00  3.108E-04 6.7409727E+00 -1.5836040E-01 6.3983185E+00
  0.000E+00  1.100E+00  4.969E-03 6.7834255E+00 -6.3438097E-01 6.3679640E+00
  4.318E-02  1.075E+00  2.796E-03 6.7638958E+00 -4.7544149E-01 6.3820549E+00
  0.000E+00  1.149E+00  1.117E-02 6.8481929E+00 -9.5368224E-01 6.3298192E+00
  4.318E-02  1.124E+00  7.761E-03 6.8133994E+00 -7.9381507E-01 6.3508085E+00
  0.000E+00  1.198E+00  1.983E-02 6.9425946E+00 -1.2728844E+00 6.2773823E+00
  4.318E-02  1.174E+00  1.519E-02 6.8922913E+00 -1.1136608E+00 6.3057503E+00
  0.000E+00  1.247E+00  3.092E-02 7.0449631E+00 -1.5856348E+00 6.2073536E+00
  4.318E-02  1.223E+00  2.507E-02 6.9936784E+00 -1.4305947E+00 6.2451145E+00
  0.000E+00  1.295E+00  4.443E-02 7.1258928E+00 -1.8870612E+00 6.1167131E+00
  4.318E-02  1.271E+00  3.738E-02 7.0899990E+00 -1.7376753E+00 6.1646639E+00
  0.000E+00  1.342E+00  6.031E-02 7.1926077E+00 -2.1844523E+00 6.0117648E+00
  4.318E-02  1.318E+00  5.207E-02 7.1580502E+00 -2.0355343E+00 6.0656163E+00
  0.000E+00  1.388E+00  7.852E-02 7.3445226E+00 -2.4851581E+00 5.8983525E+00
  4.318E-02  1.365E+00  6.913E-02 7.2555241E+00 -2.3347347E+00 5.9565371E+00
  0.000E+00  1.434E+00  9.903E-02 7.4704167E+00 -2.7796842E+00 5.7694049E+00
  4.318E-02  1.411E+00  8.849E-02 7.4219013E+00 -2.6341348E+00 5.8366322E+00
  0.000E+00  1.478E+00  1.218E-01 7.5151345E+00 -3.0613745E+00 5.6214689E+00
  4.318E-02  1.456E+00  1.101E-01 7.5032222E+00 -2.9219022E+00 5.6976174E+00
  0.000E+00  1.521E+00  1.467E-01 7.6699451E+00 -3.3373165E+00 5.4617864E+00
  4.318E-02  1.500E+00  1.340E-01 7.5724104E+00 -3.1998915E+00 5.5430705E+00
  0.000E+00  1.563E+00  1.738E-01 7.7088040E+00 -3.6064630E+00 5.2894822E+00
  4.318E-02  1.543E+00  1.600E-01 7.7142586E+00 -3.4733073E+00 5.3777512E+00
  0.000E+00  1.604E+00  2.029E-01 7.7924348E+00 -3.8651391E+00 5.1026674E+00
  4.318E-02  1.584E+00  1.881E-01 7.7308577E+00 -3.7371595E+00 5.1979068E+00
  0.000E+00  1.643E+00  2.340E-01 7.8441599E+00 -4.1147626E+00 4.9037797E+00
  4.318E-02  1.623E+00  2.182E-01 7.8223914E+00 -3.9912516E+00 5.0048952E+00
  0.000E+00  1.680E+00  2.669E-01 7.8434296E+00 -4.3540965E+00 4.6925761E+00
  4.318E-02  1.662E+00  2.502E-01 7.8312928E+00 -4.2359632E+00 4.7999002E+00
  0.000E+00  1.716E+00  3.018E-01 7.8776529E+00 -4.5825041E+00 4.4696633E+00
  4.318E-02  1.698E+00  2.841E-01 7.8776839E+00 -4.4698184E+00 4.5826720E+00
  0.000E+00  1.750E+00  3.383E-01 7.8312631E+00 -4.7997224E+00 4.2358125E+00
  4.318E-02  1.733E+00  3.198E-01 7.8434589E+00 -4.6927436E+00 4.3542578E+00
  0.000E+00  1.782E+00  3.765E-01 7.8223663E+00 -5.0047056E+00 3.9911094E+00
  4.318E-02  1.766E+00  3.572E-01 7.8441846E+00 -4.9039493E+00 4.1149152E+00
  0.000E+00  1.812E+00  4.163E-01 7.7308382E+00 -5.1977136E+00 3.7370242E+00
  4.318E-02  1.797E+00  3.962E-01 7.7924541E+00 -5.1028578E+00 3.8652887E+00
  0.000E+00  1.840E+00  4.575E-01 7.7142434E+00 -5.3775331E+00 3.4731801E+00
  4.318E-02  1.826E+00  4.367E-01 7.7088198E+00 -5.2896825E+00 3.6066083E+00
  0.000E+00  1.866E+00  5.000E-01 7.5723984E+00 -5.5428611E+00 3.1997725E+00
  4.318E-02  1.853E+00  4.786E-01 7.6699583E+00 -5.4619943E+00 3.3374539E+00
  0.000E+00  1.890E+00  5.438E-01 7.5032170E+00 -5.6974039E+00 2.9217958E+00
  4.318E-02  1.878E+00  5.217E-01 7.5151443E+00 -5.6217003E+00 3.0614993E+00
  0.000E+00  1.912E+00  5.887E-01 7.4219022E+00 -5.8364008E+00 2.6340410E+00
  4.318E-02  1.901E+00  5.661E-01 7.4704207E+00 -5.7696170E+00 2.7797958E+00
  0.000E+00  1.931E+00  6.347E-01 7.2555260E+00 -5.9563215E+00 2.3346521E+00
  4.318E-02  1.921E+00  6.116E-01 7.3445238E+00 -5.8985674E+00 2.4852549E+00
  0.000E+00  1.948E+00  6.815E-01 7.1580497E+00 -6.0654001E+00 2.0354621E+00
  4.318E-02  1.940E+00  6.580E-01 7.1926101E+00 -6.0119979E+00 2.1845357E+00
  0.000E+00  1.963E+00  7.292E-01 7.0899980E+00 -6.1644340E+00 1.7376144E+00
  4.318E-02  1.956E+00  7.052E-01 7.1258984E+00 -6.1169364E+00 1.8871318E+00
  0.000E+00  1.975E+00  7.775E-01 6.9936811E+00 -6.2448828E+00 1.4305457E+00
  4.318E-02  1.969E+00  7.532E-01 7.0449705E+00 -6.2075744E+00 1.5856953E+00
  0.000E+00  1.985E+00  8.264E-01 6.8923024E+00 -6.3055207E+00 1.1136229E+00
  4.318E-02  1.980E+00  8.019E-01 6.9425981E+00 -6.2776107E+00 1.2729343E+00
  0.000E+00  1.992E+00  8.757E-01 6.8134182E+00 -6.3505798E+00 7.9378833E-01
  4.318E-02  1.989E+00  8.510E-01 6.8481880E+00 -6.3300497E+00 9.5371897E-01
  0.000E+00  1.997E+00  9.253E-01 6.7639132E+00 -6.3818338E+00 4.7542504E-01
  4.318E-02  1.995E+00  9.004E-01 6.7834162E+00 -6.3681913E+00 6.3440274E-01
  0.000E+00  2.000E+00  9.751E-01 6.7409717E+00 -6.3981057E+00 1.5835502E-01
  4.318E-02  1.999E+00  9.502E-01 6.7499122E+00 -6.3921403E+00 3.1679456E-01
  0.000E+00  2.000E+00  1.025E+00 6.7409427E+00 -6.3981037E+00 -1.5835584E-01
  4.318E-02  2.000E+00  1.000E+00 6.7400932E+00 -6.4003992E+00 -3.4534549E-06
  0.000E+00  1.997E+00  1.075E+00 6.7638422E+00 -6.3818273E+00 -4.7542585E-01
  4.318E-02  1.999E+00  1.050E+00 6.7499460E+00 -6.3921356E+00 -3.1679971E-01
  0.000E+00  1.992E+00  1.124E+00 6.8133403E+00 -6.3505700E+00 -7.9378914E-01
  4.318E-02  1.995E+00  1.100E+00 6.7834649E+00 -6.3681818E+00 -6.3440405E-01
  0.000E+00  1.985E+00  1.174E+00 6.8922413E+00 -6.3055157E+00 -1.1136237E+00
  4.318E-02  1.989E+00  1.149E+00 6.8482310E+00 -6.3300405E+00 -9.5371766E-01
  0.000E+00  1.975E+00  1.223E+00 6.9936376E+00 -6.2448931E+00 -1.4305465E+00
  4.318E-02  1.980E+00  1.198E+00 6.9426271E+00 -6.2776130E+00 -1.2729328E+00
  0.000E+00  1.963E+00  1.271E+00 7.0899600E+00 -6.1644441E+00 -1.7376151E+00
  4.318E-02  1.969E+00  1.247E+00 7.0449909E+00 -6.2075884E+00 -1.5856951E+00
  0.000E+00  1.948E+00  1.318E+00 7.1580084E+00 -6.0653787E+00 -2.0354627E+00
  4.318E-02  1.956E+00  1.295E+00 7.1259179E+00 -6.1169322E+00 -1.8871325E+00
  0.000E+00  1.931E+00  1.365E+00 7.2554833E+00 -5.9563040E+00 -2.3346527E+00
  4.318E-02  1.940E+00  1.342E+00 7.1926310E+00 -6.0119680E+00 -2.1845361E+00
  0.000E+00  1.912E+00  1.411E+00 7.4218626E+00 -5.8364237E+00 -2.6340415E+00
  4.318E-02  1.921E+00  1.388E+00 7.3445432E+00 -5.8985752E+00 -2.4852551E+00
  0.000E+00  1.890E+00  1.456E+00 7.5031851E+00 -5.6973938E+00 -2.9217963E+00
  4.318E-02  1.901E+00  1.434E+00 7.4704356E+00 -5.7696322E+00 -2.7797954E+00
  0.000E+00  1.866E+00  1.500E+00 7.5723752E+00 -5.5428434E+00 -3.1997728E+00
  4.318E-02  1.878E+00  1.478E+00 7.5151535E+00 -5.6216728E+00 -3.0614984E+00
  0.000E+00  1.840E+00  1.543E+00 7.7142315E+00 -5.3775495E+00 -3.4731809E+00
  4.318E-02  1.853E+00  1.521E+00 7.6699603E+00 -5.4620023E+00 -3.3374535E+00
  0.000E+00  1.812E+00  1.584E+00 7.7308380E+00 -5.1977020E+00 -3.7370243E+00
  4.318E-02  1.826E+00  1.563E+00 7.7088136E+00 -5.2896856E+00 -3.6066075E+00
  0.000E+00  1.782E+00  1.623E+00 7.8223743E+00 -5.0047094E+00 -3.9911100E+00
  4.318E-02  1.797E+00  1.604E+00 7.7924408E+00 -5.1028505E+00 -3.8652884E+00
  0.000E+00  1.750E+00  1.662E+00 7.8312737E+00 -4.7997219E+00 -4.2358127E+00
  4.318E-02  1.766E+00  1.643E+00 7.8441674E+00 -4.9039565E+00 -4.1149156E+00
  0.000E+00  1.716E+00  1.698E+00 7.8776594E+00 -4.5825028E+00 -4.4696637E+00
  4.318E-02  1.733E+00  1.680E+00 7.8434422E+00 -4.6927374E+00 -4.3542584E+00
  0.000E+00  1.680E+00  1.733E+00 7.8434273E+00 -4.3540974E+00 -4.6925764E+00
  4.318E-02  1.698E+00  1.716E+00 7.8776716E+00 -4.4698208E+00 -4.5826733E+00
  0.000E+00  1.643E+00  1.766E+00 7.8441473E+00 -4.1147603E+00 -4.9037799E+00
  4.318E-02  1.662E+00  1.750E+00 7.8312868E+00 -4.2359593E+00 -4.7999011E+00
  0.000E+00  1.604E+00  1.797E+00 7.7924143E+00 -3.8651385E+00 -5.1026676E+00
  4.318E-02  1.623E+00  1.782E+00 7.8223921E+00 -3.9912504E+00 -5.0048961E+00
  0.000E+00  1.563E+00  1.826E+00 7.7087837E+00 -3.6064606E+00 -5.2894823E+00
  4.318E-02  1.584E+00  1.812E+00 7.7308614E+00 -3.7371570E+00 -5.1979070E+00
  0.000E+00  1.521E+00  1.853E+00 7.6699297E+00 -3.3373156E+00 -5.4617866E+00
  4.318E-02  1.543E+00  1.840E+00 7.7142606E+00 -3.4733063E+00 -5.3777512E+00
  0.000E+00  1.478E+00  1.878E+00 7.5151204E+00 -3.0613724E+00 -5.6214689E+00
  4.318E-02  1.500E+00  1.866E+00 7.5724099E+00 -3.1998890E+00 -5.5430707E+00
  0.000E+00  1.434E+00  1.901E+00 7.4703966E+00 -2.7796839E+00 -5.7694049E+00
  4.318E-02  1.456E+00  1.890E+00 7.5032246E+00 -2.9219005E+00 -5.6976179E+00
  0.000E+00  1.388E+00  1.921E+00 7.3445016E+00 -2.4851558E+00 -5.8983524E+00
  4.318E-02  1.411E+00  1.912E+00 7.4219074E+00 -2.6341330E+00 -5.8366325E+00
  0.000E+00  1.342E+00  1.940E+00 7.1925921E+00 -2.1844512E+00 -6.0117648E+00
  4.318E-02  1.365E+00  1.931E+00 7.2555292E+00 -2.3347330E+00 -5.9565370E+00
  0.000E+00  1.295E+00  1.956E+00 7.1258827E+00 -1.8870599E+00 -6.1167130E+00
  4.318E-02  1.318E+00  1.948E+00 7.1580521E+00 -2.0355333E+00 -6.0656163E+00
  0.000E+00  1.247E+00  1.969E+00 7.0449551E+00 -1.5856338E+00 -6.2073535E+00
  4.318E-02  1.271E+00  1.963E+00 7.0899994E+00 -1.7376737E+00 -6.1646640E+00
  0.000E+00  1.198E+00  1.980E+00 6.9425872E+00 -1.2728829E+00 -6.2773821E+00
  4.318E-02  1.223E+00  1.975E+00 6.9936791E+00 -1.4305932E+00 -6.2451147E+00
  0.000E+00  1.149E+00  1.989E+00 6.8481855E+00 -9.5368104E-01 -6.3298189E+00
  4.318E-02  1.174E+00  1.985E+00 6.8922929E+00 -1.1136589E+00 -6.3057504E+00
  0.000E+00  1.100E+00  1.995E+00 6.7834167E+00 -6.3437965E-01 -6.3679636E+00
  4.318E-02  1.124E+00  1.992E+00 6.8134024E+00 -7.9381403E-01 -6.3508087E+00
  0.000E+00  1.050E+00  1.999E+00 6.7499027E+00 -3.1678550E-01 -6.3919135E+00
  4.318E-02  1.075E+00  1.997E+00 6.7639012E+00 -4.7543966E-01 -6.3820551E+00
  0.000E+00  1.000E+00  2.000E+00 6.7400661E+00 6.4504592E-07 -6.4001742E+00
  4.318E-02  1.025E+00  2.000E+00 6.7409805E+00 -1.5835915E-01 -6.3983187E+00
  0.000E+00  9.502E-01  1.999E+00 6.7499033E+00 3.1678771E-01 -6.3919133E+00
  4.318E-02  9.751E-01  2.000E+00 6.7409809E+00 1.5836203E-01 -6.3983185E+00
  0.000E+00  9.004E-01  1.995E+00 6.7834179E+00 6.3438139E-01 -6.3679631E+00
  4.318E-02  9.253E-01  1.997E+00 6.7639022E+00 4.7544302E-01 -6.3820547E+00
  0.000E+00  8.510E-01  1.989E+00 6.8481874E+00 9.5368280E-01 -6.3298181E+00
  4.318E-02  8.757E-01  1.992E+00 6.8134040E+00 7.9381650E-01 -6.3508080E+00
  0.000E+00  8.019E-01  1.980E+00 6.9425898E+00 1.2728851E+00 -6.2773810E+00
  4.318E-02  8.264E-01  1.985E+00 6.8922952E+00 1.1136621E+00 -6.3057495E+00
  0.000E+00  7.532E-01  1.969E+00 7.0449582E+00 1.5856354E+00 -6.2073522E+00
  4.318E-02  7.775E-01  1.975E+00 6.9936820E+00 1.4305960E+00 -6.2451135E+00
  0.000E+00  7.052E-01  1.956E+00 7.1258865E+00 1.8870617E+00 -6.1167115E+00
  4.318E-02  7.292E-01  1.963E+00 7.0900029E+00 1.7376766E+00 -6.1646627E+00
  0.000E+00  6.580E-01  1.940E+00 7.1925964E+00 2.1844527E+00 -6.0117630E+00
  4.318E-02  6.815E-01  1.948E+00 7.1580562E+00 2.0355359E+00 -6.0656148E+00
  0.000E+00  6.116E-01  1.921E+00 7.3445065E+00 2.4851584E+00 -5.8983507E+00
  4.318E-02  6.347E-01  1.931E+00 7.2555337E+00 2.3347362E+00 -5.9565354E+00
  0.000E+00  5.661E-01  1.901E+00 7.4704018E+00 2.7796844E+00 -5.7694028E+00
  4.318E-02  5.887E-01  1.912E+00 7.4219122E+00 2.6341354E+00 -5.8366303E+00
  0.000E+00  5.217E-01  1.878E+00 7.5151261E+00 3.0613747E+00 -5.6214668E+00
  4.318E-02  5.438E-01  1.890E+00 7.5032302E+00 2.9219025E+00 -5.6976160E+00
  0.000E+00  4.786E-01  1.853E+00 7.6699357E+00 3.3373167E+00 -5.4617842E+00
  4.318E-02  5.000E-01  1.866E+00 7.5724158E+00 3.1998924E+00 -5.5430686E+00
  0.000E+00  4.367E-01  1.826E+00 7.7087900E+00 3.6064630E+00 -5.2894800E+00
  4.318E-02  4.575E-01  1.840E+00 7.7142668E+00 3.4733084E+00 -5.3777490E+00
  0.000E+00  3.962E-01  1.797E+00 7.7924208E+00 3.8651391E+00 -5.1026651E+00
  4.318E-02  4.163E-01  1.812E+00 7.7308679E+00 3.7371601E+00 -5.1979048E+00
  0.000E+00  3.572E-01  1.766E+00 7.8441540E+00 4.1147625E+00 -4.9037774E+00
  4.318E-02  3.765E-01  1.782E+00 7.8223987E+00 3.9912515E+00 -5.0048938E+00
  0.000E+00  3.198E-01  1.733E+00 7.8434341E+00 4.3540964E+00 -4.6925739E+00
  4.318E-02  3.383E-01  1.750E+00 7.8312936E+00 4.2359629E+00 -4.7998990E+00
  0.000E+00  2.841E-01  1.698E+00 7.8776662E+00 4.5825040E+00 -4.4696611E+00
  4.318E-02  3.018E-01  1.716E+00 7.8776784E+00 4.4698183E+00 -4.5826709E+00
  0.000E+00  2.502E-01  1.662E+00 7.8312805E+00 4.7997222E+00 -4.2358103E+00
  4.318E-02  2.669E-01  1.680E+00 7.8434489E+00 4.6927438E+00 -4.3542564E+00
  0.000E+00  2.182E-01  1.623E+00 7.8223809E+00 5.0047054E+00 -3.9911073E+00
  4.318E-02  2.340E-01  1.643E+00 7.8441741E+00 4.9039501E+00 -4.1149133E+00
  0.000E+00  1.881E-01  1.584E+00 7.7308443E+00 5.1977133E+00 -3.7370222E+00
  4.318E-02  2.029E-01  1.604E+00 7.7924473E+00 5.1028588E+00 -3.8652864E+00
  0.000E+00  1.600E-01  1.543E+00 7.7142376E+00 5.3775328E+00 -3.4731781E+00
  4.318E-02  1.738E-01  1.563E+00 7.7088199E+00 5.2896837E+00 -3.6066056E+00
  0.000E+00  1.340E-01  1.500E+00 7.5723809E+00 5.5428609E+00 -3.1997707E+00
  4.318E-02  1.467E-01  1.521E+00 7.6699662E+00 5.4619954E+00 -3.3374513E+00
  0.000E+00  1.101E-01  1.456E+00 7.5031904E+00 5.6974037E+00 -2.9217941E+00
  4.318E-02  1.218E-01  1.478E+00 7.5151591E+00 5.6217012E+00 -3.0614970E+00
  0.000E+00  8.849E-02  1.411E+00 7.4218680E+00 5.8364003E+00 -2.6340393E+00
  4.318E-02  9.903E-02  1.434E+00 7.4704407E+00 5.7696177E+00 -2.7797937E+00
  0.000E+00  6.913E-02  1.365E+00 7.2554877E+00 5.9563215E+00 -2.3346507E+00
  4.318E-02  7.852E-02  1.388E+00 7.3445477E+00 5.8985680E+00 -2.4852533E+00
  0.000E+00  5.207E-02  1.318E+00 7.1580123E+00 6.0654001E+00 -2.0354609E+00
  4.318E-02  6.031E-02  1.342E+00 7.1926351E+00 6.0119983E+00 -2.1845349E+00
  0.000E+00  3.738E-02  1.271E+00 7.0899633E+00 6.1644340E+00 -1.7376134E+00
  4.318E-02  4.443E-02  1.295E+00 7.1259215E+00 6.1169368E+00 -1.8871313E+00
  0.000E+00  2.507E-02  1.223E+00 6.9936403E+00 6.2448830E+00 -1.4305448E+00
  4.318E-02  3.092E-02  1.247E+00 7.0449938E+00 6.2075751E+00 -1.5856940E+00
  0.000E+00  1.519E-02  1.174E+00 6.8922434E+00 6.3055209E+00 -1.1136222E+00
  4.318E-02  1.983E-02  1.198E+00 6.9426294E+00 6.2776117E+00 -1.2729319E+00
  0.000E+00  7.761E-03  1.124E+00 6.8133417E+00 6.3505802E+00 -7.9378782E-01
  4.318E-02  1.117E-02  1.149E+00 6.8482327E+00 6.3300505E+00 -9.5371693E-01
  0.000E+00  2.796E-03  1.075E+00 6.7638430E+00 6.3818343E+00 -4.7542472E-01
  4.318E-02  4.969E-03  1.100E+00 6.7834660E+00 6.3681919E+00 -6.3440353E-01
  0.000E+00  3.108E-04  1.025E+00 6.7409428E+00 6.3981063E+00 -1.5835489E-01
  4.318E-02  1.243E-03  1.050E+00 6.7499464E+00 6.3921410E+00 -3.1679937E-01
  0.000E+00  3.108E-04  9.751E-01 6.7409711E+00 6.3981045E+00 1.5835578E-01
  4.318E-02  0.000E+00  1.000E+00 6.7400929E+00 6.4004006E+00 -3.3180205E-06
  0.000E+00  2.796E-03  9.253E-01 6.7639119E+00 6.3818282E+00 4.7542561E-01
  4.318E-02  1.243E-03  9.502E-01 6.7499112E+00 6.3921378E+00 3.1679449E-01
  0.000E+00  7.761E-03  8.757E-01 6.8134163E+00 6.3505709E+00 7.9378872E-01
  4.318E-02  4.969E-03  9.004E-01 6.7834146E+00 6.3681841E+00 6.3440247E-01
  0.000E+00  1.519E-02  8.264E-01 6.8922998E+00 6.3055167E+00 1.1136231E+00
  4.318E-02  1.117E-02  8.510E-01 6.8481858E+00 6.3300425E+00 9.5371852E-01
  0.000E+00  2.507E-02  7.775E-01 6.9936780E+00 6.2448942E+00 1.4305457E+00
  4.318E-02  1.983E-02  8.019E-01 6.9425952E+00 6.2776149E+00 1.2729336E+00
  0.000E+00  3.738E-02  7.292E-01 7.0899943E+00 6.1644453E+00 1.7376142E+00
  4.318E-02  3.092E-02  7.532E-01 7.0449670E+00 6.2075905E+00 1.5856944E+00
  0.000E+00  5.207E-02  6.815E-01 7.1580454E+00 6.0653800E+00 2.0354617E+00
  4.318E-02  4.443E-02  7.052E-01 7.1258943E+00 6.1169346E+00 1.8871308E+00
  0.000E+00  6.913E-02  6.347E-01 7.2555211E+00 5.9563054E+00 2.3346515E+00
  4.318E-02  6.031E-02  6.580E-01 7.1926055E+00 6.0119704E+00 2.1845344E+00
  0.000E+00  8.849E-02  5.887E-01 7.4218963E+00 5.8364255E+00 2.6340403E+00
  4.318E-02  7.852E-02  6.116E-01 7.3445188E+00 5.8985774E+00 2.4852538E+00
  0.000E+00  1.101E-01  5.438E-01 7.5032112E+00 5.6973953E+00 2.9217949E+00
  4.318E-02  9.903E-02  5.661E-01 7.4704152E+00 5.7696342E+00 2.7797943E+00
  0.000E+00  1.340E-01  5.000E-01 7.5723922E+00 5.5428450E+00 3.1997713E+00
  4.318E-02  1.218E-01  5.217E-01 7.5151383E+00 5.6216747E+00 3.0614974E+00
  0.000E+00  1.600E-01  4.575E-01 7.7142368E+00 5.3775511E+00 3.4731793E+00
  4.318E-02  1.467E-01  4.786E-01 7.6699519E+00 5.4620040E+00 3.3374525E+00
  0.000E+00  1.881E-01  4.163E-01 7.7308313E+00 5.1977036E+00 3.7370227E+00
  4.318E-02  1.738E-01  4.367E-01 7.7088131E+00 5.2896872E+00 3.6066064E+00
  0.000E+00  2.182E-01  3.765E-01 7.8223592E+00 5.0047110E+00 3.9911084E+00
  4.318E-02  2.029E-01  3.962E-01 7.7924471E+00 5.1028522E+00 3.8652869E+00
  0.000E+00  2.502E-01  3.383E-01 7.8312559E+00 4.7997236E+00 4.2358110E+00
  4.318E-02  2.340E-01  3.572E-01 7.8441775E+00 4.9039587E+00 4.1149135E+00
  0.000E+00  2.841E-01  3.018E-01 7.8776457E+00 4.5825045E+00 4.4696620E+00
  4.318E-02  2.669E-01  3.198E-01 7.8434517E+00 4.6927400E+00 4.3542557E+00
  0.000E+00  3.198E-01  2.669E-01 7.8434224E+00 4.3540991E+00 4.6925747E+00
  4.318E-02  3.018E-01  2.841E-01 7.8776767E+00 4.4698239E+00 4.5826703E+00
  0.000E+00  3.572E-01  2.340E-01 7.8441528E+00 4.1147620E+00 4.9037783E+00
  4.318E-02  3.383E-01  2.502E-01 7.8312856E+00 4.2359626E+00 4.7998981E+00
  0.000E+00  3.962E-01  2.029E-01 7.7924278E+00 3.8651402E+00 5.1026660E+00
  4.318E-02  3.765E-01  2.182E-01 7.8223844E+00 3.9912535E+00 5.0048934E+00
  0.000E+00  4.367E-01  1.738E-01 7.7087973E+00 3.6064623E+00 5.2894808E+00
  4.318E-02  4.163E-01  1.881E-01 7.7308509E+00 3.7371595E+00 5.1979049E+00
  0.000E+00  4.786E-01  1.467E-01 7.6699387E+00 3.3373172E+00 5.4617851E+00
  4.318E-02  4.575E-01  1.600E-01 7.7142521E+00 3.4733084E+00 5.3777494E+00
  0.000E+00  5.217E-01  1.218E-01 7.5151285E+00 3.0613740E+00 5.6214675E+00
  4.318E-02  5.000E-01  1.340E-01 7.5724042E+00 3.1998914E+00 5.5430688E+00
  0.000E+00  5.661E-01  9.903E-02 7.4704110E+00 2.7796855E+00 5.7694036E+00
  4.318E-02  5.438E-01  1.101E-01 7.5032165E+00 2.9219035E+00 5.6976158E+00
  0.000E+00  6.116E-01  7.852E-02 7.3445175E+00 2.4851574E+00 5.8983514E+00
  4.318E-02  5.887E-01  8.849E-02 7.4218958E+00 2.6341353E+00 5.8366304E+00
  0.000E+00  6.580E-01  6.031E-02 7.1926031E+00 2.1844527E+00 6.0117637E+00
  4.318E-02  6.347E-01  6.913E-02 7.2555193E+00 2.3347348E+00 5.9565357E+00
  0.000E+00  7.052E-01  4.443E-02 7.1258888E+00 1.8870613E+00 6.1167121E+00
  4.318E-02  6.815E-01  5.207E-02 7.1580460E+00 2.0355350E+00 6.0656150E+00
  0.000E+00  7.532E-01  3.092E-02 7.0449597E+00 1.5856352E+00 6.2073528E+00
  4.318E-02  7.292E-01  3.738E-02 7.0899953E+00 1.7376757E+00 6.1646628E+00
  0.000E+00  8.019E-01  1.983E-02 6.9425919E+00 1.2728842E+00 6.2773816E+00
  4.318E-02  7.775E-01  2.507E-02 6.9936753E+00 1.4305953E+00 6.2451136E+00
  0.000E+00  8.510E-01  1.117E-02 6.8481909E+00 9.5368241E-01 6.3298187E+00
  4.318E-02  8.264E-01  1.519E-02 6.8922890E+00 1.1136609E+00 6.3057495E+00
  0.000E+00  9.004E-01  4.969E-03 6.7834241E+00 6.3438117E-01 6.3679636E+00
  4.318E-02  8.757E-01  7.761E-03 6.8133977E+00 7.9381600E-01 6.3508080E+00
  4.318E-02  9.253E-01  2.796E-03 6.7638947E+00 4.7544153E-01 6.3820546E+00
  1.000E+01  1.050E+00  1.243E-03 6.7499138E+00 -3.1678721E-01 6.3919140E+00
  1.000E+01  1.000E+00  5.551E-16 6.7400781E+00 3.2554916E-07 6.4001748E+00
  9.957E+00  1.025E+00  3.108E-04 6.7409635E+00 -1.5836019E-01 6.3983460E+00
  1.000E+01  9.502E-01  1.243E-03 6.7499131E+00 3.1678694E-01 6.3919139E+00
  9.957E+00  9.751E-01  3.108E-04 6.7409631E+00 1.5836003E-01 6.3983459E+00
  1.000E+01  9.004E-01  4.969E-03 6.7834241E+00 6.3438117E-01 6.3679636E+00
  9.957E+00  9.253E-01  2.796E-03 6.7638855E+00 4.7544110E-01 6.3820821E+00
  1.000E+01  8.510E-01  1.117E-02 6.8481909E+00 9.5368241E-01 6.3298187E+00
  9.957E+00  8.757E-01  7.761E-03 6.8133884E+00 7.9381910E-01 6.3508352E+00
  1.000E+01  8.019E-01  1.983E-02 6.9425919E+00 1.2728842E+00 6.2773816E+00
  9.957E+00  8.264E-01  1.519E-02 6.8922799E+00 1.1136670E+00 6.3057765E+00
  1.000E+01  7.532E-01  3.092E-02 7.0449597E+00 1.5856352E+00 6.2073528E+00
  9.957E+00  7.775E-01  2.507E-02 6.9936664E+00 1.4306014E+00 6.2451404E+00
  1.000E+01  7.052E-01  4.443E-02 7.1258888E+00 1.8870613E+00 6.1167121E+00
  9.957E+00  7.292E-01  3.738E-02 7.0899863E+00 1.7376817E+00 6.1646893E+00
  1.000E+01  6.580E-01  6.031E-02 7.1926031E+00 2.1844527E+00 6.0117637E+00
  9.957E+00  6.815E-01  5.207E-02 7.1580368E+00 2.0355430E+00 6.0656408E+00
  1.000E+01  6.116E-01  7.852E-02 7.3445175E+00 2.4851574E+00 5.8983514E+00
  9.957E+00  6.347E-01  6.913E-02 7.2555103E+00 2.3347457E+00 5.9565608E+00
  1.000E+01  5.661E-01  9.903E-02 7.4704110E+00 2.7796855E+00 5.7694036E+00
  9.957E+00  5.887E-01  8.849E-02 7.4218863E+00 2.6341463E+00 5.8366550E+00
  1.000E+01  5.217E-01  1.218E-01 7.5151285E+00 3.0613740E+00 5.6214675E+00
  9.957E+00  5.438E-01  1.101E-01 7.5032067E+00 2.9219149E+00 5.6976405E+00
  1.000E+01  4.786E-01  1.467E-01 7.6699387E+00 3.3373172E+00 5.4617851E+00
  9.957E+00  5.000E-01  1.340E-01 7.5723942E+00 3.1999054E+00 5.5430918E+00
  1.000E+01  4.367E-01  1.738E-01 7.7087973E+00 3.6064623E+00 5.2894808E+00
  9.957E+00  4.575E-01  1.600E-01 7.7142428E+00 3.4733243E+00 5.3777716E+00
  1.000E+01  3.962E-01  2.029E-01 7.7924278E+00 3.8651402E+00 5.1026660E+00
  9.957E+00  4.163E-01  1.881E-01 7.7308426E+00 3.7371752E+00 5.1979269E+00
  1.000E+01  3.572E-01  2.340E-01 7.8441528E+00 4.1147620E+00 4.9037783E+00
  9.957E+00  3.765E-01  2.182E-01 7.8223769E+00 3.9912684E+00 5.0049159E+00
  1.000E+01  3.198E-01  2.669E-01 7.8434224E+00 4.3540991E+00 4.6925747E+00
  9.957E+00  3.383E-01  2.502E-01 7.8312793E+00 4.2359780E+00 4.7999207E+00
  1.000E+01  2.841E-01  3.018E-01 7.8776457E+00 4.5825045E+00 4.4696620E+00
  9.957E+00  3.018E-01  2.841E-01 7.8776707E+00 4.4698402E+00 4.5826922E+00
  1.000E+01  2.502E-01  3.383E-01 7.8312559E+00 4.7997236E+00 4.2358110E+00
  9.957E+00  2.669E-01  3.198E-01 7.8434455E+00 4.6927575E+00 4.3542761E+00
  1.000E+01  2.182E-01  3.765E-01 7.8223592E+00 5.0047110E+00 3.9911084E+00
  9.957E+00  2.340E-01  3.572E-01 7.8441710E+00 4.9039781E+00 4.1149324E+00
  1.000E+01  1.881E-01  4.163E-01 7.7308313E+00 5.1977036E+00 3.7370227E+00
  9.957E+00  2.029E-01  3.962E-01 7.7924403E+00 5.1028733E+00 3.8653035E+00
  1.000E+01  1.600E-01  4.575E-01 7.7142368E+00 5.3775511E+00 3.4731793E+00
  9.957E+00  1.738E-01  4.367E-01 7.7088060E+00 5.2897098E+00 3.6066205E+00
  1.000E+01  1.340E-01  5.000E-01 7.5723922E+00 5.5428450E+00 3.1997713E+00
  9.957E+00  1.467E-01  4.786E-01 7.6699443E+00 5.4620272E+00 3.3374654E+00
  1.000E+01  1.101E-01  5.438E-01 7.5032112E+00 5.6973953E+00 2.9217949E+00
  9.957E+00  1.218E-01  5.217E-01 7.5151309E+00 5.6216980E+00 3.0615102E+00
  1.000E+01  8.849E-02  5.887E-01 7.4218963E+00 5.8364255E+00 2.6340403E+00
  9.957E+00  9.903E-02  5.661E-01 7.4704077E+00 5.7696577E+00 2.7798068E+00
  1.000E+01  6.913E-02  6.347E-01 7.2555211E+00 5.9563054E+00 2.3346515E+00
  9.957E+00  7.852E-02  6.116E-01 7.3445106E+00 5.8986011E+00 2.4852640E+00
  1.000E+01  5.207E-02  6.815E-01 7.1580454E+00 6.0653800E+00 2.0354617E+00
  9.957E+00  6.031E-02  6.580E-01 7.1925975E+00 6.0119945E+00 2.1845452E+00
  1.000E+01  3.738E-02  7.292E-01 7.0899943E+00 6.1644453E+00 1.7376142E+00
  9.957E+00  4.443E-02  7.052E-01 7.1258866E+00 6.1169592E+00 1.8871418E+00
  1.000E+01  2.507E-02  7.775E-01 6.9936780E+00 6.2448942E+00 1.4305457E+00
  9.957E+00  3.092E-02  7.532E-01 7.0449588E+00 6.2076156E+00 1.5857027E+00
  1.000E+01  1.519E-02  8.264E-01 6.8922998E+00 6.3055167E+00 1.1136231E+00
  9.957E+00  1.983E-02  8.019E-01 6.9425859E+00 6.2776404E+00 1.2729370E+00
  1.000E+01  7.761E-03  8.757E-01 6.8134163E+00 6.3505709E+00 7.9378872E-01
  9.957E+00  1.117E-02  8.510E-01 6.8481767E+00 6.3300680E+00 9.5372094E-01
  1.000E+01  2.796E-03  9.253E-01 6.7639119E+00 6.3818282E+00 4.7542561E-01
  9.957E+00  4.969E-03  9.004E-01 6.7834067E+00 6.3682098E+00 6.3440805E-01
  1.000E+01  3.108E-04  9.751E-01 6.7409711E+00 6.3981045E+00 1.5835578E-01
  9.957E+00  1.243E-03  9.502E-01 6.7499032E+00 6.3921620E+00 3.1680371E-01
  1.000E+01  3.108E-04  1.025E+00 6.7409428E+00 6.3981063E+00 -1.5835489E-01
  9.957E+00  0.000E+00  1.000E+00 6.7400866E+00 6.4004273E+00 4.2056175E-06
  1.000E+01  2.796E-03  1.075E+00 6.7638430E+00 6.3818343E+00 -4.7542472E-01
  9.957E+00  1.243E-03  1.050E+00 6.7499384E+00 6.3921664E+00 -3.1679706E-01
  1.000E+01  7.761E-03  1.124E+00 6.8133417E+00 6.3505802E+00 -7.9378782E-01
  9.957E+00  4.969E-03  1.100E+00 6.7834580E+00 6.3682188E+00 -6.3440524E-01
  1.000E+01  1.519E-02  1.174E+00 6.8922434E+00 6.3055209E+00 -1.1136222E+00
  9.957E+00  1.117E-02  1.149E+00 6.8482236E+00 6.3300765E+00 -9.5372076E-01
  1.000E+01  2.507E-02  1.223E+00 6.9936403E+00 6.2448830E+00 -1.4305448E+00
  9.957E+00  1.983E-02  1.198E+00 6.9426202E+00 6.2776372E+00 -1.2729369E+00
  1.000E+01  3.738E-02  1.271E+00 7.0899633E+00 6.1644340E+00 -1.7376134E+00
  9.957E+00  3.092E-02  1.247E+00 7.0449856E+00 6.2076005E+00 -1.5857014E+00
  1.000E+01  5.207E-02  1.318E+00 7.1580123E+00 6.0654001E+00 -2.0354609E+00
  9.957E+00  4.443E-02  1.295E+00 7.1259138E+00 6.1169621E+00 -1.8871397E+00
  1.000E+01  6.913E-02  1.365E+00 7.2554877E+00 5.9563215E+00 -2.3346507E+00
  9.957E+00  6.031E-02  1.342E+00 7.1926271E+00 6.0120230E+00 -2.1845434E+00
  1.000E+01  8.849E-02  1.411E+00 7.4218680E+00 5.8364003E+00 -2.6340393E+00
  9.957E+00  7.852E-02  1.388E+00 7.3445399E+00 5.8985920E+00 -2.4852628E+00
  1.000E+01  1.101E-01  1.456E+00 7.5031904E+00 5.6974037E+00 -2.9217941E+00
  9.957E+00  9.903E-02  1.434E+00 7.4704334E+00 5.7696411E+00 -2.7798056E+00
  1.000E+01  1.340E-01  1.500E+00 7.5723809E+00 5.5428609E+00 -3.1997707E+00
  9.957E+00  1.218E-01  1.478E+00 7.5151517E+00 5.6217238E+00 -3.0615097E+00
  1.000E+01  1.600E-01  1.543E+00 7.7142376E+00 5.3775328E+00 -3.4731781E+00
  9.957E+00  1.467E-01  1.521E+00 7.6699587E+00 5.4620173E+00 -3.3374644E+00
  1.000E+01  1.881E-01  1.584E+00 7.7308443E+00 5.1977133E+00 -3.7370222E+00
  9.957E+00  1.738E-01  1.563E+00 7.7088128E+00 5.2897048E+00 -3.6066199E+00
  1.000E+01  2.182E-01  1.623E+00 7.8223809E+00 5.0047054E+00 -3.9911073E+00
  9.957E+00  2.029E-01  1.604E+00 7.7924405E+00 5.1028786E+00 -3.8653025E+00
  1.000E+01  2.502E-01  1.662E+00 7.8312805E+00 4.7997222E+00 -4.2358103E+00
  9.957E+00  2.340E-01  1.643E+00 7.8441677E+00 4.9039688E+00 -4.1149306E+00
  1.000E+01  2.841E-01  1.698E+00 7.8776662E+00 4.5825040E+00 -4.4696611E+00
  9.957E+00  2.669E-01  1.680E+00 7.8434427E+00 4.6927616E+00 -4.3542743E+00
  1.000E+01  3.198E-01  1.733E+00 7.8434341E+00 4.3540964E+00 -4.6925739E+00
  9.957E+00  3.018E-01  1.716E+00 7.8776724E+00 4.4698358E+00 -4.5826897E+00
  1.000E+01  3.572E-01  1.766E+00 7.8441540E+00 4.1147625E+00 -4.9037774E+00
  9.957E+00  3.383E-01  1.750E+00 7.8312873E+00 4.2359799E+00 -4.7999184E+00
  1.000E+01  3.962E-01  1.797E+00 7.7924208E+00 3.8651391E+00 -5.1026651E+00
  9.957E+00  3.765E-01  1.782E+00 7.8223913E+00 3.9912676E+00 -5.0049137E+00
  1.000E+01  4.367E-01  1.826E+00 7.7087900E+00 3.6064630E+00 -5.2894800E+00
  9.957E+00  4.163E-01  1.812E+00 7.7308595E+00 3.7371758E+00 -5.1979255E+00
  1.000E+01  4.786E-01  1.853E+00 7.6699357E+00 3.3373167E+00 -5.4617842E+00
  9.957E+00  4.575E-01  1.840E+00 7.7142575E+00 3.4733233E+00 -5.3777704E+00
  1.000E+01  5.217E-01  1.878E+00 7.5151261E+00 3.0613747E+00 -5.6214668E+00
  9.957E+00  5.000E-01  1.866E+00 7.5724059E+00 3.1999059E+00 -5.5430905E+00
  1.000E+01  5.661E-01  1.901E+00 7.4704018E+00 2.7796844E+00 -5.7694028E+00
  9.957E+00  5.438E-01  1.890E+00 7.5032205E+00 2.9219147E+00 -5.6976390E+00
  1.000E+01  6.116E-01  1.921E+00 7.3445065E+00 2.4851584E+00 -5.8983507E+00
  9.957E+00  5.887E-01  1.912E+00 7.4219025E+00 2.6341461E+00 -5.8366534E+00
  1.000E+01  6.580E-01  1.940E+00 7.1925964E+00 2.1844527E+00 -6.0117630E+00
  9.957E+00  6.347E-01  1.931E+00 7.2555248E+00 2.3347457E+00 -5.9565599E+00
  1.000E+01  7.052E-01  1.956E+00 7.1258865E+00 1.8870617E+00 -6.1167115E+00
  9.957E+00  6.815E-01  1.948E+00 7.1580470E+00 2.0355422E+00 -6.0656399E+00
  1.000E+01  7.532E-01  1.969E+00 7.0449582E+00 1.5856354E+00 -6.2073522E+00
  9.957E+00  7.292E-01  1.963E+00 7.0899939E+00 1.7376817E+00 -6.1646882E+00
  1.000E+01  8.019E-01  1.980E+00 6.9425898E+00 1.2728851E+00 -6.2773810E+00
  9.957E+00  7.775E-01  1.975E+00 6.9936730E+00 1.4306015E+00 -6.2451393E+00
  1.000E+01  8.510E-01  1.989E+00 6.8481874E+00 9.5368280E-01 -6.3298181E+00
  9.957E+00  8.264E-01  1.985E+00 6.8922862E+00 1.1136677E+00 -6.3057756E+00
  1.000E+01  9.004E-01  1.995E+00 6.7834179E+00 6.3438139E-01 -6.3679631E+00
  9.957E+00  8.757E-01  1.992E+00 6.8133948E+00 7.9381934E-01 -6.3508343E+00
  1.000E+01  9.502E-01  1.999E+00 6.7499033E+00 3.1678771E-01 -6.3919133E+00
  9.957E+00  9.253E-01  1.997E+00 6.7638930E+00 4.7544249E-01 -6.3820814E+00
  1.000E+01  1.000E+00  2.000E+00 6.7400661E+00 6.4504592E-07 -6.4001742E+00
  9.957E+00  9.751E-01  2.000E+00 6.7409715E+00 1.5836070E-01 -6.3983453E+00
  1.000E+01  1.050E+00  1.999E+00 6.7499027E+00 -3.1678550E-01 -6.3919135E+00
  9.957E+00  1.025E+00  2.000E+00 6.7409712E+00 -1.5836007E-01 -6.3983455E+00
  1.000E+01  1.100E+00  1.995E+00 6.7834167E+00 -6.3437965E-01 -6.3679636E+00
  9.957E+00  1.075E+00  1.997E+00 6.7638920E+00 -4.7544137E-01 -6.3820818E+00
  1.000E+01  1.149E+00  1.989E+00 6.8481855E+00 -9.5368104E-01 -6.3298189E+00
  9.957E+00  1.124E+00  1.992E+00 6.8133931E+00 -7.9381910E-01 -6.3508350E+00
  1.000E+01  1.198E+00  1.980E+00 6.9425872E+00 -1.2728829E+00 -6.2773821E+00
  9.957E+00  1.174E+00  1.985E+00 6.8922839E+00 -1.1136667E+00 -6.3057766E+00