# TIME = 2.000000
VARIABLES = X, Y, Z, FX, FY, FZ
ZONE N=29232 E=58212 F=FEPOINT ET=TRIANGLE
  0.000E+00  9.502E-01  1.243E-03 6.4125193E+00 1.5236385E-01 3.0742403E+00
  0.000E+00  1.000E+00  0.000E+00 6.4017664E+00 2.6784740E-06 3.0782132E+00
  4.318E-02  9.751E-01  3.108E-04 6.4029537E+00 7.4406442E-02 3.0062063E+00
  0.000E+00  1.050E+00  1.243E-03 6.4125196E+00 -1.5235892E-01 3.0742404E+00
  4.318E-02  1.025E+00  3.108E-04 6.4029539E+00 -7.4401624E-02 3.0062064E+00
  0.000E+00  1.100E+00  4.969E-03 6.4485489E+00 -3.0510357E-01 3.0627226E+00
  4.318E-02  1.075E+00  2.796E-03 6.4275725E+00 -2.2337605E-01 2.9985668E+00
  0.000E+00  1.149E+00  1.117E-02 6.5169363E+00 -4.5866668E-01 3.0443798E+00
  4.318E-02  1.124E+00  7.761E-03 6.4801610E+00 -3.7295388E-01 2.9838876E+00
  0.000E+00  1.198E+00  1.983E-02 6.6158257E+00 -6.1218282E-01 3.0191639E+00
  4.318E-02  1.174E+00  1.519E-02 6.5631734E+00 -5.2322629E-01 2.9627220E+00
  0.000E+00  1.247E+00  3.092E-02 6.7240537E+00 -7.6259854E-01 2.9854889E+00
  4.318E-02  1.223E+00  2.507E-02 6.6696633E+00 -6.7213553E-01 2.9342384E+00
  0.000E+00  1.295E+00  4.443E-02 6.8131059E+00 -9.0757123E-01 2.9419012E+00
  4.318E-02  1.271E+00  3.738E-02 6.7728473E+00 -8.1641801E-01 2.8964441E+00
  0.000E+00  1.342E+00  6.031E-02 6.8896112E+00 -1.0506082E+00 2.8914339E+00
  4.318E-02  1.318E+00  5.207E-02 6.8501034E+00 -9.5636711E-01 2.8499135E+00
  0.000E+00  1.388E+00  7.852E-02 7.0479930E+00 -1.1952420E+00 2.8368954E+00
  4.318E-02  1.365E+00  6.913E-02 6.9563140E+00 -1.0969447E+00 2.7986677E+00
  0.000E+00  1.434E+00  9.903E-02 7.1806826E+00 -1.3369025E+00 2.7748836E+00
  4.318E-02  1.411E+00  8.849E-02 7.1284105E+00 -1.2376160E+00 2.7423346E+00
  0.000E+00  1.478E+00  1.218E-01 7.2352371E+00 -1.4723891E+00 2.7037377E+00
  4.318E-02  1.456E+00  1.101E-01 7.2181064E+00 -1.3728235E+00 2.6770222E+00
  0.000E+00  1.521E+00  1.467E-01 7.3948171E+00 -1.6051121E+00 2.6269409E+00
  4.318E-02  1.500E+00  1.340E-01 7.2958101E+00 -1.5034392E+00 2.6044090E+00
  0.000E+00  1.563E+00  1.738E-01 7.4403097E+00 -1.7345669E+00 2.5440675E+00
  4.318E-02  1.543E+00  1.600E-01 7.4417804E+00 -1.6319109E+00 2.5267404E+00
  0.000E+00  1.604E+00  2.029E-01 7.5285759E+00 -1.8589860E+00 2.4542155E+00
  4.318E-02  1.584E+00  1.881E-01 7.4655355E+00 -1.7558908E+00 2.4422440E+00
  0.000E+00  1.643E+00  2.340E-01 7.5828708E+00 -1.9790484E+00 2.3585515E+00
  4.318E-02  1.623E+00  2.182E-01 7.5596866E+00 -1.8752816E+00 2.3515594E+00
  0.000E+00  1.680E+00  2.669E-01 7.5851913E+00 -2.0941621E+00 2.2569670E+00
  4.318E-02  1.662E+00  2.502E-01 7.5721935E+00 -1.9902646E+00 2.2552403E+00
  0.000E+00  1.716E+00  3.018E-01 7.6185763E+00 -2.2040222E+00 2.1497493E+00
  4.318E-02  1.698E+00  2.841E-01 7.6185997E+00 -2.1001452E+00 2.1531733E+00
  0.000E+00  1.750E+00  3.383E-01 7.5721701E+00 -2.3084990E+00 2.0372721E+00
  4.318E-02  1.733E+00  3.198E-01 7.5852147E+00 -2.2048910E+00 2.0458486E+00
  0.000E+00  1.782E+00  3.765E-01 7.5596631E+00 -2.4070920E+00 1.9195743E+00
  4.318E-02  1.766E+00  3.572E-01 7.5828940E+00 -2.3041281E+00 1.9333899E+00
  0.000E+00  1.812E+00  4.163E-01 7.4655120E+00 -2.4999222E+00 1.7973639E+00
  4.318E-02  1.797E+00  3.962E-01 7.5285989E+00 -2.3975887E+00 1.8160991E+00
  0.000E+00  1.840E+00  4.575E-01 7.4417561E+00 -2.5864076E+00 1.6704566E+00
  4.318E-02  1.826E+00  4.367E-01 7.4403323E+00 -2.4853653E+00 1.6945513E+00
  0.000E+00  1.866E+00  5.000E-01 7.2957848E+00 -2.6659186E+00 1.5389505E+00
  4.318E-02  1.853E+00  4.786E-01 7.3948379E+00 -2.5663247E+00 1.5680826E+00
  0.000E+00  1.890E+00  5.438E-01 7.2180821E+00 -2.7402469E+00 1.4052510E+00
  4.318E-02  1.878E+00  5.217E-01 7.2352565E+00 -2.6413581E+00 1.4384201E+00
  0.000E+00  1.912E+00  5.887E-01 7.1283865E+00 -2.8070943E+00 1.2668498E+00
  4.318E-02  1.901E+00  5.661E-01 7.1807012E+00 -2.7108528E+00 1.3060591E+00
  0.000E+00  1.931E+00  6.347E-01 6.9562890E+00 -2.8647658E+00 1.1228534E+00
  4.318E-02  1.921E+00  6.116E-01 7.0480112E+00 -2.7714356E+00 1.1676688E+00
  0.000E+00  1.948E+00  6.815E-01 6.8500774E+00 -2.9172221E+00 9.7895281E-01
  4.318E-02  1.940E+00  6.580E-01 6.8896290E+00 -2.8247248E+00 1.0263748E+00
  0.000E+00  1.963E+00  7.292E-01 6.7728220E+00 -2.9648463E+00 8.3569888E-01
  4.318E-02  1.956E+00  7.052E-01 6.8131237E+00 -2.8740228E+00 8.8663837E-01
  0.000E+00  1.975E+00  7.775E-01 6.6696384E+00 -3.0035344E+00 6.8801149E-01
  4.318E-02  1.969E+00  7.532E-01 6.7240721E+00 -2.9166026E+00 7.4500891E-01
  0.000E+00  1.985E+00  8.264E-01 6.5631480E+00 -3.0326930E+00 5.3558737E-01
  4.318E-02  1.980E+00  8.019E-01 6.6158430E+00 -2.9495026E+00 5.9806086E-01
  0.000E+00  1.992E+00  8.757E-01 6.4801349E+00 -3.0543581E+00 3.8176568E-01
  4.318E-02  1.989E+00  8.510E-01 6.5169514E+00 -2.9741368E+00 4.4808383E-01
  0.000E+00  1.997E+00  9.253E-01 6.4275476E+00 -3.0693849E+00 2.2865341E-01
  4.318E-02  1.995E+00  9.004E-01 6.4485630E+00 -2.9920556E+00 2.9806218E-01
  0.000E+00  2.000E+00  9.751E-01 6.4029304E+00 -3.0772064E+00 7.6159948E-02
  4.318E-02  1.999E+00  9.502E-01 6.4125350E+00 -3.0033088E+00 1.4884198E-01
  0.000E+00  2.000E+00  1.025E+00 6.4029301E+00 -3.0772055E+00 -7.6163176E-02
  4.318E-02  2.000E+00  1.000E+00 6.4017819E+00 -3.0071901E+00 -1.7994646E-06
  0.000E+00  1.997E+00  1.075E+00 6.4275467E+00 -3.0693818E+00 -2.2865663E-01
  4.318E-02  1.999E+00  1.050E+00 6.4125343E+00 -3.0033069E+00 -1.4884558E-01
  0.000E+00  1.992E+00  1.124E+00 6.4801333E+00 -3.0543534E+00 -3.8176888E-01
  4.318E-02  1.995E+00  1.100E+00 6.4485617E+00 -2.9920516E+00 -2.9806578E-01
  0.000E+00  1.985E+00  1.174E+00 6.5631458E+00 -3.0326907E+00 -5.3559054E-01
  4.318E-02  1.989E+00  1.149E+00 6.5169495E+00 -2.9741327E+00 -4.4808742E-01
  0.000E+00  1.975E+00  1.223E+00 6.6696357E+00 -3.0035394E+00 -6.8801464E-01
  4.318E-02  1.980E+00  1.198E+00 6.6158405E+00 -2.9495039E+00 -5.9806443E-01
  0.000E+00  1.963E+00  1.271E+00 6.7728187E+00 -2.9648513E+00 -8.3570198E-01
  4.318E-02  1.969E+00  1.247E+00 6.7240690E+00 -2.9166094E+00 -7.4501241E-01
  0.000E+00  1.948E+00  1.318E+00 6.8500735E+00 -2.9172120E+00 -9.7895586E-01
  4.318E-02  1.956E+00  1.295E+00 6.8131200E+00 -2.8740213E+00 -8.8664183E-01
  0.000E+00  1.931E+00  1.365E+00 6.9562846E+00 -2.8647576E+00 -1.1228564E+00
  4.318E-02  1.940E+00  1.342E+00 6.8896248E+00 -2.8247111E+00 -1.0263782E+00
  0.000E+00  1.912E+00  1.411E+00 7.1283810E+00 -2.8071055E+00 -1.2668526E+00
  4.318E-02  1.921E+00  1.388E+00 7.0480068E+00 -2.7714395E+00 -1.1676723E+00
  0.000E+00  1.890E+00  1.456E+00 7.2180768E+00 -2.7402424E+00 -1.4052540E+00
  4.318E-02  1.901E+00  1.434E+00 7.1806962E+00 -2.7108602E+00 -1.3060625E+00
  0.000E+00  1.866E+00  1.500E+00 7.2957792E+00 -2.6659103E+00 -1.5389532E+00
  4.318E-02  1.878E+00  1.478E+00 7.2352509E+00 -2.6413452E+00 -1.4384232E+00
  0.000E+00  1.840E+00  1.543E+00 7.4417500E+00 -2.5864158E+00 -1.6704596E+00
  4.318E-02  1.853E+00  1.521E+00 7.3948320E+00 -2.5663285E+00 -1.5680860E+00
  0.000E+00  1.812E+00  1.584E+00 7.4655055E+00 -2.4999169E+00 -1.7973665E+00
  4.318E-02  1.826E+00  1.563E+00 7.4403260E+00 -2.4853668E+00 -1.6945544E+00
  0.000E+00  1.782E+00  1.623E+00 7.5596564E+00 -2.4070941E+00 -1.9195771E+00
  4.318E-02  1.797E+00  1.604E+00 7.5285923E+00 -2.3975854E+00 -1.8161023E+00
  0.000E+00  1.750E+00  1.662E+00 7.5721631E+00 -2.3084991E+00 -2.0372747E+00
  4.318E-02  1.766E+00  1.643E+00 7.5828870E+00 -2.3041318E+00 -1.9333931E+00
  0.000E+00  1.716E+00  1.698E+00 7.6185690E+00 -2.2040218E+00 -2.1497520E+00
  4.318E-02  1.733E+00  1.680E+00 7.5852074E+00 -2.2048886E+00 -2.0458515E+00
  0.000E+00  1.680E+00  1.733E+00 7.5851837E+00 -2.0941627E+00 -2.2569695E+00
  4.318E-02  1.698E+00  1.716E+00 7.6185922E+00 -2.1001471E+00 -2.1531764E+00
  0.000E+00  1.643E+00  1.766E+00 7.5828630E+00 -1.9790475E+00 -2.3585540E+00
  4.318E-02  1.662E+00  1.750E+00 7.5721860E+00 -1.9902637E+00 -2.2552432E+00
  0.000E+00  1.604E+00  1.797E+00 7.5285682E+00 -1.8589867E+00 -2.4542182E+00
  4.318E-02  1.623E+00  1.782E+00 7.5596788E+00 -1.8752818E+00 -2.3515623E+00
  0.000E+00  1.563E+00  1.826E+00 7.4403022E+00 -1.7345672E+00 -2.5440702E+00
  4.318E-02  1.584E+00  1.812E+00 7.4655273E+00 -1.7558895E+00 -2.4422466E+00
  0.000E+00  1.521E+00  1.853E+00 7.3948092E+00 -1.6051118E+00 -2.6269433E+00
  4.318E-02  1.543E+00  1.840E+00 7.4417718E+00 -1.6319104E+00 -2.5267431E+00
  0.000E+00  1.478E+00  1.878E+00 7.2352282E+00 -1.4723857E+00 -2.7037392E+00
  4.318E-02  1.500E+00  1.866E+00 7.2958018E+00 -1.5034394E+00 -2.6044121E+00
  0.000E+00  1.434E+00  1.901E+00 7.1806730E+00 -1.3368990E+00 -2.7748845E+00
  4.318E-02  1.456E+00  1.890E+00 7.2180990E+00 -1.3728261E+00 -2.6770259E+00
  0.000E+00  1.388E+00  1.921E+00 7.0479841E+00 -1.1952418E+00 -2.8368972E+00
  4.318E-02  1.411E+00  1.912E+00 7.1284036E+00 -1.2376174E+00 -2.7423381E+00
  0.000E+00  1.342E+00  1.940E+00 6.8896037E+00 -1.0506154E+00 -2.8914380E+00
  4.318E-02  1.365E+00  1.931E+00 6.9563065E+00 -1.0969419E+00 -2.7986700E+00
  0.000E+00  1.295E+00  1.956E+00 6.8130994E+00 -9.0758117E-01 -2.9419072E+00
  4.318E-02  1.318E+00  1.948E+00 6.8500945E+00 -9.5636094E-01 -2.8499143E+00
  0.000E+00  1.247E+00  1.969E+00 6.7240472E+00 -7.6260482E-01 -2.9854954E+00
  4.318E-02  1.271E+00  1.963E+00 6.7728370E+00 -8.1641211E-01 -2.8964441E+00
  0.000E+00  1.198E+00  1.980E+00 6.6158184E+00 -6.1218194E-01 -3.0191696E+00
  4.318E-02  1.223E+00  1.975E+00 6.6696527E+00 -6.7213351E-01 -2.9342385E+00
  0.000E+00  1.149E+00  1.989E+00 6.5169279E+00 -4.5866131E-01 -3.0443841E+00
  4.318E-02  1.174E+00  1.985E+00 6.5631638E+00 -5.2322817E-01 -2.9627229E+00
  0.000E+00  1.100E+00  1.995E+00 6.4485396E+00 -3.0509753E-01 -3.0627257E+00
  4.318E-02  1.124E+00  1.992E+00 6.4801529E+00 -3.7295795E-01 -2.9838893E+00
  0.000E+00  1.050E+00  1.999E+00 6.4125098E+00 -1.5235505E-01 -3.0742427E+00
  4.318E-02  1.075E+00  1.997E+00 6.4275654E+00 -2.2337910E-01 -2.9985691E+00
  0.000E+00  1.000E+00  2.000E+00 6.4017564E+00 2.3981195E-06 -3.0782153E+00
  4.318E-02  1.025E+00  2.000E+00 6.4029473E+00 -7.4402938E-02 -3.0062090E+00
  0.000E+00  9.502E-01  1.999E+00 6.4125095E+00 1.5236026E-01 -3.0742426E+00
  4.318E-02  9.751E-01  2.000E+00 6.4029472E+00 7.4407531E-02 -3.0062090E+00
  0.000E+00  9.004E-01  1.995E+00 6.4485390E+00 3.0510247E-01 -3.0627256E+00
  4.318E-02  9.253E-01  1.997E+00 6.4275650E+00 2.2338393E-01 -2.9985690E+00
  0.000E+00  8.510E-01  1.989E+00 6.5169270E+00 4.5866623E-01 -3.0443839E+00
  4.318E-02  8.757E-01  1.992E+00 6.4801521E+00 3.7296236E-01 -2.9838891E+00
  0.000E+00  8.019E-01  1.980E+00 6.6158173E+00 6.1218701E-01 -3.0191693E+00
  4.318E-02  8.264E-01  1.985E+00 6.5631628E+00 5.2323293E-01 -2.9627226E+00
  0.000E+00  7.532E-01  1.969E+00 6.7240458E+00 7.6260961E-01 -2.9854950E+00
  4.318E-02  7.775E-01  1.975E+00 6.6696514E+00 6.7213802E-01 -2.9342381E+00
  0.000E+00  7.052E-01  1.956E+00 6.8130977E+00 9.0758605E-01 -2.9419067E+00
  4.318E-02  7.292E-01  1.963E+00 6.7728354E+00 8.1641663E-01 -2.8964437E+00
  0.000E+00  6.580E-01  1.940E+00 6.8896017E+00 1.0506200E+00 -2.8914375E+00
  4.318E-02  6.815E-01  1.948E+00 6.8500927E+00 9.5636528E-01 -2.8499138E+00
  0.000E+00  6.116E-01  1.921E+00 7.0479821E+00 1.1952469E+00 -2.8368967E+00
  4.318E-02  6.347E-01  1.931E+00 6.9563044E+00 1.0969465E+00 -2.7986695E+00
  0.000E+00  5.661E-01  1.901E+00 7.1806706E+00 1.3369031E+00 -2.7748839E+00
  4.318E-02  5.887E-01  1.912E+00 7.1284011E+00 1.2376215E+00 -2.7423373E+00
  0.000E+00  5.217E-01  1.878E+00 7.2352256E+00 1.4723906E+00 -2.7037385E+00
  4.318E-02  5.438E-01  1.890E+00 7.2180965E+00 1.3728300E+00 -2.6770253E+00
  0.000E+00  4.786E-01  1.853E+00 7.3948065E+00 1.6051160E+00 -2.6269425E+00
  4.318E-02  5.000E-01  1.866E+00 7.2957991E+00 1.5034439E+00 -2.6044115E+00
  0.000E+00  4.367E-01  1.826E+00 7.4402993E+00 1.7345720E+00 -2.5440695E+00
  4.318E-02  4.575E-01  1.840E+00 7.4417690E+00 1.6319143E+00 -2.5267424E+00
  0.000E+00  3.962E-01  1.797E+00 7.5285651E+00 1.8589905E+00 -2.4542174E+00
  4.318E-02  4.163E-01  1.812E+00 7.4655243E+00 1.7558939E+00 -2.4422459E+00
  0.000E+00  3.572E-01  1.766E+00 7.5828598E+00 1.9790521E+00 -2.3585531E+00
  4.318E-02  3.765E-01  1.782E+00 7.5596757E+00 1.8752852E+00 -2.3515615E+00
  0.000E+00  3.198E-01  1.733E+00 7.5851804E+00 2.0941658E+00 -2.2569687E+00
  4.318E-02  3.383E-01  1.750E+00 7.5721827E+00 1.9902682E+00 -2.2552425E+00
  0.000E+00  2.841E-01  1.698E+00 7.6185656E+00 2.2040258E+00 -2.1497511E+00
  4.318E-02  3.018E-01  1.716E+00 7.6185889E+00 2.1001486E+00 -2.1531755E+00
  0.000E+00  2.502E-01  1.662E+00 7.5721596E+00 2.3085027E+00 -2.0372740E+00
  4.318E-02  2.669E-01  1.680E+00 7.5852040E+00 2.2048943E+00 -2.0458509E+00
  0.000E+00  2.182E-01  1.623E+00 7.5596529E+00 2.4070955E+00 -1.9195762E+00
  4.318E-02  2.340E-01  1.643E+00 7.5828834E+00 2.3041314E+00 -1.9333923E+00
  0.000E+00  1.881E-01  1.584E+00 7.4655019E+00 2.4999257E+00 -1.7973659E+00
  4.318E-02  2.029E-01  1.604E+00 7.5285887E+00 2.3975919E+00 -1.8161015E+00
  0.000E+00  1.600E-01  1.543E+00 7.4417464E+00 2.5864111E+00 -1.6704586E+00
  4.318E-02  1.738E-01  1.563E+00 7.4403224E+00 2.4853685E+00 -1.6945538E+00
  0.000E+00  1.340E-01  1.500E+00 7.2957755E+00 2.6659220E+00 -1.5389526E+00
  4.318E-02  1.467E-01  1.521E+00 7.3948283E+00 2.5663278E+00 -1.5680851E+00
  0.000E+00  1.101E-01  1.456E+00 7.2180731E+00 2.7402503E+00 -1.4052533E+00
  4.318E-02  1.218E-01  1.478E+00 7.2352472E+00 2.6413612E+00 -1.4384227E+00
  0.000E+00  8.849E-02  1.411E+00 7.1283778E+00 2.8070975E+00 -1.2668520E+00
  4.318E-02  9.903E-02  1.434E+00 7.1806924E+00 2.7108559E+00 -1.3060618E+00
  0.000E+00  6.913E-02  1.365E+00 6.9562809E+00 2.8647692E+00 -1.1228559E+00
  4.318E-02  7.852E-02  1.388E+00 7.0480029E+00 2.7714386E+00 -1.1676717E+00
  0.000E+00  5.207E-02  1.318E+00 6.8500699E+00 2.9172254E+00 -9.7895539E-01
  4.318E-02  6.031E-02  1.342E+00 6.8896211E+00 2.8247278E+00 -1.0263777E+00
  0.000E+00  3.738E-02  1.271E+00 6.7728150E+00 2.9648497E+00 -8.3570154E-01
  4.318E-02  4.443E-02  1.295E+00 6.8131163E+00 2.8740259E+00 -8.8664140E-01
  0.000E+00  2.507E-02  1.223E+00 6.6696320E+00 3.0035377E+00 -6.8801424E-01
  4.318E-02  3.092E-02  1.247E+00 6.7240653E+00 2.9166056E+00 -7.4501204E-01
  0.000E+00  1.519E-02  1.174E+00 6.5631422E+00 3.0326964E+00 -5.3559022E-01
  4.318E-02  1.983E-02  1.198E+00 6.6158368E+00 2.9495057E+00 -5.9806409E-01
  0.000E+00  7.761E-03  1.124E+00 6.4801297E+00 3.0543615E+00 -3.8176864E-01
  4.318E-02  1.117E-02  1.149E+00 6.5169458E+00 2.9741399E+00 -4.4808716E-01
  0.000E+00  2.796E-03  1.075E+00 6.4275431E+00 3.0693883E+00 -2.2865648E-01
  4.318E-02  4.969E-03  1.100E+00 6.4485580E+00 2.9920588E+00 -2.9806560E-01
  0.000E+00  3.108E-04  1.025E+00 6.4029265E+00 3.0772099E+00 -7.6163102E-02
  4.318E-02  1.243E-03  1.050E+00 6.4125307E+00 3.0033120E+00 -1.4884547E-01
  0.000E+00  3.108E-04  9.751E-01 6.4029268E+00 3.0772090E+00 7.6159938E-02
  4.318E-02  0.000E+00  1.000E+00 6.4017782E+00 3.0071933E+00 -1.7707325E-06
  0.000E+00  2.796E-03  9.253E-01 6.4275439E+00 3.0693854E+00 2.2865331E-01
  4.318E-02  1.243E-03  9.502E-01 6.4125313E+00 3.0033102E+00 1.4884193E-01
  0.000E+00  7.761E-03  8.757E-01 6.4801312E+00 3.0543571E+00 3.8176549E-01
  4.318E-02  4.969E-03  9.004E-01 6.4485594E+00 2.9920549E+00 2.9806205E-01
  0.000E+00  1.519E-02  8.264E-01 6.5631444E+00 3.0326944E+00 5.3558711E-01
  4.318E-02  1.117E-02  8.510E-01 6.5169477E+00 2.9741361E+00 4.4808362E-01
  0.000E+00  2.507E-02  7.775E-01 6.6696348E+00 3.0035432E+00 6.8801115E-01
  4.318E-02  1.983E-02  8.019E-01 6.6158393E+00 2.9495073E+00 5.9806058E-01
  0.000E+00  3.738E-02  7.292E-01 6.7728183E+00 2.9648552E+00 8.3569842E-01
  4.318E-02  3.092E-02  7.532E-01 6.7240684E+00 2.9166129E+00 7.4500853E-01
  0.000E+00  5.207E-02  6.815E-01 6.8500737E+00 2.9172159E+00 9.7895226E-01
  4.318E-02  4.443E-02  7.052E-01 6.8131200E+00 2.8740248E+00 8.8663791E-01
  0.000E+00  6.913E-02  6.347E-01 6.9562854E+00 2.8647616E+00 1.1228528E+00
  4.318E-02  6.031E-02  6.580E-01 6.8896253E+00 2.8247147E+00 1.0263742E+00
  0.000E+00  8.849E-02  5.887E-01 7.1283824E+00 2.8071097E+00 1.2668491E+00
  4.318E-02  7.852E-02  6.116E-01 7.0480077E+00 2.7714432E+00 1.1676683E+00
  0.000E+00  1.101E-01  5.438E-01 7.2180784E+00 2.7402465E+00 1.4052503E+00
  4.318E-02  9.903E-02  5.661E-01 7.1806976E+00 2.7108639E+00 1.3060585E+00
  0.000E+00  1.340E-01  5.000E-01 7.2957813E+00 2.6659145E+00 1.5389496E+00
  4.318E-02  1.218E-01  5.217E-01 7.2352528E+00 2.6413491E+00 1.4384192E+00
  0.000E+00  1.600E-01  4.575E-01 7.4417526E+00 2.5864201E+00 1.6704559E+00
  4.318E-02  1.467E-01  4.786E-01 7.3948343E+00 2.5663324E+00 1.5680820E+00
  0.000E+00  1.881E-01  4.163E-01 7.4655084E+00 2.4999213E+00 1.7973629E+00
  4.318E-02  1.738E-01  4.367E-01 7.4403287E+00 2.4853708E+00 1.6945504E+00
  0.000E+00  2.182E-01  3.765E-01 7.5596597E+00 2.4070985E+00 1.9195735E+00
  4.318E-02  2.029E-01  3.962E-01 7.5285954E+00 2.3975894E+00 1.8160983E+00
  0.000E+00  2.502E-01  3.383E-01 7.5721667E+00 2.3085037E+00 2.0372712E+00
  4.318E-02  2.340E-01  3.572E-01 7.5828904E+00 2.3041359E+00 1.9333892E+00
  0.000E+00  2.841E-01  3.018E-01 7.6185729E+00 2.2040265E+00 2.1497485E+00
  4.318E-02  2.669E-01  3.198E-01 7.5852113E+00 2.2048928E+00 2.0458476E+00
  0.000E+00  3.198E-01  2.669E-01 7.5851880E+00 2.0941675E+00 2.2569660E+00
  4.318E-02  3.018E-01  2.841E-01 7.6185963E+00 2.1001513E+00 2.1531725E+00
  0.000E+00  3.572E-01  2.340E-01 7.5828677E+00 1.9790524E+00 2.3585506E+00
  4.318E-02  3.383E-01  2.502E-01 7.5721903E+00 1.9902680E+00 2.2552394E+00
  0.000E+00  3.962E-01  2.029E-01 7.5285728E+00 1.8589909E+00 2.4542147E+00
  4.318E-02  3.765E-01  2.182E-01 7.5596834E+00 1.8752863E+00 2.3515586E+00
  0.000E+00  4.367E-01  1.738E-01 7.4403068E+00 1.7345710E+00 2.5440666E+00
  4.318E-02  4.163E-01  1.881E-01 7.4655325E+00 1.7558946E+00 2.4422431E+00
  0.000E+00  4.786E-01  1.467E-01 7.3948144E+00 1.6051169E+00 2.6269401E+00
  4.318E-02  4.575E-01  1.600E-01 7.4417775E+00 1.6319154E+00 2.5267396E+00
  0.000E+00  5.217E-01  1.218E-01 7.2352345E+00 1.4723935E+00 2.7037369E+00
  4.318E-02  5.000E-01  1.340E-01 7.2958075E+00 1.5034432E+00 2.6044082E+00
  0.000E+00  5.661E-01  9.903E-02 7.1806801E+00 1.3369079E+00 2.7748828E+00
  4.318E-02  5.438E-01  1.101E-01 7.2181040E+00 1.3728283E+00 2.6770216E+00
  0.000E+00  6.116E-01  7.852E-02 7.0479909E+00 1.1952464E+00 2.8368947E+00
  4.318E-02  5.887E-01  8.849E-02 7.1284080E+00 1.2376205E+00 2.7423339E+00
  0.000E+00  6.580E-01  6.031E-02 6.8896092E+00 1.0506132E+00 2.8914333E+00
  4.318E-02  6.347E-01  6.913E-02 6.9563119E+00 1.0969490E+00 2.7986671E+00
  0.000E+00  7.052E-01  4.443E-02 6.8131042E+00 9.0757614E-01 2.9419007E+00
  4.318E-02  6.815E-01  5.207E-02 6.8501016E+00 9.5637179E-01 2.8499130E+00
  0.000E+00  7.532E-01  3.092E-02 6.7240523E+00 7.6260364E-01 2.9854884E+00
  4.318E-02  7.292E-01  3.738E-02 6.7728457E+00 8.1642260E-01 2.8964436E+00
  0.000E+00  8.019E-01  1.983E-02 6.6158245E+00 6.1218773E-01 3.0191635E+00
  4.318E-02  7.775E-01  2.507E-02 6.6696620E+00 6.7214024E-01 2.9342380E+00
  0.000E+00  8.510E-01  1.117E-02 6.5169354E+00 4.5867182E-01 3.0443795E+00
  4.318E-02  8.264E-01  1.519E-02 6.5631724E+00 5.2323082E-01 2.9627217E+00
  0.000E+00  9.004E-01  4.969E-03 6.4485484E+00 3.0510874E-01 3.0627224E+00
  4.318E-02  8.757E-01  7.761E-03 6.4801603E+00 3.7295882E-01 2.9838874E+00
  4.318E-02  9.253E-01  2.796E-03 6.4275720E+00 2.2338061E-01 2.9985666E+00
  1.000E+01  1.050E+00  1.243E-03 6.4125196E+00 -1.5235892E-01 3.0742404E+00
  1.000E+01  1.000E+00  5.551E-16 6.4017664E+00 2.6784740E-06 3.0782132E+00
  9.957E+00  1.025E+00  3.108E-04 6.4029445E+00 -7.7920479E-02 3.1484432E+00
  1.000E+01  9.502E-01  1.243E-03 6.4125193E+00 1.5236385E-01 3.0742403E+00
  9.957E+00  9.751E-01  3.108E-04 6.4029444E+00 7.7926024E-02 3.1484432E+00
  1.000E+01  9.004E-01  4.969E-03 6.4485484E+00 3.0510874E-01 3.0627224E+00
  9.957E+00  9.253E-01  2.796E-03 6.4275624E+00 2.3394782E-01 3.1404419E+00
  1.000E+01  8.510E-01  1.117E-02 6.5169354E+00 4.5867182E-01 3.0443795E+00
  9.957E+00  8.757E-01  7.761E-03 6.4801498E+00 3.9060495E-01 3.1250678E+00
  1.000E+01  8.019E-01  1.983E-02 6.6158245E+00 6.1218773E-01 3.0191635E+00
  9.957E+00  8.264E-01  1.519E-02 6.5631612E+00 5.4798814E-01 3.1029006E+00
  1.000E+01  7.532E-01  3.092E-02 6.7240523E+00 7.6260364E-01 2.9854884E+00
  9.957E+00  7.775E-01  2.507E-02 6.6696502E+00 7.0394146E-01 3.0730690E+00
  1.000E+01  7.052E-01  4.443E-02 6.8131042E+00 9.0757614E-01 2.9419007E+00
  9.957E+00  7.292E-01  3.738E-02 6.7728343E+00 8.5504867E-01 3.0334863E+00
  1.000E+01  6.580E-01  6.031E-02 6.8896092E+00 1.0506132E+00 2.8914333E+00
  9.957E+00  6.815E-01  5.207E-02 6.8500913E+00 1.0016196E+00 2.9847537E+00
  1.000E+01  6.116E-01  7.852E-02 7.0479909E+00 1.1952464E+00 2.8368947E+00
  9.957E+00  6.347E-01  6.913E-02 6.9563022E+00 1.1488498E+00 2.9310828E+00
  1.000E+01  5.661E-01  9.903E-02 7.1806801E+00 1.3369079E+00 2.7748828E+00
  9.957E+00  5.887E-01  8.849E-02 7.1283975E+00 1.2961765E+00 2.8720839E+00
  1.000E+01  5.217E-01  1.218E-01 7.2352345E+00 1.4723935E+00 2.7037369E+00
  9.957E+00  5.438E-01  1.101E-01 7.2180931E+00 1.4377810E+00 2.8036815E+00
  1.000E+01  4.786E-01  1.467E-01 7.3948144E+00 1.6051169E+00 2.6269401E+00
  9.957E+00  5.000E-01  1.340E-01 7.2957963E+00 1.5745765E+00 2.7276317E+00
  1.000E+01  4.367E-01  1.738E-01 7.4403068E+00 1.7345710E+00 2.5440666E+00
  9.957E+00  4.575E-01  1.600E-01 7.4417664E+00 1.7091277E+00 2.6462880E+00
  1.000E+01  3.962E-01  2.029E-01 7.5285728E+00 1.8589909E+00 2.4542147E+00
  9.957E+00  4.163E-01  1.881E-01 7.4655215E+00 1.8389721E+00 2.5577939E+00
  1.000E+01  3.572E-01  2.340E-01 7.5828677E+00 1.9790524E+00 2.3585506E+00
  9.957E+00  3.765E-01  2.182E-01 7.5596723E+00 1.9640115E+00 2.4628191E+00
  1.000E+01  3.198E-01  2.669E-01 7.5851880E+00 2.0941675E+00 2.2569660E+00
  9.957E+00  3.383E-01  2.502E-01 7.5721792E+00 2.0844330E+00 2.3619432E+00
  1.000E+01  2.841E-01  3.018E-01 7.6185729E+00 2.2040265E+00 2.1497485E+00
  9.957E+00  3.018E-01  2.841E-01 7.6185851E+00 2.1995151E+00 2.2550474E+00
  1.000E+01  2.502E-01  3.383E-01 7.5721667E+00 2.3085037E+00 2.0372712E+00
  9.957E+00  2.669E-01  3.198E-01 7.5852000E+00 2.3092123E+00 2.1426442E+00
  1.000E+01  2.182E-01  3.765E-01 7.5596597E+00 2.4070985E+00 1.9195735E+00
  9.957E+00  2.340E-01  3.572E-01 7.5828792E+00 2.4131516E+00 2.0248648E+00
  1.000E+01  1.881E-01  4.163E-01 7.4655084E+00 2.4999213E+00 1.7973629E+00
  9.957E+00  2.029E-01  3.962E-01 7.5285841E+00 2.5110275E+00 1.9020237E+00
  1.000E+01  1.600E-01  4.575E-01 7.4417526E+00 2.5864201E+00 1.6704559E+00
  9.957E+00  1.738E-01  4.367E-01 7.4403174E+00 2.6029628E+00 1.7747238E+00
  1.000E+01  1.340E-01  5.000E-01 7.2957813E+00 2.6659145E+00 1.5389496E+00
  9.957E+00  1.467E-01  4.786E-01 7.3948229E+00 2.6877553E+00 1.6422716E+00
  1.000E+01  1.101E-01  5.438E-01 7.2180784E+00 2.7402465E+00 1.4052503E+00
  9.957E+00  1.218E-01  5.217E-01 7.2352416E+00 2.7663213E+00 1.5064750E+00
  1.000E+01  8.849E-02  5.887E-01 7.1283824E+00 2.8071097E+00 1.2668491E+00
  9.957E+00  9.903E-02  5.661E-01 7.1806864E+00 2.8391250E+00 1.3678524E+00
  1.000E+01  6.913E-02  6.347E-01 6.9562854E+00 2.8647616E+00 1.1228528E+00
  9.957E+00  7.852E-02  6.116E-01 7.0479963E+00 2.9025706E+00 1.2229133E+00
  1.000E+01  5.207E-02  6.815E-01 6.8500737E+00 2.9172159E+00 9.7895226E-01
  9.957E+00  6.031E-02  6.580E-01 6.8896142E+00 2.9583631E+00 1.0749354E+00
  1.000E+01  3.738E-02  7.292E-01 6.7728183E+00 2.9648552E+00 8.3569842E-01
  9.957E+00  4.443E-02  7.052E-01 6.8131090E+00 3.0100064E+00 9.2858901E-01
  1.000E+01  2.507E-02  7.775E-01 6.6696348E+00 3.0035432E+00 6.8801115E-01
  9.957E+00  3.092E-02  7.532E-01 6.7240573E+00 3.0546095E+00 7.8025824E-01
  1.000E+01  1.519E-02  8.264E-01 6.5631444E+00 3.0326944E+00 5.3558711E-01
  9.957E+00  1.983E-02  8.019E-01 6.6158280E+00 3.0890605E+00 6.2635548E-01
  1.000E+01  7.761E-03  8.757E-01 6.4801312E+00 3.0543571E+00 3.8176549E-01
  9.957E+00  1.117E-02  8.510E-01 6.5169365E+00 3.1148549E+00 4.6928304E-01
  1.000E+01  2.796E-03  9.253E-01 6.4275439E+00 3.0693854E+00 2.2865331E-01
  9.957E+00  4.969E-03  9.004E-01 6.4485484E+00 3.1336218E+00 3.1216543E-01
  1.000E+01  3.108E-04  9.751E-01 6.4029268E+00 3.0772090E+00 7.6159938E-02
  9.957E+00  1.243E-03  9.502E-01 6.4125193E+00 3.1454090E+00 1.5588642E-01
  1.000E+01  3.108E-04  1.025E+00 6.4029265E+00 3.0772099E+00 -7.6163102E-02
  9.957E+00  0.000E+00  1.000E+00 6.4017672E+00 3.1494768E+00 -1.3928615E-06
  1.000E+01  2.796E-03  1.075E+00 6.4275431E+00 3.0693883E+00 -2.2865648E-01
  9.957E+00  1.243E-03  1.050E+00 6.4125186E+00 3.1454109E+00 -1.5588920E-01
  1.000E+01  7.761E-03  1.124E+00 6.4801297E+00 3.0543615E+00 -3.8176864E-01
  9.957E+00  4.969E-03  1.100E+00 6.4485471E+00 3.1336260E+00 -3.1216820E-01
  1.000E+01  1.519E-02  1.174E+00 6.5631422E+00 3.0326964E+00 -5.3559022E-01
  9.957E+00  1.117E-02  1.149E+00 6.5169346E+00 3.1148590E+00 -4.6928580E-01
  1.000E+01  2.507E-02  1.223E+00 6.6696320E+00 3.0035377E+00 -6.8801424E-01
  9.957E+00  1.983E-02  1.198E+00 6.6158255E+00 3.0890589E+00 -6.2635823E-01
  1.000E+01  3.738E-02  1.271E+00 6.7728150E+00 2.9648497E+00 -8.3570154E-01
  9.957E+00  3.092E-02  1.247E+00 6.7240542E+00 3.0546020E+00 -7.8026099E-01
  1.000E+01  5.207E-02  1.318E+00 6.8500699E+00 2.9172254E+00 -9.7895539E-01
  9.957E+00  4.443E-02  1.295E+00 6.8131054E+00 3.0100076E+00 -9.2859174E-01
  1.000E+01  6.913E-02  1.365E+00 6.9562809E+00 2.8647692E+00 -1.1228559E+00
  9.957E+00  6.031E-02  1.342E+00 6.8896100E+00 2.9583768E+00 -1.0749381E+00
  1.000E+01  8.849E-02  1.411E+00 7.1283778E+00 2.8070975E+00 -1.2668520E+00
  9.957E+00  7.852E-02  1.388E+00 7.0479918E+00 2.9025660E+00 -1.2229161E+00
  1.000E+01  1.101E-01  1.456E+00 7.2180731E+00 2.7402503E+00 -1.4052533E+00
  9.957E+00  9.903E-02  1.434E+00 7.1806814E+00 2.8391167E+00 -1.3678549E+00
  1.000E+01  1.340E-01  1.500E+00 7.2957755E+00 2.6659220E+00 -1.5389526E+00
  9.957E+00  1.218E-01  1.478E+00 7.2352361E+00 2.7663340E+00 -1.5064778E+00
  1.000E+01  1.600E-01  1.543E+00 7.4417464E+00 2.5864111E+00 -1.6704586E+00
  9.957E+00  1.467E-01  1.521E+00 7.3948169E+00 2.6877505E+00 -1.6422740E+00
  1.000E+01  1.881E-01  1.584E+00 7.4655019E+00 2.4999257E+00 -1.7973659E+00
  9.957E+00  1.738E-01  1.563E+00 7.4403111E+00 2.6029606E+00 -1.7747264E+00
  1.000E+01  2.182E-01  1.623E+00 7.5596529E+00 2.4070955E+00 -1.9195762E+00
  9.957E+00  2.029E-01  1.604E+00 7.5285774E+00 2.5110302E+00 -1.9020262E+00
  1.000E+01  2.502E-01  1.662E+00 7.5721596E+00 2.3085027E+00 -2.0372740E+00
  9.957E+00  2.340E-01  1.643E+00 7.5828722E+00 2.4131470E+00 -2.0248671E+00
  1.000E+01  2.841E-01  1.698E+00 7.6185656E+00 2.2040258E+00 -2.1497511E+00
  9.957E+00  2.669E-01  1.680E+00 7.5851927E+00 2.3092141E+00 -2.1426468E+00
  1.000E+01  3.198E-01  1.733E+00 7.5851804E+00 2.0941658E+00 -2.2569687E+00
  9.957E+00  3.018E-01  1.716E+00 7.6185777E+00 2.1995125E+00 -2.2550497E+00
  1.000E+01  3.572E-01  1.766E+00 7.5828598E+00 1.9790521E+00 -2.3585531E+00
  9.957E+00  3.383E-01  1.750E+00 7.5721717E+00 2.0844334E+00 -2.3619456E+00
  1.000E+01  3.962E-01  1.797E+00 7.5285651E+00 1.8589905E+00 -2.4542174E+00
  9.957E+00  3.765E-01  1.782E+00 7.5596645E+00 1.9640103E+00 -2.4628214E+00
  1.000E+01  4.367E-01  1.826E+00 7.4402993E+00 1.7345720E+00 -2.5440695E+00
  9.957E+00  4.163E-01  1.812E+00 7.4655134E+00 1.8389715E+00 -2.5577960E+00
  1.000E+01  4.786E-01  1.853E+00 7.3948065E+00 1.6051160E+00 -2.6269425E+00
  9.957E+00  4.575E-01  1.840E+00 7.4417583E+00 1.7091267E+00 -2.6462900E+00
  1.000E+01  5.217E-01  1.878E+00 7.2352256E+00 1.4723906E+00 -2.7037385E+00
  9.957E+00  5.000E-01  1.866E+00 7.2957886E+00 1.5745775E+00 -2.7276341E+00
  1.000E+01  5.661E-01  1.901E+00 7.1806706E+00 1.3369031E+00 -2.7748839E+00
  9.957E+00  5.438E-01  1.890E+00 7.2180857E+00 1.4377829E+00 -2.8036845E+00
  1.000E+01  6.116E-01  1.921E+00 7.0479821E+00 1.1952469E+00 -2.8368967E+00
  9.957E+00  5.887E-01  1.912E+00 7.1283891E+00 1.2961774E+00 -2.8720866E+00
  1.000E+01  6.580E-01  1.940E+00 6.8896017E+00 1.0506200E+00 -2.8914375E+00
  9.957E+00  6.347E-01  1.931E+00 6.9562930E+00 1.1488471E+00 -2.9310846E+00
  1.000E+01  7.052E-01  1.956E+00 6.8130977E+00 9.0758605E-01 -2.9419067E+00
  9.957E+00  6.815E-01  1.948E+00 6.8500817E+00 1.0016130E+00 -2.9847539E+00
  1.000E+01  7.532E-01  1.969E+00 6.7240458E+00 7.6260961E-01 -2.9854950E+00
  9.957E+00  7.292E-01  1.963E+00 6.7728254E+00 8.5504280E-01 -3.0334856E+00
  1.000E+01  8.019E-01  1.980E+00 6.6158173E+00 6.1218701E-01 -3.0191693E+00
  9.957E+00  7.775E-01  1.975E+00 6.6696422E+00 7.0393944E-01 -3.0730684E+00
  1.000E+01  8.510E-01  1.989E+00 6.5169270E+00 4.5866623E-01 -3.0443839E+00
  9.957E+00  8.264E-01  1.985E+00 6.5631534E+00 5.4799049E-01 -3.1029007E+00
  1.000E+01  9.004E-01  1.995E+00 6.4485390E+00 3.0510247E-01 -3.0627256E+00
  9.957E+00  8.757E-01  1.992E+00 6.4801420E+00 3.9060869E-01 -3.1250688E+00
  1.000E+01  9.502E-01  1.999E+00 6.4125095E+00 1.5236026E-01 -3.0742426E+00
  9.957E+00  9.253E-01  1.997E+00 6.4275545E+00 2.3395127E-01 -3.1404436E+00
  1.000E+01  1.000E+00  2.000E+00 6.4017564E+00 2.3981195E-06 -3.0782153E+00
  9.957E+00  9.751E-01  2.000E+00 6.4029364E+00 7.7927145E-02 -3.1484452E+00
  1.000E+01  1.050E+00  1.999E+00 6.4125098E+00 -1.5235505E-01 -3.0742427E+00
  9.957E+00  1.025E+00  2.000E+00 6.4029365E+00 -7.7921833E-02 -3.1484452E+00
  1.000E+01  1.100E+00  1.995E+00 6.4485396E+00 -3.0509753E-01 -3.0627257E+00
  9.957E+00  1.075E+00  1.997E+00 6.4275549E+00 -2.3394571E-01 -3.1404437E+00
  1.000E+01  1.149E+00  1.989E+00 6.5169279E+00 -4.5866131E-01 -3.0443841E+00
  9.957E+00  1.124E+00  1.992E+00 6.4801427E+00 -3.9060357E-01 -3.1250691E+00
  1.000E+01  1.198E+00  1.980E+00 6.6158184E+00 -6.1218194E-01 -3.0191696E+00
  9.957E+00  1.174E+00  1.985E+00 6.5631544E+00 -5.4798502E-01 -3.1029010E+00