# TIME = 0.100000
variables = x, y, z
zone N=5762 E=11520 F=FEPOINT ET=TRIANGLE
 5.0181806E+00 1.4253252E+00 1.6881413E+00
 5.0181806E+00 1.4253252E+00 3.1185869E-01
 5.0181806E+00 5.7467470E-01 1.6881413E+00
 5.0181806E+00 5.7467473E-01 3.1185872E-01
 3.5300570E+00 9.9999996E-01 1.6711110E+00
 6.5048336E+00 9.9999996E-01 1.6687186E+00
 3.5300570E+00 9.9999996E-01 3.2888899E-01
 6.5048336E+00 9.9999996E-01 3.3128141E-01
 4.1946476E+00 1.8296422E+00 1.0000000E+00
 4.1946476E+00 1.7035768E-01 1.0000000E+00
 5.8416954E+00 1.8293203E+00 1.0000000E+00
 5.8416954E+00 1.7067958E-01 1.0000000E+00
 4.9646154E+00 1.4173376E+00 1.6931693E+00
 4.9081758E+00 1.4090459E+00 1.6988223E+00
 4.8493259E+00 1.4005183E+00 1.7050909E+00
 4.7882011E+00 1.3917116E+00 1.7119751E+00
 4.7248674E+00 1.3825335E+00 1.7194685E+00
 4.6594997E+00 1.3728829E+00 1.7274999E+00
 4.5923009E+00 1.3626256E+00 1.7359467E+00
 4.5235238E+00 1.3516044E+00 1.7446227E+00
 4.4534647E+00 1.3396434E+00 1.7532771E+00
 4.3824622E+00 1.3265574E+00 1.7615983E+00
 4.3108954E+00 1.3121657E+00 1.7692235E+00
 4.2391800E+00 1.2963053E+00 1.7757553E+00
 4.1677631E+00 1.2788473E+00 1.7807815E+00
 4.0971175E+00 1.2597096E+00 1.7839009E+00
 4.0277322E+00 1.2388692E+00 1.7847487E+00
 3.9600999E+00 1.2163687E+00 1.7830227E+00
 3.8947018E+00 1.1923175E+00 1.7785043E+00
 3.8319900E+00 1.1668884E+00 1.7710748E+00
 3.7723688E+00 1.1403067E+00 1.7607208E+00
 3.7161782E+00 1.1128373E+00 1.7475326E+00
 3.6636795E+00 1.0847652E+00 1.7316904E+00
 3.6150466E+00 1.0563822E+00 1.7134505E+00
 3.5703365E+00 1.0279478E+00 1.6931142E+00
 4.9628158E+00 6.1044215E-01 1.7091387E+00
 4.9051281E+00 6.1980620E-01 1.7149535E+00
 4.8450219E+00 6.2947615E-01 1.7213958E+00
 4.7825976E+00 6.3951895E-01 1.7284658E+00
 4.7179924E+00 6.5002032E-01 1.7361318E+00
 4.6513940E+00 6.6109466E-01 1.7443090E+00
 4.5830405E+00 6.7288126E-01 1.7528487E+00
 4.5132161E+00 6.8554007E-01 1.7615359E+00
 4.4422510E+00 6.9924355E-01 1.7700866E+00
 4.3705176E+00 7.1416477E-01 1.7781565E+00
 4.2984272E+00 7.3046403E-01 1.7853530E+00
 4.2264246E+00 7.4827277E-01 1.7912555E+00
 4.1549822E+00 7.6768001E-01 1.7954393E+00
 4.0845914E+00 7.8871917E-01 1.7975040E+00
 4.0157514E+00 8.1136064E-01 1.7970998E+00
 3.9489545E+00 8.3550798E-01 1.7939542E+00
 3.8846706E+00 8.6100082E-01 1.7878904E+00
 3.8233282E+00 8.8762378E-01 1.7788397E+00
 3.7652973E+00 9.1511922E-01 1.7668429E+00
 3.7108735E+00 9.4320512E-01 1.7520420E+00
 3.6602729E+00 9.7158818E-01 1.7346689E+00
 3.6135908E+00 9.9999996E-01 1.7149903E+00
 4.9616464E+00 6.3990217E-01 1.7245627E+00
 4.9026942E+00 6.5042937E-01 1.7304799E+00
 4.8413424E+00 6.6133466E-01 1.7370095E+00
 4.7776728E+00 6.7269817E-01 1.7441609E+00
 4.7118550E+00 6.8461394E-01 1.7518849E+00
 4.6441078E+00 6.9720233E-01 1.7600763E+00
 4.5747015E+00 7.1060577E-01 1.7685605E+00
 4.5039553E+00 7.2498153E-01 1.7770918E+00
 4.4322339E+00 7.4049238E-01 1.7853539E+00
 4.3599429E+00 7.5729255E-01 1.7929717E+00
 4.2875245E+00 7.7551361E-01 1.7995269E+00
 4.2154496E+00 7.9524879E-01 1.8045829E+00
 4.1442111E+00 8.1654068E-01 1.8077111E+00
 4.0743120E+00 8.3937074E-01 1.8085217E+00
 4.0062536E+00 8.6365522E-01 1.8066905E+00
 3.9405195E+00 8.8924632E-01 1.8019838E+00
 3.8775587E+00 9.1593891E-01 1.7942737E+00
 3.8177676E+00 9.4348303E-01 1.7835462E+00
 3.7614746E+00 9.7160066E-01 1.7698962E+00
 3.7089268E+00 9.9999996E-01 1.7535160E+00
 3.6602729E+00 1.0284117E+00 1.7346689E+00
 4.9604652E+00 6.7123400E-01 1.7393250E+00
 4.9003560E+00 6.8297923E-01 1.7452342E+00
 4.8378393E+00 6.9519022E-01 1.7517508E+00
 4.7730374E+00 7.0794397E-01 1.7588643E+00
 4.7061437E+00 7.2134254E-01 1.7665115E+00
 4.6374108E+00 7.3550882E-01 1.7745641E+00
 4.5671429E+00 7.5058352E-01 1.7828203E+00
 4.4956935E+00 7.6671544E-01 1.7910040E+00
 4.4234605E+00 7.8405028E-01 1.7987692E+00
 4.3508807E+00 8.0271598E-01 1.8057147E+00
 4.2784221E+00 8.2280800E-01 1.8114044E+00
 4.2065764E+00 8.4437519E-01 1.8153952E+00
 4.1358484E+00 8.6740925E-01 1.8172659E+00
 4.0667441E+00 8.9183860E-01 1.8166491E+00
 3.9997565E+00 9.1752796E-01 1.8132568E+00
 3.9353500E+00 9.4428373E-01 1.8069026E+00
 3.8739429E+00 9.7186502E-01 1.7975129E+00
 3.8158903E+00 9.9999996E-01 1.7851278E+00
 3.7614746E+00 1.0283993E+00 1.7698962E+00
 3.7108735E+00 1.0567948E+00 1.7520420E+00
 4.9593813E+00 7.0445907E-01 1.7532427E+00
 4.8981868E+00 7.1747859E-01 1.7590357E+00
 4.8346139E+00 7.3103896E-01 1.7654105E+00
 4.7688082E+00 7.4522636E-01 1.7723446E+00
 4.7009955E+00 7.6014489E-01 1.7797559E+00
 4.6314616E+00 7.7591703E-01 1.7874928E+00
 4.5605448E+00 7.9267643E-01 1.7953264E+00
 4.4886322E+00 8.1055711E-01 1.8029526E+00
 4.4161522E+00 8.2968079E-01 1.8100000E+00
 4.3435678E+00 8.5014190E-01 1.8160485E+00
 4.2713671E+00 8.7199362E-01 1.8206533E+00
 4.2000544E+00 8.9523608E-01 1.8233761E+00
 4.1301372E+00 9.1980904E-01 1.8238150E+00
 4.0621143E+00 9.4558969E-01 1.8216358E+00
 3.9964606E+00 9.7239682E-01 1.8165956E+00
 3.9336106E+00 9.9999996E-01 1.8085609E+00
 3.8739429E+00 1.0281349E+00 1.7975129E+00
 3.8177676E+00 1.0565169E+00 1.7835462E+00
 3.7652973E+00 1.0848807E+00 1.7668429E+00
 4.9583738E+00 7.3950011E-01 1.7660854E+00
 4.8962029E+00 7.5382130E-01 1.7716353E+00
 4.8317037E+00 7.6875738E-01 1.7777286E+00
 4.7650508E+00 7.8439694E-01 1.7843274E+00
 4.6965030E+00 8.0084419E-01 1.7913305E+00
 4.6263794E+00 8.1821587E-01 1.7985625E+00
 4.5550515E+00 8.3663298E-01 1.8057693E+00
 4.4829368E+00 8.5620832E-01 1.8126229E+00
 4.4104898E+00 8.7703312E-01 1.8187328E+00
 4.3381936E+00 8.9916260E-01 1.8236693E+00
 4.2665493E+00 9.2260379E-01 1.8269898E+00
 4.1960640E+00 9.4730687E-01 1.8282722E+00
 4.1272391E+00 9.7316168E-01 1.8271451E+00
 4.0605558E+00 9.9999996E-01 1.8233167E+00
 3.9964606E+00 1.0276031E+00 1.8165956E+00
 3.9353500E+00 1.0557162E+00 1.8069026E+00
 3.8775587E+00 1.0840610E+00 1.7942737E+00
 3.8233282E+00 1.1123761E+00 1.7788397E+00
 4.9574698E+00 7.7625760E-01 1.7776328E+00
 4.8944460E+00 7.9188524E-01 1.7828018E+00
 4.8291709E+00 8.0819323E-01 1.7884610E+00
 4.7618479E+00 8.2527019E-01 1.7945574E+00
 4.6927688E+00 8.4321619E-01 1.8009696E+00
 4.6222856E+00 8.6213754E-01 1.8075006E+00
 4.5507996E+00 8.8213682E-01 1.8138742E+00
 4.4787542E+00 9.0329979E-01 1.8197444E+00
 4.4066248E+00 9.2568185E-01 1.8247101E+00
 4.3349067E+00 9.4929557E-01 1.8283421E+00
 4.2641050E+00 9.7410084E-01 1.8302112E+00
 4.1947208E+00 9.9999996E-01 1.8299227E+00
 4.1272391E+00 1.0268382E+00 1.8271451E+00
 4.0621143E+00 1.0544102E+00 1.8216358E+00
 3.9997565E+00 1.0824720E+00 1.8132568E+00
 3.9405195E+00 1.1107536E+00 1.8019838E+00
 3.8846706E+00 1.1389991E+00 1.7878904E+00
 4.9566838E+00 8.1457849E-01 1.7876648E+00
 4.8929506E+00 8.3148822E-01 1.7923073E+00
 4.8270684E+00 8.4913206E-01 1.7973741E+00
 4.7592709E+00 8.6759511E-01 1.8027963E+00
 4.6898814E+00 8.8696895E-01 1.8084339E+00
 4.6192816E+00 9.0734468E-01 1.8140707E+00
 4.5478989E+00 9.2880125E-01 1.8194139E+00
 4.4761972E+00 9.5139282E-01 1.8241067E+00
 4.4046644E+00 9.7513613E-01 1.8277471E+00
 4.3338004E+00 9.9999996E-01 1.8299168E+00
 4.2641050E+00 1.0258991E+00 1.8302112E+00
 4.1960640E+00 1.0526931E+00 1.8282722E+00
 4.1301372E+00 1.0801909E+00 1.8238150E+00
 4.0667441E+00 1.1081613E+00 1.8166491E+00
 4.0062536E+00 1.1363447E+00 1.8066905E+00
 3.9489545E+00 1.1644919E+00 1.7939542E+00
 4.9560328E+00 8.5426289E-01 1.7959760E+00
 4.8917493E+00 8.7239909E-01 1.7999446E+00
 4.8254449E+00 8.9130737E-01 1.8042608E+00
 4.7573819E+00 9.1106611E-01 1.8088403E+00
 4.6879132E+00 9.3175456E-01 1.8135272E+00
 4.6174461E+00 9.5344380E-01 1.8180901E+00
 4.5464282E+00 9.7618569E-01 1.8222260E+00
 4.4753367E+00 9.9999996E-01 1.8255761E+00
 4.4046644E+00 1.0248638E+00 1.8277471E+00
 4.3349067E+00 1.0507044E+00 1.8283421E+00
 4.2665493E+00 1.0773961E+00 1.8269898E+00
 4.2000544E+00 1.1047638E+00 1.8233761E+00
 4.1358484E+00 1.1325907E+00 1.8172659E+00
 4.0743120E+00 1.1606292E+00 1.8085217E+00
 4.0157514E+00 1.1886393E+00 1.7970998E+00
 4.9555306E+00 8.9506467E-01 1.8023848E+00
 4.8908699E+00 9.1433854E-01 1.8055369E+00
 4.8243393E+00 9.3440434E-01 1.8089522E+00
 4.7562285E+00 9.5533026E-01 1.8125329E+00
 4.6869158E+00 9.7717931E-01 1.8161101E+00
 4.6168286E+00 9.9999996E-01 1.8194431E+00
 4.5464282E+00 1.0238142E+00 1.8222260E+00
 4.4761972E+00 1.0486071E+00 1.8241067E+00
 4.4066248E+00 1.0743181E+00 1.8247101E+00
 4.3381936E+00 1.1008373E+00 1.8236693E+00
 4.2713671E+00 1.1280063E+00 1.8206533E+00
 4.2065764E+00 1.1556247E+00 1.8153952E+00
 4.1442111E+00 1.1834593E+00 1.8077111E+00
 4.0845914E+00 1.2112808E+00 1.7975040E+00
 4.9551890E+00 9.3669707E-01 1.8067443E+00
 4.8903333E+00 9.5698799E-01 1.8089492E+00
 4.8237793E+00 9.7807058E-01 1.8113288E+00
 4.7558406E+00 9.9999996E-01 1.8137750E+00
 4.6869158E+00 1.0228206E+00 1.8161101E+00
 4.6174461E+00 1.0465561E+00 1.8180901E+00
 4.5478989E+00 1.0711987E+00 1.8194139E+00
 4.4787542E+00 1.0967001E+00 1.8197445E+00
 4.4104898E+00 1.1229668E+00 1.8187328E+00
 4.3435678E+00 1.1498580E+00 1.8160485E+00
 4.2784221E+00 1.1771919E+00 1.8114044E+00
 4.2154496E+00 1.2047511E+00 1.8045829E+00
 4.1549822E+00 1.2323199E+00 1.7954394E+00
 4.9550161E+00 9.7884134E-01 1.8089508E+00
 4.8901530E+00 9.9999996E-01 1.8100962E+00
 4.8237793E+00 1.0219293E+00 1.8113288E+00
 4.7562285E+00 1.0446697E+00 1.8125329E+00
 4.6879132E+00 1.0682454E+00 1.8135272E+00
 4.6192816E+00 1.0926552E+00 1.8140707E+00
 4.5507996E+00 1.1178631E+00 1.8138743E+00
 4.4829368E+00 1.1437916E+00 1.8126229E+00
 4.4161522E+00 1.1703191E+00 1.8100000E+00
 4.3508807E+00 1.1972840E+00 1.8057148E+00
 4.2875245E+00 1.2244863E+00 1.7995269E+00
 4.2264246E+00 1.2517272E+00 1.7912555E+00
 4.9550161E+00 1.0211586E+00 1.8089508E+00
 4.8903333E+00 1.0430119E+00 1.8089492E+00
 4.8243393E+00 1.0655956E+00 1.8089522E+00
 4.7573819E+00 1.0889338E+00 1.8088404E+00
 4.6898814E+00 1.1130310E+00 1.8084339E+00
 4.6222856E+00 1.1378624E+00 1.8075007E+00
 4.5550515E+00 1.1633670E+00 1.8057693E+00
 4.4886322E+00 1.1894428E+00 1.8029527E+00
 4.4234605E+00 1.2159497E+00 1.7987692E+00
 4.3599429E+00 1.2427074E+00 1.7929717E+00
 4.2984272E+00 1.2695359E+00 1.7853530E+00
 4.9551890E+00 1.0633029E+00 1.8067443E+00
 4.8908699E+00 1.0856614E+00 1.8055369E+00
 4.8254449E+00 1.1086926E+00 1.8042608E+00
 4.7592709E+00 1.1324048E+00 1.8027963E+00
 4.6927688E+00 1.1567837E+00 1.8009697E+00
 4.6263794E+00 1.1817841E+00 1.7985625E+00
 4.5605448E+00 1.2073235E+00 1.7953265E+00
 4.4956935E+00 1.2332845E+00 1.7910041E+00
 4.4322339E+00 1.2595076E+00 1.7853539E+00
 4.3705176E+00 1.2858352E+00 1.7781565E+00
 4.9555306E+00 1.1049353E+00 1.8023848E+00
 4.8917493E+00 1.1276008E+00 1.7999446E+00
 4.8270684E+00 1.1508679E+00 1.7973741E+00
 4.7618479E+00 1.1747297E+00 1.7945574E+00
 4.6965030E+00 1.1991557E+00 1.7913305E+00
 4.6314616E+00 1.2240829E+00 1.7874929E+00
 4.5671429E+00 1.2494164E+00 1.7828203E+00
 4.5039553E+00 1.2750184E+00 1.7770918E+00
 4.4422510E+00 1.3007564E+00 1.7700866E+00
 4.9560328E+00 1.1457370E+00 1.7959760E+00
 4.8929506E+00 1.1685117E+00 1.7923073E+00
 4.8291709E+00 1.1918067E+00 1.7884611E+00
 4.7650508E+00 1.2156030E+00 1.7843275E+00
 4.7009955E+00 1.2398550E+00 1.7797560E+00
 4.6374108E+00 1.2644911E+00 1.7745642E+00
 4.5747015E+00 1.2893942E+00 1.7685606E+00
 4.5132161E+00 1.3144599E+00 1.7615359E+00
 4.9566838E+00 1.1854214E+00 1.7876648E+00
 4.8944460E+00 1.2081147E+00 1.7828018E+00
 4.8317037E+00 1.2312426E+00 1.7777286E+00
 4.7688082E+00 1.2547736E+00 1.7723446E+00
 4.7061437E+00 1.2786574E+00 1.7665116E+00
 4.6441078E+00 1.3027976E+00 1.7600763E+00
 4.5830405E+00 1.3271187E+00 1.7528488E+00
 4.9574698E+00 1.2237423E+00 1.7776328E+00
 4.8962029E+00 1.2461786E+00 1.7716353E+00
 4.8346139E+00 1.2689610E+00 1.7654105E+00
 4.7730374E+00 1.2920560E+00 1.7588644E+00
 4.7118550E+00 1.3153860E+00 1.7518849E+00
 4.6513940E+00 1.3389053E+00 1.7443090E+00
 4.9583738E+00 1.2604998E+00 1.7660854E+00
 4.8981868E+00 1.2825213E+00 1.7590357E+00
 4.8378393E+00 1.3048097E+00 1.7517508E+00
 4.7776728E+00 1.3273018E+00 1.7441610E+00
 4.7179924E+00 1.3499796E+00 1.7361319E+00
 4.9593813E+00 1.2955408E+00 1.7532427E+00
 4.9003560E+00 1.3170207E+00 1.7452342E+00
 4.8413424E+00 1.3386653E+00 1.7370096E+00
 4.7825976E+00 1.3604810E+00 1.7284659E+00
 4.9604652E+00 1.3287659E+00 1.7393250E+00
 4.9026942E+00 1.3495706E+00 1.7304800E+00
 4.8450219E+00 1.3705238E+00 1.7213958E+00
 4.9616464E+00 1.3600978E+00 1.7245627E+00
 4.9051281E+00 1.3801937E+00 1.7149535E+00
 4.9628158E+00 1.3895578E+00 1.7091387E+00
 5.0181809E+00 1.3989705E+00 1.7036787E+00
 5.0181809E+00 1.3705470E+00 1.7190899E+00
 5.0181809E+00 1.3403776E+00 1.7338597E+00
 5.0181809E+00 1.3083334E+00 1.7479010E+00
 5.0181810E+00 1.2745070E+00 1.7609774E+00
 5.0181810E+00 1.2389693E+00 1.7728844E+00
 5.0181810E+00 1.2018501E+00 1.7834077E+00
 5.0181810E+00 1.1633205E+00 1.7923448E+00
 5.0181810E+00 1.1235971E+00 1.7995112E+00
 5.0181811E+00 1.0829375E+00 1.8047506E+00
 5.0181811E+00 1.0416331E+00 1.8079441E+00
 5.0181811E+00 9.9999996E-01 1.8090171E+00
 5.0181811E+00 9.5836680E-01 1.8079441E+00
 5.0181811E+00 9.1706244E-01 1.8047506E+00
 5.0181810E+00 8.7640283E-01 1.7995112E+00
 5.0181810E+00 8.3667946E-01 1.7923448E+00
 5.0181810E+00 7.9814981E-01 1.7834077E+00
 5.0181810E+00 7.6103063E-01 1.7728844E+00
 5.0181810E+00 7.2549295E-01 1.7609775E+00
 5.0181809E+00 6.9166648E-01 1.7479010E+00
 5.0181809E+00 6.5962234E-01 1.7338597E+00
 5.0181809E+00 6.2945291E-01 1.7190899E+00
 5.0181809E+00 6.0102943E-01 1.7036788E+00
 5.0717445E+00 5.8256372E-01 1.6933335E+00
 5.1281793E+00 5.9075888E-01 1.6991568E+00
 5.1870214E+00 5.9919702E-01 1.7055936E+00
 5.2481364E+00 6.0792643E-01 1.7126349E+00
 5.3114601E+00 6.1704459E-01 1.7202639E+00
 5.3768199E+00 6.2665845E-01 1.7283966E+00
 5.4440150E+00 6.3690732E-01 1.7368963E+00
 5.5127948E+00 6.4795298E-01 1.7455611E+00
 5.5828630E+00 6.5997460E-01 1.7541250E+00
 5.6538788E+00 6.7315753E-01 1.7622632E+00
 5.7254571E+00 6.8767971E-01 1.7696044E+00
 5.7971729E+00 7.0369637E-01 1.7757505E+00
 5.8685665E+00 7.2132462E-01 1.7802998E+00
 5.9391528E+00 7.4063016E-01 1.7828748E+00
 6.0084327E+00 7.6161818E-01 1.7831468E+00
 6.0759098E+00 7.8422885E-01 1.7808591E+00
 6.1411086E+00 8.0833976E-01 1.7758415E+00
 6.2035915E+00 8.3377197E-01 1.7680194E+00
 6.2629767E+00 8.6030204E-01 1.7574127E+00
 6.3189507E+00 8.8767463E-01 1.7441293E+00
 6.3712779E+00 9.1561956E-01 1.7283503E+00
 6.4198055E+00 9.4386337E-01 1.7103179E+00
 6.4644888E+00 9.7216250E-01 1.6903099E+00
 5.0735443E+00 1.3896532E+00 1.7093123E+00
 5.1312269E+00 1.3803805E+00 1.7153048E+00
 5.1913249E+00 1.3707938E+00 1.7219219E+00
 5.2537392E+00 1.3608214E+00 1.7291541E+00
 5.3183343E+00 1.3503722E+00 1.7369580E+00
 5.3849250E+00 1.3393268E+00 1.7452352E+00
 5.4532756E+00 1.3275414E+00 1.7538218E+00
 5.5231035E+00 1.3148523E+00 1.7624863E+00
 5.5940787E+00 1.3010856E+00 1.7709294E+00
 5.6658256E+00 1.2860694E+00 1.7787940E+00
 5.7379264E+00 1.2696483E+00 1.7856803E+00
 5.8099261E+00 1.2517001E+00 1.7911702E+00
 5.8813399E+00 1.2321488E+00 1.7948531E+00
 5.9516641E+00 1.2109768E+00 1.7963562E+00
 6.0203910E+00 1.1882298E+00 1.7953696E+00
 6.0870265E+00 1.1640182E+00 1.7916677E+00
 6.1511082E+00 1.1385105E+00 1.7851214E+00
 6.2122236E+00 1.1119235E+00 1.7757034E+00
 6.2700249E+00 1.0845086E+00 1.7634824E+00
 6.3242415E+00 1.0565359E+00 1.7486128E+00
 6.3746810E+00 1.0282821E+00 1.7313217E+00
 6.4212657E+00 9.9999996E-01 1.7118610E+00
 5.0747138E+00 1.3601880E+00 1.7247436E+00
 5.1336607E+00 1.3497461E+00 1.7308460E+00
 5.1950041E+00 1.3389171E+00 1.7375568E+00
 5.2586634E+00 1.3276162E+00 1.7448751E+00
 5.3244711E+00 1.3157446E+00 1.7527390E+00
 5.3922108E+00 1.3031773E+00 1.7610288E+00
 5.4616148E+00 1.2897683E+00 1.7695537E+00
 5.5323654E+00 1.2753580E+00 1.7780510E+00
 5.6040977E+00 1.2597836E+00 1.7861890E+00
 5.6764023E+00 1.2428939E+00 1.7935807E+00
 5.7488298E+00 1.2245638E+00 1.7998027E+00
 5.8208987E+00 1.2047106E+00 1.8044235E+00
 5.8921035E+00 1.1833051E+00 1.8070324E+00
 5.9619297E+00 1.1603807E+00 1.8072707E+00
 6.0298688E+00 1.1360347E+00 1.8048564E+00
 6.0954373E+00 1.1104249E+00 1.7996033E+00
 6.1581950E+00 1.0837600E+00 1.7914297E+00
 6.2177623E+00 1.0562869E+00 1.7803582E+00
 6.2738323E+00 1.0282744E+00 1.7665075E+00
 6.3261812E+00 9.9999996E-01 1.7500763E+00
 6.3746810E+00 9.7171784E-01 1.7313217E+00
 5.0758948E+00 1.3288499E+00 1.7395135E+00
 5.1359985E+00 1.3171828E+00 1.7456150E+00
 5.1985067E+00 1.3050401E+00 1.7523189E+00
 5.2632979E+00 1.2923404E+00 1.7596035E+00
 5.3301815E+00 1.2789775E+00 1.7673921E+00
 5.3989072E+00 1.2648246E+00 1.7755409E+00
 5.4691735E+00 1.2497384E+00 1.7838311E+00
 5.5406282E+00 1.2335692E+00 1.7919697E+00
 5.6128726E+00 1.2161730E+00 1.7995953E+00
 5.6854660E+00 1.1974264E+00 1.8062964E+00
 5.7579324E+00 1.1772421E+00 1.8116337E+00
 5.8297694E+00 1.1555823E+00 1.8151723E+00
 5.9004598E+00 1.1324685E+00 1.8165122E+00
 5.9694870E+00 1.1079853E+00 1.8153198E+00
 6.0363516E+00 1.0822786E+00 1.8113505E+00
 6.1005916E+00 1.0555478E+00 1.8044645E+00
 6.1617980E+00 1.0280332E+00 1.7946309E+00
 6.2196321E+00 9.9999996E-01 1.7819231E+00
 6.2738323E+00 9.7172550E-01 1.7665075E+00
 6.3242415E+00 9.4346405E-01 1.7486128E+00
 5.0769787E+00 1.2956178E+00 1.7534383E+00
 5.1381676E+00 1.2826683E+00 1.7594302E+00
 5.2017315E+00 1.2691675E+00 1.7659979E+00
 5.2675265E+00 1.2550250E+00 1.7731067E+00
 5.3353291E+00 1.2401332E+00 1.7806602E+00
 5.4048561E+00 1.2243668E+00 1.7884906E+00
 5.4757718E+00 1.2075907E+00 1.7963516E+00
 5.5476904E+00 1.1896716E+00 1.8039224E+00
 5.6201823E+00 1.1704909E+00 1.8108168E+00
 5.6927801E+00 1.1499604E+00 1.8166059E+00
 5.7649875E+00 1.1280362E+00 1.8208444E+00
 5.8362894E+00 1.1047294E+00 1.8231047E+00
 5.9061662E+00 1.0801124E+00 1.8230087E+00
 5.9741096E+00 1.0543190E+00 1.8202578E+00
 6.0396401E+00 1.0275374E+00 1.8146523E+00
 6.1023258E+00 9.9999996E-01 1.8061032E+00
 6.1617980E+00 9.7196677E-01 1.7946309E+00
 6.2177623E+00 9.4371298E-01 1.7803582E+00
 6.2700249E+00 9.1549129E-01 1.7634824E+00
 5.0779862E+00 1.2605687E+00 1.7662877E+00
 5.1401513E+00 1.2463087E+00 1.7720427E+00
 5.2046413E+00 1.2314225E+00 1.7783336E+00
 5.2712833E+00 1.2158181E+00 1.7851100E+00
 5.3398211E+00 1.1993885E+00 1.7922554E+00
 5.4099380E+00 1.1820152E+00 1.7995780E+00
 5.4812653E+00 1.1635771E+00 1.8068060E+00
 5.5533866E+00 1.1439636E+00 1.8135950E+00
 5.6258458E+00 1.1230882E+00 1.8195413E+00
 5.6981551E+00 1.1009033E+00 1.8242077E+00
 5.7698053E+00 1.0774115E+00 1.8271536E+00
 5.8402783E+00 1.0526739E+00 1.8279702E+00
 5.9090618E+00 1.0268112E+00 1.8263116E+00
 5.9756658E+00 9.9999996E-01 1.8219222E+00
 6.0396401E+00 9.7246250E-01 1.8146523E+00
 6.1005916E+00 9.4445214E-01 1.8044645E+00
 6.1581950E+00 9.1623993E-01 1.7914297E+00
 6.2122236E+00 8.8807641E-01 1.7757034E+00
 5.0788902E+00 1.2238024E+00 1.7778412E+00
 5.1419080E+00 1.2082261E+00 1.7832207E+00
 5.2071737E+00 1.1919577E+00 1.7890816E+00
 5.2744858E+00 1.1749057E+00 1.7953576E+00
 5.3435548E+00 1.1569681E+00 1.8019118E+00
 5.4140316E+00 1.1380381E+00 1.8085302E+00
 5.4855174E+00 1.1180144E+00 1.8149194E+00
 5.5575697E+00 1.0968149E+00 1.8207178E+00
 5.6297115E+00 1.0743904E+00 1.8255123E+00
 5.7014425E+00 1.0507366E+00 1.8288683E+00
 5.7722495E+00 1.0259038E+00 1.8303608E+00
 5.8416210E+00 9.9999996E-01 1.8296103E+00
 5.9090618E+00 9.7318871E-01 1.8263116E+00
 5.9741096E+00 9.4568092E-01 1.8202578E+00
 6.0363516E+00 9.1772128E-01 1.8113505E+00
 6.0954373E+00 8.8957507E-01 1.7996033E+00
 6.1511082E+00 8.6148940E-01 1.7851214E+00
 5.0796762E+00 1.1854719E+00 1.7878786E+00
 5.1434032E+00 1.1686030E+00 1.7927360E+00
 5.2092760E+00 1.1509878E+00 1.7980077E+00
 5.2770625E+00 1.1325391E+00 1.8036106E+00
 5.3464419E+00 1.1131645E+00 1.8093893E+00
 5.4170355E+00 1.0927736E+00 1.8151104E+00
 5.4884182E+00 1.0712900E+00 1.8204646E+00
 5.5601271E+00 1.0486645E+00 1.8250805E+00
 5.6316723E+00 1.0248878E+00 1.8285458E+00
 5.7025491E+00 9.9999996E-01 1.8304388E+00
 5.7722495E+00 9.7409616E-01 1.8303608E+00
 5.8402783E+00 9.4732606E-01 1.8279702E+00
 5.9061662E+00 9.1988748E-01 1.8230087E+00
 5.9694870E+00 8.9201460E-01 1.8153198E+00
 6.0298688E+00 8.6396520E-01 1.8048564E+00
 6.0870265E+00 8.3598175E-01 1.7916677E+00
 5.0803272E+00 1.1457771E+00 1.7961943E+00
 5.1446044E+00 1.1276706E+00 1.8003814E+00
 5.2108993E+00 1.1087796E+00 1.8049044E+00
 5.2789512E+00 1.0890245E+00 1.8096651E+00
 5.3484099E+00 1.0683262E+00 1.8144916E+00
 5.4188709E+00 1.0466156E+00 1.8191360E+00
 5.4898890E+00 1.0238447E+00 1.8232795E+00
 5.5609877E+00 9.9999996E-01 1.8265500E+00
 5.6316723E+00 9.7511213E-01 1.8285458E+00
 5.7014425E+00 9.4926334E-01 1.8288683E+00
 5.7698053E+00 9.2258843E-01 1.8271536E+00
 5.8362894E+00 8.9527056E-01 1.8231047E+00
 5.9004598E+00 8.6753144E-01 1.8165122E+00
 5.9619297E+00 8.3961925E-01 1.8072707E+00
 6.0203910E+00 8.1177010E-01 1.7953696E+00
 5.0808294E+00 1.1049643E+00 1.8026066E+00
 5.1454839E+00 1.0857085E+00 1.8059796E+00
 5.2120047E+00 1.0656483E+00 1.8096027E+00
 5.2801044E+00 1.0447154E+00 1.8133640E+00
 5.3494071E+00 1.0228477E+00 1.8170790E+00
 5.4194884E+00 9.9999996E-01 1.8204910E+00
 5.4898890E+00 9.7615518E-01 1.8232795E+00
 5.5601271E+00 9.5133539E-01 1.8250805E+00
 5.6297115E+00 9.2560956E-01 1.8255123E+00
 5.6981551E+00 8.9909665E-01 1.8242077E+00
 5.7649875E+00 8.7196376E-01 1.8208444E+00
 5.8297694E+00 8.4441763E-01 1.8151723E+00
 5.8921035E+00 8.1669479E-01 1.8070324E+00
 5.9516641E+00 7.8902317E-01 1.7963562E+00
 5.0811710E+00 1.0633205E+00 1.8069685E+00
 5.1460203E+00 1.0430357E+00 1.8093955E+00
 5.2125646E+00 1.0219470E+00 1.8119829E+00
 5.2804923E+00 9.9999996E-01 1.8146083E+00
 5.3494071E+00 9.7715222E-01 1.8170790E+00
 5.4188709E+00 9.5338430E-01 1.8191360E+00
 5.4884182E+00 9.2870997E-01 1.8204646E+00
 5.5575697E+00 9.0318498E-01 1.8207178E+00
 5.6258458E+00 8.7691169E-01 1.8195413E+00
 5.6927801E+00 8.5003949E-01 1.8166059E+00
 5.7579324E+00 8.2275785E-01 1.8116337E+00
 5.8208987E+00 7.9528929E-01 1.8044235E+00
 5.8813399E+00 7.6785112E-01 1.7948531E+00
 5.0813438E+00 1.0211645E+00 1.8091763E+00
 5.1462006E+00 9.9999996E-01 1.8105437E+00
 5.2125646E+00 9.7805290E-01 1.8119829E+00
 5.2801044E+00 9.5528457E-01 1.8133640E+00
 5.3484099E+00 9.3167368E-01 1.8144916E+00
 5.4170355E+00 9.0722637E-01 1.8151104E+00
 5.4855174E+00 8.8198548E-01 1.8149194E+00
 5.5533866E+00 8.5603632E-01 1.8135950E+00
 5.6201823E+00 8.2950902E-01 1.8108168E+00
 5.6854660E+00 8.0257351E-01 1.8062964E+00
 5.7488298E+00 7.7543608E-01 1.7998027E+00
 5.8099261E+00 7.4829980E-01 1.7911702E+00
 5.0813438E+00 9.7883544E-01 1.8091763E+00
 5.1460203E+00 9.5696425E-01 1.8093955E+00
 5.2120047E+00 9.3435158E-01 1.8096027E+00
 5.2789512E+00 9.1097543E-01 1.8096651E+00
 5.3464419E+00 8.8683540E-01 1.8093893E+00
 5.4140316E+00 8.6196181E-01 1.8085302E+00
 5.4812653E+00 8.3642282E-01 1.8068060E+00
 5.5476904E+00 8.1032832E-01 1.8039224E+00
 5.6128726E+00 7.8382692E-01 1.7995954E+00
 5.6764023E+00 7.5710603E-01 1.7935807E+00
 5.7379264E+00 7.3035158E-01 1.7856803E+00
 5.0811710E+00 9.3667945E-01 1.8069685E+00
 5.1454839E+00 9.1429144E-01 1.8059796E+00
 5.2108993E+00 8.9122037E-01 1.8049044E+00
 5.2770625E+00 8.6746080E-01 1.8036106E+00
 5.3435548E+00 8.4303180E-01 1.8019118E+00
 5.4099380E+00 8.1798474E-01 1.7995780E+00
 5.4757718E+00 7.9240919E-01 1.7963517E+00
 5.5406282E+00 7.6643068E-01 1.7919697E+00
 5.6040977E+00 7.4021628E-01 1.7861890E+00
 5.6658256E+00 7.1393055E-01 1.7787940E+00
 5.0808294E+00 8.9503561E-01 1.8026066E+00
 5.1446044E+00 8.7232937E-01 1.8003814E+00
 5.2092760E+00 8.4901216E-01 1.7980077E+00
 5.2744858E+00 8.2509422E-01 1.7953576E+00
 5.3398211E+00 8.0061142E-01 1.7922555E+00
 5.4048561E+00 7.7563312E-01 1.7884906E+00
 5.4691735E+00 7.5026152E-01 1.7838311E+00
 5.5323654E+00 7.2464188E-01 1.7780510E+00
 5.5940787E+00 6.9891436E-01 1.7709294E+00
 5.0803272E+00 8.5422284E-01 1.7961943E+00
 5.1434032E+00 8.3139696E-01 1.7927361E+00
 5.2071737E+00 8.0804223E-01 1.7890817E+00
 5.2712833E+00 7.8418181E-01 1.7851101E+00
 5.3353291E+00 7.5986672E-01 1.7806602E+00
 5.3989072E+00 7.3517534E-01 1.7755409E+00
 5.4616148E+00 7.1023158E-01 1.7695537E+00
 5.5231035E+00 6.8514764E-01 1.7624863E+00
 5.0796762E+00 8.1452806E-01 1.7878786E+00
 5.1419080E+00 7.9177379E-01 1.7832207E+00
 5.2046413E+00 7.6857742E-01 1.7783337E+00
 5.2675265E+00 7.4497491E-01 1.7731067E+00
 5.3301815E+00 7.2102244E-01 1.7673922E+00
 5.3922108E+00 6.9682258E-01 1.7610289E+00
 5.4532756E+00 6.7245856E-01 1.7538218E+00
 5.0788902E+00 7.7619750E-01 1.7778413E+00
 5.1401513E+00 7.5369122E-01 1.7720427E+00
 5.2017315E+00 7.3083245E-01 1.7659979E+00
 5.2632979E+00 7.0765949E-01 1.7596036E+00
 5.3244711E+00 6.8425534E-01 1.7527391E+00
 5.3849250E+00 6.6067308E-01 1.7452353E+00
 5.0779862E+00 7.3943117E-01 1.7662878E+00
 5.1381676E+00 7.1733158E-01 1.7594303E+00
 5.1985067E+00 6.9495983E-01 1.7523190E+00
 5.2586634E+00 6.7238372E-01 1.7448752E+00
 5.3183343E+00 6.4962771E-01 1.7369581E+00
 5.0769787E+00 7.0438214E-01 1.7534383E+00
 5.1359985E+00 6.8281715E-01 1.7456150E+00
 5.1950041E+00 6.6108283E-01 1.7375569E+00
 5.2537392E+00 6.3917856E-01 1.7291541E+00
 5.0758948E+00 6.7115001E-01 1.7395136E+00
 5.1336607E+00 6.5025382E-01 1.7308461E+00
 5.1913249E+00 6.2920608E-01 1.7219219E+00
 5.0747138E+00 6.3981193E-01 1.7247436E+00
 5.1312269E+00 6.1961940E-01 1.7153048E+00
 5.0735443E+00 6.1034671E-01 1.7093124E+00
 4.9850514E+00 1.4461235E+00 1.6748435E+00
 4.9501523E+00 1.4678456E+00 1.6602591E+00
 4.9139278E+00 1.4901285E+00 1.6444330E+00
 4.8763441E+00 1.5129388E+00 1.6272848E+00
 4.8375731E+00 1.5362072E+00 1.6087096E+00
 4.7977669E+00 1.5598277E+00 1.5886172E+00
 4.7571292E+00 1.5836698E+00 1.5669179E+00
 4.7158968E+00 1.6075713E+00 1.5435333E+00
 4.6743403E+00 1.6313394E+00 1.5184011E+00
 4.6327555E+00 1.6547532E+00 1.4914843E+00
 4.5914569E+00 1.6775682E+00 1.4627792E+00
 4.5507665E+00 1.6995251E+00 1.4323237E+00
 4.5110022E+00 1.7203610E+00 1.4002026E+00
 4.4724671E+00 1.7398216E+00 1.3665512E+00
 4.4354374E+00 1.7576754E+00 1.3315537E+00
 4.4001539E+00 1.7737256E+00 1.2954386E+00
 4.3668135E+00 1.7878203E+00 1.2584695E+00
 4.3355662E+00 1.7998591E+00 1.2209340E+00
 4.3065118E+00 1.8097958E+00 1.1831301E+00
 4.2797024E+00 1.8176364E+00 1.1453533E+00
 4.2551439E+00 1.8234356E+00 1.1078836E+00
 4.2328083E+00 1.8272897E+00 1.0709791E+00
 4.2126073E+00 1.8293188E+00 1.0348319E+00
 3.5589761E+00 1.0759713E+00 1.6834912E+00
 3.5499778E+00 1.1259254E+00 1.6711243E+00
 3.5442276E+00 1.1778673E+00 1.6559923E+00
 3.5422285E+00 1.2314025E+00 1.6379271E+00
 3.5444478E+00 1.2860000E+00 1.6168199E+00
 3.5512982E+00 1.3410219E+00 1.5926432E+00
 3.5631012E+00 1.3957435E+00 1.5654651E+00
 3.5800568E+00 1.4493815E+00 1.5354600E+00
 3.6022186E+00 1.5011341E+00 1.5029118E+00
 3.6294774E+00 1.5502273E+00 1.4682081E+00
 3.6615600E+00 1.5959656E+00 1.4318240E+00
 3.6980390E+00 1.6377769E+00 1.3942967E+00
 3.7383596E+00 1.6752475E+00 1.3561931E+00
 3.7818756E+00 1.7081422E+00 1.3180754E+00
 3.8278907E+00 1.7364064E+00 1.2804682E+00
 3.8757003E+00 1.7601513E+00 1.2438313E+00
 3.9246289E+00 1.7796263E+00 1.2085419E+00
 3.9740577E+00 1.7951833E+00 1.1748857E+00
 4.0234430E+00 1.8072395E+00 1.1430575E+00
 4.0723287E+00 1.8162419E+00 1.1131677E+00
 4.1203344E+00 1.8226413E+00 1.0852601E+00
 4.1672042E+00 1.8268585E+00 1.0592939E+00
 3.6058304E+00 1.1052633E+00 1.7036229E+00
 3.5991563E+00 1.1559372E+00 1.6909455E+00
 3.5958785E+00 1.2084087E+00 1.6753690E+00
 3.5964709E+00 1.2622112E+00 1.6567182E+00
 3.6013659E+00 1.3167621E+00 1.6348977E+00
 3.6109252E+00 1.3713751E+00 1.6099024E+00
 3.6254061E+00 1.4252900E+00 1.5818325E+00
 3.6449341E+00 1.4777071E+00 1.5509031E+00
 3.6694812E+00 1.5278331E+00 1.5174434E+00
 3.6988579E+00 1.5749301E+00 1.4818867E+00
 3.7327168E+00 1.6183650E+00 1.4447489E+00
 3.7705730E+00 1.6576507E+00 1.4065984E+00
 3.8118339E+00 1.6924727E+00 1.3680208E+00
 3.8558393E+00 1.7226992E+00 1.3295823E+00
 3.9019022E+00 1.7483730E+00 1.2917983E+00
 3.9493476E+00 1.7696880E+00 1.2551089E+00
 3.9975444E+00 1.7869563E+00 1.2198643E+00
 4.0459267E+00 1.8005704E+00 1.1863211E+00
 4.0940093E+00 1.8109661E+00 1.1546455E+00
 4.1413857E+00 1.8185928E+00 1.1249232E+00
 4.1877635E+00 1.8238823E+00 1.0971657E+00
 3.6568155E+00 1.1342778E+00 1.7214961E+00
 3.6526418E+00 1.1854197E+00 1.7083635E+00
 3.6519779E+00 1.2381080E+00 1.6921977E+00
 3.6552615E+00 1.2918314E+00 1.6728373E+00
 3.6628776E+00 1.3459574E+00 1.6502066E+00
 3.6751263E+00 1.3997642E+00 1.6243311E+00
 3.6921927E+00 1.4524730E+00 1.5953500E+00
 3.7141230E+00 1.5032886E+00 1.5635234E+00
 3.7408095E+00 1.5514483E+00 1.5292268E+00
 3.7719884E+00 1.5962719E+00 1.4929367E+00
 3.8072525E+00 1.6372071E+00 1.4552030E+00
 3.8460755E+00 1.6738633E+00 1.4166157E+00
 3.8878473E+00 1.7060288E+00 1.3777671E+00
 3.9319126E+00 1.7336705E+00 1.3392159E+00
 3.9776109E+00 1.7569167E+00 1.3014573E+00
 4.0243096E+00 1.7760273E+00 1.2649037E+00
 4.0714293E+00 1.7913583E+00 1.2298736E+00
 4.1184643E+00 1.8033232E+00 1.1965907E+00
 4.1649797E+00 1.8123623E+00 1.1651943E+00
 4.2106586E+00 1.8189082E+00 1.1357343E+00
 3.7118190E+00 1.1627228E+00 1.7368114E+00
 3.7102752E+00 1.2140319E+00 1.7230708E+00
 3.7123163E+00 1.2666034E+00 1.7061852E+00
 3.7183312E+00 1.3198821E+00 1.6860114E+00
 3.7286470E+00 1.3731993E+00 1.6625029E+00
 3.7434941E+00 1.4258133E+00 1.6357229E+00
 3.7629818E+00 1.4769462E+00 1.6058551E+00
 3.7870768E+00 1.5258291E+00 1.5732060E+00
 3.8155980E+00 1.5717516E+00 1.5381960E+00
 3.8482195E+00 1.6141093E+00 1.5013376E+00
 3.8844900E+00 1.6524430E+00 1.4632054E+00
 3.9238610E+00 1.6864631E+00 1.4243986E+00
 3.9657233E+00 1.7160570E+00 1.3855036E+00
 4.0094441E+00 1.7412792E+00 1.3470595E+00
 4.0544024E+00 1.7623269E+00 1.3095328E+00
 4.1000159E+00 1.7795073E+00 1.2733015E+00
 4.1457652E+00 1.7932003E+00 1.2386482E+00
 4.1911945E+00 1.8038261E+00 1.2057669E+00
 4.2359650E+00 1.8118086E+00 1.1747542E+00
 3.7706175E+00 1.1902801E+00 1.7493198E+00
 3.7717781E+00 1.2414378E+00 1.7348324E+00
 3.7765511E+00 1.2935450E+00 1.7171156E+00