# TIME = 5.400000
variables = x, y, z
zone N=5762 E=11520 F=FEPOINT ET=TRIANGLE
 5.9201881E+00 1.4259812E+00 1.6889274E+00
 5.9201881E+00 1.4259812E+00 3.1107250E-01
 5.9201881E+00 5.7401880E-01 1.6889275E+00
 5.9201881E+00 5.7401873E-01 3.1107237E-01
 4.4300140E+00 1.0000000E+00 1.6723462E+00
 7.4046909E+00 1.0000000E+00 1.6601164E+00
 4.4300143E+00 1.0000000E+00 3.2765421E-01
 7.4046911E+00 1.0000000E+00 3.3988325E-01
 5.0891769E+00 1.8470707E+00 9.9999999E-01
 5.0891769E+00 1.5292931E-01 9.9999999E-01
 6.7458630E+00 1.8193937E+00 9.9999998E-01
 6.7458630E+00 1.8060623E-01 9.9999998E-01
 5.8680200E+00 1.4182830E+00 1.6938458E+00
 5.8103736E+00 1.4099302E+00 1.6996917E+00
 5.7500425E+00 1.4014355E+00 1.7062589E+00
 5.6872251E+00 1.3927455E+00 1.7136629E+00
 5.6221746E+00 1.3838329E+00 1.7219293E+00
 5.5551727E+00 1.3745991E+00 1.7310430E+00
 5.4865003E+00 1.3649071E+00 1.7409058E+00
 5.4164726E+00 1.3545733E+00 1.7513253E+00
 5.3454289E+00 1.3433768E+00 1.7620027E+00
 5.2737253E+00 1.3310724E+00 1.7725348E+00
 5.2017271E+00 1.3174082E+00 1.7824278E+00
 5.1298073E+00 1.3021487E+00 1.7911235E+00
 5.0583534E+00 1.2850982E+00 1.7980356E+00
 4.9877767E+00 1.2661239E+00 1.8025936E+00
 4.9185195E+00 1.2451738E+00 1.8042871E+00
 4.8510525E+00 1.2222868E+00 1.8027098E+00
 4.7858628E+00 1.1975933E+00 1.7975911E+00
 4.7234320E+00 1.1713063E+00 1.7888164E+00
 4.6642133E+00 1.1437051E+00 1.7764302E+00
 4.6086073E+00 1.1151150E+00 1.7606247E+00
 4.5569643E+00 1.0859021E+00 1.7417310E+00
 4.5095505E+00 1.0564538E+00 1.7201773E+00
 4.4666540E+00 1.0272832E+00 1.6965357E+00
 5.8619599E+00 6.1121028E-01 1.7108332E+00
 5.8024908E+00 6.2125094E-01 1.7171954E+00
 5.7407009E+00 6.3108373E-01 1.7240797E+00
 5.6768751E+00 6.4098939E-01 1.7316848E+00
 5.6110671E+00 6.5119987E-01 1.7401297E+00
 5.5435081E+00 6.6185163E-01 1.7493874E+00
 5.4744689E+00 6.7310169E-01 1.7593356E+00
 5.4042678E+00 6.8512967E-01 1.7697446E+00
 5.3332544E+00 6.9814328E-01 1.7802772E+00
 5.2617934E+00 7.1236262E-01 1.7904963E+00
 5.1902561E+00 7.2800142E-01 1.7998824E+00
 5.1190178E+00 7.4524461E-01 1.8078657E+00
 5.0484661E+00 7.6422735E-01 1.8138641E+00
 4.9790080E+00 7.8501702E-01 1.8173281E+00
 4.9110759E+00 8.0760240E-01 1.8177849E+00
 4.8451224E+00 8.3189109E-01 1.8148772E+00
 4.7816075E+00 8.5771687E-01 1.8083905E+00
 4.7209720E+00 8.8485307E-01 1.7982638E+00
 4.6636064E+00 9.1302352E-01 1.7845810E+00
 4.6097813E+00 9.4190046E-01 1.7675287E+00
 4.5595342E+00 9.7108718E-01 1.7473061E+00
 4.5125058E+00 1.0000000E+00 1.7239752E+00
 5.8598612E+00 6.4159027E-01 1.7266301E+00
 5.7980606E+00 6.5335354E-01 1.7333396E+00
 5.7347858E+00 6.6454767E-01 1.7403731E+00
 5.6697416E+00 6.7580853E-01 1.7480944E+00
 5.6030058E+00 6.8742649E-01 1.7566100E+00
 5.5347159E+00 6.9959897E-01 1.7658944E+00
 5.4651351E+00 7.1248883E-01 1.7757948E+00
 5.3945836E+00 7.2627469E-01 1.7860482E+00
 5.3234221E+00 7.4114835E-01 1.7962811E+00
 5.2520252E+00 7.5730247E-01 1.8060244E+00
 5.1807712E+00 7.7491033E-01 1.8147359E+00
 5.1100397E+00 7.9410556E-01 1.8218364E+00
 5.0402186E+00 8.1496470E-01 1.8267511E+00
 4.9717108E+00 8.3749529E-01 1.8289549E+00
 4.9049365E+00 8.6163256E-01 1.8280145E+00
 4.8403247E+00 8.8724534E-01 1.8236216E+00
 4.7782912E+00 9.1414900E-01 1.8156109E+00
 4.7191893E+00 9.4211577E-01 1.8039528E+00
 4.6632143E+00 9.7086277E-01 1.7887040E+00
 4.6102411E+00 1.0000000E+00 1.7698971E+00
 4.5595342E+00 1.0289129E+00 1.7473061E+00
 5.8584559E+00 6.7350167E-01 1.7415321E+00
 5.7951954E+00 6.8664462E-01 1.7482328E+00
 5.7305751E+00 6.9922961E-01 1.7552742E+00
 5.6644323E+00 7.1188862E-01 1.7629684E+00
 5.5967655E+00 7.2498854E-01 1.7714241E+00
 5.5277279E+00 7.3874033E-01 1.7805883E+00
 5.4575770E+00 7.5331651E-01 1.7902814E+00
 5.3866482E+00 7.6888699E-01 1.8002060E+00
 5.3153149E+00 7.8562475E-01 1.8099553E+00
 5.2439627E+00 8.0369049E-01 1.8190319E+00
 5.1729769E+00 8.2321445E-01 1.8268763E+00
 5.1027403E+00 8.4427863E-01 1.8329065E+00
 5.0336391E+00 8.6690447E-01 1.8365617E+00
 4.9660671E+00 8.9104800E-01 1.8373473E+00
 4.9004240E+00 9.1660456E-01 1.8348717E+00
 4.8370953E+00 9.4342057E-01 1.8288719E+00
 4.7764051E+00 9.7130256E-01 1.8192128E+00
 4.7185112E+00 1.0000000E+00 1.8058468E+00
 4.6632143E+00 1.0291373E+00 1.7887040E+00
 4.6097813E+00 1.0580996E+00 1.7675287E+00
 5.8573252E+00 7.0699760E-01 1.7554128E+00
 5.7928932E+00 7.2139853E-01 1.7619117E+00
 5.7271657E+00 7.3532013E-01 1.7687890E+00
 5.6600483E+00 7.4939748E-01 1.7763098E+00
 5.5915637E+00 7.6400196E-01 1.7845484E+00
 5.5218736E+00 7.7935325E-01 1.7934242E+00
 5.4512546E+00 7.9561888E-01 1.8027259E+00
 5.3800569E+00 8.1295601E-01 1.8121246E+00
 5.3086680E+00 8.3151237E-01 1.8211843E+00
 5.2374826E+00 8.5141283E-01 1.8293865E+00
 5.1668904E+00 8.7274252E-01 1.8361629E+00
 5.0972729E+00 8.9553374E-01 1.8409386E+00
 5.0290080E+00 9.1975977E-01 1.8431758E+00
 4.9624699E+00 9.4533787E-01 1.8424156E+00
 4.8980170E+00 9.7213983E-01 1.8383076E+00
 4.8359492E+00 1.0000000E+00 1.8306203E+00
 4.7764051E+00 1.0286975E+00 1.8192128E+00
 4.7191893E+00 1.0578843E+00 1.8039528E+00
 4.6636063E+00 1.0869765E+00 1.7845810E+00
 5.8563108E+00 7.4210974E-01 1.7681266E+00
 5.7908518E+00 7.5768165E-01 1.7742678E+00
 5.7241836E+00 7.7290206E-01 1.7808275E+00
 5.6562520E+00 7.8838383E-01 1.7880171E+00
 5.5871088E+00 8.0448428E-01 1.7958701E+00
 5.5169359E+00 8.2141462E-01 1.8042734E+00
 5.4460281E+00 8.3933098E-01 1.8129859E+00
 5.3747516E+00 8.5837032E-01 1.8216506E+00
 5.3035044E+00 8.7865066E-01 1.8298095E+00
 5.2326862E+00 9.0025793E-01 1.8369321E+00
 5.1626853E+00 9.2323300E-01 1.8424524E+00
 5.0938745E+00 9.4756409E-01 1.8458127E+00
 5.0266121E+00 9.7318819E-01 1.8465059E+00
 4.9612334E+00 1.0000000E+00 1.8441102E+00
 4.8980170E+00 1.0278602E+00 1.8383076E+00
 4.8370953E+00 1.0565795E+00 1.8288719E+00
 4.7782912E+00 1.0858511E+00 1.8156109E+00
 4.7209720E+00 1.1151470E+00 1.7982639E+00
 5.8553770E+00 7.7877421E-01 1.7794938E+00
 5.7890217E+00 7.9544825E-01 1.7851383E+00
 5.7215707E+00 8.1192652E-01 1.7912327E+00
 5.6530024E+00 8.2877763E-01 1.7979298E+00
 5.5833922E+00 8.4633281E-01 1.8052213E+00
 5.5129420E+00 8.6478505E-01 1.8129626E+00
 5.4419630E+00 8.8427205E-01 1.8208855E+00
 5.3708333E+00 9.0490584E-01 1.8286114E+00
 5.2999563E+00 9.2677129E-01 1.8356686E+00
 5.2297303E+00 9.4991562E-01 1.8415257E+00
 5.1605342E+00 9.7434015E-01 1.8456291E+00
 5.0927210E+00 1.0000000E+00 1.8474471E+00
 5.0266121E+00 1.0268119E+00 1.8465059E+00
 4.9624699E+00 1.0546622E+00 1.8424156E+00
 4.9004240E+00 1.0833955E+00 1.8348717E+00
 4.8403247E+00 1.1127547E+00 1.8236216E+00
 4.7816075E+00 1.1422832E+00 1.8083906E+00
 5.8545449E+00 8.1685698E-01 1.7893247E+00
 5.7874373E+00 8.3456816E-01 1.7943439E+00
 5.7193764E+00 8.5224720E-01 1.7998270E+00
 5.6503650E+00 8.7040776E-01 1.8058699E+00
 5.5804978E+00 8.8934407E-01 1.8124244E+00
 5.5099931E+00 9.0922440E-01 1.8193172E+00
 5.4391742E+00 9.3016304E-01 1.8262586E+00
 5.3684251E+00 9.5224389E-01 1.8328558E+00
 5.2981479E+00 9.7551870E-01 1.8386334E+00
 5.2287313E+00 1.0000000E+00 1.8430686E+00
 5.1605342E+00 1.0256599E+00 1.8456291E+00
 5.0938745E+00 1.0524360E+00 1.8458127E+00
 5.0290080E+00 1.0802403E+00 1.8431758E+00
 4.9660671E+00 1.1089521E+00 1.8373473E+00
 4.9049365E+00 1.1383675E+00 1.8280145E+00
 4.8451224E+00 1.1681090E+00 1.8148773E+00
 5.8538434E+00 8.5617715E-01 1.7974396E+00
 5.7861489E+00 8.7484595E-01 1.8017114E+00
 5.7176670E+00 8.9364666E-01 1.8064418E+00
 5.6484189E+00 9.1302772E-01 1.8116735E+00
 5.5785144E+00 9.3323854E-01 1.8173228E+00
 5.5081834E+00 9.5441758E-01 1.8231928E+00
 5.4377551E+00 9.7665287E-01 1.8289789E+00
 5.3676124E+00 1.0000000E+00 1.8342824E+00
 5.2981479E+00 1.0244814E+00 1.8386334E+00
 5.2297303E+00 1.0500844E+00 1.8415257E+00
 5.1626853E+00 1.0767671E+00 1.8424523E+00
 5.0972728E+00 1.1044663E+00 1.8409386E+00
 5.0336391E+00 1.1330956E+00 1.8365617E+00
 4.9717108E+00 1.1625048E+00 1.8289550E+00
 4.9110759E+00 1.1923977E+00 1.8177849E+00
 5.8532970E+00 8.9651091E-01 1.8036796E+00
 5.7851988E+00 9.1603659E-01 1.8070909E+00
 5.7164969E+00 9.3585422E-01 1.8109361E+00
 5.6472260E+00 9.5633710E-01 1.8152109E+00
 5.5775064E+00 9.7768383E-01 1.8198021E+00
 5.5075733E+00 1.0000000E+00 1.8244955E+00
 5.4377551E+00 1.0233472E+00 1.8289789E+00
 5.3684251E+00 1.0477562E+00 1.8328558E+00
 5.2999563E+00 1.0732288E+00 1.8356686E+00
 5.2326862E+00 1.0997421E+00 1.8369321E+00
 5.1668904E+00 1.1272575E+00 1.8361629E+00
 5.1027403E+00 1.1557214E+00 1.8329064E+00
 5.0402186E+00 1.1850354E+00 1.8267511E+00
 4.9790080E+00 1.2149830E+00 1.8173282E+00
 5.8529232E+00 9.3759726E-01 1.8079157E+00
 5.7846171E+00 9.5785746E-01 1.8103671E+00
 5.7159027E+00 9.7856170E-01 1.8132095E+00
 5.6468242E+00 1.0000000E+00 1.8163995E+00
 5.5775064E+00 1.0223162E+00 1.8198021E+00
 5.5081834E+00 1.0455825E+00 1.8231928E+00
 5.4391742E+00 1.0698370E+00 1.8262586E+00
 5.3708332E+00 1.0950942E+00 1.8286114E+00
 5.3035044E+00 1.1213494E+00 1.8298094E+00
 5.2374826E+00 1.1485872E+00 1.8293865E+00
 5.1729769E+00 1.1767856E+00 1.8268762E+00
 5.1100397E+00 1.2058945E+00 1.8218364E+00
 5.0484661E+00 1.2357727E+00 1.8138641E+00
 5.8527336E+00 9.7914695E-01 1.8100571E+00
 5.7844212E+00 1.0000000E+00 1.8114674E+00
 5.7159027E+00 1.0214383E+00 1.8132095E+00
 5.6472260E+00 1.0436629E+00 1.8152109E+00
 5.5785144E+00 1.0667615E+00 1.8173228E+00
 5.5099931E+00 1.0907756E+00 1.8193172E+00
 5.4419630E+00 1.1157280E+00 1.8208855E+00
 5.3747516E+00 1.1416297E+00 1.8216506E+00
 5.3086680E+00 1.1684877E+00 1.8211843E+00
 5.2439627E+00 1.1963096E+00 1.8190319E+00
 5.1807712E+00 1.2250897E+00 1.8147359E+00
 5.1190178E+00 1.2547554E+00 1.8078657E+00
 5.8527336E+00 1.0208531E+00 1.8100571E+00
 5.7846171E+00 1.0421426E+00 1.8103671E+00
 5.7164969E+00 1.0641458E+00 1.8109361E+00
 5.6484188E+00 1.0869723E+00 1.8116735E+00
 5.5804977E+00 1.1106560E+00 1.8124244E+00
 5.5129420E+00 1.1352150E+00 1.8129626E+00
 5.4460281E+00 1.1606691E+00 1.8129859E+00
 5.3800569E+00 1.1870440E+00 1.8121246E+00
 5.3153149E+00 1.2143753E+00 1.8099553E+00
 5.2520252E+00 1.2426976E+00 1.8060244E+00
 5.1902561E+00 1.2719986E+00 1.7998824E+00
 5.8529232E+00 1.0624028E+00 1.8079156E+00
 5.7851988E+00 1.0839634E+00 1.8070909E+00
 5.7176670E+00 1.1063534E+00 1.8064418E+00
 5.6503650E+00 1.1295923E+00 1.8058698E+00
 5.5833922E+00 1.1536672E+00 1.8052213E+00
 5.5169359E+00 1.1785854E+00 1.8042734E+00
 5.4512546E+00 1.2043812E+00 1.8027259E+00
 5.3866482E+00 1.2311130E+00 1.8002059E+00
 5.3234220E+00 1.2588517E+00 1.7962811E+00
 5.2617934E+00 1.2876374E+00 1.7904962E+00
 5.8532970E+00 1.1034891E+00 1.8036795E+00
 5.7861489E+00 1.1251541E+00 1.8017114E+00
 5.7193764E+00 1.1477528E+00 1.7998270E+00
 5.6530024E+00 1.1712224E+00 1.7979297E+00
 5.5871087E+00 1.1955158E+00 1.7958700E+00
 5.5218736E+00 1.2206468E+00 1.7934242E+00
 5.4575770E+00 1.2466835E+00 1.7902813E+00
 5.3945835E+00 1.2737253E+00 1.7860481E+00
 5.3332543E+00 1.3018567E+00 1.7802772E+00
 5.8538434E+00 1.1438229E+00 1.7974396E+00
 5.7874373E+00 1.1654319E+00 1.7943439E+00
 5.7215706E+00 1.1880735E+00 1.7912327E+00
 5.6562519E+00 1.2116162E+00 1.7880171E+00
 5.5915636E+00 1.2359981E+00 1.7845484E+00
 5.5277279E+00 1.2612597E+00 1.7805882E+00
 5.4651350E+00 1.2875112E+00 1.7757947E+00
 5.4042678E+00 1.3148704E+00 1.7697445E+00
 5.8545449E+00 1.1831430E+00 1.7893247E+00
 5.7890217E+00 1.2045518E+00 1.7851383E+00
 5.7241836E+00 1.2270980E+00 1.7808274E+00
 5.6600482E+00 1.2506025E+00 1.7763098E+00
 5.5967654E+00 1.2750115E+00 1.7714241E+00
 5.5347159E+00 1.3004011E+00 1.7658944E+00
 5.4744688E+00 1.3268983E+00 1.7593356E+00
 5.8553770E+00 1.2212258E+00 1.7794938E+00
 5.7908518E+00 1.2423184E+00 1.7742677E+00
 5.7271657E+00 1.2646799E+00 1.7687889E+00
 5.6644323E+00 1.2881114E+00 1.7629684E+00
 5.6030057E+00 1.3125735E+00 1.7566100E+00
 5.5435081E+00 1.3381484E+00 1.7493874E+00
 5.8563108E+00 1.2578903E+00 1.7681266E+00
 5.7928932E+00 1.2786015E+00 1.7619117E+00
 5.7305751E+00 1.3007704E+00 1.7552741E+00
 5.6697416E+00 1.3241915E+00 1.7480944E+00
 5.6110671E+00 1.3488001E+00 1.7401297E+00
 5.8573252E+00 1.2930024E+00 1.7554128E+00
 5.7951953E+00 1.3133554E+00 1.7482328E+00
 5.7347858E+00 1.3354523E+00 1.7403730E+00
 5.6768751E+00 1.3590106E+00 1.7316848E+00
 5.8584559E+00 1.3264983E+00 1.7415320E+00
 5.7980606E+00 1.3466465E+00 1.7333396E+00
 5.7407009E+00 1.3689163E+00 1.7240796E+00
 5.8598612E+00 1.3584097E+00 1.7266300E+00
 5.8024908E+00 1.3787491E+00 1.7171953E+00
 5.8619599E+00 1.3887897E+00 1.7108331E+00
 5.9202935E+00 1.4006435E+00 1.7039364E+00
 5.9204247E+00 1.3717621E+00 1.7196146E+00
 5.9205123E+00 1.3411714E+00 1.7346277E+00
 5.9205763E+00 1.3087677E+00 1.7488334E+00
 5.9206266E+00 1.2746196E+00 1.7620274E+00
 5.9206693E+00 1.2388491E+00 1.7739932E+00
 5.9207064E+00 1.2015859E+00 1.7845311E+00
 5.9207383E+00 1.1629956E+00 1.7934536E+00
 5.9207641E+00 1.1232842E+00 1.8005907E+00
 5.9207832E+00 1.0826948E+00 1.8057993E+00
 5.9207949E+00 1.0415013E+00 1.8089700E+00
 5.9207989E+00 1.0000000E+00 1.8100346E+00
 5.9207949E+00 9.5849874E-01 1.8089700E+00
 5.9207832E+00 9.1730524E-01 1.8057993E+00
 5.9207641E+00 8.7671580E-01 1.8005908E+00
 5.9207383E+00 8.3700444E-01 1.7934536E+00
 5.9207064E+00 7.9841409E-01 1.7845312E+00
 5.9206693E+00 7.6115093E-01 1.7739933E+00
 5.9206266E+00 7.2538044E-01 1.7620275E+00
 5.9205763E+00 6.9123229E-01 1.7488334E+00
 5.9205123E+00 6.5882864E-01 1.7346278E+00
 5.9204247E+00 6.2823788E-01 1.7196147E+00
 5.9202935E+00 5.9935647E-01 1.7039365E+00
 5.9724017E+00 5.8164051E-01 1.6939558E+00
 6.0299708E+00 5.8995911E-01 1.6998449E+00
 6.0900697E+00 5.9853484E-01 1.7062697E+00
 6.1524671E+00 6.0748151E-01 1.7132147E+00
 6.2169306E+00 6.1687730E-01 1.7205720E+00
 6.2832111E+00 6.2684836E-01 1.7282073E+00
 6.3510857E+00 6.3753443E-01 1.7359426E+00
 6.4202981E+00 6.4908698E-01 1.7435618E+00
 6.4905586E+00 6.6165912E-01 1.7508142E+00
 6.5615342E+00 6.7539632E-01 1.7574233E+00
 6.6328512E+00 6.9042776E-01 1.7630960E+00
 6.7041013E+00 7.0685793E-01 1.7675357E+00
 6.7748504E+00 7.2475971E-01 1.7704541E+00
 6.8446520E+00 7.4416866E-01 1.7715843E+00
 6.9130610E+00 7.6507976E-01 1.7706924E+00
 6.9796499E+00 7.8744631E-01 1.7675876E+00
 7.0440217E+00 8.1118183E-01 1.7621306E+00
 7.1058188E+00 8.3616377E-01 1.7542393E+00
 7.1647235E+00 8.6223835E-01 1.7438924E+00
 7.2204551E+00 8.8922820E-01 1.7311321E+00
 7.2727413E+00 9.1692274E-01 1.7160750E+00
 7.3213445E+00 9.4508539E-01 1.6988966E+00
 7.3659387E+00 9.7331373E-01 1.6798938E+00
 5.9786593E+00 1.3889002E+00 1.7109465E+00
 6.0379855E+00 1.3788945E+00 1.7173328E+00
 6.0994672E+00 1.3689616E+00 1.7240336E+00
 6.1628022E+00 1.3587755E+00 1.7311064E+00
 6.2279560E+00 1.3480732E+00 1.7385309E+00
 6.2947435E+00 1.3367033E+00 1.7461663E+00
 6.3629532E+00 1.3245219E+00 1.7538198E+00
 6.4323293E+00 1.3113925E+00 1.7612545E+00
 6.5025682E+00 1.2971825E+00 1.7682016E+00
 6.5733221E+00 1.2817717E+00 1.7743708E+00
 6.6442035E+00 1.2650601E+00 1.7794616E+00
 6.7147950E+00 1.2469765E+00 1.7831764E+00
 6.7846598E+00 1.2274832E+00 1.7852332E+00
 6.8533560E+00 1.2065806E+00 1.7853785E+00
 6.9204511E+00 1.1843069E+00 1.7833982E+00
 6.9855372E+00 1.1607360E+00 1.7791275E+00
 7.0482430E+00 1.1359713E+00 1.7724565E+00
 7.1082451E+00 1.1101396E+00 1.7633330E+00
 7.1652781E+00 1.0833909E+00 1.7517579E+00
 7.2191810E+00 1.0559137E+00 1.7377632E+00
 7.2699997E+00 1.0279609E+00 1.7213557E+00
 7.3181672E+00 1.0000000E+00 1.7024092E+00
 5.9809705E+00 1.3585425E+00 1.7267447E+00
 6.0425684E+00 1.3468159E+00 1.7334721E+00
 6.1054589E+00 1.3355138E+00 1.7402906E+00
 6.1699385E+00 1.3239678E+00 1.7474164E+00
 6.2359564E+00 1.3118704E+00 1.7548148E+00
 6.3034245E+00 1.2990241E+00 1.7623491E+00
 6.3721451E+00 1.2852908E+00 1.7698060E+00
 6.4418606E+00 1.2705453E+00 1.7769307E+00
 6.5122539E+00 1.2546750E+00 1.7834372E+00
 6.5829608E+00 1.2375844E+00 1.7890230E+00
 6.6535794E+00 1.2192032E+00 1.7933811E+00
 6.7236827E+00 1.1994928E+00 1.7962147E+00
 6.7928307E+00 1.1784498E+00 1.7972497E+00
 6.8605869E+00 1.1561068E+00 1.7962481E+00
 6.9265332E+00 1.1325291E+00 1.7930176E+00
 6.9902879E+00 1.1078073E+00 1.7874190E+00
 7.0515224E+00 1.0820482E+00 1.7793670E+00
 7.1099963E+00 1.0553731E+00 1.7688199E+00
 7.1656343E+00 1.0279390E+00 1.7557446E+00
 7.2186800E+00 1.0000000E+00 1.7400385E+00
 7.2699997E+00 9.7203912E-01 1.7213557E+00
 5.9825318E+00 1.3266338E+00 1.7416556E+00
 6.0455482E+00 1.3135292E+00 1.7483704E+00
 6.1097279E+00 1.3008364E+00 1.7551706E+00
 6.1752473E+00 1.2879022E+00 1.7622134E+00
 6.2421423E+00 1.2743545E+00 1.7694647E+00
 6.3103162E+00 1.2599952E+00 1.7767640E+00
 6.3795808E+00 1.2446871E+00 1.7838813E+00
 6.4496648E+00 1.2283210E+00 1.7905429E+00
 6.5202352E+00 1.2108048E+00 1.7964482E+00
 6.5909110E+00 1.1920696E+00 1.8012848E+00
 6.6612771E+00 1.1720752E+00 1.8047425E+00
 6.7308991E+00 1.1508154E+00 1.8065288E+00
 6.7993376E+00 1.1283179E+00 1.8063815E+00
 6.8661668E+00 1.1046421E+00 1.8040815E+00
 6.9309925E+00 1.0798701E+00 1.7994590E+00
 6.9934773E+00 1.0540971E+00 1.7923968E+00
 7.0533829E+00 1.0274276E+00 1.7828175E+00
 7.1106611E+00 1.0000000E+00 1.7706495E+00
 7.1656343E+00 9.7206108E-01 1.7557446E+00
 7.2191810E+00 9.4408635E-01 1.7377632E+00
 5.9837725E+00 1.2931313E+00 1.7555476E+00
 6.0479304E+00 1.2787649E+00 1.7620594E+00
 6.1131749E+00 1.2647394E+00 1.7686720E+00
 6.1796228E+00 1.2504069E+00 1.7754901E+00
 6.2472923E+00 1.2354021E+00 1.7824448E+00
 6.3160853E+00 1.2195284E+00 1.7893534E+00
 6.3857983E+00 1.2026628E+00 1.7959654E+00
 6.4561457E+00 1.1847133E+00 1.8019915E+00
 6.5267773E+00 1.1656118E+00 1.8071193E+00
 6.5972981E+00 1.1453175E+00 1.8110314E+00
 6.6672837E+00 1.1238207E+00 1.8134194E+00
 6.7362982E+00 1.1011451E+00 1.8140006E+00
 6.8039106E+00 1.0773442E+00 1.8125291E+00
 6.8697173E+00 1.0524941E+00 1.8088068E+00
 6.9333668E+00 1.0266816E+00 1.8026846E+00
 6.9946077E+00 1.0000000E+00 1.7940544E+00
 7.0533829E+00 9.7257241E-01 1.7828175E+00
 7.1099963E+00 9.4462696E-01 1.7688199E+00
 7.1652781E+00 9.1660910E-01 1.7517579E+00
 5.9848731E+00 1.2580074E+00 1.7682734E+00
 6.0500321E+00 1.2424637E+00 1.7744267E+00
 6.1161825E+00 1.2271457E+00 1.7806996E+00
 6.1834059E+00 1.2114372E+00 1.7871392E+00
 6.2516992E+00 1.1949962E+00 1.7936375E+00
 6.3209489E+00 1.1776442E+00 1.7999865E+00
 6.3909370E+00 1.1592760E+00 1.8059182E+00
 6.4613616E+00 1.1398219E+00 1.8111305E+00
 6.5318589E+00 1.1192400E+00 1.8153048E+00
 6.6020243E+00 1.0975181E+00 1.8181242E+00
 6.6714314E+00 1.0746754E+00 1.8192885E+00
 6.7396515E+00 1.0507600E+00 1.8185296E+00
 6.8062743E+00 1.0258416E+00 1.8156217E+00
 6.8709366E+00 1.0000000E+00 1.8103860E+00
 6.9333668E+00 9.7331847E-01 1.8026846E+00
 6.9934773E+00 9.4590289E-01 1.7923968E+00
 7.0515224E+00 9.1795180E-01 1.7793670E+00
 7.1082451E+00 8.8986041E-01 1.7633330E+00
 5.9858798E+00 1.2213285E+00 1.7796520E+00
 6.0519119E+00 1.2046752E+00 1.7853077E+00
 6.1188143E+00 1.1881090E+00 1.7910946E+00
 6.1866419E+00 1.1710665E+00 1.7969997E+00
 6.2553738E+00 1.1532410E+00 1.8028771E+00
 6.3248817E+00 1.1344798E+00 1.8084958E+00
 6.3949331E+00 1.1147008E+00 1.8135736E+00
 6.4652134E+00 1.0938592E+00 1.8178012E+00
 6.5353501E+00 1.0719403E+00 1.8208594E+00
 6.6049363E+00 1.0489588E+00 1.8224381E+00
 6.6735525E+00 1.0249576E+00 1.8222506E+00
 6.7407892E+00 1.0000000E+00 1.8200475E+00
 6.8062743E+00 9.7415845E-01 1.8156217E+00
 6.8697173E+00 9.4750595E-01 1.8088068E+00
 6.9309925E+00 9.2012992E-01 1.7994590E+00
 6.9902879E+00 8.9219277E-01 1.7874190E+00
 7.0482430E+00 8.6402874E-01 1.7724565E+00
 5.9867750E+00 1.1832294E+00 1.7894930E+00
 6.0535380E+00 1.1655319E+00 1.7945220E+00
 6.1210233E+00 1.1477776E+00 1.7996793E+00
 6.1892670E+00 1.1294672E+00 1.8048955E+00
 6.2582345E+00 1.1103389E+00 1.8099905E+00
 6.3277846E+00 1.0902708E+00 1.8147146E+00
 6.3976741E+00 1.0692073E+00 1.8187766E+00
 6.4675804E+00 1.0471294E+00 1.8218656E+00
 6.5371293E+00 1.0240480E+00 1.8236681E+00
 6.6059204E+00 1.0000000E+00 1.8238863E+00
 6.6735525E+00 9.7504239E-01 1.8222506E+00
 6.7396515E+00 9.4924008E-01 1.8185297E+00
 6.8039106E+00 9.2265580E-01 1.8125291E+00
 6.8661668E+00 8.9535795E-01 1.8040815E+00
 6.9265332E+00 8.6747094E-01 1.7930176E+00
 6.9855372E+00 8.3926402E-01 1.7791275E+00
 5.9875292E+00 1.1438915E+00 1.7976165E+00
 6.0548599E+00 1.1252298E+00 1.8018964E+00
 6.1227436E+00 1.1063694E+00 1.8062859E+00
 6.1912035E+00 1.0868848E+00 1.8106653E+00
 6.2601942E+00 1.0665660E+00 1.8148260E+00
 6.3295658E+00 1.0453255E+00 1.8185056E+00
 6.3990686E+00 1.0231350E+00 1.8214095E+00
 6.4683791E+00 1.0000000E+00 1.8232312E+00
 6.5371293E+00 9.7595207E-01 1.8236681E+00
 6.6049363E+00 9.5104119E-01 1.8224381E+00
 6.6714314E+00 9.2532468E-01 1.8192885E+00
 6.7362982E+00 8.9885498E-01 1.8140006E+00
 6.7993376E+00 8.7168211E-01 1.8063815E+00
 6.8605869E+00 8.4389325E-01 1.7962481E+00
 6.9204511E+00 8.1569314E-01 1.7833982E+00
 5.9881167E+00 1.1035390E+00 1.8038632E+00
 6.0558346E+00 1.0840143E+00 1.8072808E+00
 6.1239210E+00 1.0641548E+00 1.8107744E+00
 6.1923902E+00 1.0436179E+00 1.8141815E+00
 6.2611901E+00 1.0222501E+00 1.8172730E+00
 6.3301661E+00 1.0000000E+00 1.8197796E+00
 6.3990686E+00 9.7686505E-01 1.8214095E+00
 6.4675804E+00 9.5287058E-01 1.8218656E+00
 6.5353501E+00 9.2805974E-01 1.8208594E+00
 6.6020243E+00 9.0248189E-01 1.8181242E+00
 6.6672837E+00 8.7617934E-01 1.8134194E+00
 6.7308991E+00 8.4918466E-01 1.8065288E+00
 6.7928307E+00 8.2155024E-01 1.7972497E+00
 6.8533560E+00 7.9341948E-01 1.7853785E+00
 5.9885186E+00 1.0624330E+00 1.8081039E+00
 6.0564314E+00 1.0421681E+00 1.8105600E+00
 6.1245187E+00 1.0214412E+00 1.8130446E+00
 6.1927899E+00 1.0000000E+00 1.8153629E+00
 6.2611901E+00 9.7774991E-01 1.8172730E+00
 6.3295658E+00 9.5467455E-01 1.8185056E+00
 6.3976740E+00 9.3079274E-01 1.8187766E+00
 6.4652134E+00 9.0614079E-01 1.8178012E+00
 6.5318589E+00 8.8075998E-01 1.8153048E+00
 6.5972981E+00 8.5468256E-01 1.8110314E+00
 6.6612771E+00 8.2792479E-01 1.8047425E+00
 6.7236827E+00 8.0050719E-01 1.7962147E+00
 6.7846598E+00 7.7251686E-01 1.7852332E+00
 5.9887225E+00 1.0208632E+00 1.8102478E+00
 6.0566323E+00 1.0000000E+00 1.8116614E+00
 6.1245187E+00 9.7855881E-01 1.8130446E+00
 6.1923902E+00 9.5638209E-01 1.8141815E+00
 6.2601942E+00 9.3343408E-01 1.8148260E+00
 6.3277846E+00 9.0972923E-01 1.8147146E+00
 6.3949331E+00 8.8529925E-01 1.8135736E+00
 6.4613616E+00 8.6017811E-01 1.8111305E+00
 6.5267773E+00 8.3438820E-01 1.8071193E+00
 6.5909110E+00 8.0793046E-01 1.8012848E+00
 6.6535794E+00 7.8079679E-01 1.7933811E+00
 6.7147950E+00 7.5302358E-01 1.7831764E+00
 5.9887225E+00 9.7913679E-01 1.8102478E+00
 6.0564314E+00 9.5783189E-01 1.8105600E+00
 6.1239210E+00 9.3584525E-01 1.8107744E+00
 6.1912035E+00 9.1311520E-01 1.8106653E+00
 6.2582345E+00 8.8966117E-01 1.8099905E+00
 6.3248817E+00 8.6552026E-01 1.8084959E+00
 6.3909370E+00 8.4072408E-01 1.8059182E+00
 6.4561457E+00 8.1528677E-01 1.8019915E+00
 6.5202351E+00 7.8919521E-01 1.7964482E+00
 6.5829608E+00 7.6241565E-01 1.7890231E+00
 6.6442035E+00 7.3493989E-01 1.7794616E+00
 5.9885186E+00 9.3756698E-01 1.8081039E+00
 6.0558346E+00 9.1598570E-01 1.8072809E+00
 6.1227436E+00 8.9363059E-01 1.8062860E+00
 6.1892670E+00 8.7053283E-01 1.8048955E+00
 6.2553738E+00 8.4675899E-01 1.8028771E+00
 6.3209489E+00 8.2235585E-01 1.7999866E+00
 6.3857983E+00 7.9733723E-01 1.7959655E+00
 6.4496648E+00 7.7167900E-01 1.7905430E+00
 6.5122539E+00 7.4532503E-01 1.7834372E+00
 6.5733221E+00 7.1822834E-01 1.7743708E+00
 5.9881167E+00 8.9646105E-01 1.8038632E+00
 6.0548599E+00 8.7477018E-01 1.8018964E+00
 6.1210233E+00 8.5222241E-01 1.7996793E+00
 6.1866418E+00 8.2893351E-01 1.7969997E+00
 6.2516992E+00 8.0500381E-01 1.7936375E+00
 6.3160853E+00 7.8047163E-01 1.7893534E+00
 6.3795808E+00 7.5531290E-01 1.7838813E+00
 6.4418606E+00 7.2945468E-01 1.7769308E+00
 6.5025682E+00 7.0281748E-01 1.7682016E+00
 5.9875292E+00 8.5610852E-01 1.7976166E+00
 6.0535380E+00 8.3446812E-01 1.7945220E+00
 6.1188143E+00 8.1189103E-01 1.7910946E+00
 6.1834059E+00 7.8856284E-01 1.7871393E+00
 6.2472923E+00 7.6459794E-01 1.7824448E+00
 6.3103162E+00 7.4000487E-01 1.7767640E+00
 6.3721451E+00 7.1470917E-01 1.7698061E+00
 6.4323293E+00 6.8860750E-01 1.7612546E+00
 5.9867750E+00 8.1677066E-01 1.7894931E+00
 6.0519119E+00 7.9532478E-01 1.7853077E+00
 6.1161825E+00 7.7285430E-01 1.7806997E+00
 6.1796228E+00 7.4959308E-01 1.7754902E+00
 6.2421423E+00 7.2564552E-01 1.7694647E+00
 6.3034245E+00 7.0097594E-01 1.7623491E+00
 6.3629532E+00 6.7547816E-01 1.7538199E+00
 5.9858798E+00 7.7867154E-01 1.7796520E+00
 6.0500321E+00 7.5753636E-01 1.7744267E+00
 6.1131749E+00 7.3526059E-01 1.7686720E+00
 6.1752473E+00 7.1209782E-01 1.7622135E+00
 6.2359563E+00 6.8812964E-01 1.7548149E+00
 6.2947435E+00 6.6329668E-01 1.7461664E+00
 5.9848731E+00 7.4199259E-01 1.7682734E+00
 6.0479304E+00 7.2123508E-01 1.7620595E+00
 6.1097279E+00 6.9916363E-01 1.7551707E+00
 6.1699385E+00 6.7603221E-01 1.7474165E+00
 6.2279560E+00 6.5192683E-01 1.7385310E+00
 5.9837725E+00 7.0686872E-01 1.7555477E+00
 6.0455481E+00 6.8647085E-01 1.7483705E+00
 6.1054589E+00 6.6448621E-01 1.7402907E+00
 6.1628022E+00 6.4122450E-01 1.7311064E+00
 5.9825318E+00 6.7336619E-01 1.7416556E+00
 6.0425684E+00 6.5318410E-01 1.7334721E+00
 6.0994672E+00 6.3103837E-01 1.7240337E+00
 5.9809705E+00 6.4145753E-01 1.7267448E+00
 6.0379855E+00 6.2110555E-01 1.7173328E+00
 5.9786593E+00 6.1109976E-01 1.7109466E+00
 5.8880997E+00 1.4459018E+00 1.6762516E+00
 5.8523921E+00 1.4678871E+00 1.6615572E+00
 5.8151812E+00 1.4905202E+00 1.6456161E+00
 5.7766250E+00 1.5137006E+00 1.6283810E+00
 5.7368293E+00 1.5373490E+00 1.6097926E+00
 5.6960311E+00 1.5613663E+00 1.5897830E+00
 5.6544589E+00 1.5856459E+00 1.5682690E+00
 5.6123640E+00 1.6100515E+00 1.5451689E+00
 5.5700274E+00 1.6344141E+00 1.5204081E+00
 5.5277556E+00 1.6585295E+00 1.4939290E+00
 5.4858703E+00 1.6821621E+00 1.4657001E+00
 5.4446959E+00 1.7050520E+00 1.4357250E+00
 5.4045462E+00 1.7269269E+00 1.4040503E+00
 5.3657130E+00 1.7475155E+00 1.3707706E+00
 5.3284560E+00 1.7665623E+00 1.3360302E+00
 5.2929953E+00 1.7838423E+00 1.3000195E+00
 5.2595084E+00 1.7991729E+00 1.2629679E+00
 5.2281308E+00 1.8124210E+00 1.2251332E+00
 5.1989636E+00 1.8235070E+00 1.1867917E+00
 5.1720898E+00 1.8324038E+00 1.1482286E+00
 5.1475942E+00 1.8391309E+00 1.1097503E+00
 5.1255243E+00 1.8437526E+00 1.0716511E+00
 5.1059292E+00 1.8463712E+00 1.0344372E+00
 4.4581308E+00 1.0792961E+00 1.6872204E+00
 4.4502975E+00 1.1309657E+00 1.6741654E+00
 4.4451737E+00 1.1837195E+00 1.6582888E+00
 4.4435768E+00 1.2375888E+00 1.6397541E+00
 4.4459993E+00 1.2922685E+00 1.6185659E+00
 4.4527913E+00 1.3472738E+00 1.5947193E+00
 4.4642043E+00 1.4020113E+00 1.5682482E+00
 4.4804037E+00 1.4558224E+00 1.5392557E+00
 4.5014558E+00 1.5080083E+00 1.5079271E+00
 4.5273100E+00 1.5578618E+00 1.4745328E+00
 4.5577868E+00 1.6047059E+00 1.4394218E+00
 4.5925763E+00 1.6479336E+00 1.4030101E+00
 4.6312484E+00 1.6870469E+00 1.3657625E+00
 4.6732738E+00 1.7216881E+00 1.3281690E+00
 4.7180541E+00 1.7516599E+00 1.2907195E+00
 4.7649584E+00 1.7769327E+00 1.2538776E+00
 4.8133608E+00 1.7976356E+00 1.2180579E+00
 4.8626740E+00 1.8140348E+00 1.1836081E+00
 4.9123667E+00 1.8265018E+00 1.1507956E+00
 4.9619746E+00 1.8354800E+00 1.1197788E+00
 5.0110954E+00 1.8414541E+00 1.0905326E+00
 5.0592997E+00 1.8449212E+00 1.0627077E+00
 4.5036318E+00 1.1108645E+00 1.7105766E+00
 4.4986018E+00 1.1644230E+00 1.6972847E+00
 4.4961466E+00 1.2181731E+00 1.6809766E+00
 4.4972267E+00 1.2724340E+00 1.6618767E+00
 4.5023859E+00 1.3270244E+00 1.6400244E+00
 4.5119429E+00 1.3814969E+00 1.6154236E+00
 4.5260867E+00 1.4352628E+00 1.5881209E+00
 4.5449068E+00 1.4876566E+00 1.5582432E+00
 4.5683876E+00 1.5379841E+00 1.5260094E+00
 4.5963963E+00 1.5855637E+00 1.4917290E+00
 4.6286767E+00 1.6297701E+00 1.4557912E+00
 4.6648549E+00 1.6700738E+00 1.4186483E+00
 4.7044563E+00 1.7060760E+00 1.3807931E+00
 4.7469324E+00 1.7375320E+00 1.3427327E+00
 4.7916958E+00 1.7643620E+00 1.3049609E+00
 4.8381578E+00 1.7866467E+00 1.2679311E+00
 4.8857646E+00 1.8046093E+00 1.2320332E+00
 4.9340248E+00 1.8185874E+00 1.1975644E+00
 4.9825189E+00 1.8290035E+00 1.1646753E+00
 5.0308710E+00 1.8363352E+00 1.1332684E+00
 5.0787298E+00 1.8410891E+00 1.1027365E+00
 4.5534812E+00 1.1412697E+00 1.7315659E+00
 4.5510936E+00 1.1957043E+00 1.7177886E+00
 4.5512816E+00 1.2499524E+00 1.7009019E+00
 4.5550204E+00 1.3042752E+00 1.6811085E+00
 4.5628580E+00 1.3585030E+00 1.6584559E+00
 4.5750709E+00 1.4121876E+00 1.6329622E+00
 4.5917840E+00 1.4647339E+00 1.6046989E+00
 4.6130131E+00 1.5154786E+00 1.5738283E+00
 4.6386661E+00 1.5637466E+00 1.5406115E+00
 4.6685365E+00 1.6088993E+00 1.5054028E+00
 4.7023042E+00 1.6503793E+00 1.4686337E+00
 4.7395481E+00 1.6877478E+00 1.4307917E+00
 4.7797692E+00 1.7207128E+00 1.3923935E+00
 4.8224227E+00 1.7491433E+00 1.3539558E+00
 4.8669550E+00 1.7730698E+00 1.3159657E+00
 4.9128415E+00 1.7926699E+00 1.2788513E+00
 4.9596163E+00 1.8082447E+00 1.2429457E+00
 5.0068779E+00 1.8201915E+00 1.2084270E+00
 5.0542589E+00 1.8289815E+00 1.1751876E+00
 5.1013552E+00 1.8351285E+00 1.1426693E+00
 4.6074544E+00 1.1707394E+00 1.7496713E+00
 4.6076034E+00 1.2254187E+00 1.7351957E+00
 4.6103836E+00 1.2796706E+00 1.7175636E+00
 4.6167394E+00 1.3336549E+00 1.6969392E+00
 4.6271744E+00 1.3871526E+00 1.6733669E+00
 4.6419064E+00 1.4396970E+00 1.6468851E+00
 4.6609922E+00 1.4906906E+00 1.6176001E+00
 4.6843759E+00 1.5394857E+00 1.5857175E+00
 4.7118959E+00 1.5854450E+00 1.5515457E+00
 4.7432841E+00 1.6279923E+00 1.5154841E+00
 4.7781735E+00 1.6666547E+00 1.4780035E+00
 4.8161170E+00 1.7010946E+00 1.4396188E+00
 4.8566155E+00 1.7311300E+00 1.4008599E+00
 4.8991530E+00 1.7567381E+00 1.3622388E+00
 4.9432341E+00 1.7780467E+00 1.3242173E+00
 4.9884147E+00 1.7953135E+00 1.2871681E+00
 5.0343071E+00 1.8089041E+00 1.2513082E+00
 5.0805382E+00 1.8192727E+00 1.2165848E+00
 5.1266617E+00 1.8269369E+00 1.1825261E+00
 4.6653014E+00 1.1991452E+00 1.7645020E+00
 4.6678925E+00 1.2536028E+00 1.7491435E+00
 4.6732028E+00 1.3074209E+00 1.7306193E+00