# TIME = 7.100000
variables = x, y, z
zone N=5762 E=11520 F=FEPOINT ET=TRIANGLE
 6.2044584E+00 1.4254179E+00 1.6879952E+00
 6.2044584E+00 1.4254181E+00 3.1200433E-01
 6.2044584E+00 5.7458209E-01 1.6879953E+00
 6.2044584E+00 5.7458192E-01 3.1200419E-01
 4.7139057E+00 1.0000000E+00 1.6725975E+00
 7.6897400E+00 1.0000000E+00 1.6595150E+00
 4.7139059E+00 1.0000000E+00 3.2740247E-01
 7.6897400E+00 1.0000000E+00 3.4048491E-01
 5.3707255E+00 1.8504766E+00 9.9999986E-01
 5.3707255E+00 1.4952349E-01 9.9999986E-01
 7.0310461E+00 1.8172722E+00 9.9999986E-01
 7.0310461E+00 1.8272778E-01 9.9999986E-01
 6.1516866E+00 1.4178180E+00 1.6931878E+00
 6.0933731E+00 1.4095871E+00 1.6993717E+00
 6.0324202E+00 1.4012484E+00 1.7063130E+00
 5.9690523E+00 1.3927448E+00 1.7141215E+00
 5.9035241E+00 1.3840382E+00 1.7228153E+00
 5.8361209E+00 1.3750169E+00 1.7323684E+00
 5.7671393E+00 1.3655323E+00 1.7426648E+00
 5.6969104E+00 1.3553903E+00 1.7534906E+00
 5.6257813E+00 1.3443607E+00 1.7645249E+00
 5.5541072E+00 1.3321915E+00 1.7753456E+00
 5.4822451E+00 1.3186277E+00 1.7854450E+00
 5.4105543E+00 1.3034342E+00 1.7942588E+00
 5.3394043E+00 1.2864185E+00 1.8012022E+00
 5.2691851E+00 1.2674522E+00 1.8057128E+00
 5.2003149E+00 1.2464870E+00 1.8072926E+00
 5.1332398E+00 1.2235636E+00 1.8055488E+00
 5.0684246E+00 1.1988114E+00 1.8002226E+00
 5.0063347E+00 1.1724402E+00 1.7912076E+00
 4.9474131E+00 1.1447249E+00 1.7785521E+00
 4.8920518E+00 1.1159850E+00 1.7624479E+00
 4.8405909E+00 1.0865817E+00 1.7432181E+00
 4.7932927E+00 1.0569059E+00 1.7212801E+00
 4.7504701E+00 1.0274959E+00 1.6972109E+00
 6.1455151E+00 6.1185181E-01 1.7103085E+00
 6.0853694E+00 6.2180915E-01 1.7170401E+00
 6.0229582E+00 6.3152822E-01 1.7243298E+00
 5.9585931E+00 6.4127243E-01 1.7323567E+00
 5.8923262E+00 6.5128821E-01 1.7412353E+00
 5.8244034E+00 6.6173520E-01 1.7509306E+00
 5.7551108E+00 6.7278920E-01 1.7613055E+00
 5.6847765E+00 6.8464146E-01 1.7721092E+00
 5.6137506E+00 6.9750635E-01 1.7829836E+00
 5.5423909E+00 7.1160699E-01 1.7934740E+00
 5.4710559E+00 7.2715723E-01 1.8030499E+00
 5.4001040E+00 7.4433996E-01 1.8111384E+00
 5.3299021E+00 7.6328753E-01 1.8171615E+00
 5.2608339E+00 7.8406553E-01 1.8205799E+00
 5.1933073E+00 8.0666363E-01 1.8209338E+00
 5.1277508E+00 8.3099356E-01 1.8178786E+00
 5.0646029E+00 8.5689491E-01 1.8112084E+00
 5.0042855E+00 8.8414394E-01 1.8008647E+00
 4.9471676E+00 9.1245990E-01 1.7869248E+00
 4.8934962E+00 9.4150457E-01 1.7695585E+00
 4.8433036E+00 9.7087748E-01 1.7489478E+00
 4.7962796E+00 1.0000000E+00 1.7251591E+00
 6.1433361E+00 6.4240750E-01 1.7261899E+00
 6.0807597E+00 6.5413745E-01 1.7333046E+00
 6.0168044E+00 6.6525948E-01 1.7407711E+00
 5.9511937E+00 6.7638234E-01 1.7489323E+00
 5.8840164E+00 6.8781727E-01 1.7578897E+00
 5.8154197E+00 6.9979468E-01 1.7676121E+00
 5.7456719E+00 7.1249991E-01 1.7779321E+00
 5.6750907E+00 7.2612240E-01 1.7885667E+00
 5.6040276E+00 7.4085770E-01 1.7991230E+00
 5.5328428E+00 7.5689845E-01 1.8091175E+00
 5.4618958E+00 7.7441606E-01 1.8180008E+00
 5.3915443E+00 7.9354196E-01 1.8251949E+00
 5.3221517E+00 8.1435214E-01 1.8301327E+00
 5.2540940E+00 8.3685711E-01 1.8323012E+00
 5.1877639E+00 8.6099962E-01 1.8312795E+00
 5.1235621E+00 8.8665905E-01 1.8267682E+00
 5.0618745E+00 9.1365845E-01 1.8186027E+00
 5.0030173E+00 9.4176614E-01 1.8067410E+00
 4.9471453E+00 9.7068117E-01 1.7912131E+00
 4.8941247E+00 1.0000000E+00 1.7720231E+00
 4.8433036E+00 1.0291226E+00 1.7489478E+00
 6.1418645E+00 6.7445785E-01 1.7411353E+00
 6.0777585E+00 6.8760881E-01 1.7482610E+00
 6.0124090E+00 7.0015677E-01 1.7557539E+00
 5.9456862E+00 7.1269838E-01 1.7639009E+00
 5.8776045E+00 7.2562798E-01 1.7728056E+00
 5.8083217E+00 7.3919534E-01 1.7824085E+00
 5.7380896E+00 7.5359695E-01 1.7925152E+00
 5.6672304E+00 7.6901230E-01 1.8028090E+00
 5.5960991E+00 7.8561601E-01 1.8128663E+00
 5.5250595E+00 8.0356717E-01 1.8221787E+00
 5.4544721E+00 8.2299399E-01 1.8301837E+00
 5.3846925E+00 8.4397828E-01 1.8363041E+00
 5.3160777E+00 8.6654547E-01 1.8399893E+00
 5.2489900E+00 8.9066110E-01 1.8407562E+00
 5.1837951E+00 9.1623443E-01 1.8382224E+00
 5.1208396E+00 9.4312413E-01 1.8321249E+00
 5.0603973E+00 9.7113618E-01 1.8223146E+00
 5.0025706E+00 1.0000000E+00 1.8087126E+00
 4.9471453E+00 1.0293189E+00 1.7912131E+00
 4.8934962E+00 1.0584955E+00 1.7695584E+00
 6.1407144E+00 7.0803340E-01 1.7550179E+00
 6.0754151E+00 7.2246689E-01 1.7619486E+00
 6.0089420E+00 7.3637187E-01 1.7692847E+00
 5.9412472E+00 7.5034521E-01 1.7772653E+00
 5.8723756E+00 7.6478993E-01 1.7859583E+00
 5.8024906E+00 7.7996640E-01 1.7952743E+00
 5.7318557E+00 7.9606581E-01 1.8049862E+00
 5.6607997E+00 8.1325357E-01 1.8147470E+00
 5.5896843E+00 8.3167806E-01 1.8241061E+00
 5.5188756E+00 8.5146269E-01 1.8325373E+00
 5.4487330E+00 8.7269263E-01 1.8394726E+00
 5.3796056E+00 8.9540436E-01 1.8443439E+00
 5.3118370E+00 9.1958145E-01 1.8466231E+00
 5.2457637E+00 9.4515683E-01 1.8458597E+00
 5.1816992E+00 9.7201739E-01 1.8417042E+00
 5.1198856E+00 1.0000000E+00 1.8339127E+00
 5.0603973E+00 1.0288639E+00 1.8223146E+00
 5.0030173E+00 1.0582339E+00 1.8067409E+00
 4.9471676E+00 1.0875402E+00 1.7869247E+00
 6.1397182E+00 7.4316187E-01 1.7677015E+00
 6.0733980E+00 7.5877101E-01 1.7742724E+00
 6.0059869E+00 7.7397785E-01 1.7812905E+00
 5.9374880E+00 7.8935961E-01 1.7889433E+00
 5.8679812E+00 8.0530659E-01 1.7972554E+00
 5.7976492E+00 8.2206958E-01 1.8061021E+00
 5.7267686E+00 8.3982645E-01 1.8152252E+00
 5.6556775E+00 8.5872132E-01 1.8242504E+00
 5.5847419E+00 8.7887309E-01 1.8327075E+00
 5.5143269E+00 9.0036835E-01 1.8400608E+00
 5.4447854E+00 9.2325231E-01 1.8457462E+00
 5.3764527E+00 9.4752363E-01 1.8492125E+00
 5.3096471E+00 9.7313565E-01 1.8499590E+00
 5.2446565E+00 1.0000000E+00 1.8475655E+00
 5.1816992E+00 1.0279827E+00 1.8417042E+00
 5.1208396E+00 1.0568759E+00 1.8321249E+00
 5.0618745E+00 1.0863416E+00 1.8186026E+00
 5.0042856E+00 1.1158561E+00 1.8008646E+00
 6.1388144E+00 7.7978264E-01 1.7790175E+00
 6.0716115E+00 7.9648109E-01 1.7850857E+00
 6.0034258E+00 8.1293434E-01 1.7916356E+00
 5.9343012E+00 8.2968098E-01 1.7987986E+00
 5.8643456E+00 8.4708492E-01 1.8065550E+00
 5.7937603E+00 8.6537534E-01 1.8147452E+00
 5.7228340E+00 8.8470904E-01 1.8230829E+00
 5.6519110E+00 9.0520459E-01 1.8311733E+00
 5.5813567E+00 9.2694954E-01 1.8385341E+00
 5.5115296E+00 9.4999591E-01 1.8446299E+00
 5.4427683E+00 9.7435548E-01 1.8489091E+00
 5.3753830E+00 1.0000000E+00 1.8508431E+00
 5.3096471E+00 1.0268644E+00 1.8499589E+00
 5.2457637E+00 1.0548432E+00 1.8458596E+00
 5.1837951E+00 1.0837656E+00 1.8382223E+00
 5.1235622E+00 1.1133410E+00 1.8267680E+00
 5.0646029E+00 1.1431051E+00 1.8112082E+00
 6.1380080E+00 8.1776656E-01 1.7887868E+00
 6.0700642E+00 8.3547760E-01 1.7942240E+00
 6.0012761E+00 8.5311045E-01 1.8001608E+00
 5.9317176E+00 8.7115670E-01 1.8066740E+00
 5.8615178E+00 8.8994181E-01 1.8137011E+00
 5.7908926E+00 9.0966577E-01 1.8210511E+00
 5.7201378E+00 9.3045932E-01 1.8284155E+00
 5.6495983E+00 9.5241339E-01 1.8353859E+00
 5.5796325E+00 9.7558589E-01 1.8414772E+00
 5.5105846E+00 1.0000000E+00 1.8461627E+00
 5.4427682E+00 1.0256446E+00 1.8489090E+00
 5.3764527E+00 1.0524764E+00 1.8492125E+00
 5.3118370E+00 1.0804186E+00 1.8466231E+00
 5.2489900E+00 1.1093390E+00 1.8407561E+00
 5.1877639E+00 1.1390004E+00 1.8312793E+00
 5.1277508E+00 1.1690065E+00 1.8178784E+00
 6.1373238E+00 8.5693911E-01 1.7968392E+00
 6.0687998E+00 8.7557707E-01 1.8015264E+00
 5.9995960E+00 8.9430571E-01 1.8067118E+00
 5.9298070E+00 9.1356085E-01 1.8124209E+00
 5.8595776E+00 9.3362136E-01 1.8185531E+00
 5.7891313E+00 9.5465271E-01 1.8248914E+00
 5.7187654E+00 9.7675739E-01 1.8311118E+00
 5.6488178E+00 1.0000000E+00 1.8368004E+00
 5.5796325E+00 1.0244142E+00 1.8414772E+00
 5.5115296E+00 1.0500042E+00 1.8446299E+00
 5.4447854E+00 1.0767478E+00 1.8457462E+00
 5.3796055E+00 1.1045957E+00 1.8443438E+00
 5.3160777E+00 1.1334546E+00 1.8399892E+00
 5.2540940E+00 1.1631429E+00 1.8323011E+00
 5.1933073E+00 1.1933364E+00 1.8209336E+00
 6.1367871E+00 8.9708506E-01 1.8030242E+00
 6.0678629E+00 9.1654753E-01 1.8068524E+00
 5.9984419E+00 9.3626659E-01 1.8111580E+00
 5.9286333E+00 9.5661377E-01 1.8159203E+00
 5.8585900E+00 9.7781547E-01 1.8210067E+00
 5.7885372E+00 1.0000000E+00 1.8261813E+00
 5.7187654E+00 1.0232427E+00 1.8311118E+00
 5.6495983E+00 1.0475867E+00 1.8353858E+00
 5.5813567E+00 1.0730505E+00 1.8385340E+00
 5.5143269E+00 1.0996317E+00 1.8400608E+00
 5.4487330E+00 1.1273074E+00 1.8394725E+00
 5.3846925E+00 1.1560218E+00 1.8363040E+00
 5.3221517E+00 1.1856479E+00 1.8301326E+00
 5.2608339E+00 1.2159345E+00 1.8205797E+00
 6.1364183E+00 9.3795387E-01 1.8072196E+00
 6.0672873E+00 9.5812001E-01 1.8100937E+00
 5.9978546E+00 9.7870198E-01 1.8134056E+00
 5.9282374E+00 1.0000000E+00 1.8170955E+00
 5.8585900E+00 1.0221846E+00 1.8210067E+00
 5.7891313E+00 1.0453474E+00 1.8248914E+00
 5.7201378E+00 1.0695408E+00 1.8284155E+00
 5.6519110E+00 1.0947955E+00 1.8311732E+00
 5.5847419E+00 1.1211270E+00 1.8327074E+00
 5.5188756E+00 1.1485374E+00 1.8325372E+00
 5.4544721E+00 1.1770061E+00 1.8301836E+00
 5.3915443E+00 1.2064581E+00 1.8251948E+00
 5.3299021E+00 1.2367125E+00 1.8171613E+00
 6.1362306E+00 9.7926786E-01 1.8093396E+00
 6.0670931E+00 1.0000000E+00 1.8111819E+00
 5.9978546E+00 1.0212981E+00 1.8134055E+00
 5.9286333E+00 1.0433863E+00 1.8159203E+00
 5.8595776E+00 1.0663787E+00 1.8185531E+00
 5.7908926E+00 1.0903343E+00 1.8210511E+00
 5.7228340E+00 1.1152910E+00 1.8230829E+00
 5.6556775E+00 1.1412787E+00 1.8242504E+00
 5.5896843E+00 1.1683220E+00 1.8241060E+00
 5.5250595E+00 1.1964329E+00 1.8221786E+00
 5.4618957E+00 1.2255840E+00 1.8180007E+00
 5.4001040E+00 1.2556601E+00 1.8111382E+00
 6.1362306E+00 1.0207322E+00 1.8093396E+00
 6.0672873E+00 1.0418801E+00 1.8100937E+00
 5.9984419E+00 1.0637335E+00 1.8111580E+00
 5.9298070E+00 1.0864392E+00 1.8124209E+00
 5.8615178E+00 1.1100583E+00 1.8137010E+00
 5.7937603E+00 1.1346247E+00 1.8147451E+00
 5.7267685E+00 1.1601736E+00 1.8152251E+00
 5.6607997E+00 1.1867465E+00 1.8147469E+00
 5.5960991E+00 1.2143840E+00 1.8128661E+00
 5.5328427E+00 1.2431016E+00 1.8091173E+00
 5.4710559E+00 1.2728428E+00 1.8030498E+00
 6.1364183E+00 1.0620462E+00 1.8072196E+00
 6.0678629E+00 1.0834525E+00 1.8068524E+00
 5.9995959E+00 1.1056944E+00 1.8067118E+00
 5.9317176E+00 1.1288434E+00 1.8066739E+00
 5.8643456E+00 1.1529151E+00 1.8065549E+00
 5.7976492E+00 1.1779305E+00 1.8061020E+00
 5.7318556E+00 1.2039342E+00 1.8049862E+00
 5.6672304E+00 1.2309877E+00 1.8028089E+00
 5.6040276E+00 1.2591423E+00 1.7991229E+00
 5.5423909E+00 1.2883930E+00 1.7934738E+00
 6.1367871E+00 1.1029150E+00 1.8030241E+00
 6.0687998E+00 1.1244230E+00 1.8015264E+00
 6.0012761E+00 1.1468896E+00 1.8001608E+00
 5.9343012E+00 1.1703191E+00 1.7987985E+00
 5.8679812E+00 1.1946935E+00 1.7972553E+00
 5.8024906E+00 1.2200337E+00 1.7952742E+00
 5.7380896E+00 1.2464031E+00 1.7925151E+00
 5.6750907E+00 1.2738776E+00 1.7885666E+00
 5.6137505E+00 1.3024937E+00 1.7829835E+00
 6.1373238E+00 1.1430609E+00 1.7968392E+00
 6.0700642E+00 1.1645225E+00 1.7942240E+00
 6.0034258E+00 1.1870657E+00 1.7916356E+00
 5.9374879E+00 1.2106404E+00 1.7889433E+00
 5.8723755E+00 1.2352101E+00 1.7859582E+00
 5.8083217E+00 1.2608047E+00 1.7824084E+00
 5.7456718E+00 1.2875001E+00 1.7779320E+00
 5.6847765E+00 1.3153586E+00 1.7721091E+00
 6.1380080E+00 1.1822335E+00 1.7887868E+00
 6.0716115E+00 1.2035190E+00 1.7850857E+00
 6.0059869E+00 1.2260222E+00 1.7812904E+00
 5.9412472E+00 1.2496548E+00 1.7772652E+00
 5.8776045E+00 1.2743721E+00 1.7728055E+00
 5.8154197E+00 1.3002054E+00 1.7676120E+00
 5.7551107E+00 1.3272108E+00 1.7613054E+00
 6.1388144E+00 1.2202174E+00 1.7790175E+00
 6.0733980E+00 1.2412290E+00 1.7742723E+00
 6.0089419E+00 1.2636282E+00 1.7692846E+00
 5.9456861E+00 1.2873017E+00 1.7639008E+00
 5.8840164E+00 1.3121828E+00 1.7578896E+00
 5.8244034E+00 1.3382648E+00 1.7509305E+00
 6.1397182E+00 1.2568382E+00 1.7677014E+00
 6.0754151E+00 1.2775332E+00 1.7619486E+00
 6.0124090E+00 1.2998433E+00 1.7557538E+00
 5.9511936E+00 1.3236177E+00 1.7489323E+00
 5.8923262E+00 1.3487118E+00 1.7412352E+00
 6.1407144E+00 1.2919666E+00 1.7550179E+00
 6.0777585E+00 1.3123912E+00 1.7482609E+00
 6.0168044E+00 1.3347406E+00 1.7407710E+00
 5.9585931E+00 1.3587276E+00 1.7323567E+00
 6.1418645E+00 1.3255422E+00 1.7411352E+00
 6.0807596E+00 1.3458626E+00 1.7333046E+00
 6.0229582E+00 1.3684718E+00 1.7243298E+00
 6.1433361E+00 1.3575925E+00 1.7261899E+00
 6.0853694E+00 1.3781909E+00 1.7170400E+00
 6.1455151E+00 1.3881482E+00 1.7103085E+00
 6.2045587E+00 1.3999320E+00 1.7030842E+00
 6.2046975E+00 1.3708875E+00 1.7188346E+00
 6.2048016E+00 1.3401741E+00 1.7338828E+00
 6.2048814E+00 1.3076976E+00 1.7480882E+00
 6.2049435E+00 1.2735301E+00 1.7612531E+00
 6.2049943E+00 1.2377928E+00 1.7731694E+00
 6.2050371E+00 1.2006130E+00 1.7836461E+00
 6.2050732E+00 1.1621529E+00 1.7925039E+00
 6.2051022E+00 1.1226131E+00 1.7995808E+00
 6.2051236E+00 1.0822284E+00 1.8047407E+00
 6.2051367E+00 1.0412623E+00 1.8078799E+00
 6.2051411E+00 1.0000000E+00 1.8089337E+00
 6.2051367E+00 9.5873776E-01 1.8078799E+00
 6.2051236E+00 9.1777170E-01 1.8047407E+00
 6.2051022E+00 8.7738691E-01 1.7995808E+00
 6.2050732E+00 8.3784717E-01 1.7925039E+00
 6.2050371E+00 7.9938710E-01 1.7836462E+00
 6.2049943E+00 7.6220720E-01 1.7731695E+00
 6.2049435E+00 7.2646995E-01 1.7612531E+00
 6.2048814E+00 6.9230249E-01 1.7480882E+00
 6.2048016E+00 6.5982596E-01 1.7338829E+00
 6.2046975E+00 6.2911249E-01 1.7188346E+00
 6.2045587E+00 6.0006808E-01 1.7030842E+00
 6.2572522E+00 5.8238502E-01 1.6928337E+00
 6.3154240E+00 5.9087403E-01 1.6985412E+00
 6.3760319E+00 5.9958129E-01 1.7047938E+00
 6.4388171E+00 6.0862128E-01 1.7115795E+00
 6.5035490E+00 6.1807542E-01 1.7187942E+00
 6.5699861E+00 6.2807310E-01 1.7263078E+00
 6.6379069E+00 6.3875423E-01 1.7339442E+00
 6.7070587E+00 6.5026998E-01 1.7414888E+00
 6.7771620E+00 6.6277351E-01 1.7486933E+00
 6.8479001E+00 6.7641125E-01 1.7552832E+00
 6.9189191E+00 6.9131429E-01 1.7609679E+00
 6.9898325E+00 7.0759009E-01 1.7654522E+00
 7.0602287E+00 7.2531589E-01 1.7684484E+00
 7.1296846E+00 7.4453330E-01 1.7696890E+00
 7.1977781E+00 7.6524544E-01 1.7689375E+00
 7.2641029E+00 7.8741601E-01 1.7659989E+00
 7.3282794E+00 8.1097101E-01 1.7607269E+00
 7.3899599E+00 8.3580201E-01 1.7530305E+00
 7.4488293E+00 8.6177090E-01 1.7428777E+00
 7.5046070E+00 8.8871833E-01 1.7302978E+00
 7.5570233E+00 9.1645101E-01 1.7153896E+00
 7.6058401E+00 9.4473553E-01 1.6983063E+00
 7.6507072E+00 9.7313926E-01 1.6793306E+00
 6.2636165E+00 1.3879679E+00 1.7098905E+00
 6.3235519E+00 1.3777710E+00 1.7160966E+00
 6.3855326E+00 1.3676864E+00 1.7226306E+00
 6.4492322E+00 1.3574088E+00 1.7295408E+00
 6.5146247E+00 1.3466675E+00 1.7368130E+00
 6.5815247E+00 1.3352983E+00 1.7443149E+00
 6.6497236E+00 1.3231489E+00 1.7518595E+00
 6.7189748E+00 1.3100808E+00 1.7592132E+00
 6.7889910E+00 1.2959611E+00 1.7661098E+00
 6.8594452E+00 1.2806692E+00 1.7722617E+00
 6.9299730E+00 1.2641036E+00 1.7773705E+00
 7.0001808E+00 1.2461894E+00 1.7811402E+00
 7.0696560E+00 1.2268833E+00 1.7832891E+00
 7.1379805E+00 1.2061768E+00 1.7835631E+00
 7.2047445E+00 1.1840962E+00 1.7817451E+00
 7.2695600E+00 1.1607003E+00 1.7776648E+00
 7.3320714E+00 1.1360763E+00 1.7712036E+00
 7.3919672E+00 1.1103377E+00 1.7622963E+00
 7.4489962E+00 1.0836280E+00 1.7509248E+00
 7.5030160E+00 1.0561343E+00 1.7370957E+00
 7.5540772E+00 1.0281041E+00 1.7207913E+00
 7.6025734E+00 1.0000000E+00 1.7018766E+00
 6.2660271E+00 1.3574473E+00 1.7257406E+00
 6.3283235E+00 1.3454946E+00 1.7322896E+00
 6.3917567E+00 1.3340209E+00 1.7389424E+00
 6.4566116E+00 1.3223858E+00 1.7459000E+00
 6.5228381E+00 1.3102684E+00 1.7531358E+00
 6.5903550E+00 1.2974480E+00 1.7605248E+00
 6.6589775E+00 1.2837739E+00 1.7678619E+00
 6.7284685E+00 1.2691170E+00 1.7748972E+00
 6.7985356E+00 1.2533646E+00 1.7813485E+00
 6.8688417E+00 1.2364211E+00 1.7869171E+00
 6.9390123E+00 1.2182138E+00 1.7912988E+00
 7.0086480E+00 1.1986988E+00 1.7941992E+00
 7.0773359E+00 1.1778640E+00 1.7953450E+00
 7.1446659E+00 1.1557288E+00 1.7944967E+00
 7.2102447E+00 1.1323409E+00 1.7914577E+00
 7.2737135E+00 1.1077708E+00 1.7860802E+00
 7.3347675E+00 1.0821080E+00 1.7782636E+00
 7.3931974E+00 1.0554672E+00 1.7679421E+00
 7.4489652E+00 1.0280121E+00 1.7550488E+00
 7.5023265E+00 1.0000000E+00 1.7394489E+00
 7.5540772E+00 9.7189601E-01 1.7207913E+00
 6.2676834E+00 1.3254191E+00 1.7406689E+00
 6.3314556E+00 1.3120685E+00 1.7471997E+00
 6.3962100E+00 1.2991938E+00 1.7538279E+00
 6.4621019E+00 1.2861785E+00 1.7606940E+00
 6.5291666E+00 1.2726304E+00 1.7677727E+00
 6.5973209E+00 1.2583223E+00 1.7749171E+00
 6.6664006E+00 1.2431014E+00 1.7819065E+00
 6.7361643E+00 1.2268537E+00 1.7884734E+00
 6.8063118E+00 1.2094864E+00 1.7943225E+00
 6.8764950E+00 1.1909291E+00 1.7991463E+00
 6.9463311E+00 1.1711376E+00 1.8026386E+00
 7.0154171E+00 1.1500970E+00 1.8045092E+00
 7.0833447E+00 1.1278218E+00 1.8044963E+00
 7.1497181E+00 1.1043522E+00 1.8023771E+00
 7.2141731E+00 1.0797474E+00 1.7979740E+00
 7.2764059E+00 1.0540816E+00 1.7911534E+00
 7.3362228E+00 1.0274501E+00 1.7818114E+00
 7.3936287E+00 1.0000000E+00 1.7698383E+00
 7.4489652E+00 9.7198792E-01 1.7550488E+00
 7.5030160E+00 9.4386578E-01 1.7370957E+00
 6.2689690E+00 1.2918599E+00 1.7545405E+00
 6.3338936E+00 1.2772487E+00 1.7608531E+00
 6.3997152E+00 1.2630493E+00 1.7672802E+00
 6.4665192E+00 1.2486538E+00 1.7739105E+00
 6.5343204E+00 1.2336727E+00 1.7806844E+00
 6.6030379E+00 1.2178777E+00 1.7874324E+00
 6.6724999E+00 1.2011286E+00 1.7939137E+00
 6.7424581E+00 1.1833277E+00 1.7998462E+00
 6.8126013E+00 1.1644050E+00 1.8049238E+00
 6.8825726E+00 1.1443157E+00 1.8088345E+00
 6.9519845E+00 1.1230426E+00 1.8112743E+00
 7.0204367E+00 1.1005961E+00 1.8119617E+00
 7.0875333E+00 1.0770104E+00 1.8106490E+00
 7.1529059E+00 1.0523371E+00 1.8071304E+00
 7.2162439E+00 1.0266397E+00 1.8012412E+00
 7.2773479E+00 1.0000000E+00 1.7928470E+00
 7.3362228E+00 9.7254996E-01 1.7818114E+00
 7.3931974E+00 9.4453285E-01 1.7679421E+00
 7.4489962E+00 9.1637204E-01 1.7509248E+00
 6.2700693E+00 1.2567452E+00 1.7672157E+00
 6.3359804E+00 1.2409801E+00 1.7731487E+00
 6.4026945E+00 1.2255161E+00 1.7792184E+00
 6.4702540E+00 1.2097747E+00 1.7854591E+00
 6.5386478E+00 1.1933878E+00 1.7917714E+00
 6.6077825E+00 1.1761449E+00 1.7979593E+00
 6.6774765E+00 1.1579236E+00 1.8037637E+00
 6.7474711E+00 1.1386475E+00 1.8088903E+00
 6.8174467E+00 1.1182701E+00 1.8130273E+00
 6.8870419E+00 1.0967720E+00 1.8158630E+00
 6.9558709E+00 1.0741595E+00 1.8171003E+00
 7.0235450E+00 1.0504618E+00 1.8164704E+00
 7.0896939E+00 1.0257237E+00 1.8137408E+00
 7.1539988E+00 1.0000000E+00 1.8087186E+00
 7.2162439E+00 9.7336037E-01 1.8012412E+00
 7.2764059E+00 9.4591845E-01 1.7911534E+00
 7.3347675E+00 9.1789207E-01 1.7782636E+00
 7.3919672E+00 8.8966233E-01 1.7622963E+00
 6.2710580E+00 1.2201375E+00 1.7785247E+00
 6.3378218E+00 1.2033058E+00 1.7839374E+00
 6.4052718E+00 1.1866380E+00 1.7895040E+00
 6.4734169E+00 1.1696029E+00 1.7952020E+00
 6.5422261E+00 1.1518673E+00 1.8008929E+00
 6.6115928E+00 1.1332478E+00 1.8063555E+00
 6.6813253E+00 1.1136458E+00 1.8113157E+00
 6.7511574E+00 1.0930082E+00 1.8154718E+00
 6.8207653E+00 1.0713123E+00 1.8185111E+00
 6.8897897E+00 1.0485605E+00 1.8201276E+00
 6.9578559E+00 1.0247769E+00 1.8200354E+00
 7.0245991E+00 1.0000000E+00 1.8179797E+00
 7.0896939E+00 9.7427641E-01 1.8137408E+00
 7.1529059E+00 9.4766299E-01 1.8071304E+00
 7.2141731E+00 9.2025265E-01 1.7979740E+00
 7.2737135E+00 8.9222928E-01 1.7860802E+00
 7.3320714E+00 8.6392378E-01 1.7712036E+00
 6.2719356E+00 1.1821668E+00 1.7882878E+00
 6.3394136E+00 1.1643473E+00 1.7930543E+00
 6.4074328E+00 1.1465471E+00 1.7979784E+00
 6.4759796E+00 1.1282912E+00 1.8029845E+00
 6.5450083E+00 1.1092913E+00 1.8078980E+00
 6.6144021E+00 1.0893975E+00 1.8124768E+00
 6.6839627E+00 1.0685379E+00 1.8164367E+00
 6.7534208E+00 1.0466829E+00 1.8194736E+00
 6.8224554E+00 1.0238307E+00 1.8212793E+00
 6.8907179E+00 1.0000000E+00 1.8215576E+00
 6.9578559E+00 9.7522313E-01 1.8200354E+00
 7.0235450E+00 9.4953828E-01 1.8164704E+00
 7.0875333E+00 9.2298967E-01 1.8106490E+00
 7.1497181E+00 8.9564790E-01 1.8023771E+00
 7.2102447E+00 8.6765914E-01 1.7914578E+00
 7.2695600E+00 8.3929978E-01 1.7776648E+00
 6.2726786E+00 1.1430080E+00 1.7963350E+00
 6.3407132E+00 1.1242885E+00 1.8003388E+00
 6.4091210E+00 1.1054441E+00 1.8044890E+00
 6.4778740E+00 1.0860635E+00 1.8086616E+00
 6.5469168E+00 1.0659108E+00 1.8126520E+00
 6.6161272E+00 1.0448731E+00 1.8162027E+00
 6.6853051E+00 1.0229057E+00 1.8190247E+00
 6.7541846E+00 1.0000000E+00 1.8208168E+00
 6.8224554E+00 9.7616938E-01 1.8212793E+00
 6.8897897E+00 9.5143953E-01 1.8201276E+00
 6.9558709E+00 9.2584053E-01 1.8171003E+00
 7.0204367E+00 8.9940395E-01 1.8119617E+00
 7.0833447E+00 8.7217825E-01 1.8044963E+00
 7.1446659E+00 8.4427128E-01 1.7944967E+00
 7.2047445E+00 8.1590387E-01 1.7817451E+00
 6.2732606E+00 1.1028766E+00 1.8025158E+00
 6.3416757E+00 1.0833614E+00 1.8056515E+00
 6.4102801E+00 1.0635809E+00 1.8089071E+00
 6.4790375E+00 1.0431961E+00 1.8121177E+00
 6.5478881E+00 1.0220273E+00 1.8150554E+00
 6.6167092E+00 1.0000000E+00 1.8174538E+00
 6.6853051E+00 9.7709435E-01 1.8190247E+00
 6.7534208E+00 9.5331716E-01 1.8194736E+00
 6.8207653E+00 9.2868779E-01 1.8185111E+00
 6.8870419E+00 9.0322807E-01 1.8158630E+00
 6.9519845E+00 8.7695742E-01 1.8112743E+00
 7.0154171E+00 8.4990305E-01 1.8045092E+00
 7.0773359E+00 8.2213608E-01 1.7953450E+00
 7.1379805E+00 7.9382326E-01 1.7835631E+00
 6.2736604E+00 1.0620229E+00 1.8067085E+00
 6.3422670E+00 1.0418340E+00 1.8088845E+00
 6.4108699E+00 1.0212468E+00 1.8111402E+00
 6.4794299E+00 1.0000000E+00 1.8132782E+00
 6.5478881E+00 9.7797276E-01 1.8150554E+00
 6.6161272E+00 9.5512694E-01 1.8162027E+00
 6.6839627E+00 9.3146218E-01 1.8164367E+00
 6.7511574E+00 9.0699182E-01 1.8154718E+00
 6.8174467E+00 8.8172995E-01 1.8130273E+00
 6.8825726E+00 8.5568434E-01 1.8088346E+00
 6.9463311E+00 8.2886247E-01 1.8026386E+00
 7.0086480E+00 8.0130124E-01 1.7941992E+00
 7.0696560E+00 7.7311674E-01 1.7832892E+00
 6.2738639E+00 1.0207244E+00 1.8088270E+00
 6.3424664E+00 1.0000000E+00 1.8099700E+00
 6.4108699E+00 9.7875322E-01 1.8111402E+00
 6.4790375E+00 9.5680395E-01 1.8121177E+00
 6.5469168E+00 9.3408928E-01 1.8126520E+00
 6.6144021E+00 9.1060257E-01 1.8124768E+00
 6.6813253E+00 8.8635424E-01 1.8113157E+00
 6.7474711E+00 8.6135258E-01 1.8088903E+00
 6.8126013E+00 8.3559504E-01 1.8049238E+00
 6.8764950E+00 8.0907096E-01 1.7991463E+00
 6.9390123E+00 7.8178626E-01 1.7912988E+00
 7.0001808E+00 7.5381062E-01 1.7811402E+00
 6.2738639E+00 9.7927566E-01 1.8088270E+00
 6.3422670E+00 9.5816606E-01 1.8088845E+00
 6.4102801E+00 9.3641911E-01 1.8089071E+00
 6.4778740E+00 9.1393651E-01 1.8086617E+00
 6.5450083E+00 8.9070879E-01 1.8078980E+00
 6.6115928E+00 8.6675228E-01 1.8063555E+00
 6.6774765E+00 8.4207650E-01 1.8037637E+00
 6.7424581E+00 8.1667231E-01 1.7998462E+00
 6.8063118E+00 7.9051370E-01 1.7943225E+00
 6.8688417E+00 7.6357896E-01 1.7869171E+00
 6.9299730E+00 7.3589643E-01 1.7773705E+00
 6.2736604E+00 9.3797714E-01 1.8067085E+00
 6.3416757E+00 9.1663869E-01 1.8056515E+00
 6.4091210E+00 8.9455598E-01 1.8044890E+00
 6.4759796E+00 8.7170883E-01 1.8029845E+00
 6.5422261E+00 8.4813280E-01 1.8008929E+00
 6.6077825E+00 8.2385519E-01 1.7979593E+00
 6.6724999E+00 7.9887147E-01 1.7939138E+00
 6.7361643E+00 7.7314636E-01 1.7884734E+00
 6.7985356E+00 7.4663543E-01 1.7813486E+00
 6.8594452E+00 7.1933087E-01 1.7722617E+00
 6.2732606E+00 8.9712344E-01 1.8025159E+00
 6.3407132E+00 8.7571151E-01 1.8003389E+00
 6.4074328E+00 8.5345292E-01 1.7979784E+00
 6.4734169E+00 8.3039713E-01 1.7952020E+00
 6.5386478E+00 8.0661223E-01 1.7917714E+00
 6.6030379E+00 7.8212237E-01 1.7874324E+00
 6.6664006E+00 7.5689865E-01 1.7819065E+00
 6.7284685E+00 7.3088310E-01 1.7748972E+00
 6.7889910E+00 7.0403898E-01 1.7661098E+00
 6.2726786E+00 8.5699201E-01 1.7963350E+00
 6.3394136E+00 8.3565280E-01 1.7930543E+00
 6.4052718E+00 8.1336210E-01 1.7895040E+00
 6.4702540E+00 7.9022536E-01 1.7854591E+00
 6.5343204E+00 7.6632735E-01 1.7806844E+00
 6.5973209E+00 7.4167776E-01 1.7749171E+00
 6.6589775E+00 7.1622618E-01 1.7678619E+00
 6.7189748E+00 6.8991929E-01 1.7592132E+00
 6.2719356E+00 8.1783328E-01 1.7882879E+00
 6.3378218E+00 7.9669428E-01 1.7839374E+00
 6.4026945E+00 7.7448391E-01 1.7792184E+00
 6.4665192E+00 7.5134624E-01 1.7739105E+00
 6.5291666E+00 7.2736967E-01 1.7677728E+00
 6.5903550E+00 7.0255204E-01 1.7605248E+00
 6.6497236E+00 6.7685120E-01 1.7518595E+00
 6.2710580E+00 7.7986255E-01 1.7785247E+00
 6.3359803E+00 7.5901998E-01 1.7731487E+00
 6.3997152E+00 7.3695079E-01 1.7672803E+00
 6.4621019E+00 7.1382160E-01 1.7606941E+00
 6.5228381E+00 6.8973168E-01 1.7531358E+00
 6.5815247E+00 6.6470180E-01 1.7443149E+00
 6.2700693E+00 7.4325484E-01 1.7672157E+00
 6.3338936E+00 7.2275133E-01 1.7608532E+00
 6.3962100E+00 7.0080630E-01 1.7538280E+00
 6.4566116E+00 6.7761420E-01 1.7459001E+00
 6.5146247E+00 6.5333258E-01 1.7368130E+00
 6.2689690E+00 7.0814015E-01 1.7545405E+00
 6.3314556E+00 6.8793157E-01 1.7471997E+00
 6.3917567E+00 6.6597915E-01 1.7389424E+00
 6.4492321E+00 6.4259127E-01 1.7295408E+00
 6.2676834E+00 6.7458099E-01 1.7406689E+00
 6.3283235E+00 6.5450543E-01 1.7322897E+00
 6.3855326E+00 6.3231364E-01 1.7226307E+00
 6.2660271E+00 6.4255273E-01 1.7257407E+00
 6.3235519E+00 6.2222906E-01 1.7160966E+00
 6.2636165E+00 6.1203212E-01 1.7098906E+00
 6.1720076E+00 1.4455399E+00 1.6753892E+00
 6.1359003E+00 1.4677608E+00 1.6607721E+00
 6.0983152E+00 1.4906159E+00 1.6449334E+00
 6.0594224E+00 1.5139973E+00 1.6278330E+00
 6.0193235E+00 1.5378322E+00 1.6094096E+00
 5.9782567E+00 1.5620292E+00 1.5895888E+00
 5.9364550E+00 1.5864854E+00 1.5682821E+00
 5.8941736E+00 1.6110656E+00 1.5454034E+00
 5.8516948E+00 1.6356013E+00 1.5208728E+00
 5.8093227E+00 1.6598891E+00 1.4946263E+00
 5.7673748E+00 1.6836939E+00 1.4666252E+00
 5.7261691E+00 1.7067563E+00 1.4368660E+00
 5.6860124E+00 1.7288042E+00 1.4053880E+00
 5.6471880E+00 1.7495668E+00 1.3722780E+00
 5.6099468E+00 1.7687890E+00 1.3376715E+00
 5.5745014E+00 1.7862460E+00 1.3017496E+00
 5.5410245E+00 1.8017537E+00 1.2647316E+00
 5.5096529E+00 1.8151761E+00 1.2268665E+00
 5.4804953E+00 1.8264289E+00 1.1884221E+00
 5.4536454E+00 1.8354791E+00 1.1496750E+00
 5.4291897E+00 1.8423398E+00 1.1109225E+00
 5.4071561E+00 1.8470673E+00 1.0724610E+00
 5.3875568E+00 1.8497542E+00 1.0348390E+00
 4.7419817E+00 1.0799244E+00 1.6877529E+00
 4.7342283E+00 1.1319682E+00 1.6745357E+00
 4.7292012E+00 1.1849944E+00 1.6585078E+00
 4.7276765E+00 1.2390150E+00 1.6398433E+00
 4.7301293E+00 1.2937436E+00 1.6185634E+00
 4.7369046E+00 1.3487210E+00 1.5946815E+00
 4.7482436E+00 1.4033769E+00 1.5682420E+00
 4.7642981E+00 1.4570773E+00 1.5393480E+00
 4.7851236E+00 1.5091509E+00 1.5081769E+00
 4.8106678E+00 1.5589185E+00 1.4749850E+00
 4.8407597E+00 1.6057278E+00 1.4401041E+00
 4.8751077E+00 1.6489902E+00 1.4039307E+00
 4.9133081E+00 1.6882174E+00 1.3669090E+00
 4.9548637E+00 1.7230513E+00 1.3295097E+00
 4.9992113E+00 1.7532845E+00 1.2922062E+00
 5.0457547E+00 1.7788681E+00 1.2554500E+00
 5.0938982E+00 1.7999049E+00 1.2196499E+00
 5.1430752E+00 1.8166322E+00 1.1851528E+00
 5.1927634E+00 1.8293938E+00 1.1522267E+00
 5.2424995E+00 1.8386112E+00 1.1210275E+00
 5.2918829E+00 1.8447528E+00 1.0915327E+00
 5.3404770E+00 1.8483042E+00 1.0634156E+00
 4.7873855E+00 1.1118131E+00 1.7115174E+00
 4.7824640E+00 1.1658383E+00 1.6980616E+00
 4.7801325E+00 1.2199220E+00 1.6815964E+00
 4.7812816E+00 1.2743533E+00 1.6623548E+00
 4.7864452E+00 1.3289769E+00 1.6404040E+00
 4.7959485E+00 1.3833847E+00 1.6157738E+00
 4.8099769E+00 1.4370243E+00 1.5885219E+00
 4.8286083E+00 1.4892654E+00 1.5587721E+00
 4.8518189E+00 1.5394470E+00 1.5267306E+00
 4.8794771E+00 1.5869181E+00 1.4926884E+00
 4.9113392E+00 1.6310775E+00 1.4570134E+00
 4.9470538E+00 1.6714112E+00 1.4201349E+00
 4.9861765E+00 1.7075260E+00 1.3825234E+00
 5.0281952E+00 1.7391718E+00 1.3446652E+00
 5.0725604E+00 1.7662538E+00 1.3070375E+00
 5.1187204E+00 1.7888297E+00 1.2700820E+00
 5.1661505E+00 1.8070949E+00 1.2341796E+00
 5.2143749E+00 1.8213594E+00 1.1996173E+00
 5.2629755E+00 1.8320215E+00 1.1665307E+00
 5.3115770E+00 1.8395380E+00 1.1348167E+00
 5.3598367E+00 1.8443948E+00 1.1039109E+00
 4.8370879E+00 1.1425047E+00 1.7328654E+00
 4.8348354E+00 1.1974671E+00 1.7189150E+00
 4.8351671E+00 1.2520852E+00 1.7018609E+00
 4.8389692E+00 1.3065837E+00 1.6819187E+00
 4.8467869E+00 1.3608251E+00 1.6591710E+00
 4.8589120E+00 1.4144110E+00 1.6336641E+00
 4.8754701E+00 1.4667937E+00 1.6054784E+00
 4.8964686E+00 1.5173527E+00 1.5747686E+00
 4.9218104E+00 1.5654510E+00 1.5417788E+00
 4.9512944E+00 1.6104815E+00 1.5068405E+00
 4.9846177E+00 1.6519094E+00 1.4703602E+00
 5.0213866E+00 1.6893080E+00 1.4327995E+00
 5.0611374E+00 1.7223858E+00 1.3946506E+00
 5.1033658E+00 1.7510018E+00 1.3564086E+00
 5.1475596E+00 1.7751670E+00 1.3185425E+00
 5.1932308E+00 1.7950338E+00 1.2814649E+00
 5.2399364E+00 1.8108765E+00 1.2454899E+00
 5.2872788E+00 1.8230677E+00 1.2107707E+00
 5.3348884E+00 1.8320544E+00 1.1771888E+00
 5.3823789E+00 1.8383210E+00 1.1442382E+00
 4.8908555E+00 1.1721774E+00 1.7512949E+00
 4.8911512E+00 1.2273940E+00 1.7366402E+00
 4.8940726E+00 1.2820175E+00 1.7188344E+00
 4.9004693E+00 1.3361705E+00 1.6980615E+00
 4.9108507E+00 1.3896679E+00 1.6744048E+00
 4.9254562E+00 1.4420976E+00 1.6479290E+00
 4.9443472E+00 1.4929146E+00 1.6187452E+00
 4.9674631E+00 1.5415179E+00 1.5870476E+00
 4.9946416E+00 1.5873100E+00 1.5531232E+00
 5.0256252E+00 1.6297445E+00 1.5173454E+00
 5.0600690E+00 1.6683678E+00 1.4801568E+00
 5.0975583E+00 1.7028498E+00 1.4420448E+00
 5.1376341E+00 1.7330037E+00 1.4035130E+00
 5.1798241E+00 1.7587922E+00 1.3650508E+00
 5.2236740E+00 1.7803212E+00 1.3270986E+00
 5.2687669E+00 1.7978237E+00 1.2900045E+00
 5.3147212E+00 1.8116420E+00 1.2539560E+00
 5.3611571E+00 1.8222050E+00 1.2188850E+00
 5.4076455E+00 1.8299944E+00 1.1843764E+00
 4.9484377E+00 1.2007084E+00 1.7664255E+00
 4.9511592E+00 1.2556781E+00 1.7508837E+00
 4.9565774E+00 1.3098493E+00 1.7321818E+00