# TIME = 10.600000
variables = x, y, z
zone N=5762 E=11520 F=FEPOINT ET=TRIANGLE
 6.7869593E+00 1.4236564E+00 1.6851066E+00
 6.7869593E+00 1.4236566E+00 3.1489261E-01
 6.7869593E+00 5.7634360E-01 1.6851065E+00
 6.7869593E+00 5.7634329E-01 3.1489261E-01
 5.2948101E+00 9.9999997E-01 1.6746275E+00
 8.2746709E+00 9.9999997E-01 1.6590479E+00
 5.2948114E+00 9.9999997E-01 3.2537400E-01
 8.2746713E+00 9.9999997E-01 3.4095095E-01
 5.9476762E+00 1.8552518E+00 9.9999981E-01
 5.9476762E+00 1.4474801E-01 9.9999981E-01
 7.6158768E+00 1.8135234E+00 9.9999981E-01
 7.6158767E+00 1.8647675E-01 9.9999981E-01
 6.7329501E+00 1.4162110E+00 1.6907233E+00
 6.6732619E+00 1.4081845E+00 1.6974521E+00
 6.6109860E+00 1.4001134E+00 1.7050182E+00
 6.5464243E+00 1.3919369E+00 1.7135204E+00
 6.4798860E+00 1.3836059E+00 1.7229563E+00
 6.4116806E+00 1.3749855E+00 1.7332767E+00
 6.3421291E+00 1.3659048E+00 1.7443340E+00
 6.2715824E+00 1.3561485E+00 1.7558774E+00
 6.2003940E+00 1.3454707E+00 1.7675508E+00
 6.1289077E+00 1.3336086E+00 1.7789044E+00
 6.0574516E+00 1.3203026E+00 1.7894159E+00
 5.9863436E+00 1.3053180E+00 1.7985200E+00
 5.9159039E+00 1.2884660E+00 1.8056433E+00
 5.8464681E+00 1.2696214E+00 1.8102427E+00
 5.7783994E+00 1.2487362E+00 1.8118422E+00
 5.7120928E+00 1.2258469E+00 1.8100672E+00
 5.6479695E+00 1.2010740E+00 1.8046697E+00
 5.5864612E+00 1.1746143E+00 1.7955436E+00
 5.5279860E+00 1.1467280E+00 1.7827274E+00
 5.4729177E+00 1.1177214E+00 1.7663914E+00
 5.4215923E+00 1.0879531E+00 1.7468312E+00
 5.3743000E+00 1.0578337E+00 1.7244456E+00
 5.3314187E+00 1.0279455E+00 1.6998255E+00
 6.7265728E+00 6.1372555E-01 1.7080465E+00
 6.6650566E+00 6.2350476E-01 1.7153554E+00
 6.6013397E+00 6.3299764E-01 1.7233093E+00
 6.5358331E+00 6.4244482E-01 1.7320545E+00
 6.4686154E+00 6.5210215E-01 1.7416860E+00
 6.3999647E+00 6.6215610E-01 1.7521460E+00
 6.3301933E+00 6.7281445E-01 1.7632690E+00
 6.2596457E+00 6.8429325E-01 1.7747706E+00
 6.1886688E+00 6.9682247E-01 1.7862605E+00
 6.1175986E+00 7.1063280E-01 1.7972608E+00
 6.0467569E+00 7.2594019E-01 1.8072309E+00
 5.9764555E+00 7.4292700E-01 1.8156008E+00
 5.9070091E+00 7.6172536E-01 1.8218074E+00
 5.8387471E+00 7.8240356E-01 1.8253315E+00
 5.7720238E+00 8.0495800E-01 1.8257336E+00
 5.7072189E+00 8.2931007E-01 1.8226829E+00
 5.6447262E+00 8.5530799E-01 1.8159766E+00
 5.5849269E+00 8.8273138E-01 1.8055447E+00
 5.5281535E+00 9.1129682E-01 1.7914386E+00
 5.4746352E+00 9.4066276E-01 1.7737946E+00
 5.4244317E+00 9.7042792E-01 1.7527710E+00
 5.3773138E+00 9.9999996E-01 1.7284390E+00
 6.7243003E+00 6.4454165E-01 1.7240475E+00
 6.6602401E+00 6.5613464E-01 1.7317811E+00
 6.5949352E+00 6.6707050E-01 1.7399456E+00
 6.5281687E+00 6.7792494E-01 1.7488516E+00
 6.4600738E+00 6.8901506E-01 1.7585746E+00
 6.3908281E+00 7.0060742E-01 1.7690624E+00
 6.3207201E+00 7.1292555E-01 1.7801200E+00
 6.2500691E+00 7.2618507E-01 1.7914333E+00
 6.1792079E+00 7.4059493E-01 1.8025813E+00
 6.1084611E+00 7.5635278E-01 1.8130626E+00
 6.0381411E+00 7.7363150E-01 1.8223236E+00
 5.9685520E+00 7.9256445E-01 1.8297951E+00
 5.8999999E+00 8.1323306E-01 1.8349274E+00
 5.8328034E+00 8.3565822E-01 1.8372280E+00
 5.7672982E+00 8.5979646E-01 1.8362920E+00
 5.7038287E+00 8.8553890E-01 1.8318248E+00
 5.6427227E+00 9.1271088E-01 1.8236498E+00
 5.5842406E+00 9.4107007E-01 1.8116944E+00
 5.5285048E+00 9.7030125E-01 1.7959463E+00
 5.4754138E+00 9.9999996E-01 1.7763784E+00
 5.4244317E+00 1.0295720E+00 1.7527710E+00
 6.7227374E+00 6.7679407E-01 1.7390461E+00
 6.6570669E+00 6.8984109E-01 1.7468131E+00
 6.5903160E+00 7.0224006E-01 1.7550301E+00
 6.5224290E+00 7.1453771E-01 1.7639417E+00
 6.4534711E+00 7.2713652E-01 1.7736239E+00
 6.3836302E+00 7.4032894E-01 1.7839942E+00
 6.3131667E+00 7.5435311E-01 1.7948310E+00
 6.2423880E+00 7.6941439E-01 1.8057883E+00
 6.1716139E+00 7.8569919E-01 1.8164190E+00
 6.1011589E+00 8.0337112E-01 1.8262027E+00
 6.0313260E+00 8.2256205E-01 1.8345789E+00
 5.9624088E+00 8.4336096E-01 1.8409832E+00
 5.8947010E+00 8.6580620E-01 1.8448835E+00
 5.8285003E+00 8.8988080E-01 1.8458137E+00
 5.7641054E+00 9.1551023E-01 1.8433984E+00
 5.7017898E+00 9.4255843E-01 1.8373645E+00
 5.6417536E+00 9.7081907E-01 1.8275313E+00
 5.5840518E+00 9.9999996E-01 1.8137733E+00
 5.5285048E+00 1.0296987E+00 1.7959463E+00
 5.4746352E+00 1.0593372E+00 1.7737945E+00
 6.7215390E+00 7.1047166E-01 1.7529126E+00
 6.6546446E+00 7.2482213E-01 1.7604948E+00
 6.5867559E+00 7.3860165E-01 1.7685682E+00
 6.5179114E+00 7.5234718E-01 1.7773257E+00
 6.4482143E+00 7.6647269E-01 1.7868054E+00
 6.3778574E+00 7.8128484E-01 1.7968926E+00
 6.3071025E+00 7.9701742E-01 1.8073321E+00
 6.2362493E+00 8.1386096E-01 1.8177494E+00
 6.1656098E+00 8.3197556E-01 1.8276746E+00
 6.0954888E+00 8.5149131E-01 1.8365747E+00
 6.0261779E+00 8.7250203E-01 1.8438877E+00
 5.9579567E+00 8.9505847E-01 1.8490594E+00
 5.8910973E+00 9.1916387E-01 1.8515775E+00
 5.8258609E+00 9.4477061E-01 1.8510002E+00
 5.7624779E+00 9.7177419E-01 1.8469715E+00
 5.7011040E+00 9.9999996E-01 1.8392203E+00
 5.6417536E+00 1.0291809E+00 1.8275312E+00
 5.5842407E+00 1.0589299E+00 1.8116944E+00
 5.5281535E+00 1.0887031E+00 1.7914385E+00
 6.7205494E+00 7.4558593E-01 1.7655218E+00
 6.6526487E+00 7.6111524E-01 1.7727460E+00
 6.5838405E+00 7.7620120E-01 1.7805054E+00
 6.5142213E+00 7.9135925E-01 1.7889420E+00
 6.4439382E+00 8.0699347E-01 1.7980492E+00
 6.3732025E+00 8.2340215E-01 1.8076742E+00
 6.3022811E+00 8.4080487E-01 1.8175293E+00
 6.2314710E+00 8.5937039E-01 1.8272142E+00
 6.1610768E+00 8.7923107E-01 1.8362424E+00
 6.0913917E+00 9.0048481E-01 1.8440749E+00
 6.0226925E+00 9.2319222E-01 1.8501541E+00
 5.9552370E+00 9.4737268E-01 1.8539405E+00
 5.8892622E+00 9.7300093E-01 1.8549416E+00
 5.8249674E+00 9.9999997E-01 1.8527347E+00
 5.7624779E+00 1.0282257E+00 1.8469715E+00
 5.7017898E+00 1.0574415E+00 1.8373644E+00
 5.6427228E+00 1.0872890E+00 1.8236498E+00
 5.5849270E+00 1.1172685E+00 1.8055446E+00
 6.7196880E+00 7.8207556E-01 1.7767244E+00
 6.6509431E+00 7.9867864E-01 1.7834436E+00
 6.5813920E+00 8.1499680E-01 1.7907348E+00
 6.5111796E+00 8.3151155E-01 1.7986873E+00
 6.4404870E+00 8.4860418E-01 1.8072493E+00
 6.3695436E+00 8.6655070E-01 1.8162297E+00
 6.2986210E+00 8.8554781E-01 1.8253115E+00
 6.2280125E+00 9.0573895E-01 1.8340743E+00
 6.1580122E+00 9.2722861E-01 1.8420216E+00
 6.0888984E+00 9.5008625E-01 1.8486148E+00
 6.0209260E+00 9.7434522E-01 1.8533065E+00
 5.9543200E+00 9.9999997E-01 1.8555735E+00
 5.8892622E+00 1.0269990E+00 1.8549416E+00
 5.8258609E+00 1.0552293E+00 1.8510002E+00
 5.7641054E+00 1.0844897E+00 1.8433984E+00
 5.7038287E+00 1.1144610E+00 1.8318247E+00
 5.6447263E+00 1.1446919E+00 1.8159765E+00
 6.7189350E+00 8.1981811E-01 1.7863610E+00
 6.6494909E+00 8.3740334E-01 1.7924479E+00
 6.5793686E+00 8.5487233E-01 1.7991274E+00
 6.5087490E+00 8.7266991E-01 1.8064386E+00
 6.4378381E+00 8.9114323E-01 1.8142859E+00
 6.3668772E+00 9.1053764E-01 1.8224438E+00
 6.2961383E+00 9.3102187E-01 1.8305712E+00
 6.2259066E+00 9.5271292E-01 1.8382341E+00
 6.1564614E+00 9.7569021E-01 1.8449329E+00
 6.0880597E+00 9.9999997E-01 1.8501351E+00
 6.0209260E+00 1.0256547E+00 1.8533065E+00
 5.9552370E+00 1.0526273E+00 1.8539405E+00
 5.8910973E+00 1.0808361E+00 1.8515775E+00
 5.8285003E+00 1.1101191E+00 1.8458137E+00
 5.7672982E+00 1.1402035E+00 1.8362919E+00
 5.7072189E+00 1.1706898E+00 1.8226828E+00
 6.7182984E+00 8.5865014E-01 1.7942802E+00
 6.6483085E+00 8.7712314E-01 1.7996202E+00
 6.5777937E+00 8.9565125E-01 1.8055548E+00
 6.5069604E+00 9.1463831E-01 1.8120759E+00
 6.4360300E+00 9.3439007E-01 1.8190480E+00
 6.3652478E+00 9.5511597E-01 1.8262169E+00
 6.2948802E+00 9.7695507E-01 1.8332239E+00
 6.2251984E+00 9.9999997E-01 1.8396283E+00
 6.1564614E+00 1.0243097E+00 1.8449329E+00
 6.0888984E+00 1.0499137E+00 1.8486148E+00
 6.0226925E+00 1.0768077E+00 1.8501541E+00
 5.9579567E+00 1.1049415E+00 1.8490594E+00
 5.8947010E+00 1.1341937E+00 1.8448834E+00
 5.8328034E+00 1.1643417E+00 1.8372280E+00
 5.7720239E+00 1.1950419E+00 1.8257335E+00
 6.7177972E+00 8.9837182E-01 1.8003485E+00
 6.6474301E+00 9.1762816E-01 1.8048391E+00
 6.5767112E+00 9.3710946E-01 1.8099070E+00
 6.5058622E+00 9.5717344E-01 1.8155010E+00
 6.4351110E+00 9.7807978E-01 1.8214515E+00
 6.3646990E+00 9.9999997E-01 1.8274824E+00
 6.2948802E+00 1.0230449E+00 1.8332239E+00
 6.2259066E+00 1.0472870E+00 1.8382341E+00
 6.1580122E+00 1.0727713E+00 1.8420216E+00
 6.0913917E+00 1.0995151E+00 1.8440749E+00
 6.0261779E+00 1.1274979E+00 1.8438876E+00
 5.9624088E+00 1.1566390E+00 1.8409831E+00
 5.9000000E+00 1.1867669E+00 1.8349273E+00
 5.8387471E+00 1.2175964E+00 1.8253315E+00
 6.7174507E+00 9.3875257E-01 1.8044577E+00
 6.6468883E+00 9.5867558E-01 1.8080102E+00
 6.5761592E+00 9.7898890E-01 1.8121041E+00
 6.5054916E+00 9.9999997E-01 1.8166500E+00
 6.4351110E+00 1.0219202E+00 1.8214515E+00
 6.3652478E+00 1.0448840E+00 1.8262169E+00
 6.2961383E+00 1.0689781E+00 1.8305712E+00
 6.2280125E+00 1.0942610E+00 1.8340743E+00
 6.1610768E+00 1.1207689E+00 1.8362424E+00
 6.0954888E+00 1.1485086E+00 1.8365747E+00
 6.0313260E+00 1.1774379E+00 1.8345788E+00
 5.9685520E+00 1.2074355E+00 1.8297950E+00
 5.9070091E+00 1.2382746E+00 1.8218073E+00
 6.7172736E+00 9.7953858E-01 1.8065318E+00
 6.6467052E+00 9.9999997E-01 1.8090740E+00
 6.5761592E+00 1.0210110E+00 1.8121041E+00
 6.5058622E+00 1.0428265E+00 1.8155010E+00
 6.4360300E+00 1.0656099E+00 1.8190480E+00
 6.3668772E+00 1.0894623E+00 1.8224438E+00
 6.2986210E+00 1.1144521E+00 1.8253115E+00
 6.2314710E+00 1.1406296E+00 1.8272142E+00
 6.1656098E+00 1.1680244E+00 1.8276746E+00
 6.1011589E+00 1.1966288E+00 1.8262027E+00
 6.0381411E+00 1.2263684E+00 1.8223236E+00
 5.9764555E+00 1.2570729E+00 1.8156008E+00
 6.7172736E+00 1.0204614E+00 1.8065318E+00
 6.6468883E+00 1.0413244E+00 1.8080102E+00
 6.5767112E+00 1.0628905E+00 1.8099071E+00
 6.5069604E+00 1.0853616E+00 1.8120759E+00
 6.4378381E+00 1.1088567E+00 1.8142859E+00
 6.3695436E+00 1.1334492E+00 1.8162298E+00
 6.3022811E+00 1.1591951E+00 1.8175293E+00
 6.2362493E+00 1.1861390E+00 1.8177494E+00
 6.1716139E+00 1.2143007E+00 1.8164189E+00
 6.1084611E+00 1.2436471E+00 1.8130625E+00
 6.0467569E+00 1.2740597E+00 1.8072308E+00
 6.7174507E+00 1.0612474E+00 1.8044577E+00
 6.6474300E+00 1.0823718E+00 1.8048391E+00
 6.5777937E+00 1.1043487E+00 1.8055549E+00
 6.5087490E+00 1.1273300E+00 1.8064387E+00
 6.4404870E+00 1.1513958E+00 1.8072493E+00
 6.3732025E+00 1.1765978E+00 1.8076742E+00
 6.3071025E+00 1.2029825E+00 1.8073321E+00
 6.2423880E+00 1.2305855E+00 1.8057883E+00
 6.1792079E+00 1.2594050E+00 1.8025813E+00
 6.1175986E+00 1.2893671E+00 1.7972608E+00
 6.7177972E+00 1.1016281E+00 1.8003485E+00
 6.6483085E+00 1.1228768E+00 1.7996202E+00
 6.5793685E+00 1.1451276E+00 1.7991274E+00
 6.5111796E+00 1.1684884E+00 1.7986874E+00
 6.4439382E+00 1.1930065E+00 1.7980492E+00
 6.3778574E+00 1.2187151E+00 1.7968926E+00
 6.3131667E+00 1.2456468E+00 1.7948310E+00
 6.2500691E+00 1.2738149E+00 1.7914333E+00
 6.1886688E+00 1.3031775E+00 1.7862605E+00
 6.7182984E+00 1.1413498E+00 1.7942803E+00
 6.6494909E+00 1.1625966E+00 1.7924479E+00
 6.5813919E+00 1.1850031E+00 1.7907348E+00
 6.5142213E+00 1.2086407E+00 1.7889420E+00
 6.4482143E+00 1.2335273E+00 1.7868054E+00
 6.3836302E+00 1.2596710E+00 1.7839942E+00
 6.3207201E+00 1.2870744E+00 1.7801201E+00
 6.2596457E+00 1.3157067E+00 1.7747706E+00
 6.7189350E+00 1.1801818E+00 1.7863610E+00
 6.6509431E+00 1.2013213E+00 1.7834437E+00
 6.5838405E+00 1.2237987E+00 1.7805054E+00
 6.5179114E+00 1.2476528E+00 1.7773257E+00
 6.4534711E+00 1.2728634E+00 1.7736239E+00
 6.3908281E+00 1.2993925E+00 1.7690624E+00
 6.3301933E+00 1.3271855E+00 1.7632690E+00
 6.7196880E+00 1.2179244E+00 1.7767244E+00
 6.6526487E+00 1.2388847E+00 1.7727460E+00
 6.5867559E+00 1.2613983E+00 1.7685683E+00
 6.5224290E+00 1.2854622E+00 1.7639417E+00
 6.4600738E+00 1.3109849E+00 1.7585746E+00
 6.3999647E+00 1.3378438E+00 1.7521460E+00
 6.7205494E+00 1.2544140E+00 1.7655218E+00
 6.6546446E+00 1.2751778E+00 1.7604948E+00
 6.5903160E+00 1.2977599E+00 1.7550302E+00
 6.5281687E+00 1.3220750E+00 1.7488516E+00
 6.4686154E+00 1.3478978E+00 1.7416860E+00
 6.7215390E+00 1.2895283E+00 1.7529126E+00
 6.6570669E+00 1.3101589E+00 1.7468132E+00
 6.5949352E+00 1.3329295E+00 1.7399456E+00
 6.5358331E+00 1.3575551E+00 1.7320545E+00
 6.7227374E+00 1.3232059E+00 1.7390462E+00
 6.6602401E+00 1.3438653E+00 1.7317811E+00
 6.6013397E+00 1.3670023E+00 1.7233094E+00
 6.7243003E+00 1.3554583E+00 1.7240475E+00
 6.6650566E+00 1.3764952E+00 1.7153555E+00
 6.7265727E+00 1.3862744E+00 1.7080465E+00
 6.7870372E+00 1.3979374E+00 1.7003178E+00
 6.7871618E+00 1.3686259E+00 1.7161825E+00
 6.7872685E+00 1.3377167E+00 1.7312787E+00
 6.7873572E+00 1.3051313E+00 1.7454687E+00
 6.7874272E+00 1.2709609E+00 1.7585623E+00
 6.7874826E+00 1.2353316E+00 1.7703663E+00
 6.7875269E+00 1.1983659E+00 1.7807076E+00
 6.7875627E+00 1.1602182E+00 1.7894242E+00
 6.7875908E+00 1.1210775E+00 1.7963708E+00
 6.7876113E+00 1.0811626E+00 1.8014257E+00
 6.7876238E+00 1.0407164E+00 1.8044969E+00
 6.7876280E+00 9.9999997E-01 1.8055271E+00
 6.7876238E+00 9.5928350E-01 1.8044969E+00
 6.7876113E+00 9.1883734E-01 1.8014257E+00
 6.7875908E+00 8.7892240E-01 1.7963708E+00
 6.7875627E+00 8.3978178E-01 1.7894242E+00
 6.7875269E+00 8.0163406E-01 1.7807075E+00
 6.7874826E+00 7.6466835E-01 1.7703663E+00
 6.7874272E+00 7.2903903E-01 1.7585622E+00
 6.7873572E+00 6.9486866E-01 1.7454686E+00
 6.7872685E+00 6.6228328E-01 1.7312787E+00
 6.7871618E+00 6.3137409E-01 1.7161825E+00
 6.7870372E+00 6.0206253E-01 1.7003177E+00
 6.8409255E+00 5.8441844E-01 1.6896650E+00
 6.9003083E+00 5.9315263E-01 1.6951276E+00
 6.9619751E+00 6.0203405E-01 1.7011703E+00
 7.0255994E+00 6.1117628E-01 1.7077830E+00
 7.0909179E+00 6.2066214E-01 1.7148596E+00
 7.1576949E+00 6.3062917E-01 1.7222728E+00
 7.2257212E+00 6.4122192E-01 1.7298474E+00
 7.2947600E+00 6.5259421E-01 1.7373701E+00
 7.3645543E+00 6.6490076E-01 1.7445941E+00
 7.4348196E+00 6.7829013E-01 1.7512485E+00
 7.5052435E+00 6.9289706E-01 1.7570464E+00
 7.5754871E+00 7.0883503E-01 1.7616968E+00
 7.6451903E+00 7.2619029E-01 1.7649145E+00
 7.7139810E+00 7.4501710E-01 1.7664322E+00
 7.7814853E+00 7.6533532E-01 1.7660097E+00
 7.8473372E+00 7.8712945E-01 1.7634439E+00
 7.9111862E+00 8.1035020E-01 1.7585756E+00
 7.9727021E+00 8.3491775E-01 1.7512965E+00
 8.0315785E+00 8.6072606E-01 1.7415520E+00
 8.0875389E+00 8.8764709E-01 1.7293422E+00
 8.1403083E+00 9.1550502E-01 1.7147301E+00
 8.1896202E+00 9.4405071E-01 1.6978349E+00
 8.2350662E+00 9.7279637E-01 1.6789215E+00
 6.8474490E+00 1.3856452E+00 1.7068230E+00
 6.9085860E+00 1.3752044E+00 1.7127712E+00
 6.9715968E+00 1.3649402E+00 1.7190940E+00
 7.0360711E+00 1.3545742E+00 1.7258236E+00
 7.1019819E+00 1.3438341E+00 1.7329446E+00
 7.1691462E+00 1.3325433E+00 1.7403288E+00
 7.2373664E+00 1.3205344E+00 1.7477959E+00
 7.3064136E+00 1.3076595E+00 1.7551169E+00
 7.3760297E+00 1.2937808E+00 1.7620296E+00
 7.4459275E+00 1.2787742E+00 1.7682505E+00
 7.5157897E+00 1.2625331E+00 1.7734857E+00
 7.5852744E+00 1.2449744E+00 1.7774432E+00
 7.6540218E+00 1.2260418E+00 1.7798433E+00
 7.7216642E+00 1.2057088E+00 1.7804307E+00
 7.7878371E+00 1.1839792E+00 1.7789828E+00
 7.8521893E+00 1.1608870E+00 1.7753180E+00
 7.9143943E+00 1.1364955E+00 1.7692992E+00
 7.9741652E+00 1.1108988E+00 1.7608348E+00
 8.0312731E+00 1.0842259E+00 1.7498717E+00
 8.0855855E+00 1.0566515E+00 1.7363773E+00
 8.1371289E+00 1.0284155E+00 1.7203002E+00
 8.1862341E+00 9.9999997E-01 1.7014900E+00
 6.8499340E+00 1.3548829E+00 1.7227418E+00
 6.9135368E+00 1.3426682E+00 1.7290202E+00
 6.9780285E+00 1.3310097E+00 1.7354543E+00
 7.0436557E+00 1.3192995E+00 1.7422221E+00
 7.1103561E+00 1.3072187E+00 1.7492923E+00
 7.1780560E+00 1.2945239E+00 1.7565481E+00
 7.2465876E+00 1.2810413E+00 1.7637940E+00
 7.3157439E+00 1.2666275E+00 1.7707873E+00
 7.3852740E+00 1.2511630E+00 1.7772522E+00
 7.4548915E+00 1.2345467E+00 1.7828957E+00
 7.5242778E+00 1.2166985E+00 1.7874196E+00
 7.5930908E+00 1.1975619E+00 1.7905335E+00
 7.6609746E+00 1.1771059E+00 1.7919656E+00
 7.7275717E+00 1.1553252E+00 1.7914735E+00
 7.7925364E+00 1.1322392E+00 1.7888506E+00
 7.8555529E+00 1.1078921E+00 1.7839304E+00
 7.9163595E+00 1.0823559E+00 1.7765829E+00
 7.9747894E+00 1.0557396E+00 1.7667014E+00
 8.0308301E+00 1.0282052E+00 1.7541729E+00
 8.0847096E+00 9.9999997E-01 1.7388263E+00
 8.1371289E+00 9.7158444E-01 1.7203002E+00
 6.8516865E+00 1.3226818E+00 1.7376816E+00
 6.9168326E+00 1.3090692E+00 1.7439236E+00
 6.9826775E+00 1.2960108E+00 1.7503211E+00
 7.0493313E+00 1.2829408E+00 1.7569848E+00
 7.1168166E+00 1.2694663E+00 1.7638850E+00
 7.1850601E+00 1.2553299E+00 1.7708846E+00
 7.2539259E+00 1.2403498E+00 1.7777744E+00
 7.3232161E+00 1.2243945E+00 1.7842963E+00
 7.3926856E+00 1.2073615E+00 1.7901632E+00
 7.4620481E+00 1.1891725E+00 1.7950752E+00
 7.5309856E+00 1.1697707E+00 1.7987329E+00
 7.5991596E+00 1.1491225E+00 1.8008500E+00
 7.6662238E+00 1.1272163E+00 1.8011641E+00
 7.7318410E+00 1.1040612E+00 1.7994444E+00
 7.7957040E+00 1.0796867E+00 1.7954954E+00
 7.8575690E+00 1.0541469E+00 1.7891531E+00
 7.9173035E+00 1.0275339E+00 1.7802698E+00
 7.9749535E+00 9.9999997E-01 1.7686850E+00
 8.0308301E+00 9.7179471E-01 1.7541729E+00
 8.0855855E+00 9.4334840E-01 1.7363772E+00
 6.8530331E+00 1.2890562E+00 1.7515013E+00
 6.9193476E+00 1.2742013E+00 1.7575017E+00
 6.9862553E+00 1.2598384E+00 1.7636796E+00
 7.0537901E+00 1.2454209E+00 1.7700927E+00
 7.1219508E+00 1.2305554E+00 1.7766780E+00
 7.1906692E+00 1.2149786E+00 1.7832761E+00
 7.2598109E+00 1.1985177E+00 1.7896581E+00
 7.3291833E+00 1.1810546E+00 1.7955524E+00
 7.3985419E+00 1.1625063E+00 1.8006625E+00
 7.4676017E+00 1.1428148E+00 1.8046851E+00
 7.5360484E+00 1.1219442E+00 1.8073221E+00
 7.6035528E+00 1.0998785E+00 1.8082939E+00
 7.6697884E+00 1.0766195E+00 1.8073470E+00
 7.7344553E+00 1.0521866E+00 1.8042594E+00
 7.7973156E+00 1.0266207E+00 1.7988374E+00
 7.8582457E+00 9.9999997E-01 1.7909034E+00
 7.9173035E+00 9.7246609E-01 1.7802698E+00
 7.9747894E+00 9.4426031E-01 1.7667014E+00
 8.0312731E+00 9.1577403E-01 1.7498717E+00
 6.8541360E+00 1.2539957E+00 1.7640712E+00
 6.9214099E+00 1.2380275E+00 1.7696651E+00
 6.9891774E+00 1.2224434E+00 1.7754636E+00
 7.0574255E+00 1.2067279E+00 1.7814731E+00
 7.1261224E+00 1.1905061E+00 1.7875918E+00
 7.1951891E+00 1.1735291E+00 1.7936328E+00
 7.2644886E+00 1.1556400E+00 1.7993485E+00
 7.3338274E+00 1.1367392E+00 1.8044549E+00
 7.4029626E+00 1.1167627E+00 1.8086500E+00
 7.4716130E+00 1.0956712E+00 1.8116298E+00
 7.5394736E+00 1.0734450E+00 1.8131008E+00
 7.6062339E+00 1.0500804E+00 1.8127907E+00
 7.6716017E+00 1.0255886E+00 1.8104534E+00
 7.7353394E+00 9.9999997E-01 1.8058696E+00
 7.7973156E+00 9.7337924E-01 1.7988373E+00
 7.8575690E+00 9.4585300E-01 1.7891531E+00
 7.9163595E+00 9.1764404E-01 1.7765829E+00
 7.9741652E+00 8.8910114E-01 1.7608348E+00
 6.8550854E+00 1.2175627E+00 1.7752396E+00
 6.9231644E+00 1.2005903E+00 1.7802866E+00
 6.9916257E+00 1.1838673E+00 1.7855616E+00
 7.0604187E+00 1.1669210E+00 1.7910191E+00
 7.1294876E+00 1.1494061E+00 1.7965188E+00
 7.1987417E+00 1.1310999E+00 1.8018471E+00
 7.2680399E+00 1.1118678E+00 1.8067394E+00
 7.3371894E+00 1.0916303E+00 1.8109032E+00
 7.4059512E+00 1.0703416E+00 1.8140341E+00
 7.4740536E+00 1.0479774E+00 1.8158311E+00
 7.5412089E+00 1.0245287E+00 1.8160066E+00
 7.6071375E+00 9.9999997E-01 1.8142948E+00
 7.6716017E+00 9.7441138E-01 1.8104534E+00
 7.7344553E+00 9.4781339E-01 1.8042594E+00
 7.7957040E+00 9.2031330E-01 1.7954954E+00
 7.8555529E+00 8.9210787E-01 1.7839304E+00
 7.9143943E+00 8.6350448E-01 1.7692992E+00
 6.8559085E+00 1.1798797E+00 1.7848463E+00
 6.9246535E+00 1.1619996E+00 1.7892258E+00
 6.9936460E+00 1.1442259E+00 1.7938443E+00
 7.0628092E+00 1.1261313E+00 1.7986089E+00
 7.1320703E+00 1.1074104E+00 1.8033430E+00
 7.2013309E+00 1.0878726E+00 1.8078097E+00
 7.2704493E+00 1.0674091E+00 1.8117314E+00
 7.3392367E+00 1.0459605E+00 1.8148110E+00
 7.4074635E+00 1.0234955E+00 1.8167451E+00
 7.4748744E+00 9.9999997E-01 1.8172375E+00
 7.5412089E+00 9.7547119E-01 1.8160066E+00
 7.6062339E+00 9.4991957E-01 1.8127907E+00
 7.6697884E+00 9.2338043E-01 1.8073470E+00
 7.7318410E+00 8.9593877E-01 1.7994444E+00
 7.7925364E+00 8.6776073E-01 1.7888506E+00
 7.8521893E+00 8.3911293E-01 1.7753179E+00
 6.8566008E+00 1.1411106E+00 1.7927405E+00
 6.9258637E+00 1.1224212E+00 1.7963451E+00
 6.9952172E+00 1.1036941E+00 1.8001859E+00
 7.0645677E+00 1.0845509E+00 1.8041264E+00
 7.1338331E+00 1.0647317E+00 1.8079591E+00
 7.2029133E+00 1.0440820E+00 1.8114282E+00
 7.2716706E+00 1.0225188E+00 1.8142481E+00
 7.3399254E+00 9.9999997E-01 1.8161204E+00
 7.4074635E+00 9.7650444E-01 1.8167451E+00
 7.4740536E+00 9.5202259E-01 1.8158311E+00
 7.5394736E+00 9.2655497E-01 1.8131008E+00
 7.6035528E+00 9.0012149E-01 1.8082939E+00
 7.6662238E+00 8.7278368E-01 1.8011640E+00
 7.7275717E+00 8.4467478E-01 1.7914735E+00
 7.7878371E+00 8.1602073E-01 1.7789828E+00
 6.8571442E+00 1.1014548E+00 1.7987891E+00
 6.9267619E+00 1.0820641E+00 1.8015245E+00
 6.9962968E+00 1.0624933E+00 1.8044788E+00
 7.0656473E+00 1.0424176E+00 1.8074776E+00
 7.1347291E+00 1.0216257E+00 1.8102881E+00
 7.2034463E+00 9.9999997E-01 1.8126415E+00
 7.2716706E+00 9.7748114E-01 1.8142481E+00
 7.3392367E+00 9.5403946E-01 1.8148110E+00
 7.4059511E+00 9.2965830E-01 1.8140341E+00
 7.4716130E+00 9.0432875E-01 1.8116298E+00
 7.5360484E+00 8.7805575E-01 1.8073221E+00
 7.5991596E+00 8.5087746E-01 1.8008500E+00
 7.6609746E+00 8.2289409E-01 1.7919656E+00
 7.7216642E+00 7.9429119E-01 1.7804307E+00
 6.8575192E+00 1.0611423E+00 1.8028847E+00
 6.9273154E+00 1.0411693E+00 1.8046712E+00
 6.9968471E+00 1.0208779E+00 1.8066455E+00
 7.0660115E+00 9.9999997E-01 1.8086017E+00
 7.1347291E+00 9.7837428E-01 1.8102881E+00
 7.2029133E+00 9.5591798E-01 1.8114282E+00
 7.2704493E+00 9.3259079E-01 1.8117314E+00
 7.3371894E+00 9.0836959E-01 1.8109032E+00
 7.4029626E+00 8.8323729E-01 1.8086499E+00
 7.4676017E+00 8.5718514E-01 1.8046850E+00
 7.5309856E+00 8.3022928E-01 1.7987328E+00
 7.5930908E+00 8.0243809E-01 1.7905334E+00
 7.6540218E+00 7.7395820E-01 1.7798433E+00
 6.8577106E+00 1.0204262E+00 1.8049519E+00
 6.9275025E+00 9.9999997E-01 1.8057268E+00
 6.9968471E+00 9.7912203E-01 1.8066455E+00
 7.0656473E+00 9.5758238E-01 1.8074776E+00
 7.1338331E+00 9.3526827E-01 1.8079591E+00
 7.2013309E+00 9.1212730E-01 1.8078097E+00
 7.2680399E+00 8.8813216E-01 1.8067394E+00
 7.3338274E+00 8.6326076E-01 1.8044549E+00
 7.3985419E+00 8.3749365E-01 1.8006625E+00
 7.4620481E+00 8.1082750E-01 1.7950752E+00
 7.5242778E+00 7.8330151E-01 1.7874195E+00
 7.5852744E+00 7.5502556E-01 1.7774431E+00
 6.8577106E+00 9.7957377E-01 1.8049519E+00
 6.9273154E+00 9.5883064E-01 1.8046712E+00
 6.9962968E+00 9.3750662E-01 1.8044788E+00
 7.0645677E+00 9.1544902E-01 1.8041264E+00
 7.1320703E+00 8.9258954E-01 1.8033430E+00
 7.1987417E+00 8.6890002E-01 1.8018471E+00
 7.2644886E+00 8.4435996E-01 1.7993485E+00
 7.3291833E+00 8.1894532E-01 1.7955523E+00
 7.3926856E+00 7.9263841E-01 1.7901631E+00
 7.4548915E+00 7.6545330E-01 1.7828957E+00
 7.5157897E+00 7.3746683E-01 1.7734857E+00
 6.8575192E+00 9.3885761E-01 1.8028847E+00
 6.9267619E+00 9.1793583E-01 1.8015244E+00
 6.9952172E+00 8.9630585E-01 1.8001858E+00
 7.0628092E+00 8.7386861E-01 1.7986088E+00
 7.1294876E+00 8.5059381E-01 1.7965188E+00
 7.1951891E+00 8.2647082E-01 1.7936328E+00
 7.2598109E+00 8.0148223E-01 1.7896581E+00
 7.3232161E+00 7.7560548E-01 1.7842962E+00
 7.3852740E+00 7.4883700E-01 1.7772522E+00
 7.4459275E+00 7.2122580E-01 1.7682504E+00
 6.8571442E+00 8.9854517E-01 1.7987891E+00
 6.9258637E+00 8.7757872E-01 1.7963450E+00
 6.9936460E+00 8.5577406E-01 1.7938443E+00
 7.0604187E+00 8.3307896E-01 1.7910190E+00
 7.1261224E+00 8.0949384E-01 1.7875917E+00
 7.1906691E+00 7.8502130E-01 1.7832760E+00
 7.2539259E+00 7.5965012E-01 1.7777743E+00
 7.3157439E+00 7.3337243E-01 1.7707873E+00
 7.3760297E+00 7.0621915E-01 1.7620295E+00
 6.8566008E+00 8.5888938E-01 1.7927405E+00
 6.9246535E+00 8.3800039E-01 1.7892257E+00
 6.9916257E+00 8.1613261E-01 1.7855615E+00
 7.0574255E+00 7.9327202E-01 1.7814731E+00
 7.1219508E+00 7.6944454E-01 1.7766779E+00
 7.1850601E+00 7.4467003E-01 1.7708845E+00
 7.2465876E+00 7.1895866E-01 1.7637939E+00
 7.3064136E+00 6.9234043E-01 1.7551168E+00
 6.8559086E+00 8.2012022E-01 1.7848463E+00
 6.9231644E+00 7.9940963E-01 1.7802866E+00
 6.9891774E+00 7.7755656E-01 1.7754635E+00
 7.0537901E+00 7.5457906E-01 1.7700926E+00
 7.1168166E+00 7.3053366E-01 1.7638850E+00
 7.1780560E+00 7.0547602E-01 1.7565481E+00
 7.2373664E+00 6.7946556E-01 1.7477959E+00
 6.8550854E+00 7.8243729E-01 1.7752395E+00
 6.9214099E+00 7.6197249E-01 1.7696650E+00
 6.9862553E+00 7.4016155E-01 1.7636795E+00
 7.0493313E+00 7.1705915E-01 1.7569847E+00
 7.1103561E+00 6.9278130E-01 1.7492923E+00
 7.1691462E+00 6.6745670E-01 1.7403288E+00
 6.8541360E+00 7.4600421E-01 1.7640712E+00
 6.9193476E+00 7.2579866E-01 1.7575017E+00
 6.9826775E+00 7.0398917E-01 1.7503210E+00
 7.0436557E+00 6.8070047E-01 1.7422221E+00
 7.1019819E+00 6.5616591E-01 1.7329446E+00
 6.8530331E+00 7.1094376E-01 1.7515012E+00
 6.9168326E+00 6.9093081E-01 1.7439236E+00
 6.9780285E+00 6.6899026E-01 1.7354542E+00
 7.0360711E+00 6.4542576E-01 1.7258236E+00
 6.8516865E+00 6.7731813E-01 1.7376815E+00
 6.9135368E+00 6.5733178E-01 1.7290202E+00
 6.9715968E+00 6.3505976E-01 1.7190939E+00
 6.8499340E+00 6.4511709E-01 1.7227418E+00
 6.9085860E+00 6.2479556E-01 1.7127711E+00
 6.8474490E+00 6.1435476E-01 1.7068230E+00
 6.7537527E+00 1.4440821E+00 1.6726094E+00
 6.7167917E+00 1.4666713E+00 1.6581163E+00
 6.6783925E+00 1.4898791E+00 1.6424462E+00
 6.6387554E+00 1.5135809E+00 1.6255739E+00
 6.5979930E+00 1.5377016E+00 1.6074455E+00
 6.5563536E+00 1.5621598E+00 1.5879807E+00
 6.5140768E+00 1.5868625E+00 1.5670814E+00
 6.4714227E+00 1.6116805E+00 1.5446516E+00
 6.4286744E+00 1.6364492E+00 1.5206009E+00
 6.3861305E+00 1.6609689E+00 1.4948536E+00
 6.3440959E+00 1.6850086E+00 1.4673576E+00
 6.3028715E+00 1.7083139E+00 1.4380936E+00
 6.2627435E+00 1.7306176E+00 1.4070835E+00
 6.2239740E+00 1.7516533E+00 1.3743947E+00
 6.1867955E+00 1.7711688E+00 1.3401420E+00
 6.1514071E+00 1.7889391E+00 1.3044843E+00
 6.1179769E+00 1.8047765E+00 1.2676194E+00
 6.0866461E+00 1.8185373E+00 1.2297748E+00
 6.0575343E+00 1.8301261E+00 1.1911982E+00
 6.0307414E+00 1.8394961E+00 1.1521482E+00
 6.0063422E+00 1.8466430E+00 1.1129185E+00
 5.9843285E+00 1.8516032E+00 1.0738333E+00
 5.9646700E+00 1.8544519E+00 1.0355198E+00
 5.3229436E+00 1.0812241E+00 1.6901372E+00
 5.3152539E+00 1.1340384E+00 1.6766223E+00
 5.3103357E+00 1.1876914E+00 1.6602865E+00
 5.3089205E+00 1.2421443E+00 1.6413329E+00
 5.3114411E+00 1.2971092E+00 1.6198073E+00
 5.3182151E+00 1.3521534E+00 1.5957490E+00
 5.3294629E+00 1.4067425E+00 1.5692232E+00
 5.3453143E+00 1.4602815E+00 1.5403437E+00
 5.3658069E+00 1.5121427E+00 1.5092852E+00
 5.3908799E+00 1.5616942E+00 1.4762897E+00
 5.4203699E+00 1.6083296E+00 1.4416658E+00
 5.4540104E+00 1.6514994E+00 1.4057804E+00
 5.4914379E+00 1.6907419E+00 1.3690450E+00
 5.5322080E+00 1.7257094E+00 1.3318982E+00
 5.5758166E+00 1.7561870E+00 1.2947848E+00
 5.6217264E+00 1.7821016E+00 1.2581345E+00
 5.6693931E+00 1.8035187E+00 1.2223423E+00
 5.7182894E+00 1.8206316E+00 1.1877472E+00
 5.7679202E+00 1.8337402E+00 1.1546131E+00
 5.8178395E+00 1.8432268E+00 1.1230970E+00
 5.8676495E+00 1.8495271E+00 1.0931937E+00
 5.9168736E+00 1.8531057E+00 1.0646087E+00
 5.3683827E+00 1.1136499E+00 1.7144163E+00
 5.3635407E+00 1.1685047E+00 1.7006461E+00
 5.3613383E+00 1.2232397E+00 1.6838606E+00
 5.3625831E+00 1.2780860E+00 1.6643142E+00
 5.3677586E+00 1.3328922E+00 1.6421039E+00
 5.3771756E+00 1.3872899E+00 1.6172962E+00
 5.3910127E+00 1.4407777E+00 1.5899763E+00
 5.4093362E+00 1.4927785E+00 1.5602777E+00
 5.4321118E+00 1.5426856E+00 1.5283989E+00
 5.4592071E+00 1.5899006E+00 1.4946095E+00
 5.4903944E+00 1.6338688E+00 1.4592470E+00
 5.5253557E+00 1.6741112E+00 1.4227052E+00
 5.5636957E+00 1.7102533E+00 1.3854174E+00
 5.6049612E+00 1.7420461E+00 1.3478352E+00
 5.6486655E+00 1.7693774E+00 1.3104055E+00
 5.6943141E+00 1.7922728E+00 1.2735453E+00
 5.7414266E+00 1.8108862E+00 1.2376149E+00
 5.7895551E+00 1.8254835E+00 1.2028819E+00
 5.8382983E+00 1.8364206E+00 1.1694712E+00
 5.8872958E+00 1.8441152E+00 1.1372962E+00
 5.9361986E+00 1.8490210E+00 1.1058515E+00
 5.4180287E+00 1.1448174E+00 1.7361622E+00
 5.4158626E+00 1.2006430E+00 1.7218714E+00
 5.4163330E+00 1.2559191E+00 1.7044778E+00
 5.4202073E+00 1.3108041E+00 1.6842166E+00
 5.4279790E+00 1.3651699E+00 1.6612089E+00
 5.4399369E+00 1.4186701E+00 1.6355439E+00
 5.4562108E+00 1.4708216E+00 1.6073299E+00
 5.4768049E+00 1.5210700E+00 1.5767266E+00
 5.5016193E+00 1.5688409E+00 1.5439634E+00
 5.5304612E+00 1.6135839E+00 1.5093426E+00
 5.5630533E+00 1.6548093E+00 1.4732330E+00
 5.5990451E+00 1.6921198E+00 1.4360546E+00
 5.6380307E+00 1.7252346E+00 1.3982577E+00
 5.6795707E+00 1.7540036E+00 1.3602987E+00
 5.7232161E+00 1.7784122E+00 1.3226119E+00
 5.7685298E+00 1.7985753E+00 1.2855771E+00
 5.8151007E+00 1.8147244E+00 1.2494763E+00
 5.8625484E+00 1.8271880E+00 1.2144404E+00
 5.9105207E+00 1.8363673E+00 1.1803658E+00
 5.9586515E+00 1.8427028E+00 1.1468237E+00
 5.4716040E+00 1.1748421E+00 1.7548859E+00
 5.4719807E+00 1.2309036E+00 1.7398744E+00
 5.4750278E+00 1.2861525E+00 1.7217193E+00
 5.4814533E+00 1.3406452E+00 1.7006272E+00
 5.4917197E+00 1.3942112E+00 1.6767269E+00
 5.5060748E+00 1.4464978E+00 1.6501273E+00
 5.5245938E+00 1.4970333E+00 1.6209637E+00
 5.5472216E+00 1.5452897E+00 1.5894285E+00
 5.5738020E+00 1.5907364E+00 1.5557863E+00
 5.6040956E+00 1.6328834E+00 1.5203740E+00
 5.6377935E+00 1.6713178E+00 1.4835899E+00
 5.6745340E+00 1.7057310E+00 1.4458742E+00
 5.7139221E+00 1.7359372E+00 1.4076844E+00
 5.7555516E+00 1.7618814E+00 1.3694663E+00
 5.7990235E+00 1.7836380E+00 1.3316184E+00
 5.8439562E+00 1.8014009E+00 1.2944472E+00
 5.8899838E+00 1.8154687E+00 1.2581092E+00
 5.9367429E+00 1.8262215E+00 1.2225473E+00
 5.9838395E+00 1.8340870E+00 1.1874344E+00
 5.5288419E+00 1.2035801E+00 1.7702373E+00
 5.5316162E+00 1.2593314E+00 1.7543361E+00
 5.5371126E+00 1.3140669E+00 1.7352861E+00