# TIME = 0.000000
VARIABLES = X, Y, Z, FX, FY, FZ
ZONE N=29232 E=58212 F=FEPOINT ET=TRIANGLE
  0.000E+00  9.502E-01  1.243E-03 3.5836228E+00 4.1855844E-02 8.4207361E-01
  0.000E+00  1.000E+00  0.000E+00 3.5822304E+00 -3.7153674E-06 8.4314704E-01
  4.318E-02  9.751E-01  3.108E-04 3.5821539E+00 2.0925171E-02 8.4292689E-01
  0.000E+00  1.050E+00  1.243E-03 3.5836227E+00 -4.1863275E-02 8.4207321E-01
  4.318E-02  1.025E+00  3.108E-04 3.5821539E+00 -2.0932636E-02 8.4292669E-01
  0.000E+00  1.100E+00  4.969E-03 3.5891045E+00 -8.3774579E-02 8.3894016E-01
  4.318E-02  1.075E+00  2.796E-03 3.5854815E+00 -6.2815060E-02 8.4080554E-01
  0.000E+00  1.149E+00  1.117E-02 3.6011481E+00 -1.2573626E-01 8.3388295E-01
  4.318E-02  1.124E+00  7.761E-03 3.5943044E+00 -1.0476479E-01 8.3670033E-01
  0.000E+00  1.198E+00  1.983E-02 3.6191555E+00 -1.6745709E-01 8.2680010E-01
  4.318E-02  1.174E+00  1.519E-02 3.6099999E+00 -1.4666819E-01 8.3066222E-01
  0.000E+00  1.247E+00  3.092E-02 3.6357051E+00 -2.0839495E-01 8.1737986E-01
  4.318E-02  1.223E+00  2.507E-02 3.6285109E+00 -1.8806398E-01 8.2244797E-01
  0.000E+00  1.295E+00  4.443E-02 3.6415188E+00 -2.4844171E-01 8.0566942E-01
  4.318E-02  1.271E+00  3.738E-02 3.6399897E+00 -2.2851419E-01 8.1182748E-01
  0.000E+00  1.342E+00  6.031E-02 3.6522581E+00 -2.8814863E-01 7.9221290E-01
  4.318E-02  1.318E+00  5.207E-02 3.6420127E+00 -2.6832103E-01 7.9917890E-01
  0.000E+00  1.388E+00  7.852E-02 3.6874210E+00 -3.2755930E-01 7.7708445E-01
  4.318E-02  1.365E+00  6.913E-02 3.6710376E+00 -3.0795695E-01 7.8493982E-01
  0.000E+00  1.434E+00  9.903E-02 3.6941446E+00 -3.6594169E-01 7.5979782E-01
  4.318E-02  1.411E+00  8.849E-02 3.6970700E+00 -3.4692387E-01 7.6876346E-01
  0.000E+00  1.478E+00  1.218E-01 3.7114418E+00 -4.0326268E-01 7.4052930E-01
  4.318E-02  1.456E+00  1.101E-01 3.6937451E+00 -3.8473464E-01 7.5042749E-01
  0.000E+00  1.521E+00  1.467E-01 3.7371367E+00 -4.3969544E-01 7.1953700E-01
  4.318E-02  1.500E+00  1.340E-01 3.7288070E+00 -4.2162753E-01 7.3029846E-01
  0.000E+00  1.563E+00  1.738E-01 3.7344166E+00 -4.7501846E-01 6.9672408E-01
  4.318E-02  1.543E+00  1.600E-01 3.7273217E+00 -4.5753278E-01 7.0840132E-01
  0.000E+00  1.604E+00  2.029E-01 3.7553523E+00 -5.0915053E-01 6.7217207E-01
  4.318E-02  1.584E+00  1.881E-01 3.7573870E+00 -4.9226446E-01 6.8469677E-01
  0.000E+00  1.643E+00  2.340E-01 3.7616221E+00 -5.4202373E-01 6.4596079E-01
  4.318E-02  1.623E+00  2.182E-01 3.7494935E+00 -5.2578288E-01 6.5931342E-01
  0.000E+00  1.680E+00  2.669E-01 3.7641490E+00 -5.7354770E-01 6.1814073E-01
  4.318E-02  1.662E+00  2.502E-01 3.7653596E+00 -5.5799343E-01 6.3228462E-01
  0.000E+00  1.716E+00  3.018E-01 3.7648781E+00 -6.0364505E-01 5.8878014E-01
  4.318E-02  1.698E+00  2.841E-01 3.7648780E+00 -5.8881327E-01 6.0368428E-01
  0.000E+00  1.750E+00  3.383E-01 3.7653591E+00 -6.3224246E-01 5.5796096E-01
  4.318E-02  1.733E+00  3.198E-01 3.7641487E+00 -6.1817435E-01 5.7358384E-01
  0.000E+00  1.782E+00  3.765E-01 3.7494932E+00 -6.5926854E-01 5.2575129E-01
  4.318E-02  1.766E+00  3.572E-01 3.7616220E+00 -6.4599497E-01 5.4205681E-01
  0.000E+00  1.812E+00  4.163E-01 3.7573850E+00 -6.8464934E-01 4.9223405E-01
  4.318E-02  1.797E+00  3.962E-01 3.7553522E+00 -6.7220674E-01 5.0918066E-01
  0.000E+00  1.840E+00  4.575E-01 3.7273201E+00 -7.0835111E-01 4.5750360E-01
  4.318E-02  1.826E+00  4.367E-01 3.7344161E+00 -6.9675910E-01 4.7504574E-01
  0.000E+00  1.866E+00  5.000E-01 3.7288038E+00 -7.3024544E-01 4.2159948E-01
  4.318E-02  1.853E+00  4.786E-01 3.7371367E+00 -7.1957182E-01 4.3971956E-01
  0.000E+00  1.890E+00  5.438E-01 3.6937415E+00 -7.5037225E-01 3.8470786E-01
  4.318E-02  1.878E+00  5.217E-01 3.7114416E+00 -7.4056418E-01 4.0328358E-01
  0.000E+00  1.912E+00  5.887E-01 3.6970655E+00 -7.6870616E-01 3.4689881E-01
  4.318E-02  1.901E+00  5.661E-01 3.6941449E+00 -7.5983289E-01 3.6595956E-01
  0.000E+00  1.931E+00  6.347E-01 3.6710328E+00 -7.8488068E-01 3.0793383E-01
  4.318E-02  1.921E+00  6.116E-01 3.6874217E+00 -7.7711958E-01 3.2757443E-01
  0.000E+00  1.948E+00  6.815E-01 3.6420072E+00 -7.9911797E-01 2.6829985E-01
  4.318E-02  1.940E+00  6.580E-01 3.6522589E+00 -7.9224814E-01 2.8816101E-01
  0.000E+00  1.963E+00  7.292E-01 3.6399836E+00 -8.1176458E-01 2.2849487E-01
  4.318E-02  1.956E+00  7.052E-01 3.6415196E+00 -8.0570426E-01 2.4845111E-01
  0.000E+00  1.975E+00  7.775E-01 3.6285043E+00 -8.2238339E-01 1.8804653E-01
  4.318E-02  1.969E+00  7.532E-01 3.6357054E+00 -8.1741410E-01 2.0840127E-01
  0.000E+00  1.985E+00  8.264E-01 3.6099927E+00 -8.3059638E-01 1.4665264E-01
  4.318E-02  1.980E+00  8.019E-01 3.6191560E+00 -8.2683406E-01 1.6746047E-01
  0.000E+00  1.992E+00  8.757E-01 3.5942971E+00 -8.3663340E-01 1.0475114E-01
  4.318E-02  1.989E+00  8.510E-01 3.6011488E+00 -8.3391685E-01 1.2573709E-01
  0.000E+00  1.997E+00  9.253E-01 3.5854747E+00 -8.4073760E-01 6.2803504E-02
  4.318E-02  1.995E+00  9.004E-01 3.5891051E+00 -8.3897408E-01 8.3773157E-02
  0.000E+00  2.000E+00  9.751E-01 3.5821480E+00 -8.4285795E-01 2.0923729E-02
  4.318E-02  1.999E+00  9.502E-01 3.5836227E+00 -8.4210708E-01 4.1859270E-02
  0.000E+00  2.000E+00  1.025E+00 3.5821491E+00 -8.4285773E-01 -2.0931084E-02
  4.318E-02  2.000E+00  1.000E+00 3.5822295E+00 -8.4318065E-01 -3.6007053E-06
  0.000E+00  1.997E+00  1.075E+00 3.5854775E+00 -8.4073694E-01 -6.2810843E-02
  4.318E-02  1.999E+00  1.050E+00 3.5836213E+00 -8.4210666E-01 -4.1866509E-02
  0.000E+00  1.992E+00  1.124E+00 3.5943004E+00 -8.3663234E-01 -1.0475845E-01
  4.318E-02  1.995E+00  1.100E+00 3.5891031E+00 -8.3897323E-01 -8.3780467E-02
  0.000E+00  1.985E+00  1.174E+00 3.6099957E+00 -8.3059503E-01 -1.4665990E-01
  4.318E-02  1.989E+00  1.149E+00 3.6011468E+00 -8.3391565E-01 -1.2574443E-01
  0.000E+00  1.975E+00  1.223E+00 3.6285069E+00 -8.2238180E-01 -1.8805372E-01
  4.318E-02  1.980E+00  1.198E+00 3.6191542E+00 -8.2683261E-01 -1.6746776E-01
  0.000E+00  1.963E+00  1.271E+00 3.6399859E+00 -8.1176249E-01 -2.2850199E-01
  4.318E-02  1.969E+00  1.247E+00 3.6357038E+00 -8.1741232E-01 -2.0840848E-01
  0.000E+00  1.948E+00  1.318E+00 3.6420094E+00 -7.9911526E-01 -2.6830687E-01
  4.318E-02  1.956E+00  1.295E+00 3.6415181E+00 -8.0570184E-01 -2.4845822E-01
  0.000E+00  1.931E+00  1.365E+00 3.6710349E+00 -7.8487792E-01 -3.0794074E-01
  4.318E-02  1.940E+00  1.342E+00 3.6522575E+00 -7.9224536E-01 -2.8816802E-01
  0.000E+00  1.912E+00  1.411E+00 3.6970674E+00 -7.6870312E-01 -3.4690559E-01
  4.318E-02  1.921E+00  1.388E+00 3.6874204E+00 -7.7711680E-01 -3.2758133E-01
  0.000E+00  1.890E+00  1.456E+00 3.6937431E+00 -7.5036855E-01 -3.8471449E-01
  4.318E-02  1.901E+00  1.434E+00 3.6941438E+00 -7.5982948E-01 -3.6596633E-01
  0.000E+00  1.866E+00  1.500E+00 3.7288048E+00 -7.3024171E-01 -4.2160595E-01
  4.318E-02  1.878E+00  1.478E+00 3.7114408E+00 -7.4056043E-01 -4.0329022E-01
  0.000E+00  1.840E+00  1.543E+00 3.7273205E+00 -7.0834698E-01 -4.5750989E-01
  4.318E-02  1.853E+00  1.521E+00 3.7371363E+00 -7.1956793E-01 -4.3972603E-01
  0.000E+00  1.812E+00  1.584E+00 3.7573847E+00 -6.8464490E-01 -4.9224016E-01
  4.318E-02  1.826E+00  1.563E+00 3.7344161E+00 -6.9675473E-01 -4.7505202E-01
  0.000E+00  1.782E+00  1.623E+00 3.7494923E+00 -6.5926386E-01 -5.2575719E-01
  4.318E-02  1.797E+00  1.604E+00 3.7553527E+00 -6.7220219E-01 -5.0918673E-01
  0.000E+00  1.750E+00  1.662E+00 3.7653581E+00 -6.3223747E-01 -5.5796663E-01
  4.318E-02  1.766E+00  1.643E+00 3.7616226E+00 -6.4599010E-01 -5.4206264E-01
  0.000E+00  1.716E+00  1.698E+00 3.7648772E+00 -6.0363982E-01 -5.8878557E-01
  4.318E-02  1.733E+00  1.680E+00 3.7641493E+00 -6.1816926E-01 -5.7358941E-01
  0.000E+00  1.680E+00  1.733E+00 3.7641486E+00 -5.7354221E-01 -6.1814590E-01
  4.318E-02  1.698E+00  1.716E+00 3.7648785E+00 -5.8880792E-01 -6.0368960E-01
  0.000E+00  1.643E+00  1.766E+00 3.7616220E+00 -5.4201801E-01 -6.4596569E-01
  4.318E-02  1.662E+00  1.750E+00 3.7653598E+00 -5.5798785E-01 -6.3228968E-01
  0.000E+00  1.604E+00  1.797E+00 3.7553523E+00 -5.0914460E-01 -6.7217669E-01
  4.318E-02  1.623E+00  1.782E+00 3.7494936E+00 -5.2577705E-01 -6.5931822E-01
  0.000E+00  1.563E+00  1.826E+00 3.7344162E+00 -4.7501233E-01 -6.9672841E-01
  4.318E-02  1.584E+00  1.812E+00 3.7573872E+00 -4.9225839E-01 -6.8470130E-01
  0.000E+00  1.521E+00  1.853E+00 3.7371359E+00 -4.3968913E-01 -7.1954101E-01
  4.318E-02  1.543E+00  1.840E+00 3.7273222E+00 -4.5752651E-01 -7.0840554E-01
  0.000E+00  1.478E+00  1.878E+00 3.7114411E+00 -4.0325620E-01 -7.4053299E-01
  4.318E-02  1.500E+00  1.866E+00 3.7288077E+00 -4.2162114E-01 -7.3030234E-01
  0.000E+00  1.434E+00  1.901E+00 3.6941446E+00 -3.6593505E-01 -7.5980118E-01
  4.318E-02  1.456E+00  1.890E+00 3.6937455E+00 -3.8472812E-01 -7.5043103E-01
  0.000E+00  1.388E+00  1.921E+00 3.6874217E+00 -3.2755252E-01 -7.7708745E-01
  4.318E-02  1.411E+00  1.912E+00 3.6970698E+00 -3.4691722E-01 -7.6876666E-01
  0.000E+00  1.342E+00  1.940E+00 3.6522589E+00 -2.8814169E-01 -7.9221554E-01
  4.318E-02  1.365E+00  1.931E+00 3.6710371E+00 -3.0795015E-01 -7.8494269E-01
  0.000E+00  1.295E+00  1.956E+00 3.6415193E+00 -2.4843458E-01 -8.0567168E-01
  4.318E-02  1.318E+00  1.948E+00 3.6420124E+00 -2.6831412E-01 -7.9918144E-01
  0.000E+00  1.247E+00  1.969E+00 3.6357053E+00 -2.0838763E-01 -8.1738173E-01
  4.318E-02  1.271E+00  1.963E+00 3.6399895E+00 -2.2850724E-01 -8.1182966E-01
  0.000E+00  1.198E+00  1.980E+00 3.6191554E+00 -1.6744976E-01 -8.2680159E-01
  4.318E-02  1.223E+00  1.975E+00 3.6285109E+00 -1.8805699E-01 -8.2244978E-01
  0.000E+00  1.149E+00  1.989E+00 3.6011476E+00 -1.2572946E-01 -8.3388411E-01
  4.318E-02  1.174E+00  1.985E+00 3.6100002E+00 -1.4666094E-01 -8.3066364E-01
  0.000E+00  1.100E+00  1.995E+00 3.5891034E+00 -8.3768639E-02 -8.3894106E-01
  4.318E-02  1.124E+00  1.992E+00 3.5943050E+00 -1.0475693E-01 -8.3670130E-01
  0.000E+00  1.050E+00  1.999E+00 3.5836208E+00 -4.1857396E-02 -8.4207386E-01
  4.318E-02  1.075E+00  1.997E+00 3.5854826E+00 -6.2806733E-02 -8.4080603E-01
  0.000E+00  1.000E+00  2.000E+00 3.5822281E+00 3.5507329E-06 -8.4314736E-01
  4.318E-02  1.025E+00  2.000E+00 3.5821552E+00 -2.0924781E-02 -8.4292672E-01
  0.000E+00  9.502E-01  1.999E+00 3.5836209E+00 4.1864497E-02 -8.4207348E-01
  4.318E-02  9.751E-01  2.000E+00 3.5821552E+00 2.0931946E-02 -8.4292652E-01
  0.000E+00  9.004E-01  1.995E+00 3.5891035E+00 8.3775727E-02 -8.3894031E-01
  4.318E-02  9.253E-01  1.997E+00 3.5854827E+00 6.2813875E-02 -8.4080546E-01
  0.000E+00  8.510E-01  1.989E+00 3.6011478E+00 1.2573652E-01 -8.3388298E-01
  4.318E-02  8.757E-01  1.992E+00 3.5943052E+00 1.0476403E-01 -8.3670035E-01
  0.000E+00  8.019E-01  1.980E+00 3.6191556E+00 1.6745675E-01 -8.2680009E-01
  4.318E-02  8.264E-01  1.985E+00 3.6100003E+00 1.4666799E-01 -8.3066231E-01
  0.000E+00  7.532E-01  1.969E+00 3.6357055E+00 2.0839455E-01 -8.1737987E-01
  4.318E-02  7.775E-01  1.975E+00 3.6285111E+00 1.8806397E-01 -8.2244808E-01
  0.000E+00  7.052E-01  1.956E+00 3.6415196E+00 2.4844141E-01 -8.0566946E-01
  4.318E-02  7.292E-01  1.963E+00 3.6399898E+00 2.2851415E-01 -8.1182759E-01
  0.000E+00  6.580E-01  1.940E+00 3.6522592E+00 2.8814841E-01 -7.9221297E-01
  4.318E-02  6.815E-01  1.948E+00 3.6420127E+00 2.6832093E-01 -7.9917901E-01
  0.000E+00  6.116E-01  1.921E+00 3.6874221E+00 3.2755912E-01 -7.7708454E-01
  4.318E-02  6.347E-01  1.931E+00 3.6710375E+00 3.0795684E-01 -7.8493991E-01
  0.000E+00  5.661E-01  1.901E+00 3.6941450E+00 3.6594152E-01 -7.5979793E-01
  4.318E-02  5.887E-01  1.912E+00 3.6970702E+00 3.4692378E-01 -7.6876353E-01
  0.000E+00  5.217E-01  1.878E+00 3.7114416E+00 4.0326251E-01 -7.4052942E-01
  4.318E-02  5.438E-01  1.890E+00 3.6937459E+00 3.8473454E-01 -7.5042757E-01
  0.000E+00  4.786E-01  1.853E+00 3.7371364E+00 4.3969527E-01 -7.1953712E-01
  4.318E-02  5.000E-01  1.866E+00 3.7288082E+00 4.2162738E-01 -7.3029856E-01
  0.000E+00  4.367E-01  1.826E+00 3.7344168E+00 4.7501829E-01 -6.9672422E-01
  4.318E-02  4.575E-01  1.840E+00 3.7273227E+00 4.5753258E-01 -7.0840145E-01
  0.000E+00  3.962E-01  1.797E+00 3.7553529E+00 5.0915036E-01 -6.7217220E-01
  4.318E-02  4.163E-01  1.812E+00 3.7573878E+00 4.9226426E-01 -6.8469691E-01
  0.000E+00  3.572E-01  1.766E+00 3.7616227E+00 5.4202355E-01 -6.4596093E-01
  4.318E-02  3.765E-01  1.782E+00 3.7494942E+00 5.2578271E-01 -6.5931354E-01
  0.000E+00  3.198E-01  1.733E+00 3.7641493E+00 5.7354752E-01 -6.1814087E-01
  4.318E-02  3.383E-01  1.750E+00 3.7653605E+00 5.5799327E-01 -6.3228473E-01
  0.000E+00  2.841E-01  1.698E+00 3.7648780E+00 6.0364486E-01 -5.8878029E-01
  4.318E-02  3.018E-01  1.716E+00 3.7648792E+00 5.8881310E-01 -6.0368438E-01
  0.000E+00  2.502E-01  1.662E+00 3.7653589E+00 6.3224227E-01 -5.5796111E-01
  4.318E-02  2.669E-01  1.680E+00 3.7641501E+00 6.1817416E-01 -5.7358395E-01
  0.000E+00  2.182E-01  1.623E+00 3.7494932E+00 6.5926835E-01 -5.2575144E-01
  4.318E-02  2.340E-01  1.643E+00 3.7616234E+00 6.4599475E-01 -5.4205695E-01
  0.000E+00  1.881E-01  1.584E+00 3.7573855E+00 6.8464914E-01 -4.9223420E-01
  4.318E-02  2.029E-01  1.604E+00 3.7553535E+00 6.7220650E-01 -5.0918082E-01
  0.000E+00  1.600E-01  1.543E+00 3.7273214E+00 7.0835091E-01 -4.5750374E-01
  4.318E-02  1.738E-01  1.563E+00 3.7344169E+00 6.9675885E-01 -4.7504591E-01
  0.000E+00  1.340E-01  1.500E+00 3.7288058E+00 7.3024524E-01 -4.2159961E-01
  4.318E-02  1.467E-01  1.521E+00 3.7371372E+00 7.1957156E-01 -4.3971973E-01
  0.000E+00  1.101E-01  1.456E+00 3.6937441E+00 7.5037204E-01 -3.8470799E-01
  4.318E-02  1.218E-01  1.478E+00 3.7114417E+00 7.4056393E-01 -4.0328374E-01
  0.000E+00  8.849E-02  1.411E+00 3.6970684E+00 7.6870594E-01 -3.4689894E-01
  4.318E-02  9.903E-02  1.434E+00 3.6941447E+00 7.5983264E-01 -3.6595970E-01
  0.000E+00  6.913E-02  1.365E+00 3.6710359E+00 7.8488046E-01 -3.0793394E-01
  4.318E-02  7.852E-02  1.388E+00 3.6874214E+00 7.7711933E-01 -3.2757455E-01
  0.000E+00  5.207E-02  1.318E+00 3.6420105E+00 7.9911775E-01 -2.6829995E-01
  4.318E-02  6.031E-02  1.342E+00 3.6522585E+00 7.9224788E-01 -2.8816111E-01
  0.000E+00  3.738E-02  1.271E+00 3.6399869E+00 8.1176436E-01 -2.2849496E-01
  4.318E-02  4.443E-02  1.295E+00 3.6415191E+00 8.0570399E-01 -2.4845120E-01
  0.000E+00  2.507E-02  1.223E+00 3.6285079E+00 8.2238317E-01 -1.8804661E-01
  4.318E-02  3.092E-02  1.247E+00 3.6357048E+00 8.1741383E-01 -2.0840136E-01
  0.000E+00  1.519E-02  1.174E+00 3.6099968E+00 8.3059615E-01 -1.4665271E-01
  4.318E-02  1.983E-02  1.198E+00 3.6191552E+00 8.2683378E-01 -1.6746056E-01
  0.000E+00  7.761E-03  1.124E+00 3.5943015E+00 8.3663317E-01 -1.0475119E-01
  4.318E-02  1.117E-02  1.149E+00 3.6011478E+00 8.3391657E-01 -1.2573717E-01
  0.000E+00  2.796E-03  1.075E+00 3.5854786E+00 8.4073736E-01 -6.2803541E-02
  4.318E-02  4.969E-03  1.100E+00 3.5891041E+00 8.3897379E-01 -8.3773153E-02
  0.000E+00  3.108E-04  1.025E+00 3.5821502E+00 8.4285771E-01 -2.0923752E-02
  4.318E-02  1.243E-03  1.050E+00 3.5836224E+00 8.4210679E-01 -4.1859159E-02
  0.000E+00  3.108E-04  9.751E-01 3.5821491E+00 8.4285749E-01 2.0931077E-02
  4.318E-02  0.000E+00  1.000E+00 3.5822306E+00 8.4318034E-01 3.7691640E-06
  0.000E+00  2.796E-03  9.253E-01 3.5854758E+00 8.4073670E-01 6.2810851E-02
  4.318E-02  1.243E-03  9.502E-01 3.5836237E+00 8.4210633E-01 4.1866643E-02
  0.000E+00  7.761E-03  8.757E-01 3.5942982E+00 8.3663209E-01 1.0475847E-01
  4.318E-02  4.969E-03  9.004E-01 3.5891061E+00 8.3897289E-01 8.3780518E-02
  0.000E+00  1.519E-02  8.264E-01 3.6099938E+00 8.3059478E-01 1.4665994E-01
  4.318E-02  1.117E-02  8.510E-01 3.6011499E+00 8.3391531E-01 1.2574443E-01
  0.000E+00  2.507E-02  7.775E-01 3.6285054E+00 8.2238156E-01 1.8805377E-01
  4.318E-02  1.983E-02  8.019E-01 3.6191570E+00 8.2683228E-01 1.6746775E-01
  0.000E+00  3.738E-02  7.292E-01 3.6399846E+00 8.1176224E-01 2.2850205E-01
  4.318E-02  3.092E-02  7.532E-01 3.6357064E+00 8.1741199E-01 2.0840849E-01
  0.000E+00  5.207E-02  6.815E-01 3.6420083E+00 7.9911502E-01 2.6830695E-01
  4.318E-02  4.443E-02  7.052E-01 3.6415206E+00 8.0570151E-01 2.4845825E-01
  0.000E+00  6.913E-02  6.347E-01 3.6710338E+00 7.8487767E-01 3.0794082E-01
  4.318E-02  6.031E-02  6.580E-01 3.6522598E+00 7.9224503E-01 2.8816806E-01
  0.000E+00  8.849E-02  5.887E-01 3.6970665E+00 7.6870287E-01 3.4690569E-01
  4.318E-02  7.852E-02  6.116E-01 3.6874227E+00 7.7711647E-01 3.2758137E-01
  0.000E+00  1.101E-01  5.438E-01 3.6937425E+00 7.5036830E-01 3.8471460E-01
  4.318E-02  9.903E-02  5.661E-01 3.6941459E+00 7.5982917E-01 3.6596637E-01
  0.000E+00  1.340E-01  5.000E-01 3.7288047E+00 7.3024146E-01 4.2160606E-01
  4.318E-02  1.218E-01  5.217E-01 3.7114425E+00 7.4056013E-01 4.0329025E-01
  0.000E+00  1.600E-01  4.575E-01 3.7273210E+00 7.0834674E-01 4.5751001E-01
  4.318E-02  1.467E-01  4.786E-01 3.7371376E+00 7.1956765E-01 4.3972606E-01
  0.000E+00  1.881E-01  4.163E-01 3.7573859E+00 6.8464466E-01 4.9224028E-01
  4.318E-02  1.738E-01  4.367E-01 3.7344169E+00 6.9675445E-01 4.7505205E-01
  0.000E+00  2.182E-01  3.765E-01 3.7494940E+00 6.5926362E-01 5.2575732E-01
  4.318E-02  2.029E-01  3.962E-01 3.7553531E+00 6.7220192E-01 5.0918678E-01
  0.000E+00  2.502E-01  3.383E-01 3.7653599E+00 6.3223723E-01 5.5796676E-01
  4.318E-02  2.340E-01  3.572E-01 3.7616228E+00 6.4598981E-01 5.4206271E-01
  0.000E+00  2.841E-01  3.018E-01 3.7648788E+00 6.0363958E-01 5.8878570E-01
  4.318E-02  2.669E-01  3.198E-01 3.7641494E+00 6.1816897E-01 5.7358951E-01
  0.000E+00  3.198E-01  2.669E-01 3.7641497E+00 5.7354198E-01 6.1814603E-01
  4.318E-02  3.018E-01  2.841E-01 3.7648788E+00 5.8880762E-01 6.0368970E-01
  0.000E+00  3.572E-01  2.340E-01 3.7616228E+00 5.4201778E-01 6.4596582E-01
  4.318E-02  3.383E-01  2.502E-01 3.7653603E+00 5.5798756E-01 6.3228978E-01
  0.000E+00  3.962E-01  2.029E-01 3.7553530E+00 5.0914438E-01 6.7217681E-01
  4.318E-02  3.765E-01  2.182E-01 3.7494942E+00 5.2577679E-01 6.5931830E-01
  0.000E+00  4.367E-01  1.738E-01 3.7344173E+00 4.7501211E-01 6.9672853E-01
  4.318E-02  4.163E-01  1.881E-01 3.7573876E+00 4.9225817E-01 6.8470135E-01
  0.000E+00  4.786E-01  1.467E-01 3.7371373E+00 4.3968891E-01 7.1954112E-01
  4.318E-02  4.575E-01  1.600E-01 3.7273223E+00 4.5752630E-01 7.0840560E-01
  0.000E+00  5.217E-01  1.218E-01 3.7114424E+00 4.0325599E-01 7.4053309E-01
  4.318E-02  5.000E-01  1.340E-01 3.7288076E+00 4.2162090E-01 7.3030241E-01
  0.000E+00  5.661E-01  9.903E-02 3.6941451E+00 3.6593485E-01 7.5980127E-01
  4.318E-02  5.438E-01  1.101E-01 3.6937456E+00 3.8472785E-01 7.5043111E-01
  0.000E+00  6.116E-01  7.852E-02 3.6874215E+00 3.2755234E-01 7.7708754E-01
  4.318E-02  5.887E-01  8.849E-02 3.6970704E+00 3.4691695E-01 7.6876673E-01
  0.000E+00  6.580E-01  6.031E-02 3.6522585E+00 2.8814155E-01 7.9221563E-01
  4.318E-02  6.347E-01  6.913E-02 3.6710380E+00 3.0794991E-01 7.8494273E-01
  0.000E+00  7.052E-01  4.443E-02 3.6415192E+00 2.4843453E-01 8.0567178E-01
  4.318E-02  6.815E-01  5.207E-02 3.6420131E+00 2.6831388E-01 7.9918144E-01
  0.000E+00  7.532E-01  3.092E-02 3.6357054E+00 2.0838769E-01 8.1738185E-01
  4.318E-02  7.292E-01  3.738E-02 3.6399900E+00 2.2850695E-01 8.1182964E-01
  0.000E+00  8.019E-01  1.983E-02 3.6191557E+00 1.6744976E-01 8.2680170E-01
  4.318E-02  7.775E-01  2.507E-02 3.6285111E+00 1.8805667E-01 8.2244975E-01
  0.000E+00  8.510E-01  1.117E-02 3.6011483E+00 1.2572888E-01 8.3388415E-01
  4.318E-02  8.264E-01  1.519E-02 3.6100001E+00 1.4666082E-01 8.3066361E-01
  0.000E+00  9.004E-01  4.969E-03 3.5891047E+00 8.3767160E-02 8.3894097E-01
  4.318E-02  8.757E-01  7.761E-03 3.5943045E+00 1.0475739E-01 8.3670133E-01
  4.318E-02  9.253E-01  2.796E-03 3.5854816E+00 6.2807617E-02 8.4080614E-01
  1.000E+01  1.050E+00  1.243E-03 3.5836227E+00 -4.1863275E-02 8.4207321E-01
  1.000E+01  1.000E+00  5.551E-16 3.5822304E+00 -3.7153674E-06 8.4314704E-01
  9.957E+00  1.025E+00  3.108E-04 3.5821567E+00 -2.0931150E-02 8.4287188E-01
  1.000E+01  9.502E-01  1.243E-03 3.5836228E+00 4.1855844E-02 8.4207361E-01
  9.957E+00  9.751E-01  3.108E-04 3.5821567E+00 2.0923714E-02 8.4287209E-01
  1.000E+01  9.004E-01  4.969E-03 3.5891047E+00 8.3767160E-02 8.3894097E-01
  9.957E+00  9.253E-01  2.796E-03 3.5854846E+00 6.2803261E-02 8.4075144E-01
  1.000E+01  8.510E-01  1.117E-02 3.6011483E+00 1.2572888E-01 8.3388415E-01
  9.957E+00  8.757E-01  7.761E-03 3.5943077E+00 1.0475024E-01 8.3664686E-01
  1.000E+01  8.019E-01  1.983E-02 3.6191557E+00 1.6744976E-01 8.2680170E-01
  9.957E+00  8.264E-01  1.519E-02 3.6100036E+00 1.4665107E-01 8.3060956E-01
  1.000E+01  7.532E-01  3.092E-02 3.6357054E+00 2.0838769E-01 8.1738185E-01
  9.957E+00  7.775E-01  2.507E-02 3.6285156E+00 1.8804455E-01 8.2239635E-01
  1.000E+01  7.052E-01  4.443E-02 3.6415192E+00 2.4843453E-01 8.0567178E-01
  9.957E+00  7.292E-01  3.738E-02 3.6399952E+00 2.2849258E-01 8.1177705E-01
  1.000E+01  6.580E-01  6.031E-02 3.6522585E+00 2.8814155E-01 7.9221563E-01
  9.957E+00  6.815E-01  5.207E-02 3.6420192E+00 2.6829704E-01 7.9912963E-01
  1.000E+01  6.116E-01  7.852E-02 3.6874215E+00 3.2755234E-01 7.7708754E-01
  9.957E+00  6.347E-01  6.913E-02 3.6710450E+00 3.0793019E-01 7.8489164E-01
  1.000E+01  5.661E-01  9.903E-02 3.6941451E+00 3.6593485E-01 7.5980127E-01
  9.957E+00  5.887E-01  8.849E-02 3.6970776E+00 3.4689431E-01 7.6871655E-01
  1.000E+01  5.217E-01  1.218E-01 3.7114424E+00 4.0325599E-01 7.4053309E-01
  9.957E+00  5.438E-01  1.101E-01 3.6937542E+00 3.8470265E-01 7.5038210E-01
  1.000E+01  4.786E-01  1.467E-01 3.7371373E+00 4.3968891E-01 7.1954112E-01
  9.957E+00  5.000E-01  1.340E-01 3.7288161E+00 4.2159366E-01 7.3025485E-01
  1.000E+01  4.367E-01  1.738E-01 3.7344173E+00 4.7501211E-01 6.9672853E-01
  9.957E+00  4.575E-01  1.600E-01 3.7273330E+00 4.5749689E-01 7.0835964E-01
  1.000E+01  3.962E-01  2.029E-01 3.7553530E+00 5.0914438E-01 6.7217681E-01
  9.957E+00  4.163E-01  1.881E-01 3.7573969E+00 4.9222626E-01 6.8465696E-01
  1.000E+01  3.572E-01  2.340E-01 3.7616228E+00 5.4201778E-01 6.4596582E-01
  9.957E+00  3.765E-01  2.182E-01 3.7495065E+00 5.2574248E-01 6.5927548E-01
  1.000E+01  3.198E-01  2.669E-01 3.7641497E+00 5.7354198E-01 6.1814603E-01
  9.957E+00  3.383E-01  2.502E-01 3.7653720E+00 5.5795122E-01 6.3224864E-01
  1.000E+01  2.841E-01  3.018E-01 3.7648788E+00 6.0363958E-01 5.8878570E-01
  9.957E+00  3.018E-01  2.841E-01 3.7648913E+00 5.8876936E-01 6.0365043E-01
  1.000E+01  2.502E-01  3.383E-01 3.7653599E+00 6.3223723E-01 5.5796676E-01
  9.957E+00  2.669E-01  3.198E-01 3.7641623E+00 6.1812884E-01 5.7355230E-01
  1.000E+01  2.182E-01  3.765E-01 3.7494940E+00 6.5926362E-01 5.2575732E-01
  9.957E+00  2.340E-01  3.572E-01 3.7616354E+00 6.4594781E-01 5.4202767E-01
  1.000E+01  1.881E-01  4.163E-01 3.7573859E+00 6.8464466E-01 4.9224028E-01
  9.957E+00  2.029E-01  3.962E-01 3.7553660E+00 6.7215813E-01 5.0915386E-01
  1.000E+01  1.600E-01  4.575E-01 3.7273210E+00 7.0834674E-01 4.5751001E-01
  9.957E+00  1.738E-01  4.367E-01 3.7344308E+00 6.9670902E-01 4.7502103E-01
  1.000E+01  1.340E-01  5.000E-01 3.7288047E+00 7.3024146E-01 4.2160606E-01
  9.957E+00  1.467E-01  4.786E-01 3.7371497E+00 7.1952085E-01 4.3969735E-01
  1.000E+01  1.101E-01  5.438E-01 3.6937425E+00 7.5036830E-01 3.8471460E-01
  9.957E+00  1.218E-01  5.217E-01 3.7114552E+00 7.4051212E-01 4.0326425E-01
  1.000E+01  8.849E-02  5.887E-01 3.6970665E+00 7.6870287E-01 3.4690569E-01
  9.957E+00  9.903E-02  5.661E-01 3.6941586E+00 7.5978002E-01 3.6594304E-01
  1.000E+01  6.913E-02  6.347E-01 3.6710338E+00 7.8487767E-01 3.0794082E-01
  9.957E+00  7.852E-02  6.116E-01 3.6874357E+00 7.7706612E-01 3.2756017E-01
  1.000E+01  5.207E-02  6.815E-01 3.6420083E+00 7.9911502E-01 2.6830695E-01
  9.957E+00  6.031E-02  6.580E-01 3.6522725E+00 7.9219353E-01 2.8814896E-01
  1.000E+01  3.738E-02  7.292E-01 3.6399846E+00 8.1176224E-01 2.2850205E-01
  9.957E+00  4.443E-02  7.052E-01 3.6415324E+00 8.0564908E-01 2.4844167E-01
  1.000E+01  2.507E-02  7.775E-01 3.6285054E+00 8.2238156E-01 1.8805377E-01
  9.957E+00  3.092E-02  7.532E-01 3.6357183E+00 8.1735885E-01 2.0839478E-01
  1.000E+01  1.519E-02  8.264E-01 3.6099938E+00 8.3059478E-01 1.4665994E-01
  9.957E+00  1.983E-02  8.019E-01 3.6191683E+00 8.2677864E-01 1.6745703E-01
  1.000E+01  7.761E-03  8.757E-01 3.5942982E+00 8.3663209E-01 1.0475847E-01
  9.957E+00  1.117E-02  8.510E-01 3.6011608E+00 8.3386130E-01 1.2573658E-01
  1.000E+01  2.796E-03  9.253E-01 3.5854758E+00 8.4073670E-01 6.2810851E-02
  9.957E+00  4.969E-03  9.004E-01 3.5891169E+00 8.3891857E-01 8.3775322E-02
  1.000E+01  3.108E-04  9.751E-01 3.5821491E+00 8.4285749E-01 2.0931077E-02
  9.957E+00  1.243E-03  9.502E-01 3.5836344E+00 8.4205176E-01 4.1863947E-02
  1.000E+01  3.108E-04  1.025E+00 3.5821502E+00 8.4285771E-01 -2.0923752E-02
  9.957E+00  0.000E+00  1.000E+00 3.5822412E+00 8.4312566E-01 3.5542074E-06
  1.000E+01  2.796E-03  1.075E+00 3.5854786E+00 8.4073736E-01 -6.2803541E-02
  9.957E+00  1.243E-03  1.050E+00 3.5836330E+00 8.4205219E-01 -4.1856800E-02
  1.000E+01  7.761E-03  1.124E+00 3.5943015E+00 8.3663317E-01 -1.0475119E-01
  9.957E+00  4.969E-03  1.100E+00 3.5891149E+00 8.3891943E-01 -8.3768104E-02
  1.000E+01  1.519E-02  1.174E+00 3.6099968E+00 8.3059615E-01 -1.4665271E-01
  9.957E+00  1.117E-02  1.149E+00 3.6011587E+00 8.3386253E-01 -1.2572934E-01
  1.000E+01  2.507E-02  1.223E+00 3.6285079E+00 8.2238317E-01 -1.8804661E-01
  9.957E+00  1.983E-02  1.198E+00 3.6191666E+00 8.2678011E-01 -1.6744983E-01
  1.000E+01  3.738E-02  1.271E+00 3.6399869E+00 8.1176436E-01 -2.2849496E-01
  9.957E+00  3.092E-02  1.247E+00 3.6357168E+00 8.1736067E-01 -2.0838767E-01
  1.000E+01  5.207E-02  1.318E+00 3.6420105E+00 7.9911775E-01 -2.6829995E-01
  9.957E+00  4.443E-02  1.295E+00 3.6415310E+00 8.0565153E-01 -2.4843466E-01
  1.000E+01  6.913E-02  1.365E+00 3.6710359E+00 7.8488046E-01 -3.0793394E-01
  9.957E+00  6.031E-02  1.342E+00 3.6522712E+00 7.9219635E-01 -2.8814205E-01
  1.000E+01  8.849E-02  1.411E+00 3.6970684E+00 7.6870594E-01 -3.4689894E-01
  9.957E+00  7.852E-02  1.388E+00 3.6874344E+00 7.7706896E-01 -3.2755338E-01
  1.000E+01  1.101E-01  1.456E+00 3.6937441E+00 7.5037204E-01 -3.8470799E-01
  9.957E+00  9.903E-02  1.434E+00 3.6941575E+00 7.5978348E-01 -3.6593637E-01
  1.000E+01  1.340E-01  1.500E+00 3.7288058E+00 7.3024524E-01 -4.2159961E-01
  9.957E+00  1.218E-01  1.478E+00 3.7114544E+00 7.4051593E-01 -4.0325771E-01
  1.000E+01  1.600E-01  1.543E+00 3.7273214E+00 7.0835091E-01 -4.5750374E-01
  9.957E+00  1.467E-01  1.521E+00 3.7371492E+00 7.1952479E-01 -4.3969098E-01
  1.000E+01  1.881E-01  1.584E+00 3.7573855E+00 6.8464914E-01 -4.9223420E-01
  9.957E+00  1.738E-01  1.563E+00 3.7344308E+00 6.9671344E-01 -4.7501484E-01
  1.000E+01  2.182E-01  1.623E+00 3.7494932E+00 6.5926835E-01 -5.2575144E-01
  9.957E+00  2.029E-01  1.604E+00 3.7553664E+00 6.7216272E-01 -5.0914789E-01
  1.000E+01  2.502E-01  1.662E+00 3.7653589E+00 6.3224227E-01 -5.5796111E-01
  9.957E+00  2.340E-01  1.643E+00 3.7616361E+00 6.4595274E-01 -5.4202194E-01
  1.000E+01  2.841E-01  1.698E+00 3.7648780E+00 6.0364486E-01 -5.8878029E-01
  9.957E+00  2.669E-01  1.680E+00 3.7641630E+00 6.1813397E-01 -5.7354682E-01
  1.000E+01  3.198E-01  1.733E+00 3.7641493E+00 5.7354752E-01 -6.1814087E-01
  9.957E+00  3.018E-01  1.716E+00 3.7648917E+00 5.8877476E-01 -6.0364521E-01
  1.000E+01  3.572E-01  1.766E+00 3.7616227E+00 5.4202355E-01 -6.4596093E-01
  9.957E+00  3.383E-01  1.750E+00 3.7653721E+00 5.5795685E-01 -6.3224368E-01
  1.000E+01  3.962E-01  1.797E+00 3.7553529E+00 5.0915036E-01 -6.7217220E-01
  9.957E+00  3.765E-01  1.782E+00 3.7495065E+00 5.2574835E-01 -6.5927077E-01
  1.000E+01  4.367E-01  1.826E+00 3.7344168E+00 4.7501829E-01 -6.9672422E-01
  9.957E+00  4.163E-01  1.812E+00 3.7573970E+00 4.9223235E-01 -6.8465253E-01
  1.000E+01  4.786E-01  1.853E+00 3.7371364E+00 4.3969527E-01 -7.1953712E-01
  9.957E+00  4.575E-01  1.840E+00 3.7273335E+00 4.5750318E-01 -7.0835551E-01
  1.000E+01  5.217E-01  1.878E+00 3.7114416E+00 4.0326251E-01 -7.4052942E-01
  9.957E+00  5.000E-01  1.866E+00 3.7288167E+00 4.2160007E-01 -7.3025105E-01
  1.000E+01  5.661E-01  1.901E+00 3.6941450E+00 3.6594152E-01 -7.5979793E-01
  9.957E+00  5.438E-01  1.890E+00 3.6937545E+00 3.8470919E-01 -7.5037865E-01
  1.000E+01  6.116E-01  1.921E+00 3.6874221E+00 3.2755912E-01 -7.7708454E-01
  9.957E+00  5.887E-01  1.912E+00 3.6970774E+00 3.4690099E-01 -7.6871343E-01
  1.000E+01  6.580E-01  1.940E+00 3.6522592E+00 2.8814841E-01 -7.9221297E-01
  9.957E+00  6.347E-01  1.931E+00 3.6710445E+00 3.0793704E-01 -7.8488886E-01
  1.000E+01  7.052E-01  1.956E+00 3.6415196E+00 2.4844141E-01 -8.0566946E-01
  9.957E+00  6.815E-01  1.948E+00 3.6420189E+00 2.6830406E-01 -7.9912720E-01
  1.000E+01  7.532E-01  1.969E+00 3.6357055E+00 2.0839455E-01 -8.1737987E-01
  9.957E+00  7.292E-01  1.963E+00 3.6399950E+00 2.2849977E-01 -8.1177500E-01
  1.000E+01  8.019E-01  1.980E+00 3.6191556E+00 1.6745675E-01 -8.2680009E-01
  9.957E+00  7.775E-01  1.975E+00 3.6285156E+00 1.8805184E-01 -8.2239469E-01
  1.000E+01  8.510E-01  1.989E+00 3.6011478E+00 1.2573652E-01 -8.3388298E-01
  9.957E+00  8.264E-01  1.985E+00 3.6100037E+00 1.4665825E-01 -8.3060827E-01
  1.000E+01  9.004E-01  1.995E+00 3.5891035E+00 8.3775727E-02 -8.3894031E-01
  9.957E+00  8.757E-01  1.992E+00 3.5943082E+00 1.0475694E-01 -8.3664588E-01
  1.000E+01  9.502E-01  1.999E+00 3.5836209E+00 4.1864497E-02 -8.4207348E-01
  9.957E+00  9.253E-01  1.997E+00 3.5854856E+00 6.2809580E-02 -8.4075076E-01
  1.000E+01  1.000E+00  2.000E+00 3.5822281E+00 3.5507329E-06 -8.4314736E-01
  9.957E+00  9.751E-01  2.000E+00 3.5821583E+00 2.0930486E-02 -8.4287174E-01
  1.000E+01  1.050E+00  1.999E+00 3.5836208E+00 -4.1857396E-02 -8.4207386E-01
  9.957E+00  1.025E+00  2.000E+00 3.5821582E+00 -2.0923406E-02 -8.4287192E-01
  1.000E+01  1.100E+00  1.995E+00 3.5891034E+00 -8.3768639E-02 -8.3894106E-01
  9.957E+00  1.075E+00  1.997E+00 3.5854856E+00 -6.2802523E-02 -8.4075132E-01
  1.000E+01  1.149E+00  1.989E+00 3.6011476E+00 -1.2572946E-01 -8.3388411E-01
  9.957E+00  1.124E+00  1.992E+00 3.5943080E+00 -1.0474992E-01 -8.3664681E-01
  1.000E+01  1.198E+00  1.980E+00 3.6191554E+00 -1.6744976E-01 -8.2680159E-01
  9.957E+00  1.174E+00  1.985E+00 3.6100035E+00 -1.4665128E-01 -8.3060956E-01