# TIME = 2.000000
VARIABLES = X, Y, Z, FX, FY, FZ
ZONE N=29232 E=58212 F=FEPOINT ET=TRIANGLE
  0.000E+00  9.502E-01  1.243E-03 3.4442836E+00 2.6443295E-02 5.3192453E-01
  0.000E+00  1.000E+00  0.000E+00 3.4428911E+00 -4.1962048E-06 5.3260275E-01
  4.318E-02  9.751E-01  3.108E-04 3.4426717E+00 1.2856402E-02 5.1785481E-01
  0.000E+00  1.050E+00  1.243E-03 3.4442835E+00 -2.6451678E-02 5.3192408E-01
  4.318E-02  1.025E+00  3.108E-04 3.4426717E+00 -1.2864791E-02 5.1785458E-01
  0.000E+00  1.100E+00  4.969E-03 3.4497418E+00 -5.2923562E-02 5.2994252E-01
  4.318E-02  1.075E+00  2.796E-03 3.4460634E+00 -3.8597006E-02 5.1655120E-01
  0.000E+00  1.149E+00  1.117E-02 3.4617007E+00 -7.9423685E-02 5.2674626E-01
  4.318E-02  1.124E+00  7.761E-03 3.4549454E+00 -6.4363486E-02 5.1402605E-01
  0.000E+00  1.198E+00  1.983E-02 3.4795692E+00 -1.0577996E-01 5.2227688E-01
  4.318E-02  1.174E+00  1.519E-02 3.4705898E+00 -9.0104103E-02 5.1031671E-01
  0.000E+00  1.247E+00  3.092E-02 3.4960905E+00 -1.3164528E-01 5.1633175E-01
  4.318E-02  1.223E+00  2.507E-02 3.4889247E+00 -1.1554286E-01 5.0527887E-01
  0.000E+00  1.295E+00  4.443E-02 3.5028004E+00 -1.5693563E-01 5.0892712E-01
  4.318E-02  1.271E+00  3.738E-02 3.5005921E+00 -1.4039250E-01 4.9875185E-01
  0.000E+00  1.342E+00  6.031E-02 3.5136317E+00 -1.8201670E-01 5.0042565E-01
  4.318E-02  1.318E+00  5.207E-02 3.5032928E+00 -1.6483951E-01 4.9097272E-01
  0.000E+00  1.388E+00  7.852E-02 3.5479948E+00 -2.0692808E-01 4.9088485E-01
  4.318E-02  1.365E+00  6.913E-02 3.5323157E+00 -1.8920111E-01 4.8223694E-01
  0.000E+00  1.434E+00  9.903E-02 3.5557738E+00 -2.3116404E-01 4.7995197E-01
  4.318E-02  1.411E+00  8.849E-02 3.5583953E+00 -2.1314533E-01 4.7230116E-01
  0.000E+00  1.478E+00  1.218E-01 3.5733857E+00 -2.5473303E-01 4.6777883E-01
  4.318E-02  1.456E+00  1.101E-01 3.5550355E+00 -2.3636143E-01 4.6102218E-01
  0.000E+00  1.521E+00  1.467E-01 3.5995371E+00 -2.7775755E-01 4.5452715E-01
  4.318E-02  1.500E+00  1.340E-01 3.5898301E+00 -2.5903169E-01 4.4866509E-01
  0.000E+00  1.563E+00  1.738E-01 3.5955389E+00 -3.0007043E-01 4.4011347E-01
  4.318E-02  1.543E+00  1.600E-01 3.5885234E+00 -2.8109742E-01 4.3521406E-01
  0.000E+00  1.604E+00  2.029E-01 3.6170105E+00 -3.2163052E-01 4.2460438E-01
  4.318E-02  1.584E+00  1.881E-01 3.6205016E+00 -3.0243159E-01 4.2064970E-01
  0.000E+00  1.643E+00  2.340E-01 3.6244479E+00 -3.4239933E-01 4.0804879E-01
  4.318E-02  1.623E+00  2.182E-01 3.6103910E+00 -3.2302681E-01 4.0505537E-01
  0.000E+00  1.680E+00  2.669E-01 3.6257891E+00 -3.6231177E-01 3.9047331E-01
  4.318E-02  1.662E+00  2.502E-01 3.6272892E+00 -3.4281541E-01 3.8845083E-01
  0.000E+00  1.716E+00  3.018E-01 3.6270233E+00 -3.8132526E-01 3.7192787E-01
  4.318E-02  1.698E+00  2.841E-01 3.6270329E+00 -3.6175169E-01 3.7087944E-01
  0.000E+00  1.750E+00  3.383E-01 3.6272797E+00 -3.9939089E-01 3.5245826E-01
  4.318E-02  1.733E+00  3.198E-01 3.6257988E+00 -3.7978901E-01 3.5238612E-01
  0.000E+00  1.782E+00  3.765E-01 3.6103818E+00 -4.1646254E-01 3.3211242E-01
  4.318E-02  1.766E+00  3.572E-01 3.6244578E+00 -3.9688301E-01 3.3301857E-01
  0.000E+00  1.812E+00  4.163E-01 3.6204926E+00 -4.3249564E-01 3.1093739E-01
  4.318E-02  1.797E+00  3.962E-01 3.6170206E+00 -4.1298511E-01 3.1281819E-01
  0.000E+00  1.840E+00  4.575E-01 3.5885145E+00 -4.4746953E-01 2.8900250E-01
  4.318E-02  1.826E+00  4.367E-01 3.5955492E+00 -4.2806940E-01 2.9184833E-01
  0.000E+00  1.866E+00  5.000E-01 3.5898213E+00 -4.6129852E-01 2.6631533E-01
  4.318E-02  1.853E+00  4.786E-01 3.5995473E+00 -4.4208783E-01 2.7014605E-01
  0.000E+00  1.890E+00  5.438E-01 3.5550268E+00 -4.7400313E-01 2.4300672E-01
  4.318E-02  1.878E+00  5.217E-01 3.5733959E+00 -4.5497625E-01 2.4775154E-01
  0.000E+00  1.912E+00  5.887E-01 3.5583871E+00 -4.8559936E-01 2.1913724E-01
  4.318E-02  1.901E+00  5.661E-01 3.5557841E+00 -4.6681575E-01 2.2482748E-01
  0.000E+00  1.931E+00  6.347E-01 3.5323077E+00 -4.9581457E-01 1.9451904E-01
  4.318E-02  1.921E+00  6.116E-01 3.5480052E+00 -4.7744901E-01 2.0125499E-01
  0.000E+00  1.948E+00  6.815E-01 3.5032848E+00 -5.0479588E-01 1.6947147E-01
  4.318E-02  1.940E+00  6.580E-01 3.5136422E+00 -4.8672850E-01 1.7702584E-01
  0.000E+00  1.963E+00  7.292E-01 3.5005840E+00 -5.1279330E-01 1.4433594E-01
  4.318E-02  1.956E+00  7.052E-01 3.5028108E+00 -4.9499673E-01 1.5263162E-01
  0.000E+00  1.975E+00  7.775E-01 3.4889165E+00 -5.1950342E-01 1.1878651E-01
  4.318E-02  1.969E+00  7.532E-01 3.4961008E+00 -5.0219801E-01 1.2803362E-01
  0.000E+00  1.985E+00  8.264E-01 3.4705818E+00 -5.2468262E-01 9.2631585E-02
  4.318E-02  1.980E+00  8.019E-01 3.4795796E+00 -5.0797996E-01 1.0287615E-01
  0.000E+00  1.992E+00  8.757E-01 3.4549376E+00 -5.2849601E-01 6.6166456E-02
  4.318E-02  1.989E+00  8.510E-01 3.4617113E+00 -5.1232666E-01 7.7241091E-02
  0.000E+00  1.997E+00  9.253E-01 3.4460559E+00 -5.3109186E-01 3.9674781E-02
  4.318E-02  1.995E+00  9.004E-01 3.4497526E+00 -5.1543508E-01 5.1466257E-02
  0.000E+00  2.000E+00  9.751E-01 3.4426644E+00 -5.3243154E-01 1.3218330E-02
  4.318E-02  1.999E+00  9.502E-01 3.4442945E+00 -5.1736201E-01 2.5719076E-02
  0.000E+00  2.000E+00  1.025E+00 3.4426645E+00 -5.3243130E-01 -1.3226787E-02
  4.318E-02  2.000E+00  1.000E+00 3.4429022E+00 -5.1802167E-01 -4.2340524E-06
  0.000E+00  1.997E+00  1.075E+00 3.4460563E+00 -5.3109114E-01 -3.9683220E-02
  4.318E-02  1.999E+00  1.050E+00 3.4442947E+00 -5.1736153E-01 -2.5727536E-02
  0.000E+00  1.992E+00  1.124E+00 3.4549382E+00 -5.2849482E-01 -6.6174860E-02
  4.318E-02  1.995E+00  1.100E+00 3.4497531E+00 -5.1543414E-01 -5.1474690E-02
  0.000E+00  1.985E+00  1.174E+00 3.4705826E+00 -5.2468105E-01 -9.2639936E-02
  4.318E-02  1.989E+00  1.149E+00 3.4617119E+00 -5.1232528E-01 -7.7249481E-02
  0.000E+00  1.975E+00  1.223E+00 3.4889176E+00 -5.1950151E-01 -1.1879479E-01
  4.318E-02  1.980E+00  1.198E+00 3.4795805E+00 -5.0797823E-01 -1.0288448E-01
  0.000E+00  1.963E+00  1.271E+00 3.5005852E+00 -5.1279088E-01 -1.4434413E-01
  4.318E-02  1.969E+00  1.247E+00 3.4961019E+00 -5.0219589E-01 -1.2804187E-01
  0.000E+00  1.948E+00  1.318E+00 3.5032862E+00 -5.0479285E-01 -1.6947956E-01
  4.318E-02  1.956E+00  1.295E+00 3.5028121E+00 -4.9499401E-01 -1.5263977E-01
  0.000E+00  1.931E+00  1.365E+00 3.5323093E+00 -4.9581135E-01 -1.9452700E-01
  4.318E-02  1.940E+00  1.342E+00 3.5136437E+00 -4.8672535E-01 -1.7703388E-01
  0.000E+00  1.912E+00  1.411E+00 3.5583889E+00 -4.8559579E-01 -2.1914506E-01
  4.318E-02  1.921E+00  1.388E+00 3.5480070E+00 -4.7744571E-01 -2.0126290E-01
  0.000E+00  1.890E+00  1.456E+00 3.5550289E+00 -4.7399891E-01 -2.4301437E-01
  4.318E-02  1.901E+00  1.434E+00 3.5557861E+00 -4.6681185E-01 -2.2483523E-01
  0.000E+00  1.866E+00  1.500E+00 3.5898235E+00 -4.6129417E-01 -2.6632281E-01
  4.318E-02  1.878E+00  1.478E+00 3.5733981E+00 -4.5497199E-01 -2.4775913E-01
  0.000E+00  1.840E+00  1.543E+00 3.5885169E+00 -4.4746472E-01 -2.8900977E-01
  4.318E-02  1.853E+00  1.521E+00 3.5995497E+00 -4.4208335E-01 -2.7015346E-01
  0.000E+00  1.812E+00  1.584E+00 3.6204952E+00 -4.3249048E-01 -3.1094444E-01
  4.318E-02  1.826E+00  1.563E+00 3.5955516E+00 -4.2806442E-01 -2.9185552E-01
  0.000E+00  1.782E+00  1.623E+00 3.6103846E+00 -4.1645708E-01 -3.3211924E-01
  4.318E-02  1.797E+00  1.604E+00 3.6170232E+00 -4.1297990E-01 -3.1282517E-01
  0.000E+00  1.750E+00  1.662E+00 3.6272827E+00 -3.9938510E-01 -3.5246482E-01
  4.318E-02  1.766E+00  1.643E+00 3.6244605E+00 -3.9687741E-01 -3.3302531E-01
  0.000E+00  1.716E+00  1.698E+00 3.6270264E+00 -3.8131920E-01 -3.7193416E-01
  4.318E-02  1.733E+00  1.680E+00 3.6258017E+00 -3.7978313E-01 -3.5239260E-01
  0.000E+00  1.680E+00  1.733E+00 3.6257923E+00 -3.6230542E-01 -3.9047932E-01
  4.318E-02  1.698E+00  1.716E+00 3.6270360E+00 -3.6174549E-01 -3.7088563E-01
  0.000E+00  1.643E+00  1.766E+00 3.6244512E+00 -3.4239271E-01 -4.0805449E-01
  4.318E-02  1.662E+00  1.750E+00 3.6272924E+00 -3.4280896E-01 -3.8845673E-01
  0.000E+00  1.604E+00  1.797E+00 3.6170140E+00 -3.2162366E-01 -4.2460977E-01
  4.318E-02  1.623E+00  1.782E+00 3.6103944E+00 -3.2302010E-01 -4.0506095E-01
  0.000E+00  1.563E+00  1.826E+00 3.5955425E+00 -3.0006341E-01 -4.4011854E-01
  4.318E-02  1.584E+00  1.812E+00 3.6205051E+00 -3.0242463E-01 -4.2065494E-01
  0.000E+00  1.521E+00  1.853E+00 3.5995409E+00 -2.7775040E-01 -4.5453189E-01
  4.318E-02  1.543E+00  1.840E+00 3.5885270E+00 -2.8109019E-01 -4.3521894E-01
  0.000E+00  1.478E+00  1.878E+00 3.5733895E+00 -2.5472559E-01 -4.6778318E-01
  4.318E-02  1.500E+00  1.866E+00 3.5898337E+00 -2.5902426E-01 -4.4866961E-01
  0.000E+00  1.434E+00  1.901E+00 3.5557775E+00 -2.3115613E-01 -4.7995584E-01
  4.318E-02  1.456E+00  1.890E+00 3.5550392E+00 -2.3635394E-01 -4.6102636E-01
  0.000E+00  1.388E+00  1.921E+00 3.5479985E+00 -2.0691983E-01 -4.9088827E-01
  4.318E-02  1.411E+00  1.912E+00 3.5583993E+00 -2.1313788E-01 -4.7230502E-01
  0.000E+00  1.342E+00  1.940E+00 3.5136355E+00 -1.8200868E-01 -5.0042873E-01
  4.318E-02  1.365E+00  1.931E+00 3.5323199E+00 -1.8919348E-01 -4.8224038E-01
  0.000E+00  1.295E+00  1.956E+00 3.5028044E+00 -1.5692819E-01 -5.0892997E-01
  4.318E-02  1.318E+00  1.948E+00 3.5032970E+00 -1.6483140E-01 -4.9097566E-01
  0.000E+00  1.247E+00  1.969E+00 3.4960948E+00 -1.3163818E-01 -5.1633434E-01
  4.318E-02  1.271E+00  1.963E+00 3.5005962E+00 -1.4038386E-01 -4.9875424E-01
  0.000E+00  1.198E+00  1.980E+00 3.4795735E+00 -1.0577266E-01 -5.2227912E-01
  4.318E-02  1.223E+00  1.975E+00 3.4889286E+00 -1.1553401E-01 -5.0528076E-01
  0.000E+00  1.149E+00  1.989E+00 3.4617049E+00 -7.9415868E-02 -5.2674806E-01
  4.318E-02  1.174E+00  1.985E+00 3.4705937E+00 -9.0095384E-02 -5.1031814E-01
  0.000E+00  1.100E+00  1.995E+00 3.4497459E+00 -5.2915317E-02 -5.2994387E-01
  4.318E-02  1.124E+00  1.992E+00 3.4549494E+00 -6.4354996E-02 -5.1402704E-01
  0.000E+00  1.050E+00  1.999E+00 3.4442875E+00 -2.6443271E-02 -5.3192496E-01
  4.318E-02  1.075E+00  1.997E+00 3.4460676E+00 -3.8588651E-02 -5.1655174E-01
  0.000E+00  1.000E+00  2.000E+00 3.4428951E+00 4.1765234E-06 -5.3260317E-01
  4.318E-02  1.025E+00  2.000E+00 3.4426760E+00 -1.2856440E-02 -5.1785469E-01
  0.000E+00  9.502E-01  1.999E+00 3.4442876E+00 2.6451615E-02 -5.3192450E-01
  4.318E-02  9.751E-01  2.000E+00 3.4426760E+00 1.2864792E-02 -5.1785446E-01
  0.000E+00  9.004E-01  1.995E+00 3.4497460E+00 5.2923635E-02 -5.2994296E-01
  4.318E-02  9.253E-01  1.997E+00 3.4460676E+00 3.8596985E-02 -5.1655106E-01
  0.000E+00  8.510E-01  1.989E+00 3.4617050E+00 7.9424142E-02 -5.2674671E-01
  4.318E-02  8.757E-01  1.992E+00 3.4549495E+00 6.4363295E-02 -5.1402591E-01
  0.000E+00  8.019E-01  1.980E+00 3.4795737E+00 1.0578087E-01 -5.2227733E-01
  4.318E-02  8.264E-01  1.985E+00 3.4705938E+00 9.0103630E-02 -5.1031656E-01
  0.000E+00  7.532E-01  1.969E+00 3.4960950E+00 1.3164631E-01 -5.1633212E-01
  4.318E-02  7.775E-01  1.975E+00 3.4889288E+00 1.1554219E-01 -5.0527875E-01
  0.000E+00  7.052E-01  1.956E+00 3.5028046E+00 1.5693623E-01 -5.0892732E-01
  4.318E-02  7.292E-01  1.963E+00 3.5005964E+00 1.4039195E-01 -4.9875180E-01
  0.000E+00  6.580E-01  1.940E+00 3.5136357E+00 1.8201660E-01 -5.0042566E-01
  4.318E-02  6.815E-01  1.948E+00 3.5032973E+00 1.6483938E-01 -4.9097279E-01
  0.000E+00  6.116E-01  1.921E+00 3.5479988E+00 2.0692762E-01 -4.9088479E-01
  4.318E-02  6.347E-01  1.931E+00 3.5323202E+00 1.8920134E-01 -4.8223710E-01
  0.000E+00  5.661E-01  1.901E+00 3.5557779E+00 2.3116377E-01 -4.7995197E-01
  4.318E-02  5.887E-01  1.912E+00 3.5583996E+00 2.1314559E-01 -4.7230133E-01
  0.000E+00  5.217E-01  1.878E+00 3.5733898E+00 2.5473306E-01 -4.6777892E-01
  4.318E-02  5.438E-01  1.890E+00 3.5550396E+00 2.3636150E-01 -4.6102229E-01
  0.000E+00  4.786E-01  1.853E+00 3.5995413E+00 2.7775768E-01 -4.5452727E-01
  4.318E-02  5.000E-01  1.866E+00 3.5898341E+00 2.5903163E-01 -4.4866516E-01
  0.000E+00  4.367E-01  1.826E+00 3.5955429E+00 3.0007049E-01 -4.4011355E-01
  4.318E-02  4.575E-01  1.840E+00 3.5885274E+00 2.8109737E-01 -4.3521413E-01
  0.000E+00  3.962E-01  1.797E+00 3.6170144E+00 3.2163051E-01 -4.2460445E-01
  4.318E-02  4.163E-01  1.812E+00 3.6205056E+00 3.0243159E-01 -4.2064979E-01
  0.000E+00  3.572E-01  1.766E+00 3.6244517E+00 3.4239931E-01 -4.0804884E-01
  4.318E-02  3.765E-01  1.782E+00 3.6103949E+00 3.2302683E-01 -4.0505547E-01
  0.000E+00  3.198E-01  1.733E+00 3.6257928E+00 3.6231177E-01 -3.9047337E-01
  4.318E-02  3.383E-01  1.750E+00 3.6272929E+00 3.4281543E-01 -3.8845093E-01
  0.000E+00  2.841E-01  1.698E+00 3.6270269E+00 3.8132525E-01 -3.7192792E-01
  4.318E-02  3.018E-01  1.716E+00 3.6270365E+00 3.6175171E-01 -3.7087954E-01
  0.000E+00  2.502E-01  1.662E+00 3.6272832E+00 3.9939087E-01 -3.5245832E-01
  4.318E-02  2.669E-01  1.680E+00 3.6258023E+00 3.7978903E-01 -3.5238622E-01
  0.000E+00  2.182E-01  1.623E+00 3.6103852E+00 4.1646252E-01 -3.3211248E-01
  4.318E-02  2.340E-01  1.643E+00 3.6244611E+00 3.9688304E-01 -3.3301867E-01
  0.000E+00  1.881E-01  1.584E+00 3.6204958E+00 4.3249561E-01 -3.1093745E-01
  4.318E-02  2.029E-01  1.604E+00 3.6170238E+00 4.1298515E-01 -3.1281829E-01
  0.000E+00  1.600E-01  1.543E+00 3.5885176E+00 4.4746951E-01 -2.8900256E-01
  4.318E-02  1.738E-01  1.563E+00 3.5955522E+00 4.2806943E-01 -2.9184842E-01
  0.000E+00  1.340E-01  1.500E+00 3.5898241E+00 4.6129851E-01 -2.6631540E-01
  4.318E-02  1.467E-01  1.521E+00 3.5995503E+00 4.4208786E-01 -2.7014614E-01
  0.000E+00  1.101E-01  1.456E+00 3.5550295E+00 4.7400312E-01 -2.4300679E-01
  4.318E-02  1.218E-01  1.478E+00 3.5733987E+00 4.5497628E-01 -2.4775163E-01
  0.000E+00  8.849E-02  1.411E+00 3.5583896E+00 4.8559935E-01 -2.1913731E-01
  4.318E-02  9.903E-02  1.434E+00 3.5557867E+00 4.6681577E-01 -2.2482757E-01
  0.000E+00  6.913E-02  1.365E+00 3.5323100E+00 4.9581456E-01 -1.9451911E-01
  4.318E-02  7.852E-02  1.388E+00 3.5480076E+00 4.7744902E-01 -2.0125508E-01
  0.000E+00  5.207E-02  1.318E+00 3.5032869E+00 5.0479587E-01 -1.6947155E-01
  4.318E-02  6.031E-02  1.342E+00 3.5136444E+00 4.8672851E-01 -1.7702594E-01
  0.000E+00  3.738E-02  1.271E+00 3.5005859E+00 5.1279329E-01 -1.4433601E-01
  4.318E-02  4.443E-02  1.295E+00 3.5028128E+00 4.9499674E-01 -1.5263171E-01
  0.000E+00  2.507E-02  1.223E+00 3.4889183E+00 5.1950341E-01 -1.1878659E-01
  4.318E-02  3.092E-02  1.247E+00 3.4961026E+00 5.0219801E-01 -1.2803371E-01
  0.000E+00  1.519E-02  1.174E+00 3.4705833E+00 5.2468261E-01 -9.2631668E-02
  4.318E-02  1.983E-02  1.198E+00 3.4795812E+00 5.0797996E-01 -1.0287624E-01
  0.000E+00  7.761E-03  1.124E+00 3.4549389E+00 5.2849599E-01 -6.6166540E-02
  4.318E-02  1.117E-02  1.149E+00 3.4617126E+00 5.1232665E-01 -7.7241184E-02
  0.000E+00  2.796E-03  1.075E+00 3.4460570E+00 5.3109184E-01 -3.9674866E-02
  4.318E-02  4.969E-03  1.100E+00 3.4497538E+00 5.1543508E-01 -5.1466350E-02
  0.000E+00  3.108E-04  1.025E+00 3.4426652E+00 5.3243152E-01 -1.3218416E-02
  4.318E-02  1.243E-03  1.050E+00 3.4442954E+00 5.1736200E-01 -2.5719171E-02
  0.000E+00  3.108E-04  9.751E-01 3.4426651E+00 5.3243128E-01 1.3226700E-02
  4.318E-02  0.000E+00  1.000E+00 3.4429029E+00 5.1802166E-01 4.1387852E-06
  0.000E+00  2.796E-03  9.253E-01 3.4460566E+00 5.3109112E-01 3.9683132E-02
  4.318E-02  1.243E-03  9.502E-01 3.4442952E+00 5.1736151E-01 2.5727439E-02
  0.000E+00  7.761E-03  8.757E-01 3.4549383E+00 5.2849480E-01 6.6174771E-02
  4.318E-02  4.969E-03  9.004E-01 3.4497533E+00 5.1543411E-01 5.1474593E-02
  0.000E+00  1.519E-02  8.264E-01 3.4705825E+00 5.2468103E-01 9.2639846E-02
  4.318E-02  1.117E-02  8.510E-01 3.4617120E+00 5.1232525E-01 7.7249382E-02
  0.000E+00  2.507E-02  7.775E-01 3.4889172E+00 5.1950148E-01 1.1879470E-01
  4.318E-02  1.983E-02  8.019E-01 3.4795803E+00 5.0797820E-01 1.0288438E-01
  0.000E+00  3.738E-02  7.292E-01 3.5005846E+00 5.1279086E-01 1.4434404E-01
  4.318E-02  3.092E-02  7.532E-01 3.4961015E+00 5.0219585E-01 1.2804176E-01
  0.000E+00  5.207E-02  6.815E-01 3.5032854E+00 5.0479283E-01 1.6947947E-01
  4.318E-02  4.443E-02  7.052E-01 3.5028114E+00 4.9499397E-01 1.5263967E-01
  0.000E+00  6.913E-02  6.347E-01 3.5323084E+00 4.9581132E-01 1.9452691E-01
  4.318E-02  6.031E-02  6.580E-01 3.5136428E+00 4.8672530E-01 1.7703378E-01
  0.000E+00  8.849E-02  5.887E-01 3.5583878E+00 4.8559576E-01 2.1914496E-01
  4.318E-02  7.852E-02  6.116E-01 3.5480059E+00 4.7744566E-01 2.0126279E-01
  0.000E+00  1.101E-01  5.438E-01 3.5550275E+00 4.7399888E-01 2.4301428E-01
  4.318E-02  9.903E-02  5.661E-01 3.5557848E+00 4.6681180E-01 2.2483513E-01
  0.000E+00  1.340E-01  5.000E-01 3.5898219E+00 4.6129414E-01 2.6632272E-01
  4.318E-02  1.218E-01  5.217E-01 3.5733966E+00 4.5497193E-01 2.4775902E-01
  0.000E+00  1.600E-01  4.575E-01 3.5885151E+00 4.4746470E-01 2.8900968E-01
  4.318E-02  1.467E-01  4.786E-01 3.5995480E+00 4.4208328E-01 2.7015335E-01
  0.000E+00  1.881E-01  4.163E-01 3.6204932E+00 4.3249047E-01 3.1094436E-01
  4.318E-02  1.738E-01  4.367E-01 3.5955498E+00 4.2806435E-01 2.9185541E-01
  0.000E+00  2.182E-01  3.765E-01 3.6103823E+00 4.1645707E-01 3.3211916E-01
  4.318E-02  2.029E-01  3.962E-01 3.6170212E+00 4.1297983E-01 3.1282506E-01
  0.000E+00  2.502E-01  3.383E-01 3.6272802E+00 3.9938508E-01 3.5246475E-01
  4.318E-02  2.340E-01  3.572E-01 3.6244583E+00 3.9687734E-01 3.3302519E-01
  0.000E+00  2.841E-01  3.018E-01 3.6270238E+00 3.8131916E-01 3.7193408E-01
  4.318E-02  2.669E-01  3.198E-01 3.6257993E+00 3.7978307E-01 3.5239247E-01
  0.000E+00  3.198E-01  2.669E-01 3.6257896E+00 3.6230538E-01 3.9047924E-01
  4.318E-02  3.018E-01  2.841E-01 3.6270334E+00 3.6174544E-01 3.7088551E-01
  0.000E+00  3.572E-01  2.340E-01 3.6244483E+00 3.4239268E-01 4.0805441E-01
  4.318E-02  3.383E-01  2.502E-01 3.6272897E+00 3.4280890E-01 3.8845661E-01
  0.000E+00  3.962E-01  2.029E-01 3.6170110E+00 3.2162363E-01 4.2460968E-01
  4.318E-02  3.765E-01  2.182E-01 3.6103915E+00 3.2302004E-01 4.0506083E-01
  0.000E+00  4.367E-01  1.738E-01 3.5955394E+00 3.0006331E-01 4.4011843E-01
  4.318E-02  4.163E-01  1.881E-01 3.6205021E+00 3.0242459E-01 4.2065484E-01
  0.000E+00  4.786E-01  1.467E-01 3.5995375E+00 2.7775023E-01 4.5453175E-01
  4.318E-02  4.575E-01  1.600E-01 3.5885238E+00 2.8109020E-01 4.3521885E-01
  0.000E+00  5.217E-01  1.218E-01 3.5733860E+00 2.5472552E-01 4.6778307E-01
  4.318E-02  5.000E-01  1.340E-01 3.5898305E+00 2.5902429E-01 4.4866952E-01
  0.000E+00  5.661E-01  9.903E-02 3.5557741E+00 2.3115636E-01 4.7995582E-01
  4.318E-02  5.438E-01  1.101E-01 3.5550359E+00 2.3635383E-01 4.6102623E-01
  0.000E+00  6.116E-01  7.852E-02 3.5479951E+00 2.0692025E-01 4.9088830E-01
  4.318E-02  5.887E-01  8.849E-02 3.5583957E+00 2.1313758E-01 4.7230483E-01
  0.000E+00  6.580E-01  6.031E-02 3.5136320E+00 1.8200874E-01 5.0042870E-01
  4.318E-02  6.347E-01  6.913E-02 3.5323160E+00 1.8919322E-01 4.8224021E-01
  0.000E+00  7.052E-01  4.443E-02 3.5028006E+00 1.5692755E-01 5.0892975E-01
  4.318E-02  6.815E-01  5.207E-02 3.5032931E+00 1.6483150E-01 4.9097558E-01
  0.000E+00  7.532E-01  3.092E-02 3.4960907E+00 1.3163711E-01 5.1633396E-01
  4.318E-02  7.292E-01  3.738E-02 3.5005923E+00 1.4038438E-01 4.9875429E-01
  0.000E+00  8.019E-01  1.983E-02 3.4795694E+00 1.0577171E-01 5.2227867E-01
  4.318E-02  7.775E-01  2.507E-02 3.4889249E+00 1.1553465E-01 5.0528088E-01
  0.000E+00  8.510E-01  1.117E-02 3.4617008E+00 7.9415373E-02 5.2674760E-01
  4.318E-02  8.264E-01  1.519E-02 3.4705899E+00 9.0095821E-02 5.1031827E-01
  0.000E+00  9.004E-01  4.969E-03 3.4497419E+00 5.2915205E-02 5.2994342E-01
  4.318E-02  8.757E-01  7.761E-03 3.4549455E+00 6.4355151E-02 5.1402717E-01
  4.318E-02  9.253E-01  2.796E-03 3.4460635E+00 3.8588635E-02 5.1655187E-01
  1.000E+01  1.050E+00  1.243E-03 3.4442835E+00 -2.6451678E-02 5.3192408E-01
  1.000E+01  1.000E+00  5.551E-16 3.4428911E+00 -4.1962048E-06 5.3260275E-01
  9.957E+00  1.025E+00  3.108E-04 3.4426697E+00 -1.3589717E-02 5.4704935E-01
  1.000E+01  9.502E-01  1.243E-03 3.4442836E+00 2.6443295E-02 5.3192453E-01
  9.957E+00  9.751E-01  3.108E-04 3.4426697E+00 1.3581326E-02 5.4704957E-01
  1.000E+01  9.004E-01  4.969E-03 3.4497419E+00 5.2915205E-02 5.2994342E-01
  9.957E+00  9.253E-01  2.796E-03 3.4460614E+00 4.0764062E-02 5.4567311E-01
  1.000E+01  8.510E-01  1.117E-02 3.4617008E+00 7.9415373E-02 5.2674760E-01
  9.957E+00  8.757E-01  7.761E-03 3.4549434E+00 6.7983121E-02 5.4300601E-01
  1.000E+01  8.019E-01  1.983E-02 3.4795694E+00 1.0577171E-01 5.2227867E-01
  9.957E+00  8.264E-01  1.519E-02 3.4705878E+00 9.5175058E-02 5.3908801E-01
  1.000E+01  7.532E-01  3.092E-02 3.4960907E+00 1.3163711E-01 5.1633396E-01
  9.957E+00  7.775E-01  2.507E-02 3.4889229E+00 1.2204835E-01 5.3376673E-01
  1.000E+01  7.052E-01  4.443E-02 3.5028006E+00 1.5692755E-01 5.0892975E-01
  9.957E+00  7.292E-01  3.738E-02 3.5005904E+00 1.4829937E-01 5.2687233E-01
  1.000E+01  6.580E-01  6.031E-02 3.5136320E+00 1.8200874E-01 5.0042870E-01
  9.957E+00  6.815E-01  5.207E-02 3.5032912E+00 1.7412482E-01 5.1865503E-01
  1.000E+01  6.116E-01  7.852E-02 3.5479951E+00 2.0692025E-01 4.9088830E-01
  9.957E+00  6.347E-01  6.913E-02 3.5323141E+00 1.9985969E-01 5.0942691E-01
  1.000E+01  5.661E-01  9.903E-02 3.5557741E+00 2.3115636E-01 4.7995582E-01
  9.957E+00  5.887E-01  8.849E-02 3.5583936E+00 2.2515360E-01 4.9893123E-01
  1.000E+01  5.217E-01  1.218E-01 3.5733860E+00 2.5472552E-01 4.6778307E-01
  9.957E+00  5.438E-01  1.101E-01 3.5550338E+00 2.4967853E-01 4.8701676E-01
  1.000E+01  4.786E-01  1.467E-01 3.5995375E+00 2.7775023E-01 4.5453175E-01
  9.957E+00  5.000E-01  1.340E-01 3.5898285E+00 2.7362730E-01 4.7396363E-01
  1.000E+01  4.367E-01  1.738E-01 3.5955394E+00 3.0006331E-01 4.4011843E-01
  9.957E+00  4.575E-01  1.600E-01 3.5885219E+00 2.9693734E-01 4.5975488E-01
  1.000E+01  3.962E-01  2.029E-01 3.6170110E+00 3.2162363E-01 4.2460968E-01
  9.957E+00  4.163E-01  1.881E-01 3.6205001E+00 3.1947428E-01 4.4436971E-01
  1.000E+01  3.572E-01  2.340E-01 3.6244483E+00 3.4239268E-01 4.0805441E-01
  9.957E+00  3.765E-01  2.182E-01 3.6103895E+00 3.4123063E-01 4.2789646E-01
  1.000E+01  3.198E-01  2.669E-01 3.6257896E+00 3.6230538E-01 3.9047924E-01
  9.957E+00  3.383E-01  2.502E-01 3.6272876E+00 3.6213511E-01 4.1035615E-01
  1.000E+01  2.841E-01  3.018E-01 3.6270238E+00 3.8131916E-01 3.7193408E-01
  9.957E+00  3.018E-01  2.841E-01 3.6270314E+00 3.8213921E-01 3.9179454E-01
  1.000E+01  2.502E-01  3.383E-01 3.6272802E+00 3.9938508E-01 3.5246475E-01
  9.957E+00  2.669E-01  3.198E-01 3.6257973E+00 4.0119381E-01 3.7225899E-01
  1.000E+01  2.182E-01  3.765E-01 3.6103823E+00 4.1645707E-01 3.3211916E-01
  9.957E+00  2.340E-01  3.572E-01 3.6244563E+00 4.1925184E-01 3.5179984E-01
  1.000E+01  1.881E-01  4.163E-01 3.6204932E+00 4.3249047E-01 3.1094436E-01
  9.957E+00  2.029E-01  3.962E-01 3.6170192E+00 4.3626207E-01 3.3046087E-01
  1.000E+01  1.600E-01  4.575E-01 3.5885151E+00 4.4746470E-01 2.8900968E-01
  9.957E+00  1.738E-01  4.367E-01 3.5955477E+00 4.5219686E-01 3.0830876E-01
  1.000E+01  1.340E-01  5.000E-01 3.5898219E+00 4.6129414E-01 2.6632272E-01
  9.957E+00  1.467E-01  4.786E-01 3.5995459E+00 4.6700623E-01 2.8538325E-01
  1.000E+01  1.101E-01  5.438E-01 3.5550275E+00 4.7399888E-01 2.4301428E-01
  9.957E+00  1.218E-01  5.217E-01 3.5733946E+00 4.8062172E-01 2.6172661E-01
  1.000E+01  8.849E-02  5.887E-01 3.5583878E+00 4.8559576E-01 2.1914496E-01
  9.957E+00  9.903E-02  5.661E-01 3.5557828E+00 4.9312928E-01 2.3751051E-01
  1.000E+01  6.913E-02  6.347E-01 3.5323084E+00 4.9581132E-01 1.9452691E-01
  9.957E+00  7.852E-02  6.116E-01 3.5480039E+00 5.0436248E-01 2.1260895E-01
  1.000E+01  5.207E-02  6.815E-01 3.5032854E+00 5.0479283E-01 1.6947947E-01
  9.957E+00  6.031E-02  6.580E-01 3.5136408E+00 5.1416501E-01 1.8701363E-01
  1.000E+01  3.738E-02  7.292E-01 3.5005846E+00 5.1279086E-01 1.4434404E-01
  9.957E+00  4.443E-02  7.052E-01 3.5028094E+00 5.2289976E-01 1.6124424E-01
  1.000E+01  2.507E-02  7.775E-01 3.4889172E+00 5.1950148E-01 1.1879470E-01
  9.957E+00  3.092E-02  7.532E-01 3.4960995E+00 5.3050773E-01 1.3525984E-01
  1.000E+01  1.519E-02  8.264E-01 3.4705825E+00 5.2468103E-01 9.2639846E-02
  9.957E+00  1.983E-02  8.019E-01 3.4795783E+00 5.3661617E-01 1.0868449E-01
  1.000E+01  7.761E-03  8.757E-01 3.4549383E+00 5.2849480E-01 6.6174771E-02
  9.957E+00  1.117E-02  8.510E-01 3.4617100E+00 5.4120837E-01 8.1604502E-02
  1.000E+01  2.796E-03  9.253E-01 3.4460566E+00 5.3109112E-01 3.9683132E-02
  9.957E+00  4.969E-03  9.004E-01 3.4497513E+00 5.4449250E-01 5.4376644E-02
  1.000E+01  3.108E-04  9.751E-01 3.4426651E+00 5.3243128E-01 1.3226700E-02
  9.957E+00  1.243E-03  9.502E-01 3.4442932E+00 5.4652851E-01 2.7177838E-02
  1.000E+01  3.108E-04  1.025E+00 3.4426652E+00 5.3243152E-01 -1.3218416E-02
  9.957E+00  0.000E+00  1.000E+00 3.4429009E+00 5.4722583E-01 4.1446511E-06
  1.000E+01  2.796E-03  1.075E+00 3.4460570E+00 5.3109184E-01 -3.9674866E-02
  9.957E+00  1.243E-03  1.050E+00 3.4442934E+00 5.4652899E-01 -2.7169558E-02
  1.000E+01  7.761E-03  1.124E+00 3.4549389E+00 5.2849599E-01 -6.6166540E-02
  9.957E+00  4.969E-03  1.100E+00 3.4497518E+00 5.4449347E-01 -5.4368391E-02
  1.000E+01  1.519E-02  1.174E+00 3.4705833E+00 5.2468261E-01 -9.2631668E-02
  9.957E+00  1.117E-02  1.149E+00 3.4617106E+00 5.4120978E-01 -8.1596292E-02
  1.000E+01  2.507E-02  1.223E+00 3.4889183E+00 5.1950341E-01 -1.1878659E-01
  9.957E+00  1.983E-02  1.198E+00 3.4795792E+00 5.3661793E-01 -1.0867634E-01
  1.000E+01  3.738E-02  1.271E+00 3.5005859E+00 5.1279329E-01 -1.4433601E-01
  9.957E+00  3.092E-02  1.247E+00 3.4961006E+00 5.3050989E-01 -1.3525177E-01
  1.000E+01  5.207E-02  1.318E+00 3.5032869E+00 5.0479587E-01 -1.6947155E-01
  9.957E+00  4.443E-02  1.295E+00 3.5028107E+00 5.2290254E-01 -1.6123627E-01
  1.000E+01  6.913E-02  1.365E+00 3.5323100E+00 4.9581456E-01 -1.9451911E-01
  9.957E+00  6.031E-02  1.342E+00 3.5136423E+00 5.1416822E-01 -1.8700577E-01
  1.000E+01  8.849E-02  1.411E+00 3.5583896E+00 4.8559935E-01 -2.1913731E-01
  9.957E+00  7.852E-02  1.388E+00 3.5480056E+00 5.0436584E-01 -2.1260122E-01
  1.000E+01  1.101E-01  1.456E+00 3.5550295E+00 4.7400312E-01 -2.4300679E-01
  9.957E+00  9.903E-02  1.434E+00 3.5557848E+00 4.9313326E-01 -2.3750294E-01
  1.000E+01  1.340E-01  1.500E+00 3.5898241E+00 4.6129851E-01 -2.6631540E-01
  9.957E+00  1.218E-01  1.478E+00 3.5733967E+00 4.8062608E-01 -2.6171921E-01
  1.000E+01  1.600E-01  1.543E+00 3.5885176E+00 4.4746951E-01 -2.8900256E-01
  9.957E+00  1.467E-01  1.521E+00 3.5995482E+00 4.6701080E-01 -2.8537604E-01
  1.000E+01  1.881E-01  1.584E+00 3.6204958E+00 4.3249561E-01 -3.1093745E-01
  9.957E+00  1.738E-01  1.563E+00 3.5955502E+00 4.5220194E-01 -3.0830177E-01
  1.000E+01  2.182E-01  1.623E+00 3.6103852E+00 4.1646252E-01 -3.3211248E-01
  9.957E+00  2.029E-01  1.604E+00 3.6170218E+00 4.3626738E-01 -3.3045410E-01
  1.000E+01  2.502E-01  1.662E+00 3.6272832E+00 3.9939087E-01 -3.5245832E-01
  9.957E+00  2.340E-01  1.643E+00 3.6244591E+00 4.1925754E-01 -3.5179332E-01
  1.000E+01  2.841E-01  1.698E+00 3.6270269E+00 3.8132525E-01 -3.7192792E-01
  9.957E+00  2.669E-01  1.680E+00 3.6258003E+00 4.0119977E-01 -3.7225272E-01
  1.000E+01  3.198E-01  1.733E+00 3.6257928E+00 3.6231177E-01 -3.9047337E-01
  9.957E+00  3.018E-01  1.716E+00 3.6270345E+00 3.8214549E-01 -3.9178855E-01
  1.000E+01  3.572E-01  1.766E+00 3.6244517E+00 3.4239931E-01 -4.0804884E-01
  9.957E+00  3.383E-01  1.750E+00 3.6272909E+00 3.6214164E-01 -4.1035046E-01
  1.000E+01  3.962E-01  1.797E+00 3.6170144E+00 3.2163051E-01 -4.2460445E-01
  9.957E+00  3.765E-01  1.782E+00 3.6103929E+00 3.4123743E-01 -4.2789109E-01
  1.000E+01  4.367E-01  1.826E+00 3.5955429E+00 3.0007049E-01 -4.4011355E-01
  9.957E+00  4.163E-01  1.812E+00 3.6205036E+00 3.1948128E-01 -4.4436466E-01
  1.000E+01  4.786E-01  1.853E+00 3.5995413E+00 2.7775768E-01 -4.5452727E-01
  9.957E+00  4.575E-01  1.840E+00 3.5885254E+00 2.9694450E-01 -4.5975015E-01
  1.000E+01  5.217E-01  1.878E+00 3.5733898E+00 2.5473306E-01 -4.6777892E-01
  9.957E+00  5.000E-01  1.866E+00 3.5898321E+00 2.7363464E-01 -4.7395925E-01
  1.000E+01  5.661E-01  1.901E+00 3.5557779E+00 2.3116377E-01 -4.7995197E-01
  9.957E+00  5.438E-01  1.890E+00 3.5550376E+00 2.4968622E-01 -4.8701279E-01
  1.000E+01  6.116E-01  1.921E+00 3.5479988E+00 2.0692762E-01 -4.9088479E-01
  9.957E+00  5.887E-01  1.912E+00 3.5583976E+00 2.2516163E-01 -4.9892771E-01
  1.000E+01  6.580E-01  1.940E+00 3.5136357E+00 1.8201660E-01 -5.0042566E-01
  9.957E+00  6.347E-01  1.931E+00 3.5323181E+00 1.9986780E-01 -5.0942380E-01
  1.000E+01  7.052E-01  1.956E+00 3.5028046E+00 1.5693623E-01 -5.0892732E-01
  9.957E+00  6.815E-01  1.948E+00 3.5032952E+00 1.7413266E-01 -5.1865225E-01
  1.000E+01  7.532E-01  1.969E+00 3.4960950E+00 1.3164631E-01 -5.1633212E-01
  9.957E+00  7.292E-01  1.963E+00 3.5005943E+00 1.4830690E-01 -5.2686985E-01
  1.000E+01  8.019E-01  1.980E+00 3.4795737E+00 1.0578087E-01 -5.2227733E-01
  9.957E+00  7.775E-01  1.975E+00 3.4889268E+00 1.2205588E-01 -5.3376459E-01
  1.000E+01  8.510E-01  1.989E+00 3.4617050E+00 7.9424142E-02 -5.2674671E-01
  9.957E+00  8.264E-01  1.985E+00 3.4705919E+00 9.5182892E-02 -5.3908628E-01
  1.000E+01  9.004E-01  1.995E+00 3.4497460E+00 5.2923635E-02 -5.2994296E-01
  9.957E+00  8.757E-01  1.992E+00 3.4549475E+00 6.7991299E-02 -5.4300473E-01
  1.000E+01  9.502E-01  1.999E+00 3.4442876E+00 2.6451615E-02 -5.3192450E-01
  9.957E+00  9.253E-01  1.997E+00 3.4460656E+00 4.0772436E-02 -5.4567229E-01
  1.000E+01  1.000E+00  2.000E+00 3.4428951E+00 4.1765234E-06 -5.3260317E-01
  9.957E+00  9.751E-01  2.000E+00 3.4426740E+00 1.3589724E-02 -5.4704921E-01
  1.000E+01  1.050E+00  1.999E+00 3.4442875E+00 -2.6443271E-02 -5.3192496E-01
  9.957E+00  1.025E+00  2.000E+00 3.4426739E+00 -1.3581375E-02 -5.4704944E-01
  1.000E+01  1.100E+00  1.995E+00 3.4497459E+00 -5.2915317E-02 -5.2994387E-01
  9.957E+00  1.075E+00  1.997E+00 3.4460656E+00 -4.0764104E-02 -5.4567297E-01
  1.000E+01  1.149E+00  1.989E+00 3.4617049E+00 -7.9415868E-02 -5.2674806E-01
  9.957E+00  1.124E+00  1.992E+00 3.4549474E+00 -6.7983003E-02 -5.4300586E-01
  1.000E+01  1.198E+00  1.980E+00 3.4795735E+00 -1.0577266E-01 -5.2227912E-01
  9.957E+00  1.174E+00  1.985E+00 3.4705917E+00 -9.5174649E-02 -5.3908786E-01