# TIME = 1.000000
VARIABLES = X, Y, Z, FX, FY, FZ
ZONE N=29232 E=58212 F=FEPOINT ET=TRIANGLE
  0.000E+00  9.502E-01  1.243E-03 3.4478573E+00 2.4407737E-02 4.9101868E-01
  0.000E+00  1.000E+00  0.000E+00 3.4464656E+00 -5.7929720E-06 4.9164464E-01
  4.318E-02  9.751E-01  3.108E-04 3.4462454E+00 1.1847247E-02 4.7728290E-01
  0.000E+00  1.050E+00  1.243E-03 3.4478572E+00 -2.4419310E-02 4.9101806E-01
  4.318E-02  1.025E+00  3.108E-04 3.4462454E+00 -1.1858835E-02 4.7728259E-01
  0.000E+00  1.100E+00  4.969E-03 3.4533144E+00 -4.8855524E-02 4.8918880E-01
  4.318E-02  1.075E+00  2.796E-03 3.4496359E+00 -3.5575014E-02 4.7608120E-01
  0.000E+00  1.149E+00  1.117E-02 3.4652746E+00 -7.3318059E-02 4.8623826E-01
  4.318E-02  1.124E+00  7.761E-03 3.4585179E+00 -5.9322635E-02 4.7375378E-01
  0.000E+00  1.198E+00  1.983E-02 3.4831468E+00 -9.7647909E-02 4.8211250E-01
  4.318E-02  1.174E+00  1.519E-02 3.4741653E+00 -8.3046313E-02 4.7033495E-01
  0.000E+00  1.247E+00  3.092E-02 3.4996674E+00 -1.2152425E-01 4.7662440E-01
  4.318E-02  1.223E+00  2.507E-02 3.4925029E+00 -1.0649183E-01 4.6569173E-01
  0.000E+00  1.295E+00  4.443E-02 3.5063641E+00 -1.4486928E-01 4.6978891E-01
  4.318E-02  1.271E+00  3.738E-02 3.5041637E+00 -1.2939461E-01 4.5967600E-01
  0.000E+00  1.342E+00  6.031E-02 3.5171838E+00 -1.6802089E-01 4.6194095E-01
  4.318E-02  1.318E+00  5.207E-02 3.5068460E+00 -1.5192660E-01 4.5250632E-01
  0.000E+00  1.388E+00  7.852E-02 3.5515598E+00 -1.9101617E-01 4.5313372E-01
  4.318E-02  1.365E+00  6.913E-02 3.5358755E+00 -1.7437990E-01 4.4445498E-01
  0.000E+00  1.434E+00  9.903E-02 3.5593258E+00 -2.1338843E-01 4.4304155E-01
  4.318E-02  1.411E+00  8.849E-02 3.5619602E+00 -1.9644823E-01 4.3529757E-01
  0.000E+00  1.478E+00  1.218E-01 3.5769329E+00 -2.3514512E-01 4.3180454E-01
  4.318E-02  1.456E+00  1.101E-01 3.5585752E+00 -2.1784522E-01 4.2490208E-01
  0.000E+00  1.521E+00  1.467E-01 3.6030930E+00 -2.5639906E-01 4.1957189E-01
  4.318E-02  1.500E+00  1.340E-01 3.5933846E+00 -2.3873918E-01 4.1351298E-01
  0.000E+00  1.563E+00  1.738E-01 3.5990740E+00 -2.7699591E-01 4.0626654E-01
  4.318E-02  1.543E+00  1.600E-01 3.5920596E+00 -2.5907612E-01 4.0111569E-01
  0.000E+00  1.604E+00  2.029E-01 3.6205546E+00 -2.9689786E-01 3.9195005E-01
  4.318E-02  1.584E+00  1.881E-01 3.6240537E+00 -2.7873884E-01 3.8769232E-01
  0.000E+00  1.643E+00  2.340E-01 3.6279886E+00 -3.1606944E-01 3.7666754E-01
  4.318E-02  1.623E+00  2.182E-01 3.6139234E+00 -2.9772048E-01 3.7331967E-01
  0.000E+00  1.680E+00  2.669E-01 3.6293277E+00 -3.3445051E-01 3.6044359E-01
  4.318E-02  1.662E+00  2.502E-01 3.6308302E+00 -3.1595866E-01 3.5801596E-01
  0.000E+00  1.716E+00  3.018E-01 3.6305607E+00 -3.5200176E-01 3.4332427E-01
  4.318E-02  1.698E+00  2.841E-01 3.6305701E+00 -3.3341129E-01 3.4182114E-01
  0.000E+00  1.750E+00  3.383E-01 3.6308211E+00 -3.6867803E-01 3.2535186E-01
  4.318E-02  1.733E+00  3.198E-01 3.6293372E+00 -3.5003539E-01 3.2477663E-01
  0.000E+00  1.782E+00  3.765E-01 3.6139146E+00 -3.8443676E-01 3.0657061E-01
  4.318E-02  1.766E+00  3.572E-01 3.6279984E+00 -3.6579008E-01 3.0692640E-01
  0.000E+00  1.812E+00  4.163E-01 3.6240452E+00 -3.9923679E-01 2.8702393E-01
  4.318E-02  1.797E+00  3.962E-01 3.6205646E+00 -3.8063059E-01 2.8830858E-01
  0.000E+00  1.840E+00  4.575E-01 3.5920514E+00 -4.1305908E-01 2.6677585E-01
  4.318E-02  1.826E+00  4.367E-01 3.5990842E+00 -3.9453302E-01 2.6898157E-01
  0.000E+00  1.866E+00  5.000E-01 3.5933765E+00 -4.2582451E-01 2.4583333E-01
  4.318E-02  1.853E+00  4.786E-01 3.6031032E+00 -4.0745308E-01 2.4897954E-01
  0.000E+00  1.890E+00  5.438E-01 3.5585674E+00 -4.3755202E-01 2.2431717E-01
  4.318E-02  1.878E+00  5.217E-01 3.5769433E+00 -4.1933166E-01 2.2833948E-01
  0.000E+00  1.912E+00  5.887E-01 3.5619528E+00 -4.4825641E-01 2.0228329E-01
  4.318E-02  1.901E+00  5.661E-01 3.5593365E+00 -4.3024350E-01 2.0721140E-01
  0.000E+00  1.931E+00  6.347E-01 3.5358682E+00 -4.5768594E-01 1.7955824E-01
  4.318E-02  1.921E+00  6.116E-01 3.5515708E+00 -4.4004361E-01 1.8548571E-01
  0.000E+00  1.948E+00  6.815E-01 3.5068388E+00 -4.6597645E-01 1.5643685E-01
  4.318E-02  1.940E+00  6.580E-01 3.5171949E+00 -4.4859598E-01 1.6315477E-01
  0.000E+00  1.963E+00  7.292E-01 3.5041567E+00 -4.7335878E-01 1.3323431E-01
  4.318E-02  1.956E+00  7.052E-01 3.5063750E+00 -4.5621634E-01 1.4067172E-01
  0.000E+00  1.975E+00  7.775E-01 3.4924961E+00 -4.7955281E-01 1.0964971E-01
  4.318E-02  1.969E+00  7.532E-01 3.4996782E+00 -4.6285337E-01 1.1800088E-01
  0.000E+00  1.985E+00  8.264E-01 3.4741588E+00 -4.8433361E-01 8.5506130E-02
  4.318E-02  1.980E+00  8.019E-01 3.4831577E+00 -4.6818223E-01 9.4814376E-02
  0.000E+00  1.992E+00  8.757E-01 3.4585116E+00 -4.8785362E-01 6.1076206E-02
  4.318E-02  1.989E+00  8.510E-01 3.4652858E+00 -4.7218826E-01 7.1187680E-02
  0.000E+00  1.997E+00  9.253E-01 3.4496298E+00 -4.9024974E-01 3.6621801E-02
  4.318E-02  1.995E+00  9.004E-01 3.4533261E+00 -4.7505305E-01 4.7432183E-02
  0.000E+00  2.000E+00  9.751E-01 3.4462395E+00 -4.9148630E-01 1.2199926E-02
  4.318E-02  1.999E+00  9.502E-01 3.4478693E+00 -4.7682891E-01 2.3702201E-02
  0.000E+00  2.000E+00  1.025E+00 3.4462397E+00 -4.9148598E-01 -1.2211479E-02
  4.318E-02  2.000E+00  1.000E+00 3.4464779E+00 -4.7743680E-01 -5.7682623E-06
  0.000E+00  1.997E+00  1.075E+00 3.4496305E+00 -4.9024877E-01 -3.6633329E-02
  4.318E-02  1.999E+00  1.050E+00 3.4478697E+00 -4.7682827E-01 -2.3713726E-02
  0.000E+00  1.992E+00  1.124E+00 3.4585127E+00 -4.8785202E-01 -6.1087685E-02
  4.318E-02  1.995E+00  1.100E+00 3.4533270E+00 -4.7505176E-01 -4.7443672E-02
  0.000E+00  1.985E+00  1.174E+00 3.4741603E+00 -4.8433144E-01 -8.5517535E-02
  4.318E-02  1.989E+00  1.149E+00 3.4652871E+00 -4.7218637E-01 -7.1199109E-02
  0.000E+00  1.975E+00  1.223E+00 3.4924980E+00 -4.7955013E-01 -1.0966102E-01
  4.318E-02  1.980E+00  1.198E+00 3.4831594E+00 -4.6817982E-01 -9.4825720E-02
  0.000E+00  1.963E+00  1.271E+00 3.5041590E+00 -4.7335545E-01 -1.3324550E-01
  4.318E-02  1.969E+00  1.247E+00 3.4996803E+00 -4.6285039E-01 -1.1801212E-01
  0.000E+00  1.948E+00  1.318E+00 3.5068415E+00 -4.6597236E-01 -1.5644790E-01
  4.318E-02  1.956E+00  1.295E+00 3.5063775E+00 -4.5621262E-01 -1.4068282E-01
  0.000E+00  1.931E+00  1.365E+00 3.5358712E+00 -4.5768148E-01 -1.7956912E-01
  4.318E-02  1.940E+00  1.342E+00 3.5171979E+00 -4.4859166E-01 -1.6316571E-01
  0.000E+00  1.912E+00  1.411E+00 3.5619562E+00 -4.4825144E-01 -2.0229397E-01
  4.318E-02  1.921E+00  1.388E+00 3.5515742E+00 -4.4003898E-01 -1.8549647E-01
  0.000E+00  1.890E+00  1.456E+00 3.5585712E+00 -4.3754627E-01 -2.2432762E-01
  4.318E-02  1.901E+00  1.434E+00 3.5593402E+00 -4.3023812E-01 -2.0722195E-01
  0.000E+00  1.866E+00  1.500E+00 3.5933806E+00 -4.2581847E-01 -2.4584354E-01
  4.318E-02  1.878E+00  1.478E+00 3.5769473E+00 -4.1932576E-01 -2.2834980E-01
  0.000E+00  1.840E+00  1.543E+00 3.5920558E+00 -4.1305246E-01 -2.6678578E-01
  4.318E-02  1.853E+00  1.521E+00 3.6031076E+00 -4.0744682E-01 -2.4898960E-01
  0.000E+00  1.812E+00  1.584E+00 3.6240501E+00 -3.9922969E-01 -2.8703356E-01
  4.318E-02  1.826E+00  1.563E+00 3.5990889E+00 -3.9452614E-01 -2.6899135E-01
  0.000E+00  1.782E+00  1.623E+00 3.6139197E+00 -3.8442922E-01 -3.0657991E-01
  4.318E-02  1.797E+00  1.604E+00 3.6205696E+00 -3.8062334E-01 -2.8831804E-01
  0.000E+00  1.750E+00  1.662E+00 3.6308265E+00 -3.6867003E-01 -3.2536081E-01
  4.318E-02  1.766E+00  1.643E+00 3.6280037E+00 -3.6578234E-01 -3.0693553E-01
  0.000E+00  1.716E+00  1.698E+00 3.6305665E+00 -3.5199337E-01 -3.4333285E-01
  4.318E-02  1.733E+00  1.680E+00 3.6293428E+00 -3.5002726E-01 -3.2478541E-01
  0.000E+00  1.680E+00  1.733E+00 3.6293337E+00 -3.3444173E-01 -3.6045177E-01
  4.318E-02  1.698E+00  1.716E+00 3.6305759E+00 -3.3340273E-01 -3.4182953E-01
  0.000E+00  1.643E+00  1.766E+00 3.6279949E+00 -3.1606032E-01 -3.7667530E-01
  4.318E-02  1.662E+00  1.750E+00 3.6308362E+00 -3.1594973E-01 -3.5802394E-01
  0.000E+00  1.604E+00  1.797E+00 3.6205611E+00 -2.9688840E-01 -3.9195736E-01
  4.318E-02  1.623E+00  1.782E+00 3.6139297E+00 -2.9771118E-01 -3.7332722E-01
  0.000E+00  1.563E+00  1.826E+00 3.5990806E+00 -2.7698608E-01 -4.0627337E-01
  4.318E-02  1.584E+00  1.812E+00 3.6240602E+00 -2.7872924E-01 -3.8769942E-01
  0.000E+00  1.521E+00  1.853E+00 3.6030997E+00 -2.5638888E-01 -4.1957821E-01
  4.318E-02  1.543E+00  1.840E+00 3.5920663E+00 -2.5906625E-01 -4.0112233E-01
  0.000E+00  1.478E+00  1.878E+00 3.5769398E+00 -2.3513479E-01 -4.3181038E-01
  4.318E-02  1.500E+00  1.866E+00 3.5933915E+00 -2.3872907E-01 -4.1351912E-01
  0.000E+00  1.434E+00  1.901E+00 3.5593330E+00 -2.1337812E-01 -4.4304694E-01
  4.318E-02  1.456E+00  1.890E+00 3.5585823E+00 -2.1783472E-01 -4.2490765E-01
  0.000E+00  1.388E+00  1.921E+00 3.5515673E+00 -1.9100577E-01 -4.5313860E-01
  4.318E-02  1.411E+00  1.912E+00 3.5619673E+00 -1.9643736E-01 -4.3530255E-01
  0.000E+00  1.342E+00  1.940E+00 3.5171914E+00 -1.6800993E-01 -4.6194519E-01
  4.318E-02  1.365E+00  1.931E+00 3.5358825E+00 -1.7436889E-01 -4.4445943E-01
  0.000E+00  1.295E+00  1.956E+00 3.5063716E+00 -1.4485755E-01 -4.6979240E-01
  4.318E-02  1.318E+00  1.948E+00 3.5068532E+00 -1.5191575E-01 -4.5251030E-01
  0.000E+00  1.247E+00  1.969E+00 3.4996748E+00 -1.2151206E-01 -4.7662715E-01
  4.318E-02  1.271E+00  1.963E+00 3.5041712E+00 -1.2938396E-01 -4.5967951E-01
  0.000E+00  1.198E+00  1.980E+00 3.4831542E+00 -9.7635799E-02 -4.8211460E-01
  4.318E-02  1.223E+00  1.975E+00 3.4925106E+00 -1.0648110E-01 -4.6569470E-01
  0.000E+00  1.149E+00  1.989E+00 3.4652822E+00 -7.3306303E-02 -4.8623976E-01
  4.318E-02  1.174E+00  1.985E+00 3.4741732E+00 -8.3035267E-02 -4.7033732E-01
  0.000E+00  1.100E+00  1.995E+00 3.4533222E+00 -4.8844033E-02 -4.8918971E-01
  4.318E-02  1.124E+00  1.992E+00 3.4585257E+00 -5.9311248E-02 -4.7375552E-01
  0.000E+00  1.050E+00  1.999E+00 3.4478651E+00 -2.4407857E-02 -4.9101836E-01
  4.318E-02  1.075E+00  1.997E+00 3.4496436E+00 -3.5563438E-02 -4.7608231E-01
  0.000E+00  1.000E+00  2.000E+00 3.4464736E+00 5.7715559E-06 -4.9164433E-01
  4.318E-02  1.025E+00  2.000E+00 3.4462530E+00 -1.1847241E-02 -4.7728307E-01
  0.000E+00  9.502E-01  1.999E+00 3.4478652E+00 2.4419388E-02 -4.9101774E-01
  4.318E-02  9.751E-01  2.000E+00 3.4462530E+00 1.1858776E-02 -4.7728276E-01
  0.000E+00  9.004E-01  1.995E+00 3.4533224E+00 4.8855527E-02 -4.8918846E-01
  4.318E-02  9.253E-01  1.997E+00 3.4496437E+00 3.5574948E-02 -4.7608138E-01
  0.000E+00  8.510E-01  1.989E+00 3.4652824E+00 7.3317737E-02 -4.8623790E-01
  4.318E-02  8.757E-01  1.992E+00 3.4585259E+00 5.9322709E-02 -4.7375397E-01
  0.000E+00  8.019E-01  1.980E+00 3.4831546E+00 9.7647147E-02 -4.8211213E-01
  4.318E-02  8.264E-01  1.985E+00 3.4741735E+00 8.3046654E-02 -4.7033515E-01
  0.000E+00  7.532E-01  1.969E+00 3.4996753E+00 1.2152330E-01 -4.7662408E-01
  4.318E-02  7.775E-01  1.975E+00 3.4925111E+00 1.0649239E-01 -4.6569192E-01
  0.000E+00  7.052E-01  1.956E+00 3.5063721E+00 1.4486865E-01 -4.6978874E-01
  4.318E-02  7.292E-01  1.963E+00 3.5041717E+00 1.2939513E-01 -4.5967614E-01
  0.000E+00  6.580E-01  1.940E+00 3.5171920E+00 1.6802088E-01 -4.6194095E-01
  4.318E-02  6.815E-01  1.948E+00 3.5068538E+00 1.5192678E-01 -4.5250635E-01
  0.000E+00  6.116E-01  1.921E+00 3.5515680E+00 1.9101653E-01 -4.5313381E-01
  4.318E-02  6.347E-01  1.931E+00 3.5358832E+00 1.7437974E-01 -4.4445490E-01
  0.000E+00  5.661E-01  1.901E+00 3.5593338E+00 2.1338868E-01 -4.4304159E-01
  4.318E-02  5.887E-01  1.912E+00 3.5619680E+00 1.9644802E-01 -4.3529747E-01
  0.000E+00  5.217E-01  1.878E+00 3.5769407E+00 2.3514511E-01 -4.3180450E-01
  4.318E-02  5.438E-01  1.890E+00 3.5585831E+00 2.1784516E-01 -4.2490203E-01
  0.000E+00  4.786E-01  1.853E+00 3.6031007E+00 2.5639894E-01 -4.1957182E-01
  4.318E-02  5.000E-01  1.866E+00 3.5933924E+00 2.3873925E-01 -4.1351298E-01
  0.000E+00  4.367E-01  1.826E+00 3.5990816E+00 2.7699586E-01 -4.0626650E-01
  4.318E-02  4.575E-01  1.840E+00 3.5920673E+00 2.5907618E-01 -4.0111569E-01
  0.000E+00  3.962E-01  1.797E+00 3.6205621E+00 2.9689786E-01 -3.9195002E-01
  4.318E-02  4.163E-01  1.812E+00 3.6240612E+00 2.7873885E-01 -3.8769231E-01
  0.000E+00  3.572E-01  1.766E+00 3.6279960E+00 3.1606945E-01 -3.7666751E-01
  4.318E-02  3.765E-01  1.782E+00 3.6139308E+00 2.9772048E-01 -3.7331965E-01
  0.000E+00  3.198E-01  1.733E+00 3.6293349E+00 3.3445051E-01 -3.6044356E-01
  4.318E-02  3.383E-01  1.750E+00 3.6308374E+00 3.1595867E-01 -3.5801594E-01
  0.000E+00  2.841E-01  1.698E+00 3.6305677E+00 3.5200174E-01 -3.4332424E-01
  4.318E-02  3.018E-01  1.716E+00 3.6305771E+00 3.3341131E-01 -3.4182112E-01
  0.000E+00  2.502E-01  1.662E+00 3.6308278E+00 3.6867801E-01 -3.2535183E-01
  4.318E-02  2.669E-01  1.680E+00 3.6293441E+00 3.5003542E-01 -3.2477661E-01
  0.000E+00  2.182E-01  1.623E+00 3.6139211E+00 3.8443674E-01 -3.0657058E-01
  4.318E-02  2.340E-01  1.643E+00 3.6280050E+00 3.6579011E-01 -3.0692637E-01
  0.000E+00  1.881E-01  1.584E+00 3.6240515E+00 3.9923678E-01 -2.8702391E-01
  4.318E-02  2.029E-01  1.604E+00 3.6205710E+00 3.8063061E-01 -2.8830855E-01
  0.000E+00  1.600E-01  1.543E+00 3.5920573E+00 4.1305908E-01 -2.6677583E-01
  4.318E-02  1.738E-01  1.563E+00 3.5990903E+00 3.9453303E-01 -2.6898154E-01
  0.000E+00  1.340E-01  1.500E+00 3.5933821E+00 4.2582451E-01 -2.4583331E-01
  4.318E-02  1.467E-01  1.521E+00 3.6031091E+00 4.0745310E-01 -2.4897950E-01
  0.000E+00  1.101E-01  1.456E+00 3.5585727E+00 4.3755201E-01 -2.2431715E-01
  4.318E-02  1.218E-01  1.478E+00 3.5769488E+00 4.1933166E-01 -2.2833945E-01
  0.000E+00  8.849E-02  1.411E+00 3.5619577E+00 4.4825640E-01 -2.0228328E-01
  4.318E-02  9.903E-02  1.434E+00 3.5593417E+00 4.3024350E-01 -2.0721137E-01
  0.000E+00  6.913E-02  1.365E+00 3.5358728E+00 4.5768594E-01 -1.7955823E-01
  4.318E-02  7.852E-02  1.388E+00 3.5515757E+00 4.4004361E-01 -1.8548568E-01
  0.000E+00  5.207E-02  1.318E+00 3.5068431E+00 4.6597645E-01 -1.5643684E-01
  4.318E-02  6.031E-02  1.342E+00 3.5171994E+00 4.4859598E-01 -1.6315473E-01
  0.000E+00  3.738E-02  1.271E+00 3.5041606E+00 4.7335878E-01 -1.3323430E-01
  4.318E-02  4.443E-02  1.295E+00 3.5063792E+00 4.5621634E-01 -1.4067169E-01
  0.000E+00  2.507E-02  1.223E+00 3.4924996E+00 4.7955280E-01 -1.0964969E-01
  4.318E-02  3.092E-02  1.247E+00 3.4996819E+00 4.6285336E-01 -1.1800086E-01
  0.000E+00  1.519E-02  1.174E+00 3.4741619E+00 4.8433359E-01 -8.5506117E-02
  4.318E-02  1.983E-02  1.198E+00 3.4831610E+00 4.6818222E-01 -9.4814347E-02
  0.000E+00  7.761E-03  1.124E+00 3.4585143E+00 4.8785360E-01 -6.1076194E-02
  4.318E-02  1.117E-02  1.149E+00 3.4652888E+00 4.7218825E-01 -7.1187651E-02
  0.000E+00  2.796E-03  1.075E+00 3.4496322E+00 4.9024973E-01 -3.6621790E-02
  4.318E-02  4.969E-03  1.100E+00 3.4533286E+00 4.7505303E-01 -4.7432154E-02
  0.000E+00  3.108E-04  1.025E+00 3.4462414E+00 4.9148628E-01 -1.2199917E-02
  4.318E-02  1.243E-03  1.050E+00 3.4478714E+00 4.7682889E-01 -2.3702172E-02
  0.000E+00  3.108E-04  9.751E-01 3.4462412E+00 4.9148595E-01 1.2211488E-02
  4.318E-02  0.000E+00  1.000E+00 3.4464796E+00 4.7743677E-01 5.7964894E-06
  0.000E+00  2.796E-03  9.253E-01 3.4496315E+00 4.9024875E-01 3.6633337E-02
  4.318E-02  1.243E-03  9.502E-01 3.4478709E+00 4.7682824E-01 2.3713753E-02
  0.000E+00  7.761E-03  8.757E-01 3.4585133E+00 4.8785199E-01 6.1087692E-02
  4.318E-02  4.969E-03  9.004E-01 3.4533278E+00 4.7505173E-01 4.7443698E-02
  0.000E+00  1.519E-02  8.264E-01 3.4741604E+00 4.8433141E-01 8.5517542E-02
  4.318E-02  1.117E-02  8.510E-01 3.4652875E+00 4.7218634E-01 7.1199133E-02
  0.000E+00  2.507E-02  7.775E-01 3.4924978E+00 4.7955010E-01 1.0966102E-01
  4.318E-02  1.983E-02  8.019E-01 3.4831593E+00 4.6817978E-01 9.4825742E-02
  0.000E+00  3.738E-02  7.292E-01 3.5041583E+00 4.7335541E-01 1.3324550E-01
  4.318E-02  3.092E-02  7.532E-01 3.4996798E+00 4.6285035E-01 1.1801214E-01
  0.000E+00  5.207E-02  6.815E-01 3.5068404E+00 4.6597232E-01 1.5644790E-01
  4.318E-02  4.443E-02  7.052E-01 3.5063766E+00 4.5621257E-01 1.4068284E-01
  0.000E+00  6.913E-02  6.347E-01 3.5358698E+00 4.5768144E-01 1.7956912E-01
  4.318E-02  6.031E-02  6.580E-01 3.5171965E+00 4.4859162E-01 1.6316573E-01
  0.000E+00  8.849E-02  5.887E-01 3.5619543E+00 4.4825140E-01 2.0229397E-01
  4.318E-02  7.852E-02  6.116E-01 3.5515724E+00 4.4003892E-01 1.8549649E-01
  0.000E+00  1.101E-01  5.438E-01 3.5585689E+00 4.3754623E-01 2.2432762E-01
  4.318E-02  9.903E-02  5.661E-01 3.5593380E+00 4.3023807E-01 2.0722197E-01
  0.000E+00  1.340E-01  5.000E-01 3.5933780E+00 4.2581844E-01 2.4584354E-01
  4.318E-02  1.218E-01  5.217E-01 3.5769448E+00 4.1932570E-01 2.2834982E-01
  0.000E+00  1.600E-01  4.575E-01 3.5920528E+00 4.1305242E-01 2.6678578E-01
  4.318E-02  1.467E-01  4.786E-01 3.6031047E+00 4.0744676E-01 2.4898961E-01
  0.000E+00  1.881E-01  4.163E-01 3.6240466E+00 3.9922967E-01 2.8703357E-01
  4.318E-02  1.738E-01  4.367E-01 3.5990856E+00 3.9452607E-01 2.6899136E-01
  0.000E+00  2.182E-01  3.765E-01 3.6139159E+00 3.8442919E-01 3.0657992E-01
  4.318E-02  2.029E-01  3.962E-01 3.6205660E+00 3.8062327E-01 2.8831806E-01
  0.000E+00  2.502E-01  3.383E-01 3.6308224E+00 3.6867001E-01 3.2536083E-01
  4.318E-02  2.340E-01  3.572E-01 3.6279997E+00 3.6578226E-01 3.0693554E-01
  0.000E+00  2.841E-01  3.018E-01 3.6305620E+00 3.5199335E-01 3.4333286E-01
  4.318E-02  2.669E-01  3.198E-01 3.6293385E+00 3.5002718E-01 3.2478541E-01
  0.000E+00  3.198E-01  2.669E-01 3.6293289E+00 3.3444170E-01 3.6045179E-01
  4.318E-02  3.018E-01  2.841E-01 3.6305713E+00 3.3340266E-01 3.4182953E-01
  0.000E+00  3.572E-01  2.340E-01 3.6279898E+00 3.1606027E-01 3.7667531E-01
  4.318E-02  3.383E-01  2.502E-01 3.6308313E+00 3.1594967E-01 3.5802395E-01
  0.000E+00  3.962E-01  2.029E-01 3.6205557E+00 2.9688835E-01 3.9195737E-01
  4.318E-02  3.765E-01  2.182E-01 3.6139245E+00 2.9771113E-01 3.7332723E-01
  0.000E+00  4.367E-01  1.738E-01 3.5990750E+00 2.7698609E-01 4.0627340E-01
  4.318E-02  4.163E-01  1.881E-01 3.6240547E+00 2.7872917E-01 3.8769942E-01
  0.000E+00  4.786E-01  1.467E-01 3.6030939E+00 2.5638895E-01 4.1957826E-01
  4.318E-02  4.575E-01  1.600E-01 3.5920605E+00 2.5906615E-01 4.0112231E-01
  0.000E+00  5.217E-01  1.218E-01 3.5769338E+00 2.3513476E-01 4.3181040E-01
  4.318E-02  5.000E-01  1.340E-01 3.5933855E+00 2.3872895E-01 4.1351911E-01
  0.000E+00  5.661E-01  9.903E-02 3.5593266E+00 2.1337783E-01 4.4304688E-01
  4.318E-02  5.438E-01  1.101E-01 3.5585760E+00 2.1783473E-01 4.2490768E-01
  0.000E+00  6.116E-01  7.852E-02 3.5515605E+00 1.9100536E-01 4.5313850E-01
  4.318E-02  5.887E-01  8.849E-02 3.5619609E+00 1.9643752E-01 4.3530264E-01
  0.000E+00  6.580E-01  6.031E-02 3.5171844E+00 1.6800989E-01 4.6194518E-01
  4.318E-02  6.347E-01  6.913E-02 3.5358761E+00 1.7436899E-01 4.4445949E-01
  0.000E+00  7.052E-01  4.443E-02 3.5063646E+00 1.4485813E-01 4.6979256E-01
  4.318E-02  6.815E-01  5.207E-02 3.5068466E+00 1.5191552E-01 4.5251027E-01
  0.000E+00  7.532E-01  3.092E-02 3.4996679E+00 1.2151297E-01 4.7662746E-01
  4.318E-02  7.292E-01  3.738E-02 3.5041642E+00 1.2938339E-01 4.5967937E-01
  0.000E+00  8.019E-01  1.983E-02 3.4831472E+00 9.7636519E-02 4.8211497E-01
  4.318E-02  7.775E-01  2.507E-02 3.4925033E+00 1.0648048E-01 4.6569449E-01
  0.000E+00  8.510E-01  1.117E-02 3.4652748E+00 7.3306583E-02 4.8624011E-01
  4.318E-02  8.264E-01  1.519E-02 3.4741656E+00 8.3034872E-02 4.7033711E-01
  0.000E+00  9.004E-01  4.969E-03 3.4533146E+00 4.8843987E-02 4.8919004E-01
  4.318E-02  8.757E-01  7.761E-03 3.4585181E+00 5.9311120E-02 4.7375533E-01
  4.318E-02  9.253E-01  2.796E-03 3.4496361E+00 3.5563450E-02 4.7608213E-01
  1.000E+01  1.050E+00  1.243E-03 3.4478572E+00 -2.4419310E-02 4.9101806E-01
  1.000E+01  1.000E+00  5.551E-16 3.4464656E+00 -5.7929720E-06 4.9164464E-01
  9.957E+00  1.025E+00  3.108E-04 3.4462439E+00 -1.2565135E-02 5.0572715E-01
  1.000E+01  9.502E-01  1.243E-03 3.4478573E+00 2.4407737E-02 4.9101868E-01
  9.957E+00  9.751E-01  3.108E-04 3.4462440E+00 1.2553557E-02 5.0572746E-01
  1.000E+01  9.004E-01  4.969E-03 3.4533146E+00 4.8843987E-02 4.8919004E-01
  9.957E+00  9.253E-01  2.796E-03 3.4496346E+00 3.7683009E-02 5.0445506E-01
  1.000E+01  8.510E-01  1.117E-02 3.4652748E+00 7.3306583E-02 4.8624011E-01
  9.957E+00  8.757E-01  7.761E-03 3.4585167E+00 6.2845912E-02 5.0198951E-01
  1.000E+01  8.019E-01  1.983E-02 3.4831472E+00 9.7636519E-02 4.8211497E-01
  9.957E+00  8.264E-01  1.519E-02 3.4741643E+00 8.7983637E-02 4.9836757E-01
  1.000E+01  7.532E-01  3.092E-02 3.4996679E+00 1.2151297E-01 4.7662746E-01
  9.957E+00  7.775E-01  2.507E-02 3.4925019E+00 1.1282683E-01 4.9344837E-01
  1.000E+01  7.052E-01  4.443E-02 3.5063646E+00 1.4485813E-01 4.6979256E-01
  9.957E+00  7.292E-01  3.738E-02 3.5041628E+00 1.3709501E-01 4.8707490E-01
  1.000E+01  6.580E-01  6.031E-02 3.5171844E+00 1.6800989E-01 4.6194518E-01
  9.957E+00  6.815E-01  5.207E-02 3.5068451E+00 1.6097006E-01 4.7947848E-01
  1.000E+01  6.116E-01  7.852E-02 3.5515605E+00 1.9100536E-01 4.5313850E-01
  9.957E+00  6.347E-01  6.913E-02 3.5358746E+00 1.8476143E-01 4.7094761E-01
  1.000E+01  5.661E-01  9.903E-02 3.5593266E+00 2.1337783E-01 4.4304688E-01
  9.957E+00  5.887E-01  8.849E-02 3.5619595E+00 2.0814485E-01 4.6124483E-01
  1.000E+01  5.217E-01  1.218E-01 3.5769338E+00 2.3513476E-01 4.3181040E-01
  9.957E+00  5.438E-01  1.101E-01 3.5585746E+00 2.3081710E-01 4.5023034E-01
  1.000E+01  4.786E-01  1.467E-01 3.6030939E+00 2.5638895E-01 4.1957826E-01
  9.957E+00  5.000E-01  1.340E-01 3.5933840E+00 2.5295678E-01 4.3816326E-01
  1.000E+01  4.367E-01  1.738E-01 3.5990750E+00 2.7698609E-01 4.0627340E-01
  9.957E+00  4.575E-01  1.600E-01 3.5920592E+00 2.7450612E-01 4.2502788E-01
  1.000E+01  3.962E-01  2.029E-01 3.6205557E+00 2.9688835E-01 3.9195737E-01
  9.957E+00  4.163E-01  1.881E-01 3.6240533E+00 2.9534080E-01 4.1080494E-01
  1.000E+01  3.572E-01  2.340E-01 3.6279898E+00 3.1606027E-01 3.7667531E-01
  9.957E+00  3.765E-01  2.182E-01 3.6139231E+00 3.1545383E-01 3.9557609E-01
  1.000E+01  3.198E-01  2.669E-01 3.6293289E+00 3.3444170E-01 3.6045179E-01
  9.957E+00  3.383E-01  2.502E-01 3.6308299E+00 3.3477931E-01 3.7936078E-01
  1.000E+01  2.841E-01  3.018E-01 3.6305620E+00 3.5199335E-01 3.4333286E-01
  9.957E+00  3.018E-01  2.841E-01 3.6305699E+00 3.5327245E-01 3.6220130E-01
  1.000E+01  2.502E-01  3.383E-01 3.6308224E+00 3.6867001E-01 3.2536083E-01
  9.957E+00  2.669E-01  3.198E-01 3.6293371E+00 3.7088780E-01 3.4414146E-01
  1.000E+01  2.182E-01  3.765E-01 3.6139159E+00 3.8442919E-01 3.0657992E-01
  9.957E+00  2.340E-01  3.572E-01 3.6279983E+00 3.8758188E-01 3.2522778E-01
  1.000E+01  1.881E-01  4.163E-01 3.6240466E+00 3.9922967E-01 2.8703357E-01
  9.957E+00  2.029E-01  3.962E-01 3.6205646E+00 4.0330729E-01 3.0550072E-01
  1.000E+01  1.600E-01  4.575E-01 3.5920528E+00 4.1305242E-01 2.6678578E-01
  9.957E+00  1.738E-01  4.367E-01 3.5990842E+00 4.1803851E-01 2.8502195E-01
  1.000E+01  1.340E-01  5.000E-01 3.5933780E+00 4.2581844E-01 2.4584354E-01
  9.957E+00  1.467E-01  4.786E-01 3.6031033E+00 4.3172932E-01 2.6382818E-01
  1.000E+01  1.101E-01  5.438E-01 3.5585689E+00 4.3754623E-01 2.2432762E-01
  9.957E+00  1.218E-01  5.217E-01 3.5769434E+00 4.4431645E-01 2.4195852E-01
  1.000E+01  8.849E-02  5.887E-01 3.5619543E+00 4.4825140E-01 2.0229397E-01
  9.957E+00  9.903E-02  5.661E-01 3.5593366E+00 4.5587934E-01 2.1957167E-01
  1.000E+01  6.913E-02  6.347E-01 3.5358698E+00 4.5768144E-01 1.7956912E-01
  9.957E+00  7.852E-02  6.116E-01 3.5515710E+00 4.6626413E-01 1.9655110E-01
  1.000E+01  5.207E-02  6.815E-01 3.5068404E+00 4.6597232E-01 1.5644790E-01
  9.957E+00  6.031E-02  6.580E-01 3.5171951E+00 4.7532626E-01 1.7288914E-01
  1.000E+01  3.738E-02  7.292E-01 3.5041583E+00 4.7335541E-01 1.3324550E-01
  9.957E+00  4.443E-02  7.052E-01 3.5063752E+00 4.8340133E-01 1.4906630E-01
  1.000E+01  2.507E-02  7.775E-01 3.4924978E+00 4.7955010E-01 1.0966102E-01
  9.957E+00  3.092E-02  7.532E-01 3.4996784E+00 4.9043475E-01 1.2504473E-01
  1.000E+01  1.519E-02  8.264E-01 3.4741604E+00 4.8433141E-01 8.5517542E-02
  9.957E+00  1.983E-02  8.019E-01 3.4831579E+00 4.9608190E-01 1.0047681E-01
  1.000E+01  7.761E-03  8.757E-01 3.4585133E+00 4.8785199E-01 6.1087692E-02
  9.957E+00  1.117E-02  8.510E-01 3.4652861E+00 5.0032731E-01 7.5442341E-02
  1.000E+01  2.796E-03  9.253E-01 3.4496315E+00 4.9024875E-01 3.6633337E-02
  9.957E+00  4.969E-03  9.004E-01 3.4533264E+00 5.0336346E-01 5.0271172E-02
  1.000E+01  3.108E-04  9.751E-01 3.4462412E+00 4.9148595E-01 1.2211488E-02
  9.957E+00  1.243E-03  9.502E-01 3.4478695E+00 5.0524579E-01 2.5126866E-02
  1.000E+01  3.108E-04  1.025E+00 3.4462414E+00 4.9148628E-01 -1.2199917E-02
  9.957E+00  0.000E+00  1.000E+00 3.4464782E+00 5.0589055E-01 5.7740290E-06
  1.000E+01  2.796E-03  1.075E+00 3.4496322E+00 4.9024973E-01 -3.6621790E-02
  9.957E+00  1.243E-03  1.050E+00 3.4478700E+00 5.0524644E-01 -2.5115330E-02
  1.000E+01  7.761E-03  1.124E+00 3.4585143E+00 4.8785360E-01 -6.1076194E-02
  9.957E+00  4.969E-03  1.100E+00 3.4533272E+00 5.0336477E-01 -5.0259673E-02
  1.000E+01  1.519E-02  1.174E+00 3.4741619E+00 4.8433359E-01 -8.5506117E-02
  9.957E+00  1.117E-02  1.149E+00 3.4652874E+00 5.0032922E-01 -7.5430904E-02
  1.000E+01  2.507E-02  1.223E+00 3.4924996E+00 4.7955280E-01 -1.0964969E-01
  9.957E+00  1.983E-02  1.198E+00 3.4831596E+00 4.9608433E-01 -1.0046546E-01
  1.000E+01  3.738E-02  1.271E+00 3.5041606E+00 4.7335878E-01 -1.3323430E-01
  9.957E+00  3.092E-02  1.247E+00 3.4996805E+00 4.9043776E-01 -1.2503349E-01
  1.000E+01  5.207E-02  1.318E+00 3.5068431E+00 4.6597645E-01 -1.5643684E-01
  9.957E+00  4.443E-02  1.295E+00 3.5063777E+00 4.8340510E-01 -1.4905519E-01
  1.000E+01  6.913E-02  1.365E+00 3.5358728E+00 4.5768594E-01 -1.7955823E-01
  9.957E+00  6.031E-02  1.342E+00 3.5171980E+00 4.7533063E-01 -1.7287818E-01
  1.000E+01  8.849E-02  1.411E+00 3.5619577E+00 4.4825640E-01 -2.0228328E-01
  9.957E+00  7.852E-02  1.388E+00 3.5515743E+00 4.6626881E-01 -1.9654033E-01
  1.000E+01  1.101E-01  1.456E+00 3.5585727E+00 4.3755201E-01 -2.2431715E-01
  9.957E+00  9.903E-02  1.434E+00 3.5593403E+00 4.5588478E-01 -2.1956111E-01
  1.000E+01  1.340E-01  1.500E+00 3.5933821E+00 4.2582451E-01 -2.4583331E-01
  9.957E+00  1.218E-01  1.478E+00 3.5769474E+00 4.4432241E-01 -2.4194820E-01
  1.000E+01  1.600E-01  1.543E+00 3.5920573E+00 4.1305908E-01 -2.6677583E-01
  9.957E+00  1.467E-01  1.521E+00 3.6031077E+00 4.3173565E-01 -2.6381812E-01
  1.000E+01  1.881E-01  1.584E+00 3.6240515E+00 3.9923678E-01 -2.8702391E-01
  9.957E+00  1.738E-01  1.563E+00 3.5990889E+00 4.1804547E-01 -2.8501217E-01
  1.000E+01  2.182E-01  1.623E+00 3.6139211E+00 3.8443674E-01 -3.0657058E-01
  9.957E+00  2.029E-01  1.604E+00 3.6205696E+00 4.0331463E-01 -3.0549126E-01
  1.000E+01  2.502E-01  1.662E+00 3.6308278E+00 3.6867801E-01 -3.2535183E-01
  9.957E+00  2.340E-01  1.643E+00 3.6280036E+00 3.8758972E-01 -3.2521866E-01
  1.000E+01  2.841E-01  1.698E+00 3.6305677E+00 3.5200174E-01 -3.4332424E-01
  9.957E+00  2.669E-01  1.680E+00 3.6293427E+00 3.7089603E-01 -3.4413270E-01
  1.000E+01  3.198E-01  1.733E+00 3.6293349E+00 3.3445051E-01 -3.6044356E-01
  9.957E+00  3.018E-01  1.716E+00 3.6305757E+00 3.5328110E-01 -3.6219293E-01
  1.000E+01  3.572E-01  1.766E+00 3.6279960E+00 3.1606945E-01 -3.7666751E-01
  9.957E+00  3.383E-01  1.750E+00 3.6308360E+00 3.3478831E-01 -3.7935281E-01
  1.000E+01  3.962E-01  1.797E+00 3.6205621E+00 2.9689786E-01 -3.9195002E-01
  9.957E+00  3.765E-01  1.782E+00 3.6139294E+00 3.1546318E-01 -3.9556855E-01
  1.000E+01  4.367E-01  1.826E+00 3.5990816E+00 2.7699586E-01 -4.0626650E-01
  9.957E+00  4.163E-01  1.812E+00 3.6240598E+00 2.9535049E-01 -4.1079787E-01
  1.000E+01  4.786E-01  1.853E+00 3.6031007E+00 2.5639894E-01 -4.1957182E-01
  9.957E+00  4.575E-01  1.840E+00 3.5920659E+00 2.7451616E-01 -4.2502130E-01
  1.000E+01  5.217E-01  1.878E+00 3.5769407E+00 2.3514511E-01 -4.3180450E-01
  9.957E+00  5.000E-01  1.866E+00 3.5933910E+00 2.5296707E-01 -4.3815718E-01
  1.000E+01  5.661E-01  1.901E+00 3.5593338E+00 2.1338868E-01 -4.4304159E-01
  9.957E+00  5.438E-01  1.890E+00 3.5585816E+00 2.3082751E-01 -4.5022475E-01
  1.000E+01  6.116E-01  1.921E+00 3.5515680E+00 1.9101653E-01 -4.5313381E-01
  9.957E+00  5.887E-01  1.912E+00 3.5619666E+00 2.0815530E-01 -4.6123972E-01
  1.000E+01  6.580E-01  1.940E+00 3.5171920E+00 1.6802088E-01 -4.6194095E-01
  9.957E+00  6.347E-01  1.931E+00 3.5358819E+00 1.8477218E-01 -4.7094306E-01
  1.000E+01  7.052E-01  1.956E+00 3.5063721E+00 1.4486865E-01 -4.6978874E-01
  9.957E+00  6.815E-01  1.948E+00 3.5068525E+00 1.6098136E-01 -4.7947459E-01
  1.000E+01  7.532E-01  1.969E+00 3.4996753E+00 1.2152330E-01 -4.7662408E-01
  9.957E+00  7.292E-01  1.963E+00 3.5041704E+00 1.3710679E-01 -4.8707171E-01
  1.000E+01  8.019E-01  1.980E+00 3.4831546E+00 9.7647147E-02 -4.8211213E-01
  9.957E+00  7.775E-01  1.975E+00 3.4925096E+00 1.1283875E-01 -4.9344584E-01
  1.000E+01  8.510E-01  1.989E+00 3.4652824E+00 7.3317737E-02 -4.8623790E-01
  9.957E+00  8.264E-01  1.985E+00 3.4741720E+00 8.7995393E-02 -4.9836566E-01
  1.000E+01  9.004E-01  1.995E+00 3.4533224E+00 4.8855527E-02 -4.8918846E-01
  9.957E+00  8.757E-01  1.992E+00 3.4585244E+00 6.2857467E-02 -5.0198820E-01
  1.000E+01  9.502E-01  1.999E+00 3.4478652E+00 2.4419388E-02 -4.9101774E-01
  9.957E+00  9.253E-01  1.997E+00 3.4496423E+00 3.7694485E-02 -5.0445435E-01
  1.000E+01  1.000E+00  2.000E+00 3.4464736E+00 5.7715559E-06 -4.9164433E-01
  9.957E+00  9.751E-01  2.000E+00 3.4462516E+00 1.2565079E-02 -5.0572737E-01
  1.000E+01  1.050E+00  1.999E+00 3.4478651E+00 -2.4407857E-02 -4.9101836E-01
  9.957E+00  1.025E+00  2.000E+00 3.4462516E+00 -1.2553534E-02 -5.0572768E-01
  1.000E+01  1.100E+00  1.995E+00 3.4533222E+00 -4.8844033E-02 -4.8918971E-01
  9.957E+00  1.075E+00  1.997E+00 3.4496421E+00 -3.7682964E-02 -5.0445529E-01
  1.000E+01  1.149E+00  1.989E+00 3.4652822E+00 -7.3306303E-02 -4.8623976E-01
  9.957E+00  1.124E+00  1.992E+00 3.4585242E+00 -6.2845995E-02 -5.0198975E-01
  1.000E+01  1.198E+00  1.980E+00 3.4831542E+00 -9.7635799E-02 -4.8211460E-01
  9.957E+00  1.174E+00  1.985E+00 3.4741716E+00 -8.7983995E-02 -4.9836783E-01