# TIME = 10.000000
VARIABLES = X, Y, Z, FX, FY, FZ
ZONE N=29232 E=58212 F=FEPOINT ET=TRIANGLE
  0.000E+00  9.502E-01  1.243E-03 3.4384374E+00 4.7017030E-02 9.4563088E-01
  0.000E+00  1.000E+00  0.000E+00 3.4370436E+00 3.3848145E-07 9.4683702E-01
  4.318E-02  9.751E-01  3.108E-04 3.4367619E+00 2.3126200E-02 9.3121103E-01
  0.000E+00  1.050E+00  1.243E-03 3.4384374E+00 -4.7016353E-02 9.4563092E-01
  4.318E-02  1.025E+00  3.108E-04 3.4367619E+00 -2.3125523E-02 9.3121105E-01
  0.000E+00  1.100E+00  4.969E-03 3.4438977E+00 -9.4076737E-02 9.4210863E-01
  4.318E-02  1.075E+00  2.796E-03 3.4401553E+00 -6.9397018E-02 9.2886768E-01
  0.000E+00  1.149E+00  1.117E-02 3.4558548E+00 -1.4118782E-01 9.3642692E-01
  4.318E-02  1.124E+00  7.761E-03 3.4490369E+00 -1.1573004E-01 9.2432735E-01
  0.000E+00  1.198E+00  1.983E-02 3.4737178E+00 -1.8804344E-01 9.2848180E-01
  4.318E-02  1.174E+00  1.519E-02 3.4646761E+00 -1.6201661E-01 9.1765757E-01
  0.000E+00  1.247E+00  3.092E-02 3.4902401E+00 -2.3402581E-01 9.1791276E-01
  4.318E-02  1.223E+00  2.507E-02 3.4830067E+00 -2.0776067E-01 9.0859880E-01
  0.000E+00  1.295E+00  4.443E-02 3.4969708E+00 -2.7898512E-01 9.0474899E-01
  4.318E-02  1.271E+00  3.738E-02 3.4946852E+00 -2.5244579E-01 8.9686208E-01
  0.000E+00  1.342E+00  6.031E-02 3.5078207E+00 -3.2357194E-01 8.8963599E-01
  4.318E-02  1.318E+00  5.207E-02 3.4974166E+00 -2.9640723E-01 8.8287418E-01
  0.000E+00  1.388E+00  7.852E-02 3.5421629E+00 -3.6785759E-01 8.7267479E-01
  4.318E-02  1.365E+00  6.913E-02 3.5264293E+00 -3.4021490E-01 8.6716609E-01
  0.000E+00  1.434E+00  9.903E-02 3.5499630E+00 -4.1094353E-01 8.5323866E-01
  4.318E-02  1.411E+00  8.849E-02 3.5525000E+00 -3.8327164E-01 8.4929925E-01
  0.000E+00  1.478E+00  1.218E-01 3.5675837E+00 -4.5284397E-01 8.3159901E-01
  4.318E-02  1.456E+00  1.101E-01 3.5491808E+00 -4.2501886E-01 8.2901754E-01
  0.000E+00  1.521E+00  1.467E-01 3.5937210E+00 -4.9377600E-01 8.0804039E-01
  4.318E-02  1.500E+00  1.340E-01 3.5839516E+00 -4.6578451E-01 8.0679723E-01
  0.000E+00  1.563E+00  1.738E-01 3.5897563E+00 -5.3344295E-01 7.8241696E-01
  4.318E-02  1.543E+00  1.600E-01 3.5826744E+00 -5.0546367E-01 7.8260953E-01
  0.000E+00  1.604E+00  2.029E-01 3.6112132E+00 -5.7177138E-01 7.5484547E-01
  4.318E-02  1.584E+00  1.881E-01 3.6146275E+00 -5.4382712E-01 7.5642037E-01
  0.000E+00  1.643E+00  2.340E-01 3.6186564E+00 -6.0869376E-01 7.2541440E-01
  4.318E-02  1.623E+00  2.182E-01 3.6045483E+00 -5.8086168E-01 7.2837824E-01
  0.000E+00  1.680E+00  2.669E-01 3.6200002E+00 -6.4409293E-01 6.9416911E-01
  4.318E-02  1.662E+00  2.502E-01 3.6214327E+00 -6.1644596E-01 6.9852030E-01
  0.000E+00  1.716E+00  3.018E-01 3.6212368E+00 -6.7789480E-01 6.6120065E-01
  4.318E-02  1.698E+00  2.841E-01 3.6211826E+00 -6.5049785E-01 6.6692348E-01
  0.000E+00  1.750E+00  3.383E-01 3.6214867E+00 -7.1001136E-01 6.2658839E-01
  4.318E-02  1.733E+00  3.198E-01 3.6199459E+00 -6.8293263E-01 6.3366861E-01
  0.000E+00  1.782E+00  3.765E-01 3.6046019E+00 -7.4036048E-01 5.9041869E-01
  4.318E-02  1.766E+00  3.572E-01 3.6186017E+00 -7.1367205E-01 5.9884228E-01
  0.000E+00  1.812E+00  4.163E-01 3.6146816E+00 -7.6886434E-01 5.5277511E-01
  4.318E-02  1.797E+00  3.962E-01 3.6111584E+00 -7.4262696E-01 5.6251767E-01
  0.000E+00  1.840E+00  4.575E-01 3.5827278E+00 -7.9548407E-01 5.1378047E-01
  4.318E-02  1.826E+00  4.367E-01 3.5897015E+00 -7.6975226E-01 5.2480968E-01
  0.000E+00  1.866E+00  5.000E-01 3.5840051E+00 -8.2006937E-01 4.7344829E-01
  4.318E-02  1.853E+00  4.786E-01 3.5936655E+00 -7.9496049E-01 4.8578459E-01
  0.000E+00  1.890E+00  5.438E-01 3.5492336E+00 -8.4265532E-01 4.3201179E-01
  4.318E-02  1.878E+00  5.217E-01 3.5675281E+00 -8.1813760E-01 4.4551497E-01
  0.000E+00  1.912E+00  5.887E-01 3.5525533E+00 -8.6327090E-01 3.8957785E-01
  4.318E-02  1.901E+00  5.661E-01 3.5499074E+00 -8.3942741E-01 4.0429293E-01
  0.000E+00  1.931E+00  6.347E-01 3.5264822E+00 -8.8143207E-01 3.4581295E-01
  4.318E-02  1.921E+00  6.116E-01 3.5421069E+00 -8.5854897E-01 3.6190467E-01
  0.000E+00  1.948E+00  6.815E-01 3.4974689E+00 -8.9739859E-01 3.0128482E-01
  4.318E-02  1.940E+00  6.580E-01 3.5077647E+00 -8.7523591E-01 3.1833569E-01
  0.000E+00  1.963E+00  7.292E-01 3.4947376E+00 -9.1161630E-01 2.5660028E-01
  4.318E-02  1.956E+00  7.052E-01 3.4969141E+00 -8.9010398E-01 2.7447003E-01
  0.000E+00  1.975E+00  7.775E-01 3.4830591E+00 -9.2354605E-01 2.1117987E-01
  4.318E-02  1.969E+00  7.532E-01 3.4901826E+00 -9.0305405E-01 2.3023801E-01
  0.000E+00  1.985E+00  8.264E-01 3.4647283E+00 -9.3275400E-01 1.6468292E-01
  4.318E-02  1.980E+00  8.019E-01 3.4736602E+00 -9.1345190E-01 1.8499985E-01
  0.000E+00  1.992E+00  8.757E-01 3.4490888E+00 -9.3953365E-01 1.1763460E-01
  4.318E-02  1.989E+00  8.510E-01 3.4557974E+00 -9.2126867E-01 1.3890283E-01
  0.000E+00  1.997E+00  9.253E-01 3.4402072E+00 -9.4414881E-01 7.0539231E-02
  4.318E-02  1.995E+00  9.004E-01 3.4438405E+00 -9.2685868E-01 9.2554502E-02
  0.000E+00  2.000E+00  9.751E-01 3.4368137E+00 -9.4653082E-01 2.3506548E-02
  4.318E-02  1.999E+00  9.502E-01 3.4383802E+00 -9.3032410E-01 4.6255937E-02
  0.000E+00  2.000E+00  1.025E+00 3.4368136E+00 -9.4653081E-01 -2.3505987E-02
  4.318E-02  2.000E+00  1.000E+00 3.4369862E+00 -9.3151074E-01 2.7758430E-07
  0.000E+00  1.997E+00  1.075E+00 3.4402067E+00 -9.4414878E-01 -7.0538672E-02
  4.318E-02  1.999E+00  1.050E+00 3.4383799E+00 -9.3032409E-01 -4.6255383E-02
  0.000E+00  1.992E+00  1.124E+00 3.4490881E+00 -9.3953363E-01 -1.1763404E-01
  4.318E-02  1.995E+00  1.100E+00 3.4438399E+00 -9.2685865E-01 -9.2553951E-02
  0.000E+00  1.985E+00  1.174E+00 3.4647273E+00 -9.3275411E-01 -1.6468237E-01
  4.318E-02  1.989E+00  1.149E+00 3.4557966E+00 -9.2126871E-01 -1.3890228E-01
  0.000E+00  1.975E+00  1.223E+00 3.4830578E+00 -9.2354636E-01 -2.1117932E-01
  4.318E-02  1.980E+00  1.198E+00 3.4736590E+00 -9.1345214E-01 -1.8499931E-01
  0.000E+00  1.963E+00  1.271E+00 3.4947360E+00 -9.1161652E-01 -2.5659974E-01
  4.318E-02  1.969E+00  1.247E+00 3.4901812E+00 -9.0305439E-01 -2.3023748E-01
  0.000E+00  1.948E+00  1.318E+00 3.4974670E+00 -8.9739852E-01 -3.0128428E-01
  4.318E-02  1.956E+00  1.295E+00 3.4969124E+00 -8.9010404E-01 -2.7446951E-01
  0.000E+00  1.931E+00  1.365E+00 3.5264800E+00 -8.8143243E-01 -3.4581243E-01
  4.318E-02  1.940E+00  1.342E+00 3.5077628E+00 -8.7523598E-01 -3.1833518E-01
  0.000E+00  1.912E+00  1.411E+00 3.5525508E+00 -8.6327139E-01 -3.8957734E-01
  4.318E-02  1.921E+00  1.388E+00 3.5421047E+00 -8.5854952E-01 -3.6190417E-01
  0.000E+00  1.890E+00  1.456E+00 3.5492308E+00 -8.4265539E-01 -4.3201129E-01
  4.318E-02  1.901E+00  1.434E+00 3.5499049E+00 -8.3942762E-01 -4.0429244E-01
  0.000E+00  1.866E+00  1.500E+00 3.5840020E+00 -8.2006991E-01 -4.7344782E-01
  4.318E-02  1.878E+00  1.478E+00 3.5675254E+00 -8.1813784E-01 -4.4551450E-01
  0.000E+00  1.840E+00  1.543E+00 3.5827245E+00 -7.9548448E-01 -5.1378002E-01
  4.318E-02  1.853E+00  1.521E+00 3.5936626E+00 -7.9496103E-01 -4.8578413E-01
  0.000E+00  1.812E+00  1.584E+00 3.6146781E+00 -7.6886481E-01 -5.5277468E-01
  4.318E-02  1.826E+00  1.563E+00 3.5896984E+00 -7.6975256E-01 -5.2480923E-01
  0.000E+00  1.782E+00  1.623E+00 3.6045983E+00 -7.4036101E-01 -5.9041829E-01
  4.318E-02  1.797E+00  1.604E+00 3.6111551E+00 -7.4262748E-01 -5.6251724E-01
  0.000E+00  1.750E+00  1.662E+00 3.6214829E+00 -7.1001185E-01 -6.2658801E-01
  4.318E-02  1.766E+00  1.643E+00 3.6185981E+00 -7.1367249E-01 -5.9884186E-01
  0.000E+00  1.716E+00  1.698E+00 3.6212328E+00 -6.7789533E-01 -6.6120028E-01
  4.318E-02  1.733E+00  1.680E+00 3.6199421E+00 -6.8293318E-01 -6.3366822E-01
  0.000E+00  1.680E+00  1.733E+00 3.6199962E+00 -6.4409344E-01 -6.9416877E-01
  4.318E-02  1.698E+00  1.716E+00 3.6211786E+00 -6.5049838E-01 -6.6692311E-01
  0.000E+00  1.643E+00  1.766E+00 3.6186522E+00 -6.0869431E-01 -7.2541407E-01
  4.318E-02  1.662E+00  1.750E+00 3.6214285E+00 -6.1644653E-01 -6.9851997E-01
  0.000E+00  1.604E+00  1.797E+00 3.6112089E+00 -5.7177192E-01 -7.5484515E-01
  4.318E-02  1.623E+00  1.782E+00 3.6045439E+00 -5.8086225E-01 -7.2837794E-01
  0.000E+00  1.563E+00  1.826E+00 3.5897518E+00 -5.3344343E-01 -7.8241664E-01
  4.318E-02  1.584E+00  1.812E+00 3.6146230E+00 -5.4382775E-01 -7.5642012E-01
  0.000E+00  1.521E+00  1.853E+00 3.5937164E+00 -4.9377648E-01 -8.0804010E-01
  4.318E-02  1.543E+00  1.840E+00 3.5826698E+00 -5.0546435E-01 -7.8260932E-01
  0.000E+00  1.478E+00  1.878E+00 3.5675789E+00 -4.5284465E-01 -8.3159881E-01
  4.318E-02  1.500E+00  1.866E+00 3.5839469E+00 -4.6578519E-01 -8.0679703E-01
  0.000E+00  1.434E+00  1.901E+00 3.5499583E+00 -4.1094456E-01 -8.5323860E-01
  4.318E-02  1.456E+00  1.890E+00 3.5491759E+00 -4.2501934E-01 -8.2901730E-01
  0.000E+00  1.388E+00  1.921E+00 3.5421582E+00 -3.6785875E-01 -8.7267480E-01
  4.318E-02  1.411E+00  1.912E+00 3.5524950E+00 -3.8327195E-01 -8.4929900E-01
  0.000E+00  1.342E+00  1.940E+00 3.5078157E+00 -3.2357259E-01 -8.8963592E-01
  4.318E-02  1.365E+00  1.931E+00 3.5264241E+00 -3.4021532E-01 -8.6716590E-01
  0.000E+00  1.295E+00  1.956E+00 3.4969655E+00 -2.7898496E-01 -9.0474874E-01
  4.318E-02  1.318E+00  1.948E+00 3.4974114E+00 -2.9640812E-01 -8.8287414E-01
  0.000E+00  1.247E+00  1.969E+00 3.4902346E+00 -2.3402517E-01 -9.1791234E-01
  4.318E-02  1.271E+00  1.963E+00 3.4946801E+00 -2.5244718E-01 -8.9686221E-01
  0.000E+00  1.198E+00  1.980E+00 3.4737124E+00 -1.8804293E-01 -9.2848131E-01
  4.318E-02  1.223E+00  1.975E+00 3.4830017E+00 -2.0776220E-01 -9.0859906E-01
  0.000E+00  1.149E+00  1.989E+00 3.4558496E+00 -1.4118782E-01 -9.3642644E-01
  4.318E-02  1.174E+00  1.985E+00 3.4646710E+00 -1.6201790E-01 -9.1765791E-01
  0.000E+00  1.100E+00  1.995E+00 3.4438926E+00 -9.4077209E-02 -9.4210820E-01
  4.318E-02  1.124E+00  1.992E+00 3.4490317E+00 -1.1573098E-01 -9.2432772E-01
  0.000E+00  1.050E+00  1.999E+00 3.4384323E+00 -4.7017024E-02 -9.4563052E-01
  4.318E-02  1.075E+00  1.997E+00 3.4401500E+00 -6.9397731E-02 -9.2886808E-01
  0.000E+00  1.000E+00  2.000E+00 3.4370384E+00 -3.2433243E-07 -9.4683666E-01
  4.318E-02  1.025E+00  2.000E+00 3.4367565E+00 -2.3126178E-02 -9.3121148E-01
  0.000E+00  9.502E-01  1.999E+00 3.4384322E+00 4.7016375E-02 -9.4563056E-01
  4.318E-02  9.751E-01  2.000E+00 3.4367565E+00 2.3125530E-02 -9.3121150E-01
  0.000E+00  9.004E-01  1.995E+00 3.4438925E+00 9.4076563E-02 -9.4210827E-01
  4.318E-02  9.253E-01  1.997E+00 3.4401499E+00 6.9397084E-02 -9.2886814E-01
  0.000E+00  8.510E-01  1.989E+00 3.4558494E+00 1.4118718E-01 -9.3642655E-01
  4.318E-02  8.757E-01  1.992E+00 3.4490316E+00 1.1573034E-01 -9.2432781E-01
  0.000E+00  8.019E-01  1.980E+00 3.4737122E+00 1.8804229E-01 -9.2848145E-01
  4.318E-02  8.264E-01  1.985E+00 3.4646709E+00 1.6201726E-01 -9.1765803E-01
  0.000E+00  7.532E-01  1.969E+00 3.4902344E+00 2.3402454E-01 -9.1791252E-01
  4.318E-02  7.775E-01  1.975E+00 3.4830015E+00 2.0776156E-01 -9.0859922E-01
  0.000E+00  7.052E-01  1.956E+00 3.4969652E+00 2.7898434E-01 -9.0474895E-01
  4.318E-02  7.292E-01  1.963E+00 3.4946799E+00 2.5244655E-01 -8.9686240E-01
  0.000E+00  6.580E-01  1.940E+00 3.5078154E+00 3.2357198E-01 -8.8963617E-01
  4.318E-02  6.815E-01  1.948E+00 3.4974111E+00 2.9640750E-01 -8.8287436E-01
  0.000E+00  6.116E-01  1.921E+00 3.5421578E+00 3.6785814E-01 -8.7267508E-01
  4.318E-02  6.347E-01  1.931E+00 3.5264238E+00 3.4021471E-01 -8.6716615E-01
  0.000E+00  5.661E-01  1.901E+00 3.5499579E+00 4.1094397E-01 -8.5323891E-01
  4.318E-02  5.887E-01  1.912E+00 3.5524946E+00 3.8327135E-01 -8.4929929E-01
  0.000E+00  5.217E-01  1.878E+00 3.5675785E+00 4.5284407E-01 -8.3159915E-01
  4.318E-02  5.438E-01  1.890E+00 3.5491755E+00 4.2501876E-01 -8.2901762E-01
  0.000E+00  4.786E-01  1.853E+00 3.5937159E+00 4.9377591E-01 -8.0804047E-01
  4.318E-02  5.000E-01  1.866E+00 3.5839464E+00 4.6578461E-01 -8.0679738E-01
  0.000E+00  4.367E-01  1.826E+00 3.5897513E+00 5.3344289E-01 -7.8241703E-01
  4.318E-02  4.575E-01  1.840E+00 3.5826693E+00 5.0546380E-01 -7.8260970E-01
  0.000E+00  3.962E-01  1.797E+00 3.6112083E+00 5.7177139E-01 -7.5484557E-01
  4.318E-02  4.163E-01  1.812E+00 3.6146225E+00 5.4382721E-01 -7.5642052E-01
  0.000E+00  3.572E-01  1.766E+00 3.6186516E+00 6.0869380E-01 -7.2541452E-01
  4.318E-02  3.765E-01  1.782E+00 3.6045434E+00 5.8086174E-01 -7.2837838E-01
  0.000E+00  3.198E-01  1.733E+00 3.6199956E+00 6.4409296E-01 -6.9416924E-01
  4.318E-02  3.383E-01  1.750E+00 3.6214279E+00 6.1644602E-01 -6.9852043E-01
  0.000E+00  2.841E-01  1.698E+00 3.6212322E+00 6.7789484E-01 -6.6120078E-01
  4.318E-02  3.018E-01  1.716E+00 3.6211780E+00 6.5049792E-01 -6.6692359E-01
  0.000E+00  2.502E-01  1.662E+00 3.6214823E+00 7.1001142E-01 -6.2658852E-01
  4.318E-02  2.669E-01  1.680E+00 3.6199415E+00 6.8293269E-01 -6.3366872E-01
  0.000E+00  2.182E-01  1.623E+00 3.6045976E+00 7.4036055E-01 -5.9041882E-01
  4.318E-02  2.340E-01  1.643E+00 3.6185975E+00 7.1367209E-01 -5.9884239E-01
  0.000E+00  1.881E-01  1.584E+00 3.6146774E+00 7.6886442E-01 -5.5277523E-01
  4.318E-02  2.029E-01  1.604E+00 3.6111544E+00 7.4262699E-01 -5.6251778E-01
  0.000E+00  1.600E-01  1.543E+00 3.5827238E+00 7.9548414E-01 -5.1378059E-01
  4.318E-02  1.738E-01  1.563E+00 3.5896977E+00 7.6975230E-01 -5.2480979E-01
  0.000E+00  1.340E-01  1.500E+00 3.5840013E+00 8.2006944E-01 -4.7344840E-01
  4.318E-02  1.467E-01  1.521E+00 3.5936619E+00 7.9496053E-01 -4.8578470E-01
  0.000E+00  1.101E-01  1.456E+00 3.5492301E+00 8.4265538E-01 -4.3201190E-01
  4.318E-02  1.218E-01  1.478E+00 3.5675247E+00 8.1813763E-01 -4.4551509E-01
  0.000E+00  8.849E-02  1.411E+00 3.5525500E+00 8.6327095E-01 -3.8957795E-01
  4.318E-02  9.903E-02  1.434E+00 3.5499042E+00 8.3942745E-01 -4.0429305E-01
  0.000E+00  6.913E-02  1.365E+00 3.5264793E+00 8.8143211E-01 -3.4581305E-01
  4.318E-02  7.852E-02  1.388E+00 3.5421040E+00 8.5854901E-01 -3.6190479E-01
  0.000E+00  5.207E-02  1.318E+00 3.4974662E+00 8.9739862E-01 -3.0128492E-01
  4.318E-02  6.031E-02  1.342E+00 3.5077620E+00 8.7523596E-01 -3.1833581E-01
  0.000E+00  3.738E-02  1.271E+00 3.4947352E+00 9.1161633E-01 -2.5660038E-01
  4.318E-02  4.443E-02  1.295E+00 3.4969116E+00 8.9010403E-01 -2.7447015E-01
  0.000E+00  2.507E-02  1.223E+00 3.4830570E+00 9.2354607E-01 -2.1117997E-01
  4.318E-02  3.092E-02  1.247E+00 3.4901804E+00 9.0305409E-01 -2.3023812E-01
  0.000E+00  1.519E-02  1.174E+00 3.4647265E+00 9.3275402E-01 -1.6468302E-01
  4.318E-02  1.983E-02  1.198E+00 3.4736582E+00 9.1345194E-01 -1.8499996E-01
  0.000E+00  7.761E-03  1.124E+00 3.4490873E+00 9.3953367E-01 -1.1763470E-01
  4.318E-02  1.117E-02  1.149E+00 3.4557957E+00 9.2126871E-01 -1.3890294E-01
  0.000E+00  2.796E-03  1.075E+00 3.4402059E+00 9.4414883E-01 -7.0539333E-02
  4.318E-02  4.969E-03  1.100E+00 3.4438391E+00 9.2685871E-01 -9.2554610E-02
  0.000E+00  3.108E-04  1.025E+00 3.4368128E+00 9.4653084E-01 -2.3506650E-02
  4.318E-02  1.243E-03  1.050E+00 3.4383790E+00 9.3032412E-01 -4.6256045E-02
  0.000E+00  3.108E-04  9.751E-01 3.4368129E+00 9.4653083E-01 2.3505885E-02
  4.318E-02  0.000E+00  1.000E+00 3.4369854E+00 9.3151076E-01 -3.8499133E-07
  0.000E+00  2.796E-03  9.253E-01 3.4402064E+00 9.4414880E-01 7.0538570E-02
  4.318E-02  1.243E-03  9.502E-01 3.4383793E+00 9.3032410E-01 4.6255276E-02
  0.000E+00  7.761E-03  8.757E-01 3.4490880E+00 9.3953365E-01 1.1763394E-01
  4.318E-02  4.969E-03  9.004E-01 3.4438397E+00 9.2685866E-01 9.2553843E-02
  0.000E+00  1.519E-02  8.264E-01 3.4647275E+00 9.3275413E-01 1.6468227E-01
  4.318E-02  1.117E-02  8.510E-01 3.4557966E+00 9.2126872E-01 1.3890217E-01
  0.000E+00  2.507E-02  7.775E-01 3.4830583E+00 9.2354638E-01 2.1117922E-01
  4.318E-02  1.983E-02  8.019E-01 3.4736594E+00 9.1345214E-01 1.8499920E-01
  0.000E+00  3.738E-02  7.292E-01 3.4947368E+00 9.1161653E-01 2.5659964E-01
  4.318E-02  3.092E-02  7.532E-01 3.4901818E+00 9.0305439E-01 2.3023736E-01
  0.000E+00  5.207E-02  6.815E-01 3.4974681E+00 8.9739852E-01 3.0128418E-01
  4.318E-02  4.443E-02  7.052E-01 3.4969133E+00 8.9010404E-01 2.7446940E-01
  0.000E+00  6.913E-02  6.347E-01 3.5264815E+00 8.8143243E-01 3.4581232E-01
  4.318E-02  6.031E-02  6.580E-01 3.5077639E+00 8.7523597E-01 3.1833506E-01
  0.000E+00  8.849E-02  5.887E-01 3.5525525E+00 8.6327138E-01 3.8957724E-01
  4.318E-02  7.852E-02  6.116E-01 3.5421061E+00 8.5854952E-01 3.6190405E-01
  0.000E+00  1.101E-01  5.438E-01 3.5492329E+00 8.4265537E-01 4.3201118E-01
  4.318E-02  9.903E-02  5.661E-01 3.5499066E+00 8.3942762E-01 4.0429232E-01
  0.000E+00  1.340E-01  5.000E-01 3.5840043E+00 8.2006988E-01 4.7344771E-01
  4.318E-02  1.218E-01  5.217E-01 3.5675273E+00 8.1813785E-01 4.4551438E-01
  0.000E+00  1.600E-01  4.575E-01 3.5827271E+00 7.9548444E-01 5.1377990E-01
  4.318E-02  1.467E-01  4.786E-01 3.5936648E+00 7.9496104E-01 4.8578401E-01
  0.000E+00  1.881E-01  4.163E-01 3.6146809E+00 7.6886477E-01 5.5277456E-01
  4.318E-02  1.738E-01  4.367E-01 3.5897008E+00 7.6975257E-01 5.2480911E-01
  0.000E+00  2.182E-01  3.765E-01 3.6046013E+00 7.4036097E-01 5.9041816E-01
  4.318E-02  2.029E-01  3.962E-01 3.6111577E+00 7.4262748E-01 5.6251713E-01
  0.000E+00  2.502E-01  3.383E-01 3.6214861E+00 7.1001182E-01 6.2658788E-01
  4.318E-02  2.340E-01  3.572E-01 3.6186010E+00 7.1367248E-01 5.9884175E-01
  0.000E+00  2.841E-01  3.018E-01 3.6212362E+00 6.7789532E-01 6.6120016E-01
  4.318E-02  2.669E-01  3.198E-01 3.6199452E+00 6.8293316E-01 6.3366811E-01
  0.000E+00  3.198E-01  2.669E-01 3.6199996E+00 6.4409344E-01 6.9416864E-01
  4.318E-02  3.018E-01  2.841E-01 3.6211820E+00 6.5049835E-01 6.6692300E-01
  0.000E+00  3.572E-01  2.340E-01 3.6186558E+00 6.0869431E-01 7.2541395E-01
  4.318E-02  3.383E-01  2.502E-01 3.6214321E+00 6.1644650E-01 6.9851985E-01
  0.000E+00  3.962E-01  2.029E-01 3.6112126E+00 5.7177193E-01 7.5484505E-01
  4.318E-02  3.765E-01  2.182E-01 3.6045478E+00 5.8086222E-01 7.2837781E-01
  0.000E+00  4.367E-01  1.738E-01 3.5897558E+00 5.3344352E-01 7.8241656E-01
  4.318E-02  4.163E-01  1.881E-01 3.6146270E+00 5.4382770E-01 7.5641996E-01
  0.000E+00  4.786E-01  1.467E-01 3.5937206E+00 4.9377660E-01 8.0804002E-01
  4.318E-02  4.575E-01  1.600E-01 3.5826739E+00 5.0546425E-01 7.8260915E-01
  0.000E+00  5.217E-01  1.218E-01 3.5675833E+00 4.5284458E-01 8.3159867E-01
  4.318E-02  5.000E-01  1.340E-01 3.5839511E+00 4.6578512E-01 8.0679688E-01
  0.000E+00  5.661E-01  9.903E-02 3.5499626E+00 4.1094414E-01 8.5323835E-01
  4.318E-02  5.438E-01  1.101E-01 3.5491804E+00 4.2501947E-01 8.2901722E-01
  0.000E+00  6.116E-01  7.852E-02 3.5421626E+00 3.6785823E-01 8.7267451E-01
  4.318E-02  5.887E-01  8.849E-02 3.5524996E+00 3.8327227E-01 8.4929896E-01
  0.000E+00  6.580E-01  6.031E-02 3.5078204E+00 3.2357258E-01 8.8963574E-01
  4.318E-02  6.347E-01  6.913E-02 3.5264290E+00 3.4021554E-01 8.6716583E-01
  0.000E+00  7.052E-01  4.443E-02 3.4969705E+00 2.7898578E-01 9.0474878E-01
  4.318E-02  6.815E-01  5.207E-02 3.4974163E+00 2.9640788E-01 8.8287396E-01
  0.000E+00  7.532E-01  3.092E-02 3.4902398E+00 2.3402647E-01 9.1791258E-01
  4.318E-02  7.292E-01  3.738E-02 3.4946849E+00 2.5244645E-01 8.9686189E-01
  0.000E+00  8.019E-01  1.983E-02 3.4737176E+00 1.8804411E-01 9.2848166E-01
  4.318E-02  7.775E-01  2.507E-02 3.4830065E+00 2.0776134E-01 9.0859864E-01
  0.000E+00  8.510E-01  1.117E-02 3.4558547E+00 1.4118849E-01 9.3642682E-01
  4.318E-02  8.264E-01  1.519E-02 3.4646760E+00 1.6201728E-01 9.1765745E-01
  0.000E+00  9.004E-01  4.969E-03 3.4438977E+00 9.4077412E-02 9.4210856E-01
  4.318E-02  8.757E-01  7.761E-03 3.4490368E+00 1.1573072E-01 9.2432726E-01
  4.318E-02  9.253E-01  2.796E-03 3.4401552E+00 6.9397695E-02 9.2886762E-01
  1.000E+01  1.050E+00  1.243E-03 3.4384374E+00 -4.7016353E-02 9.4563092E-01
  1.000E+01  1.000E+00  5.551E-16 3.4370436E+00 3.3848145E-07 9.4683702E-01
  9.957E+00  1.025E+00  3.108E-04 3.4369120E+00 -2.3888644E-02 9.6194575E-01
  1.000E+01  9.502E-01  1.243E-03 3.4384374E+00 4.7017030E-02 9.4563088E-01
  9.957E+00  9.751E-01  3.108E-04 3.4369119E+00 2.3889321E-02 9.6194573E-01
  1.000E+01  9.004E-01  4.969E-03 3.4438977E+00 9.4077412E-02 9.4210856E-01
  9.957E+00  9.253E-01  2.796E-03 3.4403053E+00 7.1687748E-02 9.5952495E-01
  1.000E+01  8.510E-01  1.117E-02 3.4558547E+00 1.4118849E-01 9.3642682E-01
  9.957E+00  8.757E-01  7.761E-03 3.4491869E+00 1.1954987E-01 9.5483471E-01
  1.000E+01  8.019E-01  1.983E-02 3.4737176E+00 1.8804411E-01 9.2848166E-01
  9.957E+00  8.264E-01  1.519E-02 3.4648263E+00 1.6736422E-01 9.4794481E-01
  1.000E+01  7.532E-01  3.092E-02 3.4902398E+00 2.3402647E-01 9.1791258E-01
  9.957E+00  7.775E-01  2.507E-02 3.4831570E+00 2.1461842E-01 9.3858705E-01
  1.000E+01  7.052E-01  4.443E-02 3.4969705E+00 2.7898578E-01 9.0474878E-01
  9.957E+00  7.292E-01  3.738E-02 3.4948352E+00 2.6077873E-01 9.2646290E-01
  1.000E+01  6.580E-01  6.031E-02 3.5078204E+00 3.2357258E-01 8.8963574E-01
  9.957E+00  6.815E-01  5.207E-02 3.4975657E+00 3.0619117E-01 9.1201332E-01
  1.000E+01  6.116E-01  7.852E-02 3.5421626E+00 3.6785823E-01 8.7267451E-01
  9.957E+00  6.347E-01  6.913E-02 3.5265790E+00 3.5144438E-01 8.9578677E-01
  1.000E+01  5.661E-01  9.903E-02 3.5499626E+00 4.1094414E-01 8.5323835E-01
  9.957E+00  5.887E-01  8.849E-02 3.5526501E+00 3.9592187E-01 8.7732970E-01
  1.000E+01  5.217E-01  1.218E-01 3.5675833E+00 4.5284458E-01 8.3159867E-01
  9.957E+00  5.438E-01  1.101E-01 3.5493297E+00 4.3904683E-01 8.5637852E-01
  1.000E+01  4.786E-01  1.467E-01 3.5937206E+00 4.9377660E-01 8.0804002E-01
  9.957E+00  5.000E-01  1.340E-01 3.5841015E+00 4.8115808E-01 8.3342519E-01
  1.000E+01  4.367E-01  1.738E-01 3.5897558E+00 5.3344352E-01 7.8241656E-01
  9.957E+00  4.575E-01  1.600E-01 3.5828234E+00 5.2214699E-01 8.0843910E-01
  1.000E+01  3.962E-01  2.029E-01 3.6112126E+00 5.7177193E-01 7.5484505E-01
  9.957E+00  4.163E-01  1.881E-01 3.6147776E+00 5.6177649E-01 7.8138584E-01
  1.000E+01  3.572E-01  2.340E-01 3.6186558E+00 6.0869431E-01 7.2541395E-01
  9.957E+00  3.765E-01  2.182E-01 3.6046972E+00 6.0003300E-01 7.5241765E-01
  1.000E+01  3.198E-01  2.669E-01 3.6199996E+00 6.4409344E-01 6.9416864E-01
  9.957E+00  3.383E-01  2.502E-01 3.6215821E+00 6.3679177E-01 7.2157448E-01
  1.000E+01  2.841E-01  3.018E-01 3.6212362E+00 6.7789532E-01 6.6120016E-01
  9.957E+00  3.018E-01  2.841E-01 3.6213319E+00 6.7196766E-01 6.8893484E-01
  1.000E+01  2.502E-01  3.383E-01 3.6214861E+00 7.1001182E-01 6.2658788E-01
  9.957E+00  2.669E-01  3.198E-01 3.6200950E+00 7.0547274E-01 6.5458227E-01
  1.000E+01  2.182E-01  3.765E-01 3.6046013E+00 7.4036097E-01 5.9041816E-01
  9.957E+00  2.340E-01  3.572E-01 3.6187511E+00 7.3722702E-01 6.1860675E-01
  1.000E+01  1.881E-01  4.163E-01 3.6146809E+00 7.6886477E-01 5.5277456E-01
  9.957E+00  2.029E-01  3.962E-01 3.6113076E+00 7.6713736E-01 5.8108300E-01
  1.000E+01  1.600E-01  4.575E-01 3.5827271E+00 7.9548444E-01 5.1377990E-01
  9.957E+00  1.738E-01  4.367E-01 3.5898501E+00 7.9515773E-01 5.4213025E-01
  1.000E+01  1.340E-01  5.000E-01 3.5840043E+00 8.2006988E-01 4.7344771E-01
  9.957E+00  1.467E-01  4.786E-01 3.5938149E+00 8.2119818E-01 5.0181715E-01
  1.000E+01  1.101E-01  5.438E-01 3.5492329E+00 8.4265537E-01 4.3201118E-01
  9.957E+00  1.218E-01  5.217E-01 3.5676771E+00 8.4514052E-01 4.6021870E-01
  1.000E+01  8.849E-02  5.887E-01 3.5525525E+00 8.6327138E-01 3.8957724E-01
  9.957E+00  9.903E-02  5.661E-01 3.5500562E+00 8.6713272E-01 4.1763620E-01
  1.000E+01  6.913E-02  6.347E-01 3.5264815E+00 8.8143243E-01 3.4581232E-01
  9.957E+00  7.852E-02  6.116E-01 3.5422563E+00 8.8688591E-01 3.7384856E-01
  1.000E+01  5.207E-02  6.815E-01 3.4974681E+00 8.9739852E-01 3.0128418E-01
  9.957E+00  6.031E-02  6.580E-01 3.5079131E+00 9.0412291E-01 3.2884128E-01
  1.000E+01  3.738E-02  7.292E-01 3.4947368E+00 9.1161653E-01 2.5659964E-01
  9.957E+00  4.443E-02  7.052E-01 3.4970627E+00 9.1948139E-01 2.8352783E-01
  1.000E+01  2.507E-02  7.775E-01 3.4830583E+00 9.2354638E-01 2.1117922E-01
  9.957E+00  3.092E-02  7.532E-01 3.4903319E+00 9.3285937E-01 2.3783610E-01
  1.000E+01  1.519E-02  8.264E-01 3.4647275E+00 9.3275413E-01 1.6468227E-01
  9.957E+00  1.983E-02  8.019E-01 3.4738094E+00 9.4360056E-01 1.9110509E-01
  1.000E+01  7.761E-03  8.757E-01 3.4490880E+00 9.3953365E-01 1.1763394E-01
  9.957E+00  1.117E-02  8.510E-01 3.4559463E+00 9.5167522E-01 1.4348680E-01
  1.000E+01  2.796E-03  9.253E-01 3.4402064E+00 9.4414880E-01 7.0538570E-02
  9.957E+00  4.969E-03  9.004E-01 3.4439893E+00 9.5744963E-01 9.5608792E-02
  1.000E+01  3.108E-04  9.751E-01 3.4368129E+00 9.4653083E-01 2.3505885E-02
  9.957E+00  1.243E-03  9.502E-01 3.4385289E+00 9.6102939E-01 4.7782084E-02
  1.000E+01  3.108E-04  1.025E+00 3.4368128E+00 9.4653084E-01 -2.3506650E-02
  9.957E+00  0.000E+00  1.000E+00 3.4371350E+00 9.6225519E-01 -3.8198043E-07
  1.000E+01  2.796E-03  1.075E+00 3.4402059E+00 9.4414883E-01 -7.0539333E-02
  9.957E+00  1.243E-03  1.050E+00 3.4385286E+00 9.6102941E-01 -4.7782847E-02
  1.000E+01  7.761E-03  1.124E+00 3.4490873E+00 9.3953367E-01 -1.1763470E-01
  9.957E+00  4.969E-03  1.100E+00 3.4439887E+00 9.5744967E-01 -9.5609554E-02
  1.000E+01  1.519E-02  1.174E+00 3.4647265E+00 9.3275402E-01 -1.6468302E-01
  9.957E+00  1.117E-02  1.149E+00 3.4559455E+00 9.5167521E-01 -1.4348756E-01
  1.000E+01  2.507E-02  1.223E+00 3.4830570E+00 9.2354607E-01 -2.1117997E-01
  9.957E+00  1.983E-02  1.198E+00 3.4738082E+00 9.4360035E-01 -1.9110584E-01
  1.000E+01  3.738E-02  1.271E+00 3.4947352E+00 9.1161633E-01 -2.5660038E-01
  9.957E+00  3.092E-02  1.247E+00 3.4903304E+00 9.3285906E-01 -2.3783685E-01
  1.000E+01  5.207E-02  1.318E+00 3.4974662E+00 8.9739862E-01 -3.0128492E-01
  9.957E+00  4.443E-02  1.295E+00 3.4970611E+00 9.1948139E-01 -2.8352858E-01
  1.000E+01  6.913E-02  1.365E+00 3.5264793E+00 8.8143211E-01 -3.4581305E-01
  9.957E+00  6.031E-02  1.342E+00 3.5079112E+00 9.0412290E-01 -3.2884202E-01
  1.000E+01  8.849E-02  1.411E+00 3.5525500E+00 8.6327095E-01 -3.8957795E-01
  9.957E+00  7.852E-02  1.388E+00 3.5422541E+00 8.8688540E-01 -3.7384929E-01
  1.000E+01  1.101E-01  1.456E+00 3.5492301E+00 8.4265538E-01 -4.3201190E-01
  9.957E+00  9.903E-02  1.434E+00 3.5500538E+00 8.6713256E-01 -4.1763691E-01
  1.000E+01  1.340E-01  1.500E+00 3.5840013E+00 8.2006944E-01 -4.7344840E-01
  9.957E+00  1.218E-01  1.478E+00 3.5676745E+00 8.4514031E-01 -4.6021940E-01
  1.000E+01  1.600E-01  1.543E+00 3.5827238E+00 7.9548414E-01 -5.1378059E-01
  9.957E+00  1.467E-01  1.521E+00 3.5938121E+00 8.2119766E-01 -5.0181783E-01
  1.000E+01  1.881E-01  1.584E+00 3.6146774E+00 7.6886442E-01 -5.5277523E-01
  9.957E+00  1.738E-01  1.563E+00 3.5898470E+00 7.9515746E-01 -5.4213092E-01
  1.000E+01  2.182E-01  1.623E+00 3.6045976E+00 7.4036055E-01 -5.9041882E-01
  9.957E+00  2.029E-01  1.604E+00 3.6113043E+00 7.6713686E-01 -5.8108365E-01
  1.000E+01  2.502E-01  1.662E+00 3.6214823E+00 7.1001142E-01 -6.2658852E-01
  9.957E+00  2.340E-01  1.643E+00 3.6187476E+00 7.3722662E-01 -6.1860738E-01
  1.000E+01  2.841E-01  1.698E+00 3.6212322E+00 6.7789484E-01 -6.6120078E-01
  9.957E+00  2.669E-01  1.680E+00 3.6200912E+00 7.0547226E-01 -6.5458288E-01
  1.000E+01  3.198E-01  1.733E+00 3.6199956E+00 6.4409296E-01 -6.9416924E-01
  9.957E+00  3.018E-01  1.716E+00 3.6213279E+00 6.7196721E-01 -6.8893543E-01
  1.000E+01  3.572E-01  1.766E+00 3.6186516E+00 6.0869380E-01 -7.2541452E-01
  9.957E+00  3.383E-01  1.750E+00 3.6215780E+00 6.3679128E-01 -7.2157506E-01
  1.000E+01  3.962E-01  1.797E+00 3.6112083E+00 5.7177139E-01 -7.5484557E-01
  9.957E+00  3.765E-01  1.782E+00 3.6046928E+00 6.0003251E-01 -7.5241821E-01
  1.000E+01  4.367E-01  1.826E+00 3.5897513E+00 5.3344289E-01 -7.8241703E-01
  9.957E+00  4.163E-01  1.812E+00 3.6147732E+00 5.6177600E-01 -7.8138638E-01
  1.000E+01  4.786E-01  1.853E+00 3.5937159E+00 4.9377591E-01 -8.0804047E-01
  9.957E+00  4.575E-01  1.840E+00 3.5828189E+00 5.2214654E-01 -8.0843964E-01
  1.000E+01  5.217E-01  1.878E+00 3.5675785E+00 4.5284407E-01 -8.3159915E-01
  9.957E+00  5.000E-01  1.866E+00 3.5840968E+00 4.8115755E-01 -8.3342568E-01
  1.000E+01  5.661E-01  1.901E+00 3.5499579E+00 4.1094397E-01 -8.5323891E-01
  9.957E+00  5.438E-01  1.890E+00 3.5493248E+00 4.3904609E-01 -8.5637893E-01
  1.000E+01  6.116E-01  1.921E+00 3.5421578E+00 3.6785814E-01 -8.7267508E-01
  9.957E+00  5.887E-01  1.912E+00 3.5526450E+00 3.9592094E-01 -8.7733001E-01
  1.000E+01  6.580E-01  1.940E+00 3.5078154E+00 3.2357198E-01 -8.8963617E-01
  9.957E+00  6.347E-01  1.931E+00 3.5265741E+00 3.5144358E-01 -8.9578706E-01
  1.000E+01  7.052E-01  1.956E+00 3.4969652E+00 2.7898434E-01 -9.0474895E-01
  9.957E+00  6.815E-01  1.948E+00 3.4975608E+00 3.0619083E-01 -9.1201370E-01
  1.000E+01  7.532E-01  1.969E+00 3.4902344E+00 2.3402454E-01 -9.1791252E-01
  9.957E+00  7.292E-01  1.963E+00 3.4948303E+00 2.6077884E-01 -9.2646340E-01
  1.000E+01  8.019E-01  1.980E+00 3.4737122E+00 1.8804229E-01 -9.2848145E-01
  9.957E+00  7.775E-01  1.975E+00 3.4831520E+00 2.1461861E-01 -9.3858763E-01
  1.000E+01  8.510E-01  1.989E+00 3.4558494E+00 1.4118718E-01 -9.3642655E-01
  9.957E+00  8.264E-01  1.985E+00 3.4648210E+00 1.6736416E-01 -9.4794538E-01
  1.000E+01  9.004E-01  1.995E+00 3.4438925E+00 9.4076563E-02 -9.4210827E-01
  9.957E+00  8.757E-01  1.992E+00 3.4491815E+00 1.1954946E-01 -9.5483525E-01
  1.000E+01  9.502E-01  1.999E+00 3.4384322E+00 4.7016375E-02 -9.4563056E-01
  9.957E+00  9.253E-01  1.997E+00 3.4402999E+00 7.1687128E-02 -9.5952545E-01
  1.000E+01  1.000E+00  2.000E+00 3.4370384E+00 -3.2433243E-07 -9.4683666E-01
  9.957E+00  9.751E-01  2.000E+00 3.4369066E+00 2.3888649E-02 -9.6194619E-01
  1.000E+01  1.050E+00  1.999E+00 3.4384323E+00 -4.7017024E-02 -9.4563052E-01
  9.957E+00  1.025E+00  2.000E+00 3.4369066E+00 -2.3889298E-02 -9.6194617E-01
  1.000E+01  1.100E+00  1.995E+00 3.4438926E+00 -9.4077209E-02 -9.4210820E-01
  9.957E+00  1.075E+00  1.997E+00 3.4402999E+00 -7.1687776E-02 -9.5952539E-01
  1.000E+01  1.149E+00  1.989E+00 3.4558496E+00 -1.4118782E-01 -9.3642644E-01
  9.957E+00  1.124E+00  1.992E+00 3.4491816E+00 -1.1955011E-01 -9.5483517E-01
  1.000E+01  1.198E+00  1.980E+00 3.4737124E+00 -1.8804293E-01 -9.2848131E-01
  9.957E+00  1.174E+00  1.985E+00 3.4648212E+00 -1.6736480E-01 -9.4794526E-01