# TIME = 4.000000
VARIABLES = X, Y, Z, FX, FY, FZ
ZONE N=29232 E=58212 F=FEPOINT ET=TRIANGLE
  0.000E+00  9.502E-01  1.243E-03 3.4417983E+00 3.1354132E-02 6.3057359E-01
  0.000E+00  1.000E+00  0.000E+00 3.4404052E+00 1.7658798E-06 6.3137796E-01
  4.318E-02  9.751E-01  3.108E-04 3.4401878E+00 1.5308141E-02 6.1634061E-01
  0.000E+00  1.050E+00  1.243E-03 3.4417983E+00 -3.1350604E-02 6.3057379E-01
  4.318E-02  1.025E+00  3.108E-04 3.4401878E+00 -1.5304659E-02 6.1634071E-01
  0.000E+00  1.100E+00  4.969E-03 3.4472575E+00 -6.2731914E-02 6.2822511E-01
  4.318E-02  1.075E+00  2.796E-03 3.4435803E+00 -4.5930598E-02 6.1478980E-01
  0.000E+00  1.149E+00  1.117E-02 3.4592156E+00 -9.4146707E-02 6.2443643E-01
  4.318E-02  1.124E+00  7.761E-03 3.4524621E+00 -7.6597355E-02 6.1178479E-01
  0.000E+00  1.198E+00  1.983E-02 3.4770816E+00 -1.2539097E-01 6.1913853E-01
  4.318E-02  1.174E+00  1.519E-02 3.4681044E+00 -1.0723338E-01 6.0737036E-01
  0.000E+00  1.247E+00  3.092E-02 3.4936033E+00 -1.5605320E-01 6.1209117E-01
  4.318E-02  1.223E+00  2.507E-02 3.4864375E+00 -1.3751017E-01 6.0137480E-01
  0.000E+00  1.295E+00  4.443E-02 3.5003221E+00 -1.8603384E-01 6.0331363E-01
  4.318E-02  1.271E+00  3.738E-02 3.4981097E+00 -1.6708584E-01 5.9360683E-01
  0.000E+00  1.342E+00  6.031E-02 3.5111613E+00 -2.1576644E-01 5.9323582E-01
  4.318E-02  1.318E+00  5.207E-02 3.5008233E+00 -1.9618230E-01 5.8434861E-01
  0.000E+00  1.388E+00  7.852E-02 3.5455155E+00 -2.4529796E-01 5.8192594E-01
  4.318E-02  1.365E+00  6.913E-02 3.5298416E+00 -2.2517704E-01 5.7395175E-01
  0.000E+00  1.434E+00  9.903E-02 3.5533037E+00 -2.7402884E-01 5.6896583E-01
  4.318E-02  1.411E+00  8.849E-02 3.5559175E+00 -2.5367501E-01 5.6212668E-01
  0.000E+00  1.478E+00  1.218E-01 3.5709189E+00 -3.0196902E-01 5.5453540E-01
  4.318E-02  1.456E+00  1.101E-01 3.5525750E+00 -2.8130643E-01 5.4870296E-01
  0.000E+00  1.521E+00  1.467E-01 3.5970643E+00 -3.2926372E-01 5.3882638E-01
  4.318E-02  1.500E+00  1.340E-01 3.5873594E+00 -3.0828829E-01 5.3399612E-01
  0.000E+00  1.563E+00  1.738E-01 3.5930804E+00 -3.5571483E-01 5.2173985E-01
  4.318E-02  1.543E+00  1.600E-01 3.5860653E+00 -3.3455067E-01 5.1798729E-01
  0.000E+00  1.604E+00  2.029E-01 3.6145457E+00 -3.8127357E-01 5.0335476E-01
  4.318E-02  1.584E+00  1.881E-01 3.6180325E+00 -3.5994233E-01 5.0065335E-01
  0.000E+00  1.643E+00  2.340E-01 3.6219853E+00 -4.0589431E-01 4.8372906E-01
  4.318E-02  1.623E+00  2.182E-01 3.6079355E+00 -3.8445452E-01 4.8209355E-01
  0.000E+00  1.680E+00  2.669E-01 3.6233279E+00 -4.2949987E-01 4.6289434E-01
  4.318E-02  1.662E+00  2.502E-01 3.6248276E+00 -4.0800672E-01 4.6233141E-01
  0.000E+00  1.716E+00  3.018E-01 3.6245629E+00 -4.5203976E-01 4.4090972E-01
  4.318E-02  1.698E+00  2.841E-01 3.6245739E+00 -4.3054452E-01 4.4141853E-01
  0.000E+00  1.750E+00  3.383E-01 3.6248165E+00 -4.7345604E-01 4.1782956E-01
  4.318E-02  1.733E+00  3.198E-01 3.6233388E+00 -4.5201243E-01 4.1940839E-01
  0.000E+00  1.782E+00  3.765E-01 3.6079244E+00 -4.9369401E-01 3.9371065E-01
  4.318E-02  1.766E+00  3.572E-01 3.6219961E+00 -4.7235762E-01 3.9635772E-01
  0.000E+00  1.812E+00  4.163E-01 3.6180215E+00 -5.1270083E-01 3.6860874E-01
  4.318E-02  1.797E+00  3.962E-01 3.6145565E+00 -4.9152230E-01 3.7231583E-01
  0.000E+00  1.840E+00  4.575E-01 3.5860541E+00 -5.3045204E-01 3.4260606E-01
  4.318E-02  1.826E+00  4.367E-01 3.5930912E+00 -5.0947558E-01 3.4735807E-01
  0.000E+00  1.866E+00  5.000E-01 3.5873480E+00 -5.4684601E-01 3.1571155E-01
  4.318E-02  1.853E+00  4.786E-01 3.5970748E+00 -5.2616034E-01 3.2152863E-01
  0.000E+00  1.890E+00  5.438E-01 3.5525637E+00 -5.6190710E-01 2.8808034E-01
  4.318E-02  1.878E+00  5.217E-01 3.5709292E+00 -5.4150021E-01 2.9487530E-01
  0.000E+00  1.912E+00  5.887E-01 3.5559064E+00 -5.7565426E-01 2.5978423E-01
  4.318E-02  1.901E+00  5.661E-01 3.5533138E+00 -5.5559169E-01 2.6759170E-01
  0.000E+00  1.931E+00  6.347E-01 3.5298304E+00 -5.8776428E-01 2.3060053E-01
  4.318E-02  1.921E+00  6.116E-01 3.5455256E+00 -5.6824748E-01 2.3953630E-01
  0.000E+00  1.948E+00  6.815E-01 3.5008118E+00 -5.9841159E-01 2.0090782E-01
  4.318E-02  1.940E+00  6.580E-01 3.5111714E+00 -5.7929206E-01 2.1069934E-01
  0.000E+00  1.963E+00  7.292E-01 3.4980979E+00 -6.0789253E-01 1.7111082E-01
  4.318E-02  1.956E+00  7.052E-01 3.5003318E+00 -5.8913309E-01 1.8166592E-01
  0.000E+00  1.975E+00  7.775E-01 3.4864256E+00 -6.1584745E-01 1.4082315E-01
  4.318E-02  1.969E+00  7.532E-01 3.4936126E+00 -5.9770428E-01 1.5238998E-01
  0.000E+00  1.985E+00  8.264E-01 3.4680924E+00 -6.2198753E-01 1.0981768E-01
  4.318E-02  1.980E+00  8.019E-01 3.4770908E+00 -6.0458621E-01 1.2244817E-01
  0.000E+00  1.992E+00  8.757E-01 3.4524502E+00 -6.2650850E-01 7.8444458E-02
  4.318E-02  1.989E+00  8.510E-01 3.4592247E+00 -6.0975994E-01 9.1937919E-02
  0.000E+00  1.997E+00  9.253E-01 3.4435684E+00 -6.2958614E-01 4.7039752E-02
  4.318E-02  1.995E+00  9.004E-01 3.4472667E+00 -6.1345990E-01 6.1261272E-02
  0.000E+00  2.000E+00  9.751E-01 3.4401760E+00 -6.3117465E-01 1.5676791E-02
  4.318E-02  1.999E+00  9.502E-01 3.4418075E+00 -6.1575365E-01 3.0617513E-02
  0.000E+00  2.000E+00  1.025E+00 3.4401759E+00 -6.3117473E-01 -1.5672747E-02
  4.318E-02  2.000E+00  1.000E+00 3.4404143E+00 -6.1653914E-01 2.1440859E-06
  0.000E+00  1.997E+00  1.075E+00 3.4435681E+00 -6.2958640E-01 -4.7035715E-02
  4.318E-02  1.999E+00  1.050E+00 3.4418073E+00 -6.1575383E-01 -3.0613229E-02
  0.000E+00  1.992E+00  1.124E+00 3.4524497E+00 -6.2650895E-01 -7.8440438E-02
  4.318E-02  1.995E+00  1.100E+00 3.4472662E+00 -6.1346025E-01 -6.1257001E-02
  0.000E+00  1.985E+00  1.174E+00 3.4680917E+00 -6.2198824E-01 -1.0981369E-01
  4.318E-02  1.989E+00  1.149E+00 3.4592241E+00 -6.0976051E-01 -9.1933668E-02
  0.000E+00  1.975E+00  1.223E+00 3.4864246E+00 -6.1584847E-01 -1.4081919E-01
  4.318E-02  1.980E+00  1.198E+00 3.4770899E+00 -6.0458710E-01 -1.2244395E-01
  0.000E+00  1.963E+00  1.271E+00 3.4980967E+00 -6.0789366E-01 -1.7110689E-01
  4.318E-02  1.969E+00  1.247E+00 3.4936116E+00 -5.9770542E-01 -1.5238579E-01
  0.000E+00  1.948E+00  1.318E+00 3.5008105E+00 -5.9841268E-01 -2.0090394E-01
  4.318E-02  1.956E+00  1.295E+00 3.5003305E+00 -5.8913422E-01 -1.8166177E-01
  0.000E+00  1.931E+00  1.365E+00 3.5298289E+00 -5.8776582E-01 -2.3059670E-01
  4.318E-02  1.940E+00  1.342E+00 3.5111699E+00 -5.7929337E-01 -2.1069525E-01
  0.000E+00  1.912E+00  1.411E+00 3.5559046E+00 -5.7565605E-01 -2.5978046E-01
  4.318E-02  1.921E+00  1.388E+00 3.5455239E+00 -5.6824928E-01 -2.3953227E-01
  0.000E+00  1.890E+00  1.456E+00 3.5525617E+00 -5.6190876E-01 -2.8807664E-01
  4.318E-02  1.901E+00  1.434E+00 3.5533120E+00 -5.5559341E-01 -2.6758774E-01
  0.000E+00  1.866E+00  1.500E+00 3.5873459E+00 -5.4684814E-01 -3.1570794E-01
  4.318E-02  1.878E+00  1.478E+00 3.5709272E+00 -5.4150212E-01 -2.9487142E-01
  0.000E+00  1.840E+00  1.543E+00 3.5860519E+00 -5.3045422E-01 -3.4260253E-01
  4.318E-02  1.853E+00  1.521E+00 3.5970726E+00 -5.2616259E-01 -3.2152484E-01
  0.000E+00  1.812E+00  1.584E+00 3.6180190E+00 -5.1270319E-01 -3.6860532E-01
  4.318E-02  1.826E+00  1.563E+00 3.5930889E+00 -5.0947781E-01 -3.4735437E-01
  0.000E+00  1.782E+00  1.623E+00 3.6079218E+00 -4.9369655E-01 -3.9370733E-01
  4.318E-02  1.797E+00  1.604E+00 3.6145540E+00 -4.9152481E-01 -3.7231223E-01
  0.000E+00  1.750E+00  1.662E+00 3.6248138E+00 -4.7345869E-01 -4.1782636E-01
  4.318E-02  1.766E+00  1.643E+00 3.6219935E+00 -4.7236020E-01 -3.9635423E-01
  0.000E+00  1.716E+00  1.698E+00 3.6245600E+00 -4.5204256E-01 -4.4090664E-01
  4.318E-02  1.733E+00  1.680E+00 3.6233360E+00 -4.5201519E-01 -4.1940501E-01
  0.000E+00  1.680E+00  1.733E+00 3.6233249E+00 -4.2950276E-01 -4.6289138E-01
  4.318E-02  1.698E+00  1.716E+00 3.6245709E+00 -4.3054738E-01 -4.4141527E-01
  0.000E+00  1.643E+00  1.766E+00 3.6219822E+00 -4.0589731E-01 -4.8372623E-01
  4.318E-02  1.662E+00  1.750E+00 3.6248245E+00 -4.0800972E-01 -4.6232829E-01
  0.000E+00  1.604E+00  1.797E+00 3.6145425E+00 -3.8127670E-01 -5.0335208E-01
  4.318E-02  1.623E+00  1.782E+00 3.6079324E+00 -3.8445762E-01 -4.8209057E-01
  0.000E+00  1.563E+00  1.826E+00 3.5930772E+00 -3.5571813E-01 -5.2173734E-01
  4.318E-02  1.584E+00  1.812E+00 3.6180293E+00 -3.5994551E-01 -5.0065051E-01
  0.000E+00  1.521E+00  1.853E+00 3.5970610E+00 -3.2926716E-01 -5.3882405E-01
  4.318E-02  1.543E+00  1.840E+00 3.5860619E+00 -3.3455388E-01 -5.1798459E-01
  0.000E+00  1.478E+00  1.878E+00 3.5709154E+00 -3.0197237E-01 -5.5453318E-01
  4.318E-02  1.500E+00  1.866E+00 3.5873559E+00 -3.0829162E-01 -5.3399359E-01
  0.000E+00  1.434E+00  1.901E+00 3.5533000E+00 -2.7403194E-01 -5.6896369E-01
  4.318E-02  1.456E+00  1.890E+00 3.5525715E+00 -2.8130999E-01 -5.4870065E-01
  0.000E+00  1.388E+00  1.921E+00 3.5455117E+00 -2.4530104E-01 -5.8192395E-01
  4.318E-02  1.411E+00  1.912E+00 3.5559141E+00 -2.5367883E-01 -5.6212460E-01
  0.000E+00  1.342E+00  1.940E+00 3.5111577E+00 -2.1577009E-01 -5.9323412E-01
  4.318E-02  1.365E+00  1.931E+00 3.5298381E+00 -2.2518079E-01 -5.7394981E-01
  0.000E+00  1.295E+00  1.956E+00 3.5003186E+00 -1.8603833E-01 -6.0331232E-01
  4.318E-02  1.318E+00  1.948E+00 3.5008197E+00 -1.9618564E-01 -5.8434674E-01
  0.000E+00  1.247E+00  1.969E+00 3.4935998E+00 -1.5605814E-01 -6.1209024E-01
  4.318E-02  1.271E+00  1.963E+00 3.4981058E+00 -1.6708877E-01 -5.9360502E-01
  0.000E+00  1.198E+00  1.980E+00 3.4770780E+00 -1.2539571E-01 -6.1913787E-01
  4.318E-02  1.223E+00  1.975E+00 3.4864336E+00 -1.3751307E-01 -6.0137309E-01
  0.000E+00  1.149E+00  1.989E+00 3.4592118E+00 -9.4150902E-02 -6.2443597E-01
  4.318E-02  1.174E+00  1.985E+00 3.4681005E+00 -1.0723658E-01 -6.0736883E-01
  0.000E+00  1.100E+00  1.995E+00 3.4472536E+00 -6.2735679E-02 -6.2822482E-01
  4.318E-02  1.124E+00  1.992E+00 3.4524583E+00 -7.6600932E-02 -6.1178346E-01
  0.000E+00  1.050E+00  1.999E+00 3.4417943E+00 -3.1354246E-02 -6.3057369E-01
  4.318E-02  1.075E+00  1.997E+00 3.4435765E+00 -4.5934374E-02 -6.1478869E-01
  0.000E+00  1.000E+00  2.000E+00 3.4404012E+00 -1.9672702E-06 -6.3137805E-01
  4.318E-02  1.025E+00  2.000E+00 3.4401841E+00 -1.5308435E-02 -6.1633980E-01
  0.000E+00  9.502E-01  1.999E+00 3.4417943E+00 3.1350315E-02 -6.3057389E-01
  4.318E-02  9.751E-01  2.000E+00 3.4401841E+00 1.5304452E-02 -6.1633990E-01
  0.000E+00  9.004E-01  1.995E+00 3.4472535E+00 6.2731760E-02 -6.2822522E-01
  4.318E-02  9.253E-01  1.997E+00 3.4435764E+00 4.5930399E-02 -6.1478899E-01
  0.000E+00  8.510E-01  1.989E+00 3.4592117E+00 9.4147003E-02 -6.2443657E-01
  4.318E-02  8.757E-01  1.992E+00 3.4524582E+00 7.6596973E-02 -6.1178396E-01
  0.000E+00  8.019E-01  1.980E+00 3.4770778E+00 1.2539184E-01 -6.1913867E-01
  4.318E-02  8.264E-01  1.985E+00 3.4681003E+00 1.0723265E-01 -6.0736953E-01
  0.000E+00  7.532E-01  1.969E+00 3.4935996E+00 1.5605430E-01 -6.1209123E-01
  4.318E-02  7.775E-01  1.975E+00 3.4864334E+00 1.3750916E-01 -6.0137399E-01
  0.000E+00  7.052E-01  1.956E+00 3.5003184E+00 1.8603453E-01 -6.0331350E-01
  4.318E-02  7.292E-01  1.963E+00 3.4981056E+00 1.6708491E-01 -5.9360610E-01
  0.000E+00  6.580E-01  1.940E+00 3.5111574E+00 2.1576635E-01 -5.9323549E-01
  4.318E-02  6.815E-01  1.948E+00 3.5008195E+00 1.9618182E-01 -5.8434801E-01
  0.000E+00  6.116E-01  1.921E+00 3.5455114E+00 2.4529736E-01 -5.8192550E-01
  4.318E-02  6.347E-01  1.931E+00 3.5298379E+00 2.2517703E-01 -5.7395126E-01
  0.000E+00  5.661E-01  1.901E+00 3.5532997E+00 2.7402833E-01 -5.6896542E-01
  4.318E-02  5.887E-01  1.912E+00 3.5559138E+00 2.5367512E-01 -5.6212623E-01
  0.000E+00  5.217E-01  1.878E+00 3.5709151E+00 3.0196883E-01 -5.5453508E-01
  4.318E-02  5.438E-01  1.890E+00 3.5525712E+00 2.8130637E-01 -5.4870246E-01
  0.000E+00  4.786E-01  1.853E+00 3.5970606E+00 3.2926370E-01 -5.3882611E-01
  4.318E-02  5.000E-01  1.866E+00 3.5873555E+00 3.0828807E-01 -5.3399557E-01
  0.000E+00  4.367E-01  1.826E+00 3.5930768E+00 3.5571477E-01 -5.2173956E-01
  4.318E-02  4.575E-01  1.840E+00 3.5860615E+00 3.3455043E-01 -5.1798673E-01
  0.000E+00  3.962E-01  1.797E+00 3.6145421E+00 3.8127344E-01 -5.0335445E-01
  4.318E-02  4.163E-01  1.812E+00 3.6180289E+00 3.5994214E-01 -5.0065280E-01
  0.000E+00  3.572E-01  1.766E+00 3.6219818E+00 4.0589415E-01 -4.8372874E-01
  4.318E-02  3.765E-01  1.782E+00 3.6079319E+00 3.8445437E-01 -4.8209301E-01
  0.000E+00  3.198E-01  1.733E+00 3.6233244E+00 4.2949973E-01 -4.6289403E-01
  4.318E-02  3.383E-01  1.750E+00 3.6248241E+00 4.0800657E-01 -4.6233087E-01
  0.000E+00  2.841E-01  1.698E+00 3.6245595E+00 4.5203964E-01 -4.4090942E-01
  4.318E-02  3.018E-01  1.716E+00 3.6245705E+00 4.3054437E-01 -4.4141799E-01
  0.000E+00  2.502E-01  1.662E+00 3.6248132E+00 4.7345591E-01 -4.1782926E-01
  4.318E-02  2.669E-01  1.680E+00 3.6233355E+00 4.5201227E-01 -4.1940784E-01
  0.000E+00  2.182E-01  1.623E+00 3.6079213E+00 4.9369389E-01 -3.9371034E-01
  4.318E-02  2.340E-01  1.643E+00 3.6219930E+00 4.7235746E-01 -3.9635718E-01
  0.000E+00  1.881E-01  1.584E+00 3.6180185E+00 5.1270069E-01 -3.6860843E-01
  4.318E-02  2.029E-01  1.604E+00 3.6145535E+00 4.9152213E-01 -3.7231529E-01
  0.000E+00  1.600E-01  1.543E+00 3.5860513E+00 5.3045190E-01 -3.4260574E-01
  4.318E-02  1.738E-01  1.563E+00 3.5930883E+00 5.0947542E-01 -3.4735753E-01
  0.000E+00  1.340E-01  1.500E+00 3.5873453E+00 5.4684587E-01 -3.1571123E-01
  4.318E-02  1.467E-01  1.521E+00 3.5970721E+00 5.2616018E-01 -3.2152809E-01
  0.000E+00  1.101E-01  1.456E+00 3.5525612E+00 5.6190695E-01 -2.8808002E-01
  4.318E-02  1.218E-01  1.478E+00 3.5709266E+00 5.4150005E-01 -2.9487476E-01
  0.000E+00  8.849E-02  1.411E+00 3.5559040E+00 5.7565410E-01 -2.5978391E-01
  4.318E-02  9.903E-02  1.434E+00 3.5533114E+00 5.5559152E-01 -2.6759115E-01
  0.000E+00  6.913E-02  1.365E+00 3.5298283E+00 5.8776412E-01 -2.3060021E-01
  4.318E-02  7.852E-02  1.388E+00 3.5455233E+00 5.6824732E-01 -2.3953575E-01
  0.000E+00  5.207E-02  1.318E+00 3.5008099E+00 5.9841142E-01 -2.0090751E-01
  4.318E-02  6.031E-02  1.342E+00 3.5111693E+00 5.7929189E-01 -2.1069879E-01
  0.000E+00  3.738E-02  1.271E+00 3.4980961E+00 6.0789236E-01 -1.7111050E-01
  4.318E-02  4.443E-02  1.295E+00 3.5003299E+00 5.8913291E-01 -1.8166536E-01
  0.000E+00  2.507E-02  1.223E+00 3.4864240E+00 6.1584727E-01 -1.4082284E-01
  4.318E-02  3.092E-02  1.247E+00 3.4936109E+00 5.9770409E-01 -1.5238943E-01
  0.000E+00  1.519E-02  1.174E+00 3.4680910E+00 6.2198735E-01 -1.0981737E-01
  4.318E-02  1.983E-02  1.198E+00 3.4770893E+00 6.0458600E-01 -1.2244762E-01
  0.000E+00  7.761E-03  1.124E+00 3.4524490E+00 6.2650832E-01 -7.8444146E-02
  4.318E-02  1.117E-02  1.149E+00 3.4592234E+00 6.0975972E-01 -9.1937365E-02
  0.000E+00  2.796E-03  1.075E+00 3.4435675E+00 6.2958596E-01 -4.7039439E-02
  4.318E-02  4.969E-03  1.100E+00 3.4472656E+00 6.1345967E-01 -6.1260718E-02
  0.000E+00  3.108E-04  1.025E+00 3.4401752E+00 6.3117445E-01 -1.5676479E-02
  4.318E-02  1.243E-03  1.050E+00 3.4418066E+00 6.1575342E-01 -3.0616958E-02
  0.000E+00  3.108E-04  9.751E-01 3.4401753E+00 6.3117453E-01 1.5673058E-02
  4.318E-02  0.000E+00  1.000E+00 3.4404137E+00 6.1653890E-01 -1.5889110E-06
  0.000E+00  2.796E-03  9.253E-01 3.4435678E+00 6.2958620E-01 4.7036027E-02
  4.318E-02  1.243E-03  9.502E-01 3.4418068E+00 6.1575357E-01 3.0613784E-02
  0.000E+00  7.761E-03  8.757E-01 3.4524496E+00 6.2650873E-01 7.8440749E-02
  4.318E-02  4.969E-03  9.004E-01 3.4472660E+00 6.1345999E-01 6.1257555E-02
  0.000E+00  1.519E-02  8.264E-01 3.4680918E+00 6.2198802E-01 1.0981400E-01
  4.318E-02  1.117E-02  8.510E-01 3.4592241E+00 6.0976024E-01 9.1934222E-02
  0.000E+00  2.507E-02  7.775E-01 3.4864250E+00 6.1584825E-01 1.4081950E-01
  4.318E-02  1.983E-02  8.019E-01 3.4770901E+00 6.0458681E-01 1.2244450E-01
  0.000E+00  3.738E-02  7.292E-01 3.4980973E+00 6.0789344E-01 1.7110720E-01
  4.318E-02  3.092E-02  7.532E-01 3.4936120E+00 5.9770512E-01 1.5238635E-01
  0.000E+00  5.207E-02  6.815E-01 3.5008112E+00 5.9841246E-01 2.0090425E-01
  4.318E-02  4.443E-02  7.052E-01 3.5003312E+00 5.8913391E-01 1.8166232E-01
  0.000E+00  6.913E-02  6.347E-01 3.5298298E+00 5.8776559E-01 2.3059702E-01
  4.318E-02  6.031E-02  6.580E-01 3.5111707E+00 5.7929305E-01 2.1069579E-01
  0.000E+00  8.849E-02  5.887E-01 3.5559058E+00 5.7565581E-01 2.5978078E-01
  4.318E-02  7.852E-02  6.116E-01 3.5455250E+00 5.6824896E-01 2.3953282E-01
  0.000E+00  1.101E-01  5.438E-01 3.5525631E+00 5.6190852E-01 2.8807696E-01
  4.318E-02  9.903E-02  5.661E-01 3.5533133E+00 5.5559309E-01 2.6758828E-01
  0.000E+00  1.340E-01  5.000E-01 3.5873474E+00 5.4684789E-01 3.1570826E-01
  4.318E-02  1.218E-01  5.217E-01 3.5709286E+00 5.4150179E-01 2.9487196E-01
  0.000E+00  1.600E-01  4.575E-01 3.5860536E+00 5.3045397E-01 3.4260284E-01
  4.318E-02  1.467E-01  4.786E-01 3.5970743E+00 5.2616226E-01 3.2152538E-01
  0.000E+00  1.881E-01  4.163E-01 3.6180209E+00 5.1270292E-01 3.6860563E-01
  4.318E-02  1.738E-01  4.367E-01 3.5930906E+00 5.0947748E-01 3.4735490E-01
  0.000E+00  2.182E-01  3.765E-01 3.6079239E+00 4.9369628E-01 3.9370764E-01
  4.318E-02  2.029E-01  3.962E-01 3.6145560E+00 4.9152448E-01 3.7231277E-01
  0.000E+00  2.502E-01  3.383E-01 3.6248160E+00 4.7345841E-01 4.1782666E-01
  4.318E-02  2.340E-01  3.572E-01 3.6219956E+00 4.7235987E-01 3.9635477E-01
  0.000E+00  2.841E-01  3.018E-01 3.6245624E+00 4.5204229E-01 4.4090694E-01
  4.318E-02  2.669E-01  3.198E-01 3.6233383E+00 4.5201486E-01 4.1940555E-01
  0.000E+00  3.198E-01  2.669E-01 3.6233274E+00 4.2950250E-01 4.6289169E-01
  4.318E-02  3.018E-01  2.841E-01 3.6245734E+00 4.3054704E-01 4.4141582E-01
  0.000E+00  3.572E-01  2.340E-01 3.6219849E+00 4.0589706E-01 4.8372655E-01
  4.318E-02  3.383E-01  2.502E-01 3.6248271E+00 4.0800938E-01 4.6232883E-01
  0.000E+00  3.962E-01  2.029E-01 3.6145453E+00 3.8127643E-01 5.0335239E-01
  4.318E-02  3.765E-01  2.182E-01 3.6079351E+00 3.8445727E-01 4.8209110E-01
  0.000E+00  4.367E-01  1.738E-01 3.5930801E+00 3.5571779E-01 5.2173763E-01
  4.318E-02  4.163E-01  1.881E-01 3.6180321E+00 3.5994520E-01 5.0065105E-01
  0.000E+00  4.786E-01  1.467E-01 3.5970640E+00 3.2926678E-01 5.3882431E-01
  4.318E-02  4.575E-01  1.600E-01 3.5860649E+00 3.3455363E-01 5.1798515E-01
  0.000E+00  5.217E-01  1.218E-01 3.5709186E+00 3.0197215E-01 5.5453349E-01
  4.318E-02  5.000E-01  1.340E-01 3.5873590E+00 3.0829135E-01 5.3399414E-01
  0.000E+00  5.661E-01  9.903E-02 3.5533033E+00 2.7403205E-01 5.6896409E-01
  4.318E-02  5.438E-01  1.101E-01 3.5525747E+00 2.8130955E-01 5.4870116E-01
  0.000E+00  6.116E-01  7.852E-02 3.5455152E+00 2.4530124E-01 5.8192438E-01
  4.318E-02  5.887E-01  8.849E-02 3.5559172E+00 2.5367821E-01 5.6212505E-01
  0.000E+00  6.580E-01  6.031E-02 3.5111611E+00 2.1576978E-01 5.9323445E-01
  4.318E-02  6.347E-01  6.913E-02 3.5298414E+00 2.2518030E-01 5.7395029E-01
  0.000E+00  7.052E-01  4.443E-02 3.5003219E+00 1.8603723E-01 6.0331244E-01
  4.318E-02  6.815E-01  5.207E-02 3.5008231E+00 1.9618562E-01 5.8434734E-01
  0.000E+00  7.532E-01  3.092E-02 3.4936031E+00 1.5605664E-01 6.1209017E-01
  4.318E-02  7.292E-01  3.738E-02 3.4981095E+00 1.6708921E-01 5.9360575E-01
  0.000E+00  8.019E-01  1.983E-02 3.4770815E+00 1.2539444E-01 6.1913773E-01
  4.318E-02  7.775E-01  2.507E-02 3.4864374E+00 1.3751358E-01 6.0137390E-01
  0.000E+00  8.510E-01  1.117E-02 3.4592155E+00 9.4150203E-02 6.2443583E-01
  4.318E-02  8.264E-01  1.519E-02 3.4681043E+00 1.0723681E-01 6.0736966E-01
  0.000E+00  9.004E-01  4.969E-03 3.4472574E+00 6.2735430E-02 6.2822471E-01
  4.318E-02  8.757E-01  7.761E-03 3.4524620E+00 7.6600814E-02 6.1178429E-01
  4.318E-02  9.253E-01  2.796E-03 3.4435802E+00 4.5934072E-02 6.1478950E-01
  1.000E+01  1.050E+00  1.243E-03 3.4417983E+00 -3.1350604E-02 6.3057379E-01
  1.000E+01  1.000E+00  5.551E-16 3.4404052E+00 1.7658798E-06 6.3137796E-01
  9.957E+00  1.025E+00  3.108E-04 3.4401829E+00 -1.6042529E-02 6.4605838E-01
  1.000E+01  9.502E-01  1.243E-03 3.4417983E+00 3.1354132E-02 6.3057359E-01
  9.957E+00  9.751E-01  3.108E-04 3.4401829E+00 1.6046110E-02 6.4605827E-01
  1.000E+01  9.004E-01  4.969E-03 3.4472574E+00 6.2735430E-02 6.2822471E-01
  9.957E+00  9.253E-01  2.796E-03 3.4435753E+00 4.8148544E-02 6.4443233E-01
  1.000E+01  8.510E-01  1.117E-02 3.4592155E+00 9.4150203E-02 6.2443583E-01
  9.957E+00  8.757E-01  7.761E-03 3.4524570E+00 8.0293855E-02 6.4128216E-01
  1.000E+01  8.019E-01  1.983E-02 3.4770815E+00 1.2539444E-01 6.1913773E-01
  9.957E+00  8.264E-01  1.519E-02 3.4680992E+00 1.1240711E-01 6.3665469E-01
  1.000E+01  7.532E-01  3.092E-02 3.4936031E+00 1.5605664E-01 6.1209017E-01
  9.957E+00  7.775E-01  2.507E-02 3.4864324E+00 1.4414402E-01 6.3036996E-01
  1.000E+01  7.052E-01  4.443E-02 3.5003219E+00 1.8603723E-01 6.0331244E-01
  9.957E+00  7.292E-01  3.738E-02 3.4981047E+00 1.7514605E-01 6.2222741E-01
  1.000E+01  6.580E-01  6.031E-02 3.5111611E+00 2.1576978E-01 5.9323445E-01
  9.957E+00  6.815E-01  5.207E-02 3.5008184E+00 2.0564550E-01 6.1252253E-01
  1.000E+01  6.116E-01  7.852E-02 3.5455152E+00 2.4530124E-01 5.8192438E-01
  9.957E+00  6.347E-01  6.913E-02 3.5298366E+00 2.3603796E-01 6.0162391E-01
  1.000E+01  5.661E-01  9.903E-02 3.5533033E+00 2.7403205E-01 5.6896409E-01
  9.957E+00  5.887E-01  8.849E-02 3.5559123E+00 2.6590960E-01 5.8922833E-01
  1.000E+01  5.217E-01  1.218E-01 3.5709186E+00 3.0197215E-01 5.5453349E-01
  9.957E+00  5.438E-01  1.101E-01 3.5525697E+00 2.9487306E-01 5.7515716E-01
  1.000E+01  4.786E-01  1.467E-01 3.5970640E+00 3.2926678E-01 5.3882431E-01
  9.957E+00  5.000E-01  1.340E-01 3.5873541E+00 3.2315607E-01 5.5974125E-01
  1.000E+01  4.367E-01  1.738E-01 3.5930801E+00 3.5571779E-01 5.2173763E-01
  9.957E+00  4.575E-01  1.600E-01 3.5860601E+00 3.5068477E-01 5.4296059E-01
  1.000E+01  3.962E-01  2.029E-01 3.6145453E+00 3.8127643E-01 5.0335239E-01
  9.957E+00  4.163E-01  1.881E-01 3.6180272E+00 3.7730044E-01 5.2479061E-01
  1.000E+01  3.572E-01  2.340E-01 3.6219849E+00 4.0589706E-01 4.8372655E-01
  9.957E+00  3.765E-01  2.182E-01 3.6079302E+00 4.0299423E-01 5.0533567E-01
  1.000E+01  3.198E-01  2.669E-01 3.6233274E+00 4.2950250E-01 4.6289169E-01
  9.957E+00  3.383E-01  2.502E-01 3.6248222E+00 4.2768194E-01 4.8462052E-01
  1.000E+01  2.841E-01  3.018E-01 3.6245624E+00 4.5204229E-01 4.4090694E-01
  9.957E+00  3.018E-01  2.841E-01 3.6245685E+00 4.5130631E-01 4.6269925E-01
  1.000E+01  2.502E-01  3.383E-01 3.6248160E+00 4.7345841E-01 4.1782666E-01
  9.957E+00  2.669E-01  3.198E-01 3.6233334E+00 4.7380931E-01 4.3962778E-01
  1.000E+01  2.182E-01  3.765E-01 3.6079239E+00 4.9369628E-01 3.9370764E-01
  9.957E+00  2.340E-01  3.572E-01 3.6219907E+00 4.9513534E-01 4.1546558E-01
  1.000E+01  1.881E-01  4.163E-01 3.6180209E+00 5.1270292E-01 3.6860563E-01
  9.957E+00  2.029E-01  3.962E-01 3.6145511E+00 5.1522395E-01 3.9026433E-01
  1.000E+01  1.600E-01  4.575E-01 3.5860536E+00 5.3045397E-01 3.4260284E-01
  9.957E+00  1.738E-01  4.367E-01 3.5930857E+00 5.3404247E-01 3.6410282E-01
  1.000E+01  1.340E-01  5.000E-01 3.5873474E+00 5.4684789E-01 3.1570826E-01
  9.957E+00  1.467E-01  4.786E-01 3.5970693E+00 5.5153184E-01 3.3702791E-01
  1.000E+01  1.101E-01  5.438E-01 3.5525631E+00 5.6190852E-01 2.8807696E-01
  9.957E+00  1.218E-01  5.217E-01 3.5709238E+00 5.6761124E-01 3.0908956E-01
  1.000E+01  8.849E-02  5.887E-01 3.5559058E+00 5.7565581E-01 2.5978078E-01
  9.957E+00  9.903E-02  5.661E-01 3.5533084E+00 5.8238220E-01 2.8049052E-01
  1.000E+01  6.913E-02  6.347E-01 3.5298298E+00 5.8776559E-01 2.3059702E-01
  9.957E+00  7.852E-02  6.116E-01 3.5455201E+00 5.9564814E-01 2.5108201E-01
  1.000E+01  5.207E-02  6.815E-01 3.5008112E+00 5.9841246E-01 2.0090425E-01
  9.957E+00  6.031E-02  6.580E-01 3.5111658E+00 6.0722450E-01 2.2085421E-01
  1.000E+01  3.738E-02  7.292E-01 3.4980973E+00 6.0789344E-01 1.7110720E-01
  9.957E+00  4.443E-02  7.052E-01 3.5003262E+00 6.1753980E-01 1.9042082E-01
  1.000E+01  2.507E-02  7.775E-01 3.4864250E+00 6.1584825E-01 1.4081950E-01
  9.957E+00  3.092E-02  7.532E-01 3.4936071E+00 6.2652436E-01 1.5973350E-01
  1.000E+01  1.519E-02  8.264E-01 3.4680918E+00 6.2198802E-01 1.0981400E-01
  9.957E+00  1.983E-02  8.019E-01 3.4770852E+00 6.3373800E-01 1.2834828E-01
  1.000E+01  7.761E-03  8.757E-01 3.4524496E+00 6.2650873E-01 7.8440749E-02
  9.957E+00  1.117E-02  8.510E-01 3.4592192E+00 6.3916096E-01 9.6367114E-02
  1.000E+01  2.796E-03  9.253E-01 3.4435678E+00 6.2958620E-01 4.7036027E-02
  9.957E+00  4.969E-03  9.004E-01 3.4472612E+00 6.4303911E-01 6.4211344E-02
  1.000E+01  3.108E-04  9.751E-01 3.4401753E+00 6.3117453E-01 1.5673058E-02
  9.957E+00  1.243E-03  9.502E-01 3.4418019E+00 6.4544326E-01 3.2089914E-02
  1.000E+01  3.108E-04  1.025E+00 3.4401752E+00 6.3117445E-01 -1.5676479E-02
  9.957E+00  0.000E+00  1.000E+00 3.4404088E+00 6.4626642E-01 -1.8346857E-06
  1.000E+01  2.796E-03  1.075E+00 3.4435675E+00 6.2958596E-01 -4.7039439E-02
  9.957E+00  1.243E-03  1.050E+00 3.4418017E+00 6.4544310E-01 -3.2093579E-02
  1.000E+01  7.761E-03  1.124E+00 3.4524490E+00 6.2650832E-01 -7.8444146E-02
  9.957E+00  4.969E-03  1.100E+00 3.4472607E+00 6.4303880E-01 -6.4214999E-02
  1.000E+01  1.519E-02  1.174E+00 3.4680910E+00 6.2198735E-01 -1.0981737E-01
  9.957E+00  1.117E-02  1.149E+00 3.4592186E+00 6.3916044E-01 -9.6370749E-02
  1.000E+01  2.507E-02  1.223E+00 3.4864240E+00 6.1584727E-01 -1.4082284E-01
  9.957E+00  1.983E-02  1.198E+00 3.4770844E+00 6.3373717E-01 -1.2835189E-01
  1.000E+01  3.738E-02  1.271E+00 3.4980961E+00 6.0789236E-01 -1.7111050E-01
  9.957E+00  3.092E-02  1.247E+00 3.4936060E+00 6.2652331E-01 -1.5973707E-01
  1.000E+01  5.207E-02  1.318E+00 3.5008099E+00 5.9841142E-01 -2.0090751E-01
  9.957E+00  4.443E-02  1.295E+00 3.5003250E+00 6.1753879E-01 -1.9042435E-01
  1.000E+01  6.913E-02  1.365E+00 3.5298283E+00 5.8776412E-01 -2.3060021E-01
  9.957E+00  6.031E-02  1.342E+00 3.5111643E+00 6.0722333E-01 -2.2085769E-01
  1.000E+01  8.849E-02  1.411E+00 3.5559040E+00 5.7565410E-01 -2.5978391E-01
  9.957E+00  7.852E-02  1.388E+00 3.5455184E+00 5.9564648E-01 -2.5108544E-01
  1.000E+01  1.101E-01  1.456E+00 3.5525612E+00 5.6190695E-01 -2.8808002E-01
  9.957E+00  9.903E-02  1.434E+00 3.5533066E+00 5.8238062E-01 -2.8049388E-01
  1.000E+01  1.340E-01  1.500E+00 3.5873453E+00 5.4684587E-01 -3.1571123E-01
  9.957E+00  1.218E-01  1.478E+00 3.5709217E+00 5.6760948E-01 -3.0909284E-01
  1.000E+01  1.600E-01  1.543E+00 3.5860513E+00 5.3045190E-01 -3.4260574E-01
  9.957E+00  1.467E-01  1.521E+00 3.5970671E+00 5.5152974E-01 -3.3703111E-01
  1.000E+01  1.881E-01  1.584E+00 3.6180185E+00 5.1270069E-01 -3.6860843E-01
  9.957E+00  1.738E-01  1.563E+00 3.5930834E+00 5.3404039E-01 -3.6410593E-01
  1.000E+01  2.182E-01  1.623E+00 3.6079213E+00 4.9369389E-01 -3.9371034E-01
  9.957E+00  2.029E-01  1.604E+00 3.6145486E+00 5.1522159E-01 -3.9026733E-01
  1.000E+01  2.502E-01  1.662E+00 3.6248132E+00 4.7345591E-01 -4.1782926E-01
  9.957E+00  2.340E-01  1.643E+00 3.6219881E+00 4.9513291E-01 -4.1546847E-01
  1.000E+01  2.841E-01  1.698E+00 3.6245595E+00 4.5203964E-01 -4.4090942E-01
  9.957E+00  2.669E-01  1.680E+00 3.6233306E+00 4.7380669E-01 -4.3963055E-01
  1.000E+01  3.198E-01  1.733E+00 3.6233244E+00 4.2949973E-01 -4.6289403E-01
  9.957E+00  3.018E-01  1.716E+00 3.6245656E+00 4.5130360E-01 -4.6270190E-01
  1.000E+01  3.572E-01  1.766E+00 3.6219818E+00 4.0589415E-01 -4.8372874E-01
  9.957E+00  3.383E-01  1.750E+00 3.6248192E+00 4.2767910E-01 -4.8462304E-01
  1.000E+01  3.962E-01  1.797E+00 3.6145421E+00 3.8127344E-01 -5.0335445E-01
  9.957E+00  3.765E-01  1.782E+00 3.6079270E+00 4.0299130E-01 -5.0533805E-01
  1.000E+01  4.367E-01  1.826E+00 3.5930768E+00 3.5571477E-01 -5.2173956E-01
  9.957E+00  4.163E-01  1.812E+00 3.6180240E+00 3.7729736E-01 -5.2479284E-01
  1.000E+01  4.786E-01  1.853E+00 3.5970606E+00 3.2926370E-01 -5.3882611E-01
  9.957E+00  4.575E-01  1.840E+00 3.5860567E+00 3.5068155E-01 -5.4296264E-01
  1.000E+01  5.217E-01  1.878E+00 3.5709151E+00 3.0196883E-01 -5.5453508E-01
  9.957E+00  5.000E-01  1.866E+00 3.5873506E+00 3.2315278E-01 -5.5974314E-01
  1.000E+01  5.661E-01  1.901E+00 3.5532997E+00 2.7402833E-01 -5.6896542E-01
  9.957E+00  5.438E-01  1.890E+00 3.5525663E+00 2.9486989E-01 -5.7515894E-01
  1.000E+01  6.116E-01  1.921E+00 3.5455114E+00 2.4529736E-01 -5.8192550E-01
  9.957E+00  5.887E-01  1.912E+00 3.5559088E+00 2.6590649E-01 -5.8922998E-01
  1.000E+01  6.580E-01  1.940E+00 3.5111574E+00 2.1576635E-01 -5.9323549E-01
  9.957E+00  6.347E-01  1.931E+00 3.5298329E+00 2.3603463E-01 -6.0162537E-01
  1.000E+01  7.052E-01  1.956E+00 3.5003184E+00 1.8603453E-01 -6.0331350E-01
  9.957E+00  6.815E-01  1.948E+00 3.5008145E+00 2.0564165E-01 -6.1252369E-01
  1.000E+01  7.532E-01  1.969E+00 3.4935996E+00 1.5605430E-01 -6.1209123E-01
  9.957E+00  7.292E-01  1.963E+00 3.4981007E+00 1.7514173E-01 -6.2222824E-01
  1.000E+01  8.019E-01  1.980E+00 3.4770778E+00 1.2539184E-01 -6.1913867E-01
  9.957E+00  7.775E-01  1.975E+00 3.4864286E+00 1.4413962E-01 -6.3037051E-01
  1.000E+01  8.510E-01  1.989E+00 3.4592117E+00 9.4147003E-02 -6.2443657E-01
  9.957E+00  8.264E-01  1.985E+00 3.4680955E+00 1.1240297E-01 -6.3665503E-01
  1.000E+01  9.004E-01  1.995E+00 3.4472535E+00 6.2731760E-02 -6.2822522E-01
  9.957E+00  8.757E-01  1.992E+00 3.4524533E+00 8.0290027E-02 -6.4128231E-01
  1.000E+01  9.502E-01  1.999E+00 3.4417943E+00 3.1350315E-02 -6.3057389E-01
  9.957E+00  9.253E-01  1.997E+00 3.4435716E+00 4.8144873E-02 -6.4443230E-01
  1.000E+01  1.000E+00  2.000E+00 3.4404012E+00 -1.9672702E-06 -6.3137805E-01
  9.957E+00  9.751E-01  2.000E+00 3.4401791E+00 1.6042420E-02 -6.4605805E-01
  1.000E+01  1.050E+00  1.999E+00 3.4417943E+00 -3.1354246E-02 -6.3057369E-01
  9.957E+00  1.025E+00  2.000E+00 3.4401792E+00 -1.6046305E-02 -6.4605795E-01
  1.000E+01  1.100E+00  1.995E+00 3.4472536E+00 -6.2735679E-02 -6.2822482E-01
  9.957E+00  1.075E+00  1.997E+00 3.4435716E+00 -4.8148750E-02 -6.4443200E-01
  1.000E+01  1.149E+00  1.989E+00 3.4592118E+00 -9.4150902E-02 -6.2443597E-01
  9.957E+00  1.124E+00  1.992E+00 3.4524534E+00 -8.0293888E-02 -6.4128181E-01
  1.000E+01  1.198E+00  1.980E+00 3.4770780E+00 -1.2539571E-01 -6.1913787E-01
  9.957E+00  1.174E+00  1.985E+00 3.4680956E+00 -1.1240681E-01 -6.3665433E-01