# TIME = 8.000000
VARIABLES = X, Y, Z, FX, FY, FZ
ZONE N=29232 E=58212 F=FEPOINT ET=TRIANGLE
  0.000E+00  9.502E-01  1.243E-03 3.4390976E+00 4.1616166E-02 8.3694236E-01
  0.000E+00  1.000E+00  0.000E+00 3.4377040E+00 3.1489623E-06 8.3801002E-01
  4.318E-02  9.751E-01  3.108E-04 3.4374882E+00 2.0431780E-02 8.2259923E-01
  0.000E+00  1.050E+00  1.243E-03 3.4390978E+00 -4.1609874E-02 8.3694269E-01
  4.318E-02  1.025E+00  3.108E-04 3.4374883E+00 -2.0425483E-02 8.2259940E-01
  0.000E+00  1.100E+00  4.969E-03 3.4445580E+00 -8.3261498E-02 8.3382536E-01
  4.318E-02  1.075E+00  2.796E-03 3.4408815E+00 -6.1300232E-02 8.2052948E-01
  0.000E+00  1.149E+00  1.117E-02 3.4565152E+00 -1.2495782E-01 8.2879677E-01
  4.318E-02  1.124E+00  7.761E-03 3.4497632E+00 -1.0222936E-01 8.1651883E-01
  0.000E+00  1.198E+00  1.983E-02 3.4743786E+00 -1.6642784E-01 8.2176500E-01
  4.318E-02  1.174E+00  1.519E-02 3.4654030E+00 -1.4311747E-01 8.1062714E-01
  0.000E+00  1.247E+00  3.092E-02 3.4909006E+00 -2.0712489E-01 8.1241109E-01
  4.318E-02  1.223E+00  2.507E-02 3.4837341E+00 -1.8352632E-01 8.0262522E-01
  0.000E+00  1.295E+00  4.443E-02 3.4976290E+00 -2.4691663E-01 8.0076065E-01
  4.318E-02  1.271E+00  3.738E-02 3.4954114E+00 -2.2299969E-01 7.9225777E-01
  0.000E+00  1.342E+00  6.031E-02 3.5084766E+00 -2.8637903E-01 7.8738450E-01
  4.318E-02  1.318E+00  5.207E-02 3.4981391E+00 -2.6183372E-01 7.7990137E-01
  0.000E+00  1.388E+00  7.852E-02 3.5428208E+00 -3.2557506E-01 7.7237314E-01
  4.318E-02  1.365E+00  6.913E-02 3.5271525E+00 -3.0053191E-01 7.6602523E-01
  0.000E+00  1.434E+00  9.903E-02 3.5506189E+00 -3.6370899E-01 7.5517159E-01
  4.318E-02  1.411E+00  8.849E-02 3.5532241E+00 -3.3856672E-01 7.5024281E-01
  0.000E+00  1.478E+00  1.218E-01 3.5682379E+00 -4.0079349E-01 7.3601859E-01
  4.318E-02  1.456E+00  1.101E-01 3.5499002E+00 -3.7544475E-01 7.3232673E-01
  0.000E+00  1.521E+00  1.467E-01 3.5943766E+00 -4.3702105E-01 7.1516839E-01
  4.318E-02  1.500E+00  1.340E-01 3.5846733E+00 -4.1145598E-01 7.1269813E-01
  0.000E+00  1.563E+00  1.738E-01 3.5904082E+00 -4.7212878E-01 6.9248992E-01
  4.318E-02  1.543E+00  1.600E-01 3.5833928E+00 -4.4650721E-01 6.9133197E-01
  0.000E+00  1.604E+00  2.029E-01 3.6118664E+00 -5.0605208E-01 6.6808780E-01
  4.318E-02  1.584E+00  1.881E-01 3.6153481E+00 -4.8039623E-01 6.6819714E-01
  0.000E+00  1.643E+00  2.340E-01 3.6193084E+00 -5.3873052E-01 6.4203918E-01
  4.318E-02  1.623E+00  2.182E-01 3.6052656E+00 -5.1311151E-01 6.4342625E-01
  0.000E+00  1.680E+00  2.669E-01 3.6206523E+00 -5.7006152E-01 6.1438579E-01
  4.318E-02  1.662E+00  2.502E-01 3.6221510E+00 -5.4454549E-01 6.1705063E-01
  0.000E+00  1.716E+00  3.018E-01 3.6218880E+00 -5.9997816E-01 5.8520627E-01
  4.318E-02  1.698E+00  2.841E-01 3.6219000E+00 -5.7462565E-01 5.8913922E-01
  0.000E+00  1.750E+00  3.383E-01 3.6221384E+00 -6.2840341E-01 5.5457259E-01
  4.318E-02  1.733E+00  3.198E-01 3.6206637E+00 -6.0327786E-01 5.5976332E-01
  0.000E+00  1.782E+00  3.765E-01 3.6052525E+00 -6.5526475E-01 5.2256025E-01
  4.318E-02  1.766E+00  3.572E-01 3.6193194E+00 -6.3043168E-01 5.2899872E-01
  0.000E+00  1.812E+00  4.163E-01 3.6153346E+00 -6.8049200E-01 4.8924317E-01
  4.318E-02  1.797E+00  3.962E-01 3.6118769E+00 -6.5600986E-01 4.9691115E-01
  0.000E+00  1.840E+00  4.575E-01 3.5833788E+00 -7.0405274E-01 4.5473060E-01
  4.318E-02  1.826E+00  4.367E-01 3.5904182E+00 -6.7997131E-01 4.6360123E-01
  0.000E+00  1.866E+00  5.000E-01 3.5846587E+00 -7.2581202E-01 4.1903425E-01
  4.318E-02  1.853E+00  4.786E-01 3.5943859E+00 -7.0223969E-01 4.2912792E-01
  0.000E+00  1.890E+00  5.438E-01 3.5498851E+00 -7.4580227E-01 3.8236022E-01
  4.318E-02  1.878E+00  5.217E-01 3.5682465E+00 -7.2271321E-01 3.9355507E-01
  0.000E+00  1.912E+00  5.887E-01 3.5532088E+00 -7.6404851E-01 3.4480364E-01
  4.318E-02  1.901E+00  5.661E-01 3.5506271E+00 -7.4152053E-01 3.5714105E-01
  0.000E+00  1.931E+00  6.347E-01 3.5271366E+00 -7.8012189E-01 3.0606897E-01
  4.318E-02  1.921E+00  6.116E-01 3.5428286E+00 -7.5841165E-01 3.1969685E-01
  0.000E+00  1.948E+00  6.815E-01 3.4981225E+00 -7.9425379E-01 2.6665872E-01
  4.318E-02  1.940E+00  6.580E-01 3.5084839E+00 -7.7315233E-01 2.8120948E-01
  0.000E+00  1.963E+00  7.292E-01 3.4953943E+00 -8.0683763E-01 2.2711013E-01
  4.318E-02  1.956E+00  7.052E-01 3.4976354E+00 -7.8628670E-01 2.4246005E-01
  0.000E+00  1.975E+00  7.775E-01 3.4837166E+00 -8.1739607E-01 1.8691031E-01
  4.318E-02  1.969E+00  7.532E-01 3.4909061E+00 -7.9772635E-01 2.0338706E-01
  0.000E+00  1.985E+00  8.264E-01 3.4653851E+00 -8.2554568E-01 1.4575767E-01
  4.318E-02  1.980E+00  8.019E-01 3.4743835E+00 -8.0691141E-01 1.6342530E-01
  0.000E+00  1.992E+00  8.757E-01 3.4497448E+00 -8.3154627E-01 1.0411694E-01
  4.318E-02  1.989E+00  8.510E-01 3.4565197E+00 -8.1381658E-01 1.2270481E-01
  0.000E+00  1.997E+00  9.253E-01 3.4408628E+00 -8.3563118E-01 6.2434469E-02
  4.318E-02  1.995E+00  9.004E-01 3.4445622E+00 -8.1875478E-01 8.1762245E-02
  0.000E+00  2.000E+00  9.751E-01 3.4374691E+00 -8.3773959E-01 2.0807435E-02
  4.318E-02  1.999E+00  9.502E-01 3.4391017E+00 -8.2181618E-01 4.0863589E-02
  0.000E+00  2.000E+00  1.025E+00 3.4374686E+00 -8.3773974E-01 -2.0801780E-02
  4.318E-02  2.000E+00  1.000E+00 3.4377075E+00 -8.2286457E-01 2.8215084E-06
  0.000E+00  1.997E+00  1.075E+00 3.4408612E+00 -8.3563161E-01 -6.2428829E-02
  4.318E-02  1.999E+00  1.050E+00 3.4391006E+00 -8.2181647E-01 -4.0857952E-02
  0.000E+00  1.992E+00  1.124E+00 3.4497422E+00 -8.3154700E-01 -1.0411132E-01
  4.318E-02  1.995E+00  1.100E+00 3.4445601E+00 -8.1875536E-01 -8.1756627E-02
  0.000E+00  1.985E+00  1.174E+00 3.4653814E+00 -8.2554682E-01 -1.4575210E-01
  4.318E-02  1.989E+00  1.149E+00 3.4565165E+00 -8.1381751E-01 -1.2269923E-01
  0.000E+00  1.975E+00  1.223E+00 3.4837119E+00 -8.1739768E-01 -1.8690478E-01
  4.318E-02  1.980E+00  1.198E+00 3.4743792E+00 -8.0691282E-01 -1.6341977E-01
  0.000E+00  1.963E+00  1.271E+00 3.4953885E+00 -8.0683944E-01 -2.2710467E-01
  4.318E-02  1.969E+00  1.247E+00 3.4909009E+00 -7.9772813E-01 -2.0338158E-01
  0.000E+00  1.948E+00  1.318E+00 3.4981158E+00 -7.9425561E-01 -2.6665334E-01
  4.318E-02  1.956E+00  1.295E+00 3.4976292E+00 -7.8628852E-01 -2.4245465E-01
  0.000E+00  1.931E+00  1.365E+00 3.5271290E+00 -7.8012436E-01 -3.0606368E-01
  4.318E-02  1.940E+00  1.342E+00 3.5084767E+00 -7.7315443E-01 -2.8120416E-01
  0.000E+00  1.912E+00  1.411E+00 3.5532003E+00 -7.6405135E-01 -3.4479845E-01
  4.318E-02  1.921E+00  1.388E+00 3.5428205E+00 -7.5841447E-01 -3.1969162E-01
  0.000E+00  1.890E+00  1.456E+00 3.5498757E+00 -7.4580497E-01 -3.8235514E-01
  4.318E-02  1.901E+00  1.434E+00 3.5506179E+00 -7.4152332E-01 -3.5713594E-01
  0.000E+00  1.866E+00  1.500E+00 3.5846485E+00 -7.2581536E-01 -4.1902930E-01
  4.318E-02  1.878E+00  1.478E+00 3.5682365E+00 -7.2271631E-01 -3.9355009E-01
  0.000E+00  1.840E+00  1.543E+00 3.5833678E+00 -7.0405621E-01 -4.5472578E-01
  4.318E-02  1.853E+00  1.521E+00 3.5943750E+00 -7.0224330E-01 -4.2912309E-01
  0.000E+00  1.812E+00  1.584E+00 3.6153228E+00 -6.8049573E-01 -4.8923851E-01
  4.318E-02  1.826E+00  1.563E+00 3.5904064E+00 -6.7997495E-01 -4.6359655E-01
  0.000E+00  1.782E+00  1.623E+00 3.6052399E+00 -6.5526878E-01 -5.2255575E-01
  4.318E-02  1.797E+00  1.604E+00 3.6118644E+00 -6.5601391E-01 -4.9690666E-01
  0.000E+00  1.750E+00  1.662E+00 3.6221251E+00 -6.2840765E-01 -5.5456828E-01
  4.318E-02  1.766E+00  1.643E+00 3.6193062E+00 -6.3043585E-01 -5.2899441E-01
  0.000E+00  1.716E+00  1.698E+00 3.6218738E+00 -5.9998266E-01 -5.8520217E-01
  4.318E-02  1.733E+00  1.680E+00 3.6206499E+00 -6.0328230E-01 -5.5975920E-01
  0.000E+00  1.680E+00  1.733E+00 3.6206374E+00 -5.7006623E-01 -6.1438192E-01
  4.318E-02  1.698E+00  1.716E+00 3.6218856E+00 -5.7463025E-01 -5.8913529E-01
  0.000E+00  1.643E+00  1.766E+00 3.6192930E+00 -5.3873544E-01 -6.4203555E-01
  4.318E-02  1.662E+00  1.750E+00 3.6221360E+00 -5.4455030E-01 -6.1704691E-01
  0.000E+00  1.604E+00  1.797E+00 3.6118504E+00 -5.0605719E-01 -6.6808441E-01
  4.318E-02  1.623E+00  1.782E+00 3.6052499E+00 -5.1311648E-01 -6.4342275E-01
  0.000E+00  1.563E+00  1.826E+00 3.5903917E+00 -4.7213401E-01 -6.9248675E-01
  4.318E-02  1.584E+00  1.812E+00 3.6153319E+00 -4.8040139E-01 -6.6819389E-01
  0.000E+00  1.521E+00  1.853E+00 3.5943597E+00 -4.3702630E-01 -7.1516545E-01
  4.318E-02  1.543E+00  1.840E+00 3.5833762E+00 -4.4651258E-01 -6.9132901E-01
  0.000E+00  1.478E+00  1.878E+00 3.5682205E+00 -4.0079884E-01 -7.3601591E-01
  4.318E-02  1.500E+00  1.866E+00 3.5846563E+00 -4.1146159E-01 -7.1269546E-01
  0.000E+00  1.434E+00  1.901E+00 3.5506012E+00 -3.6371473E-01 -7.5516927E-01
  4.318E-02  1.456E+00  1.890E+00 3.5498828E+00 -3.7545041E-01 -7.3232431E-01
  0.000E+00  1.388E+00  1.921E+00 3.5428030E+00 -3.2558133E-01 -7.7237124E-01
  4.318E-02  1.411E+00  1.912E+00 3.5532063E+00 -3.3857227E-01 -7.5024060E-01
  0.000E+00  1.342E+00  1.940E+00 3.5084587E+00 -2.8638544E-01 -7.8738294E-01
  4.318E-02  1.365E+00  1.931E+00 3.5271341E+00 -3.0053738E-01 -7.6602325E-01
  0.000E+00  1.295E+00  1.956E+00 3.4976107E+00 -2.4692265E-01 -8.0075930E-01
  4.318E-02  1.318E+00  1.948E+00 3.4981204E+00 -2.6183940E-01 -7.7989973E-01
  0.000E+00  1.247E+00  1.969E+00 3.4908819E+00 -2.0713038E-01 -8.1240990E-01
  4.318E-02  1.271E+00  1.963E+00 3.4953926E+00 -2.2300582E-01 -7.9225653E-01
  0.000E+00  1.198E+00  1.980E+00 3.4743595E+00 -1.6643309E-01 -8.2176400E-01
  4.318E-02  1.223E+00  1.975E+00 3.4837153E+00 -1.8353283E-01 -8.0262439E-01
  0.000E+00  1.149E+00  1.989E+00 3.4564960E+00 -1.2496321E-01 -8.2879603E-01
  4.318E-02  1.174E+00  1.985E+00 3.4653842E+00 -1.4312410E-01 -8.1062670E-01
  0.000E+00  1.100E+00  1.995E+00 3.4445387E+00 -8.3267191E-02 -8.3382492E-01
  4.318E-02  1.124E+00  1.992E+00 3.4497442E+00 -1.0223591E-01 -8.1651875E-01
  0.000E+00  1.050E+00  1.999E+00 3.4390786E+00 -4.1615845E-02 -8.3694256E-01
  4.318E-02  1.075E+00  1.997E+00 3.4408624E+00 -6.1306625E-02 -8.2052974E-01
  0.000E+00  1.000E+00  2.000E+00 3.4376848E+00 -3.0309380E-06 -8.3801022E-01
  4.318E-02  1.025E+00  2.000E+00 3.4374691E+00 -2.0431731E-02 -8.2260000E-01
  0.000E+00  9.502E-01  1.999E+00 3.4390784E+00 4.1609789E-02 -8.3694290E-01
  4.318E-02  9.751E-01  2.000E+00 3.4374690E+00 2.0425671E-02 -8.2260016E-01
  0.000E+00  9.004E-01  1.995E+00 3.4445384E+00 8.3261155E-02 -8.3382558E-01
  4.318E-02  9.253E-01  1.997E+00 3.4408622E+00 6.1300578E-02 -8.2053024E-01
  0.000E+00  8.510E-01  1.989E+00 3.4564955E+00 1.2495721E-01 -8.2879703E-01
  4.318E-02  8.757E-01  1.992E+00 3.4497438E+00 1.0222989E-01 -8.1651957E-01
  0.000E+00  8.019E-01  1.980E+00 3.4743588E+00 1.6642714E-01 -8.2176532E-01
  4.318E-02  8.264E-01  1.985E+00 3.4653836E+00 1.4311812E-01 -8.1062786E-01
  0.000E+00  7.532E-01  1.969E+00 3.4908810E+00 2.0712448E-01 -8.1241154E-01
  4.318E-02  7.775E-01  1.975E+00 3.4837146E+00 1.8352690E-01 -8.0262587E-01
  0.000E+00  7.052E-01  1.956E+00 3.4976097E+00 2.4691682E-01 -8.0076126E-01
  4.318E-02  7.292E-01  1.963E+00 3.4953916E+00 2.2299995E-01 -7.9225832E-01
  0.000E+00  6.580E-01  1.940E+00 3.5084575E+00 2.8637970E-01 -7.8738521E-01
  4.318E-02  6.815E-01  1.948E+00 3.4981193E+00 2.6183361E-01 -7.7990183E-01
  0.000E+00  6.116E-01  1.921E+00 3.5428017E+00 3.2557568E-01 -7.7237381E-01
  4.318E-02  6.347E-01  1.931E+00 3.5271329E+00 3.0053168E-01 -7.6602566E-01
  0.000E+00  5.661E-01  1.901E+00 3.5505997E+00 3.6370920E-01 -7.5517213E-01
  4.318E-02  5.887E-01  1.912E+00 3.5532049E+00 3.3856668E-01 -7.5024330E-01
  0.000E+00  5.217E-01  1.878E+00 3.5682189E+00 4.0079344E-01 -7.3601905E-01
  4.318E-02  5.438E-01  1.890E+00 3.5498812E+00 3.7544495E-01 -7.3232730E-01
  0.000E+00  4.786E-01  1.853E+00 3.5943579E+00 4.3702103E-01 -7.1516886E-01
  4.318E-02  5.000E-01  1.866E+00 3.5846546E+00 4.1145624E-01 -7.1269873E-01
  0.000E+00  4.367E-01  1.826E+00 3.5903898E+00 4.7212890E-01 -6.9249042E-01
  4.318E-02  4.575E-01  1.840E+00 3.5833743E+00 4.4650739E-01 -6.9133255E-01
  0.000E+00  3.962E-01  1.797E+00 3.6118484E+00 5.0605224E-01 -6.6808833E-01
  4.318E-02  4.163E-01  1.812E+00 3.6153300E+00 4.8039635E-01 -6.6819769E-01
  0.000E+00  3.572E-01  1.766E+00 3.6192908E+00 5.3873067E-01 -6.4203971E-01
  4.318E-02  3.765E-01  1.782E+00 3.6052479E+00 5.1311162E-01 -6.4342679E-01
  0.000E+00  3.198E-01  1.733E+00 3.6206351E+00 5.7006165E-01 -6.1438631E-01
  4.318E-02  3.383E-01  1.750E+00 3.6221338E+00 5.4454562E-01 -6.1705118E-01
  0.000E+00  2.841E-01  1.698E+00 3.6218715E+00 5.9997827E-01 -5.8520677E-01
  4.318E-02  3.018E-01  1.716E+00 3.6218832E+00 5.7462579E-01 -5.8913978E-01
  0.000E+00  2.502E-01  1.662E+00 3.6221226E+00 6.2840350E-01 -5.5457308E-01
  4.318E-02  2.669E-01  1.680E+00 3.6206475E+00 6.0327800E-01 -5.5976389E-01
  0.000E+00  2.182E-01  1.623E+00 3.6052373E+00 6.5526482E-01 -5.2256074E-01
  4.318E-02  2.340E-01  1.643E+00 3.6193036E+00 6.3043184E-01 -5.2899930E-01
  0.000E+00  1.881E-01  1.584E+00 3.6153202E+00 6.8049205E-01 -4.8924366E-01
  4.318E-02  2.029E-01  1.604E+00 3.6118618E+00 6.5601003E-01 -4.9691172E-01
  0.000E+00  1.600E-01  1.543E+00 3.5833650E+00 7.0405280E-01 -4.5473110E-01
  4.318E-02  1.738E-01  1.563E+00 3.5904038E+00 6.7997150E-01 -4.6360179E-01
  0.000E+00  1.340E-01  1.500E+00 3.5846457E+00 7.2581208E-01 -4.1903476E-01
  4.318E-02  1.467E-01  1.521E+00 3.5943722E+00 7.0223988E-01 -4.2912847E-01
  0.000E+00  1.101E-01  1.456E+00 3.5498729E+00 7.4580235E-01 -3.8236073E-01
  4.318E-02  1.218E-01  1.478E+00 3.5682337E+00 7.2271338E-01 -3.9355561E-01
  0.000E+00  8.849E-02  1.411E+00 3.5531974E+00 7.6404861E-01 -3.4480416E-01
  4.318E-02  9.903E-02  1.434E+00 3.5506151E+00 7.4152069E-01 -3.5714159E-01
  0.000E+00  6.913E-02  1.365E+00 3.5271260E+00 7.8012200E-01 -3.0606949E-01
  4.318E-02  7.852E-02  1.388E+00 3.5428175E+00 7.5841180E-01 -3.1969738E-01
  0.000E+00  5.207E-02  1.318E+00 3.4981128E+00 7.9425390E-01 -2.6665924E-01
  4.318E-02  6.031E-02  1.342E+00 3.5084737E+00 7.7315247E-01 -2.8121002E-01
  0.000E+00  3.738E-02  1.271E+00 3.4953855E+00 8.0683774E-01 -2.2711065E-01
  4.318E-02  4.443E-02  1.295E+00 3.4976261E+00 7.8628684E-01 -2.4246059E-01
  0.000E+00  2.507E-02  1.223E+00 3.4837088E+00 8.1739618E-01 -1.8691083E-01
  4.318E-02  3.092E-02  1.247E+00 3.4908978E+00 7.9772648E-01 -2.0338760E-01
  0.000E+00  1.519E-02  1.174E+00 3.4653783E+00 8.2554579E-01 -1.4575820E-01
  4.318E-02  1.983E-02  1.198E+00 3.4743762E+00 8.0691155E-01 -1.6342584E-01
  0.000E+00  7.761E-03  1.124E+00 3.4497390E+00 8.3154638E-01 -1.0411746E-01
  4.318E-02  1.117E-02  1.149E+00 3.4565134E+00 8.1381671E-01 -1.2270535E-01
  0.000E+00  2.796E-03  1.075E+00 3.4408580E+00 8.3563130E-01 -6.2434994E-02
  4.318E-02  4.969E-03  1.100E+00 3.4445570E+00 8.1875490E-01 -8.1762780E-02
  0.000E+00  3.108E-04  1.025E+00 3.4374654E+00 8.3773971E-01 -2.0807958E-02
  4.318E-02  1.243E-03  1.050E+00 3.4390975E+00 8.2181630E-01 -4.0864125E-02
  0.000E+00  3.108E-04  9.751E-01 3.4374660E+00 8.3773986E-01 2.0801256E-02
  4.318E-02  0.000E+00  1.000E+00 3.4377044E+00 8.2286469E-01 -3.3581613E-06
  0.000E+00  2.796E-03  9.253E-01 3.4408596E+00 8.3563172E-01 6.2428304E-02
  4.318E-02  1.243E-03  9.502E-01 3.4390986E+00 8.2181659E-01 4.0857415E-02
  0.000E+00  7.761E-03  8.757E-01 3.4497417E+00 8.3154712E-01 1.0411080E-01
  4.318E-02  4.969E-03  9.004E-01 3.4445591E+00 8.1875547E-01 8.1756091E-02
  0.000E+00  1.519E-02  8.264E-01 3.4653820E+00 8.2554694E-01 1.4575157E-01
  4.318E-02  1.117E-02  8.510E-01 3.4565166E+00 8.1381763E-01 1.2269869E-01
  0.000E+00  2.507E-02  7.775E-01 3.4837135E+00 8.1739780E-01 1.8690426E-01
  4.318E-02  1.983E-02  8.019E-01 3.4743804E+00 8.0691292E-01 1.6341923E-01
  0.000E+00  3.738E-02  7.292E-01 3.4953912E+00 8.0683956E-01 2.2710415E-01
  4.318E-02  3.092E-02  7.532E-01 3.4909030E+00 7.9772824E-01 2.0338104E-01
  0.000E+00  5.207E-02  6.815E-01 3.4981195E+00 7.9425574E-01 2.6665281E-01
  4.318E-02  4.443E-02  7.052E-01 3.4976324E+00 7.8628862E-01 2.4245411E-01
  0.000E+00  6.913E-02  6.347E-01 3.5271336E+00 7.8012449E-01 3.0606315E-01
  4.318E-02  6.031E-02  6.580E-01 3.5084809E+00 7.7315453E-01 2.8120362E-01
  0.000E+00  8.849E-02  5.887E-01 3.5532059E+00 7.6405149E-01 3.4479793E-01
  4.318E-02  7.852E-02  6.116E-01 3.5428257E+00 7.5841456E-01 3.1969109E-01
  0.000E+00  1.101E-01  5.438E-01 3.5498823E+00 7.4580513E-01 3.8235462E-01
  4.318E-02  9.903E-02  5.661E-01 3.5506242E+00 7.4152340E-01 3.5713540E-01
  0.000E+00  1.340E-01  5.000E-01 3.5846559E+00 7.2581553E-01 4.1902879E-01
  4.318E-02  1.218E-01  5.217E-01 3.5682437E+00 7.2271638E-01 3.9354954E-01
  0.000E+00  1.600E-01  4.575E-01 3.5833761E+00 7.0405638E-01 4.5472528E-01
  4.318E-02  1.467E-01  4.786E-01 3.5943832E+00 7.0224336E-01 4.2912253E-01
  0.000E+00  1.881E-01  4.163E-01 3.6153320E+00 6.8049591E-01 4.8923802E-01
  4.318E-02  1.738E-01  4.367E-01 3.5904155E+00 6.7997501E-01 4.6359598E-01
  0.000E+00  2.182E-01  3.765E-01 3.6052499E+00 6.5526894E-01 5.2255527E-01
  4.318E-02  2.029E-01  3.962E-01 3.6118743E+00 6.5601397E-01 4.9690608E-01
  0.000E+00  2.502E-01  3.383E-01 3.6221360E+00 6.2840779E-01 5.5456779E-01
  4.318E-02  2.340E-01  3.572E-01 3.6193169E+00 6.3043593E-01 5.2899383E-01
  0.000E+00  2.841E-01  3.018E-01 3.6218856E+00 5.9998279E-01 5.8520167E-01
  4.318E-02  2.669E-01  3.198E-01 3.6206613E+00 6.0328240E-01 5.5975862E-01
  0.000E+00  3.198E-01  2.669E-01 3.6206500E+00 5.7006634E-01 6.1438141E-01
  4.318E-02  3.018E-01  2.841E-01 3.6218977E+00 5.7463036E-01 5.8913472E-01
  0.000E+00  3.572E-01  2.340E-01 3.6193063E+00 5.3873553E-01 6.4203502E-01
  4.318E-02  3.383E-01  2.502E-01 3.6221488E+00 5.4455042E-01 6.1704636E-01
  0.000E+00  3.962E-01  2.029E-01 3.6118644E+00 5.0605726E-01 6.6808388E-01
  4.318E-02  3.765E-01  2.182E-01 3.6052635E+00 5.1311660E-01 6.4342221E-01
  0.000E+00  4.367E-01  1.738E-01 3.5904063E+00 4.7213413E-01 6.9248624E-01
  4.318E-02  4.163E-01  1.881E-01 3.6153461E+00 4.8040151E-01 6.6819334E-01
  0.000E+00  4.786E-01  1.467E-01 3.5943749E+00 4.3702656E-01 7.1516498E-01
  4.318E-02  4.575E-01  1.600E-01 3.5833910E+00 4.4651264E-01 6.9132843E-01
  0.000E+00  5.217E-01  1.218E-01 3.5682363E+00 4.0079914E-01 7.3601544E-01
  4.318E-02  5.000E-01  1.340E-01 3.5846716E+00 4.1146157E-01 7.1269486E-01
  0.000E+00  5.661E-01  9.903E-02 3.5506174E+00 3.6371476E-01 7.5516872E-01
  4.318E-02  5.438E-01  1.101E-01 3.5498986E+00 3.7545045E-01 7.3232374E-01
  0.000E+00  6.116E-01  7.852E-02 3.5428195E+00 3.2558095E-01 7.7237057E-01
  4.318E-02  5.887E-01  8.849E-02 3.5532227E+00 3.3857255E-01 7.5024011E-01
  0.000E+00  6.580E-01  6.031E-02 3.5084754E+00 2.8638501E-01 7.8738223E-01
  4.318E-02  6.347E-01  6.913E-02 3.5271512E+00 3.0053785E-01 7.6602282E-01
  0.000E+00  7.052E-01  4.443E-02 3.4976279E+00 2.4692270E-01 8.0075869E-01
  4.318E-02  6.815E-01  5.207E-02 3.4981380E+00 2.6183975E-01 7.7989926E-01
  0.000E+00  7.532E-01  3.092E-02 3.4908997E+00 2.0713103E-01 8.1240945E-01
  4.318E-02  7.292E-01  3.738E-02 3.4954105E+00 2.2300579E-01 7.9225597E-01
  0.000E+00  8.019E-01  1.983E-02 3.4743779E+00 1.6643404E-01 8.2176368E-01
  4.318E-02  7.775E-01  2.507E-02 3.4837334E+00 1.8353248E-01 8.0262374E-01
  0.000E+00  8.510E-01  1.117E-02 3.4565147E+00 1.2496406E-01 8.2879578E-01
  4.318E-02  8.264E-01  1.519E-02 3.4654024E+00 1.4312369E-01 8.1062599E-01
  0.000E+00  9.004E-01  4.969E-03 3.4445576E+00 8.3267770E-02 8.3382470E-01
  4.318E-02  8.757E-01  7.761E-03 3.4497627E+00 1.0223562E-01 8.1651800E-01
  4.318E-02  9.253E-01  2.796E-03 3.4408813E+00 6.1306517E-02 8.2052898E-01
  1.000E+01  1.050E+00  1.243E-03 3.4390978E+00 -4.1609874E-02 8.3694269E-01
  1.000E+01  1.000E+00  5.551E-16 3.4377040E+00 3.1489623E-06 8.3801002E-01
  9.957E+00  1.025E+00  3.108E-04 3.4374841E+00 -2.1179172E-02 8.5295252E-01
  1.000E+01  9.502E-01  1.243E-03 3.4390976E+00 4.1616166E-02 8.3694236E-01
  9.957E+00  9.751E-01  3.108E-04 3.4374840E+00 2.1185468E-02 8.5295236E-01
  1.000E+01  9.004E-01  4.969E-03 3.4445576E+00 8.3267770E-02 8.3382470E-01
  9.957E+00  9.253E-01  2.796E-03 3.4408771E+00 6.3568258E-02 8.5080567E-01
  1.000E+01  8.510E-01  1.117E-02 3.4565147E+00 1.2496406E-01 8.2879578E-01
  9.957E+00  8.757E-01  7.761E-03 3.4497585E+00 1.0600753E-01 8.4664664E-01
  1.000E+01  8.019E-01  1.983E-02 3.4743779E+00 1.6643404E-01 8.2176368E-01
  9.957E+00  8.264E-01  1.519E-02 3.4653982E+00 1.4840441E-01 8.4053722E-01
  1.000E+01  7.532E-01  3.092E-02 3.4908997E+00 2.0713103E-01 8.1240945E-01
  9.957E+00  7.775E-01  2.507E-02 3.4837291E+00 1.9030452E-01 8.3223981E-01
  1.000E+01  7.052E-01  4.443E-02 3.4976279E+00 2.4692270E-01 8.0075869E-01
  9.957E+00  7.292E-01  3.738E-02 3.4954062E+00 2.3123468E-01 8.2148962E-01
  1.000E+01  6.580E-01  6.031E-02 3.5084754E+00 2.8638501E-01 7.8738223E-01
  9.957E+00  6.815E-01  5.207E-02 3.4981338E+00 2.7150166E-01 8.0867693E-01
  1.000E+01  6.116E-01  7.852E-02 3.5428195E+00 3.2558095E-01 7.7237057E-01
  9.957E+00  6.347E-01  6.913E-02 3.5271470E+00 3.1162742E-01 7.9428820E-01
  1.000E+01  5.661E-01  9.903E-02 3.5506174E+00 3.6371476E-01 7.5516872E-01
  9.957E+00  5.887E-01  8.849E-02 3.5532184E+00 3.5106524E-01 7.7792289E-01
  1.000E+01  5.217E-01  1.218E-01 3.5682363E+00 4.0079914E-01 7.3601544E-01
  9.957E+00  5.438E-01  1.101E-01 3.5498943E+00 3.8930375E-01 7.5934544E-01
  1.000E+01  4.786E-01  1.467E-01 3.5943749E+00 4.3702656E-01 7.1516498E-01
  9.957E+00  5.000E-01  1.340E-01 3.5846673E+00 4.2664384E-01 7.3899250E-01
  1.000E+01  4.367E-01  1.738E-01 3.5904063E+00 4.7213413E-01 6.9248624E-01
  9.957E+00  4.575E-01  1.600E-01 3.5833867E+00 4.6298839E-01 7.1683788E-01
  1.000E+01  3.962E-01  2.029E-01 3.6118644E+00 5.0605726E-01 6.6808388E-01
  9.957E+00  4.163E-01  1.881E-01 3.6153419E+00 4.9812753E-01 6.9284908E-01
  1.000E+01  3.572E-01  2.340E-01 3.6193063E+00 5.3873553E-01 6.4203502E-01
  9.957E+00  3.765E-01  2.182E-01 3.6052591E+00 5.3204959E-01 6.6716378E-01
  1.000E+01  3.198E-01  2.669E-01 3.6206500E+00 5.7006634E-01 6.1438141E-01
  9.957E+00  3.383E-01  2.502E-01 3.6221445E+00 5.6464327E-01 6.3981472E-01
  1.000E+01  2.841E-01  3.018E-01 3.6218856E+00 5.9998279E-01 5.8520167E-01
  9.957E+00  3.018E-01  2.841E-01 3.6218934E+00 5.9583316E-01 6.1087327E-01
  1.000E+01  2.502E-01  3.383E-01 3.6221360E+00 6.2840779E-01 5.5456779E-01
  9.957E+00  2.669E-01  3.198E-01 3.6206570E+00 6.2554246E-01 5.8041326E-01
  1.000E+01  2.182E-01  3.765E-01 3.6052499E+00 6.5526894E-01 5.2255527E-01
  9.957E+00  2.340E-01  3.572E-01 3.6193126E+00 6.5369804E-01 5.4851332E-01
  1.000E+01  1.881E-01  4.163E-01 3.6153320E+00 6.8049591E-01 4.8923802E-01
  9.957E+00  2.029E-01  3.962E-01 3.6118700E+00 6.8021980E-01 5.1524152E-01
  1.000E+01  1.600E-01  4.575E-01 3.5833761E+00 7.0405638E-01 4.5472528E-01
  9.957E+00  1.738E-01  4.367E-01 3.5904111E+00 7.0506488E-01 4.8070206E-01
  1.000E+01  1.340E-01  5.000E-01 3.5846559E+00 7.2581553E-01 4.1902879E-01
  9.957E+00  1.467E-01  4.786E-01 3.5943788E+00 7.2815500E-01 4.4495660E-01
  1.000E+01  1.101E-01  5.438E-01 3.5498823E+00 7.4580513E-01 3.8235462E-01
  9.957E+00  1.218E-01  5.217E-01 3.5682394E+00 7.4938375E-01 4.0807123E-01
  1.000E+01  8.849E-02  5.887E-01 3.5532059E+00 7.6405149E-01 3.4479793E-01
  9.957E+00  9.903E-02  5.661E-01 3.5506199E+00 7.6888489E-01 3.7031360E-01
  1.000E+01  6.913E-02  6.347E-01 3.5271336E+00 7.8012449E-01 3.0606315E-01
  9.957E+00  7.852E-02  6.116E-01 3.5428214E+00 7.8639920E-01 3.3148732E-01
  1.000E+01  5.207E-02  6.815E-01 3.4981195E+00 7.9425574E-01 2.6665281E-01
  9.957E+00  6.031E-02  6.580E-01 3.5084765E+00 8.0168284E-01 2.9157937E-01
  1.000E+01  3.738E-02  7.292E-01 3.4953912E+00 8.0683956E-01 2.2710415E-01
  9.957E+00  4.443E-02  7.052E-01 3.4976279E+00 8.1530148E-01 2.5140003E-01
  1.000E+01  2.507E-02  7.775E-01 3.4837135E+00 8.1739780E-01 1.8690426E-01
  9.957E+00  3.092E-02  7.532E-01 3.4908987E+00 8.2716329E-01 2.1088545E-01
  1.000E+01  1.519E-02  8.264E-01 3.4653820E+00 8.2554694E-01 1.4575157E-01
  9.957E+00  1.983E-02  8.019E-01 3.4743760E+00 8.3668703E-01 1.6944941E-01
  1.000E+01  7.761E-03  8.757E-01 3.4497417E+00 8.3154712E-01 1.0411080E-01
  9.957E+00  1.117E-02  8.510E-01 3.4565123E+00 8.4384661E-01 1.2722654E-01
  1.000E+01  2.796E-03  9.253E-01 3.4408596E+00 8.3563172E-01 6.2428304E-02
  9.957E+00  4.969E-03  9.004E-01 3.4445548E+00 8.4896668E-01 8.4773230E-02
  1.000E+01  3.108E-04  9.751E-01 3.4374660E+00 8.3773986E-01 2.0801256E-02
  9.957E+00  1.243E-03  9.502E-01 3.4390943E+00 8.5214071E-01 4.2365331E-02
  1.000E+01  3.108E-04  1.025E+00 3.4374654E+00 8.3773971E-01 -2.0807958E-02
  9.957E+00  0.000E+00  1.000E+00 3.4377001E+00 8.5322747E-01 -3.3499021E-06
  1.000E+01  2.796E-03  1.075E+00 3.4408580E+00 8.3563130E-01 -6.2434994E-02
  9.957E+00  1.243E-03  1.050E+00 3.4390932E+00 8.5214043E-01 -4.2372024E-02
  1.000E+01  7.761E-03  1.124E+00 3.4497390E+00 8.3154638E-01 -1.0411746E-01
  9.957E+00  4.969E-03  1.100E+00 3.4445527E+00 8.4896611E-01 -8.4779902E-02
  1.000E+01  1.519E-02  1.174E+00 3.4653783E+00 8.2554579E-01 -1.4575820E-01
  9.957E+00  1.117E-02  1.149E+00 3.4565091E+00 8.4384570E-01 -1.2723318E-01
  1.000E+01  2.507E-02  1.223E+00 3.4837088E+00 8.1739618E-01 -1.8691083E-01
  9.957E+00  1.983E-02  1.198E+00 3.4743718E+00 8.3668565E-01 -1.6945600E-01
  1.000E+01  3.738E-02  1.271E+00 3.4953855E+00 8.0683774E-01 -2.2711065E-01
  9.957E+00  3.092E-02  1.247E+00 3.4908934E+00 8.2716153E-01 -2.1089199E-01
  1.000E+01  5.207E-02  1.318E+00 3.4981128E+00 7.9425390E-01 -2.6665924E-01
  9.957E+00  4.443E-02  1.295E+00 3.4976217E+00 8.1529970E-01 -2.5140650E-01
  1.000E+01  6.913E-02  1.365E+00 3.5271260E+00 7.8012200E-01 -3.0606949E-01
  9.957E+00  6.031E-02  1.342E+00 3.5084693E+00 8.0168078E-01 -2.9158576E-01
  1.000E+01  8.849E-02  1.411E+00 3.5531974E+00 7.6404861E-01 -3.4480416E-01
  9.957E+00  7.852E-02  1.388E+00 3.5428132E+00 7.8639643E-01 -3.3149361E-01
  1.000E+01  1.101E-01  1.456E+00 3.5498729E+00 7.4580235E-01 -3.8236073E-01
  9.957E+00  9.903E-02  1.434E+00 3.5506108E+00 7.6888217E-01 -3.7031978E-01
  1.000E+01  1.340E-01  1.500E+00 3.5846457E+00 7.2581208E-01 -4.1903476E-01
  9.957E+00  1.218E-01  1.478E+00 3.5682294E+00 7.4938075E-01 -4.0807729E-01
  1.000E+01  1.600E-01  1.543E+00 3.5833650E+00 7.0405280E-01 -4.5473110E-01
  9.957E+00  1.467E-01  1.521E+00 3.5943679E+00 7.2815150E-01 -4.4496253E-01
  1.000E+01  1.881E-01  1.584E+00 3.6153202E+00 6.8049205E-01 -4.8924366E-01
  9.957E+00  1.738E-01  1.563E+00 3.5903994E+00 7.0506137E-01 -4.8070785E-01
  1.000E+01  2.182E-01  1.623E+00 3.6052373E+00 6.5526482E-01 -5.2256074E-01
  9.957E+00  2.029E-01  1.604E+00 3.6118575E+00 6.8021586E-01 -5.1524713E-01
  1.000E+01  2.502E-01  1.662E+00 3.6221226E+00 6.2840350E-01 -5.5457308E-01
  9.957E+00  2.340E-01  1.643E+00 3.6192994E+00 6.5369395E-01 -5.4851875E-01
  1.000E+01  2.841E-01  1.698E+00 3.6218715E+00 5.9997827E-01 -5.8520677E-01
  9.957E+00  2.669E-01  1.680E+00 3.6206431E+00 6.2553808E-01 -5.8041849E-01
  1.000E+01  3.198E-01  1.733E+00 3.6206351E+00 5.7006165E-01 -6.1438631E-01
  9.957E+00  3.018E-01  1.716E+00 3.6218789E+00 5.9582859E-01 -6.1087829E-01
  1.000E+01  3.572E-01  1.766E+00 3.6192908E+00 5.3873067E-01 -6.4203971E-01
  9.957E+00  3.383E-01  1.750E+00 3.6221295E+00 5.6463847E-01 -6.3981952E-01
  1.000E+01  3.962E-01  1.797E+00 3.6118484E+00 5.0605224E-01 -6.6808833E-01
  9.957E+00  3.765E-01  1.782E+00 3.6052435E+00 5.3204460E-01 -6.6716835E-01
  1.000E+01  4.367E-01  1.826E+00 3.5903898E+00 4.7212890E-01 -6.9249042E-01
  9.957E+00  4.163E-01  1.812E+00 3.6153258E+00 4.9812237E-01 -6.9285341E-01
  1.000E+01  4.786E-01  1.853E+00 3.5943579E+00 4.3702103E-01 -7.1516886E-01
  9.957E+00  4.575E-01  1.840E+00 3.5833701E+00 4.6298315E-01 -7.1684198E-01
  1.000E+01  5.217E-01  1.878E+00 3.5682189E+00 4.0079344E-01 -7.3601905E-01
  9.957E+00  5.000E-01  1.866E+00 3.5846503E+00 4.2663851E-01 -7.3899635E-01
  1.000E+01  5.661E-01  1.901E+00 3.5505997E+00 3.6370920E-01 -7.5517213E-01
  9.957E+00  5.438E-01  1.890E+00 3.5498768E+00 3.8929822E-01 -7.5934899E-01
  1.000E+01  6.116E-01  1.921E+00 3.5428017E+00 3.2557568E-01 -7.7237381E-01
  9.957E+00  5.887E-01  1.912E+00 3.5532005E+00 3.5105932E-01 -7.7792609E-01
  1.000E+01  6.580E-01  1.940E+00 3.5084575E+00 2.8637970E-01 -7.8738521E-01
  9.957E+00  6.347E-01  1.931E+00 3.5271287E+00 3.1162123E-01 -7.9429103E-01
  1.000E+01  7.052E-01  1.956E+00 3.4976097E+00 2.4691682E-01 -8.0076126E-01
  9.957E+00  6.815E-01  1.948E+00 3.4981152E+00 2.7149554E-01 -8.0867946E-01
  1.000E+01  7.532E-01  1.969E+00 3.4908810E+00 2.0712448E-01 -8.1241154E-01
  9.957E+00  7.292E-01  1.963E+00 3.4953876E+00 2.3122889E-01 -8.2149193E-01
  1.000E+01  8.019E-01  1.980E+00 3.4743588E+00 1.6642714E-01 -8.2176532E-01
  9.957E+00  7.775E-01  1.975E+00 3.4837104E+00 1.9029897E-01 -8.3224192E-01
  1.000E+01  8.510E-01  1.989E+00 3.4564955E+00 1.2495721E-01 -8.2879703E-01
  9.957E+00  8.264E-01  1.985E+00 3.4653793E+00 1.4839884E-01 -8.4053907E-01
  1.000E+01  9.004E-01  1.995E+00 3.4445384E+00 8.3261155E-02 -8.3382558E-01
  9.957E+00  8.757E-01  1.992E+00 3.4497395E+00 1.0600177E-01 -8.4664819E-01
  1.000E+01  9.502E-01  1.999E+00 3.4390784E+00 4.1609789E-02 -8.3694290E-01
  9.957E+00  9.253E-01  1.997E+00 3.4408579E+00 6.3562291E-02 -8.5080691E-01
  1.000E+01  1.000E+00  2.000E+00 3.4376848E+00 -3.0309380E-06 -8.3801022E-01
  9.957E+00  9.751E-01  2.000E+00 3.4374647E+00 2.1179347E-02 -8.5295326E-01
  1.000E+01  1.050E+00  1.999E+00 3.4390786E+00 -4.1615845E-02 -8.3694256E-01
  9.957E+00  1.025E+00  2.000E+00 3.4374648E+00 -2.1185408E-02 -8.5295310E-01
  1.000E+01  1.100E+00  1.995E+00 3.4445387E+00 -8.3267191E-02 -8.3382492E-01
  9.957E+00  1.075E+00  1.997E+00 3.4408582E+00 -6.3568339E-02 -8.5080641E-01
  1.000E+01  1.149E+00  1.989E+00 3.4564960E+00 -1.2496321E-01 -8.2879603E-01
  9.957E+00  1.124E+00  1.992E+00 3.4497399E+00 -1.0600779E-01 -8.4664736E-01
  1.000E+01  1.198E+00  1.980E+00 3.4743595E+00 -1.6643309E-01 -8.2176400E-01
  9.957E+00  1.174E+00  1.985E+00 3.4653799E+00 -1.4840482E-01 -8.4053791E-01