# TIME = 1.000000
VARIABLES = X, Y, Z, FX, FY, FZ
ZONE N=29232 E=58212 F=FEPOINT ET=TRIANGLE
  0.000E+00  9.502E-01  1.243E-03 3.3444990E+00 1.7365196E-01 3.4925066E+00
  0.000E+00  1.000E+00  0.000E+00 3.3430822E+00 3.4573400E-06 3.4969615E+00
  4.318E-02  9.751E-01  3.108E-04 3.3428858E+00 8.6199158E-02 3.4709060E+00
  0.000E+00  1.050E+00  1.243E-03 3.3444992E+00 -1.7364505E-01 3.4925067E+00
  4.318E-02  1.025E+00  3.108E-04 3.3428859E+00 -8.6192558E-02 3.4709061E+00
  0.000E+00  1.100E+00  4.969E-03 3.3499927E+00 -3.4745404E-01 3.4794972E+00
  4.318E-02  1.075E+00  2.796E-03 3.3463072E+00 -2.5865843E-01 3.4621712E+00
  0.000E+00  1.149E+00  1.117E-02 3.3619207E+00 -5.2144870E-01 3.4585124E+00
  4.318E-02  1.124E+00  7.761E-03 3.3551842E+00 -4.3135513E-01 3.4452477E+00
  0.000E+00  1.198E+00  1.983E-02 3.3796917E+00 -6.9449793E-01 3.4291687E+00
  4.318E-02  1.174E+00  1.519E-02 3.3707414E+00 -6.0388083E-01 3.4203880E+00
  0.000E+00  1.247E+00  3.092E-02 3.3962302E+00 -8.6432065E-01 3.3901341E+00
  4.318E-02  1.223E+00  2.507E-02 3.3890035E+00 -7.7438538E-01 3.3866243E+00
  0.000E+00  1.295E+00  4.443E-02 3.4033005E+00 -1.0303663E+00 3.3415155E+00
  4.318E-02  1.271E+00  3.738E-02 3.4008604E+00 -9.4094083E-01 3.3428776E+00
  0.000E+00  1.342E+00  6.031E-02 3.4144473E+00 -1.1950411E+00 3.2856969E+00
  4.318E-02  1.318E+00  5.207E-02 3.4040810E+00 -1.1047960E+00 3.2907378E+00
  0.000E+00  1.388E+00  7.852E-02 3.4484513E+00 -1.3586068E+00 3.2230562E+00
  4.318E-02  1.365E+00  6.913E-02 3.4329238E+00 -1.2680782E+00 3.2321871E+00
  0.000E+00  1.434E+00  9.903E-02 3.4566005E+00 -1.5177372E+00 3.1512737E+00
  4.318E-02  1.411E+00  8.849E-02 3.4588586E+00 -1.4285619E+00 3.1655931E+00
  0.000E+00  1.478E+00  1.218E-01 3.4743504E+00 -1.6724865E+00 3.0713475E+00
  4.318E-02  1.456E+00  1.101E-01 3.4561926E+00 -1.5841651E+00 3.0899951E+00
  0.000E+00  1.521E+00  1.467E-01 3.5002646E+00 -1.8236608E+00 2.9843400E+00
  4.318E-02  1.500E+00  1.340E-01 3.4905791E+00 -1.7361131E+00 3.0071731E+00
  0.000E+00  1.563E+00  1.738E-01 3.4968414E+00 -1.9701626E+00 2.8897026E+00
  4.318E-02  1.543E+00  1.600E-01 3.4897816E+00 -1.8840097E+00 2.9170191E+00
  0.000E+00  1.604E+00  2.029E-01 3.5180634E+00 -2.1117225E+00 2.7878733E+00
  4.318E-02  1.584E+00  1.881E-01 3.5213240E+00 -2.0270016E+00 2.8194019E+00
  0.000E+00  1.643E+00  2.340E-01 3.5255946E+00 -2.2480876E+00 2.6791730E+00
  4.318E-02  1.623E+00  2.182E-01 3.5117591E+00 -2.1650408E+00 2.7148813E+00
  0.000E+00  1.680E+00  2.669E-01 3.5269957E+00 -2.3788299E+00 2.5637762E+00
  4.318E-02  1.662E+00  2.502E-01 3.5284193E+00 -2.2976745E+00 2.6035902E+00
  0.000E+00  1.716E+00  3.018E-01 3.5282638E+00 -2.5036700E+00 2.4420110E+00
  4.318E-02  1.698E+00  2.841E-01 3.5282695E+00 -2.4245958E+00 2.4858190E+00
  0.000E+00  1.750E+00  3.383E-01 3.5284133E+00 -2.6222870E+00 2.3141779E+00
  4.318E-02  1.733E+00  3.198E-01 3.5270013E+00 -2.5454922E+00 2.3618686E+00
  0.000E+00  1.782E+00  3.765E-01 3.5117528E+00 -2.7343777E+00 2.1805919E+00
  4.318E-02  1.766E+00  3.572E-01 3.5256005E+00 -2.6600663E+00 2.2320587E+00
  0.000E+00  1.812E+00  4.163E-01 3.5213177E+00 -2.8396497E+00 2.0415615E+00
  4.318E-02  1.797E+00  3.962E-01 3.5180695E+00 -2.7679919E+00 2.0966665E+00
  0.000E+00  1.840E+00  4.575E-01 3.4897755E+00 -2.9379674E+00 1.8975424E+00
  4.318E-02  1.826E+00  4.367E-01 3.4968475E+00 -2.8690956E+00 1.9561166E+00
  0.000E+00  1.866E+00  5.000E-01 3.4905732E+00 -3.0287678E+00 1.7485836E+00
  4.318E-02  1.853E+00  4.786E-01 3.5002696E+00 -2.9630564E+00 1.8106586E+00
  0.000E+00  1.890E+00  5.438E-01 3.4561866E+00 -3.1121856E+00 1.5955450E+00
  4.318E-02  1.878E+00  5.217E-01 3.4743546E+00 -3.0494433E+00 1.6605611E+00
  0.000E+00  1.912E+00  5.887E-01 3.4588521E+00 -3.1883272E+00 1.4388246E+00
  4.318E-02  1.901E+00  5.661E-01 3.4566054E+00 -3.1288005E+00 1.5069152E+00
  0.000E+00  1.931E+00  6.347E-01 3.4329169E+00 -3.2553998E+00 1.2771867E+00
  4.318E-02  1.921E+00  6.116E-01 3.4484579E+00 -3.2000720E+00 1.3489216E+00
  0.000E+00  1.948E+00  6.815E-01 3.4040747E+00 -3.3143706E+00 1.1127299E+00
  4.318E-02  1.940E+00  6.580E-01 3.4144539E+00 -3.2622678E+00 1.1865251E+00
  0.000E+00  1.963E+00  7.292E-01 3.4008554E+00 -3.3668834E+00 9.4769798E-01
  4.318E-02  1.956E+00  7.052E-01 3.4033043E+00 -3.3176877E+00 1.0230251E+00
  0.000E+00  1.975E+00  7.775E-01 3.3889991E+00 -3.4109440E+00 7.7994820E-01
  4.318E-02  1.969E+00  7.532E-01 3.3962310E+00 -3.3659578E+00 8.5816132E-01
  0.000E+00  1.985E+00  8.264E-01 3.3707364E+00 -3.4449511E+00 6.0822100E-01
  4.318E-02  1.980E+00  8.019E-01 3.3796918E+00 -3.4047136E+00 6.8954638E-01
  0.000E+00  1.992E+00  8.757E-01 3.3551780E+00 -3.4699903E+00 4.3445692E-01
  4.318E-02  1.989E+00  8.510E-01 3.3619224E+00 -3.4338486E+00 5.1772908E-01
  0.000E+00  1.997E+00  9.253E-01 3.3463001E+00 -3.4870359E+00 2.6051937E-01
  4.318E-02  1.995E+00  9.004E-01 3.3499964E+00 -3.4546843E+00 3.4497502E-01
  0.000E+00  2.000E+00  9.751E-01 3.3428784E+00 -3.4958337E+00 8.6813615E-02
  4.318E-02  1.999E+00  9.502E-01 3.3445043E+00 -3.4676013E+00 1.7240672E-01
  0.000E+00  2.000E+00  1.025E+00 3.3428782E+00 -3.4958334E+00 -8.6817611E-02
  4.318E-02  2.000E+00  1.000E+00 3.3430877E+00 -3.4720244E+00 -1.6255239E-06
  0.000E+00  1.997E+00  1.075E+00 3.3462995E+00 -3.4870352E+00 -2.6052326E-01
  4.318E-02  1.999E+00  1.050E+00 3.3445039E+00 -3.4676012E+00 -1.7241001E-01
  0.000E+00  1.992E+00  1.124E+00 3.3551768E+00 -3.4699894E+00 -4.3446069E-01
  4.318E-02  1.995E+00  1.100E+00 3.3499958E+00 -3.4546839E+00 -3.4497840E-01
  0.000E+00  1.985E+00  1.174E+00 3.3707344E+00 -3.4449506E+00 -6.0822471E-01
  4.318E-02  1.989E+00  1.149E+00 3.3619216E+00 -3.4338483E+00 -5.1773252E-01
  0.000E+00  1.975E+00  1.223E+00 3.3889964E+00 -3.4109441E+00 -7.7995191E-01
  4.318E-02  1.980E+00  1.198E+00 3.3796909E+00 -3.4047137E+00 -6.8954979E-01
  0.000E+00  1.963E+00  1.271E+00 3.4008522E+00 -3.3668831E+00 -9.4770170E-01
  4.318E-02  1.969E+00  1.247E+00 3.3962299E+00 -3.3659580E+00 -8.5816465E-01
  0.000E+00  1.948E+00  1.318E+00 3.4040715E+00 -3.3143690E+00 -1.1127336E+00
  4.318E-02  1.956E+00  1.295E+00 3.4033028E+00 -3.3176867E+00 -1.0230284E+00
  0.000E+00  1.931E+00  1.365E+00 3.4329138E+00 -3.2553996E+00 -1.2771904E+00
  4.318E-02  1.940E+00  1.342E+00 3.4144518E+00 -3.2622666E+00 -1.1865283E+00
  0.000E+00  1.912E+00  1.411E+00 3.4588491E+00 -3.1883272E+00 -1.4388282E+00
  4.318E-02  1.921E+00  1.388E+00 3.4484552E+00 -3.2000726E+00 -1.3489248E+00
  0.000E+00  1.890E+00  1.456E+00 3.4561836E+00 -3.1121838E+00 -1.5955486E+00
  4.318E-02  1.901E+00  1.434E+00 3.4566021E+00 -3.1287996E+00 -1.5069183E+00
  0.000E+00  1.866E+00  1.500E+00 3.4905702E+00 -3.0287675E+00 -1.7485871E+00
  4.318E-02  1.878E+00  1.478E+00 3.4743507E+00 -3.0494425E+00 -1.6605642E+00
  0.000E+00  1.840E+00  1.543E+00 3.4897723E+00 -2.9379665E+00 -1.8975458E+00
  4.318E-02  1.853E+00  1.521E+00 3.5002653E+00 -2.9630565E+00 -1.8106616E+00
  0.000E+00  1.812E+00  1.584E+00 3.5213142E+00 -2.8396489E+00 -2.0415649E+00
  4.318E-02  1.826E+00  1.563E+00 3.4968429E+00 -2.8690947E+00 -1.9561196E+00
  0.000E+00  1.782E+00  1.623E+00 3.5117488E+00 -2.7343770E+00 -2.1805952E+00
  4.318E-02  1.797E+00  1.604E+00 3.5180647E+00 -2.7679916E+00 -2.0966695E+00
  0.000E+00  1.750E+00  1.662E+00 3.5284088E+00 -2.6222861E+00 -2.3141812E+00
  4.318E-02  1.766E+00  1.643E+00 3.5255956E+00 -2.6600656E+00 -2.2320616E+00
  0.000E+00  1.716E+00  1.698E+00 3.5282590E+00 -2.5036692E+00 -2.4420141E+00
  4.318E-02  1.733E+00  1.680E+00 3.5269964E+00 -2.5454918E+00 -2.3618715E+00
  0.000E+00  1.680E+00  1.733E+00 3.5269908E+00 -2.3788289E+00 -2.5637792E+00
  4.318E-02  1.698E+00  1.716E+00 3.5282643E+00 -2.4245953E+00 -2.4858218E+00
  0.000E+00  1.643E+00  1.766E+00 3.5255900E+00 -2.2480868E+00 -2.6791759E+00
  4.318E-02  1.662E+00  1.750E+00 3.5284136E+00 -2.2976740E+00 -2.6035930E+00
  0.000E+00  1.604E+00  1.797E+00 3.5180591E+00 -2.1117221E+00 -2.7878763E+00
  4.318E-02  1.623E+00  1.782E+00 3.5117529E+00 -2.1650402E+00 -2.7148840E+00
  0.000E+00  1.563E+00  1.826E+00 3.4968367E+00 -1.9701627E+00 -2.8897057E+00
  4.318E-02  1.584E+00  1.812E+00 3.5213175E+00 -2.0270005E+00 -2.8194046E+00
  0.000E+00  1.521E+00  1.853E+00 3.5002582E+00 -1.8236602E+00 -2.9843429E+00
  4.318E-02  1.543E+00  1.840E+00 3.4897754E+00 -1.8840086E+00 -2.9170217E+00
  0.000E+00  1.478E+00  1.878E+00 3.4743430E+00 -1.6724840E+00 -3.0713498E+00
  4.318E-02  1.500E+00  1.866E+00 3.4905736E+00 -1.7361130E+00 -3.0071759E+00
  0.000E+00  1.434E+00  1.901E+00 3.4565949E+00 -1.5177341E+00 -3.1512758E+00
  4.318E-02  1.456E+00  1.890E+00 3.4561869E+00 -1.5841664E+00 -3.0899979E+00
  0.000E+00  1.388E+00  1.921E+00 3.4484492E+00 -1.3586070E+00 -3.2230591E+00
  4.318E-02  1.411E+00  1.912E+00 3.4588512E+00 -1.4285626E+00 -3.1655956E+00
  0.000E+00  1.342E+00  1.940E+00 3.4144454E+00 -1.1950468E+00 -3.2857012E+00
  4.318E-02  1.365E+00  1.931E+00 3.4329149E+00 -1.2680755E+00 -3.2321890E+00
  0.000E+00  1.295E+00  1.956E+00 3.4032941E+00 -1.0303740E+00 -3.3415208E+00
  4.318E-02  1.318E+00  1.948E+00 3.4040729E+00 -1.1047901E+00 -3.2907389E+00
  0.000E+00  1.247E+00  1.969E+00 3.3962188E+00 -8.6432490E-01 -3.3901393E+00
  4.318E-02  1.271E+00  1.963E+00 3.4008549E+00 -9.4093539E-01 -3.3428783E+00
  0.000E+00  1.198E+00  1.980E+00 3.3796791E+00 -6.9449612E-01 -3.4291730E+00
  4.318E-02  1.223E+00  1.975E+00 3.3889997E+00 -7.7438390E-01 -3.3866251E+00
  0.000E+00  1.149E+00  1.989E+00 3.3619109E+00 -5.2144266E-01 -3.4585157E+00
  4.318E-02  1.174E+00  1.985E+00 3.3707371E+00 -6.0388346E-01 -3.4203894E+00
  0.000E+00  1.100E+00  1.995E+00 3.3499866E+00 -3.4744755E-01 -3.4794997E+00
  4.318E-02  1.124E+00  1.992E+00 3.3551781E+00 -4.3135949E-01 -3.4452497E+00
  0.000E+00  1.050E+00  1.999E+00 3.3444956E+00 -1.7364109E-01 -3.4925088E+00
  4.318E-02  1.075E+00  1.997E+00 3.3462996E+00 -2.5866199E-01 -3.4621736E+00
  0.000E+00  1.000E+00  2.000E+00 3.3430794E+00 3.5232830E-06 -3.4969634E+00
  4.318E-02  1.025E+00  2.000E+00 3.3428774E+00 -8.6193844E-02 -3.4709087E+00
  0.000E+00  9.502E-01  1.999E+00 3.3444954E+00 1.7364812E-01 -3.4925087E+00
  4.318E-02  9.751E-01  2.000E+00 3.3428773E+00 8.6200572E-02 -3.4709086E+00
  0.000E+00  9.004E-01  1.995E+00 3.3499862E+00 3.4745457E-01 -3.4794994E+00
  4.318E-02  9.253E-01  1.997E+00 3.3462993E+00 2.5866870E-01 -3.4621734E+00
  0.000E+00  8.510E-01  1.989E+00 3.3619104E+00 5.2144964E-01 -3.4585153E+00
  4.318E-02  8.757E-01  1.992E+00 3.3551777E+00 4.3136618E-01 -3.4452494E+00
  0.000E+00  8.019E-01  1.980E+00 3.3796784E+00 6.9450306E-01 -3.4291725E+00
  4.318E-02  8.264E-01  1.985E+00 3.3707365E+00 6.0389011E-01 -3.4203889E+00
  0.000E+00  7.532E-01  1.969E+00 3.3962179E+00 8.6433179E-01 -3.3901386E+00
  4.318E-02  7.775E-01  1.975E+00 3.3889989E+00 7.7439051E-01 -3.3866245E+00
  0.000E+00  7.052E-01  1.956E+00 3.4032931E+00 1.0303808E+00 -3.3415200E+00
  4.318E-02  7.292E-01  1.963E+00 3.4008540E+00 9.4094194E-01 -3.3428776E+00
  0.000E+00  6.580E-01  1.940E+00 3.4144443E+00 1.1950535E+00 -3.2857002E+00
  4.318E-02  6.815E-01  1.948E+00 3.4040718E+00 1.1047966E+00 -3.2907381E+00
  0.000E+00  6.116E-01  1.921E+00 3.4484479E+00 1.3586137E+00 -3.2230580E+00
  4.318E-02  6.347E-01  1.931E+00 3.4329136E+00 1.2680819E+00 -3.2321881E+00
  0.000E+00  5.661E-01  1.901E+00 3.4565934E+00 1.5177407E+00 -3.1512747E+00
  4.318E-02  5.887E-01  1.912E+00 3.4588497E+00 1.4285689E+00 -3.1655946E+00
  0.000E+00  5.217E-01  1.878E+00 3.4743413E+00 1.6724905E+00 -3.0713486E+00
  4.318E-02  5.438E-01  1.890E+00 3.4561853E+00 1.5841727E+00 -3.0899968E+00
  0.000E+00  4.786E-01  1.853E+00 3.5002565E+00 1.8236665E+00 -2.9843416E+00
  4.318E-02  5.000E-01  1.866E+00 3.4905719E+00 1.7361191E+00 -3.0071747E+00
  0.000E+00  4.367E-01  1.826E+00 3.4968348E+00 1.9701689E+00 -2.8897043E+00
  4.318E-02  4.575E-01  1.840E+00 3.4897735E+00 1.8840146E+00 -2.9170204E+00
  0.000E+00  3.962E-01  1.797E+00 3.5180570E+00 2.1117282E+00 -2.7878749E+00
  4.318E-02  4.163E-01  1.812E+00 3.5213155E+00 2.0270064E+00 -2.8194032E+00
  0.000E+00  3.572E-01  1.766E+00 3.5255879E+00 2.2480928E+00 -2.6791745E+00
  4.318E-02  3.765E-01  1.782E+00 3.5117508E+00 2.1650460E+00 -2.7148827E+00
  0.000E+00  3.198E-01  1.733E+00 3.5269886E+00 2.3788348E+00 -2.5637777E+00
  4.318E-02  3.383E-01  1.750E+00 3.5284114E+00 2.2976797E+00 -2.6035917E+00
  0.000E+00  2.841E-01  1.698E+00 3.5282566E+00 2.5036749E+00 -2.4420127E+00
  4.318E-02  3.018E-01  1.716E+00 3.5282619E+00 2.4246009E+00 -2.4858205E+00
  0.000E+00  2.502E-01  1.662E+00 3.5284064E+00 2.6222918E+00 -2.3141797E+00
  4.318E-02  2.669E-01  1.680E+00 3.5269939E+00 2.5454971E+00 -2.3618701E+00
  0.000E+00  2.182E-01  1.623E+00 3.5117463E+00 2.7343824E+00 -2.1805938E+00
  4.318E-02  2.340E-01  1.643E+00 3.5255930E+00 2.6600710E+00 -2.2320602E+00
  0.000E+00  1.881E-01  1.584E+00 3.5213116E+00 2.8396543E+00 -2.0415635E+00
  4.318E-02  2.029E-01  1.604E+00 3.5180621E+00 2.7679966E+00 -2.0966682E+00
  0.000E+00  1.600E-01  1.543E+00 3.4897696E+00 2.9379719E+00 -1.8975444E+00
  4.318E-02  1.738E-01  1.563E+00 3.4968401E+00 2.8691003E+00 -1.9561183E+00
  0.000E+00  1.340E-01  1.500E+00 3.4905674E+00 3.0287722E+00 -1.7485858E+00
  4.318E-02  1.467E-01  1.521E+00 3.5002625E+00 2.9630609E+00 -1.8106604E+00
  0.000E+00  1.101E-01  1.456E+00 3.4561808E+00 3.1121900E+00 -1.5955474E+00
  4.318E-02  1.218E-01  1.478E+00 3.4743478E+00 3.0494478E+00 -1.6605630E+00
  0.000E+00  8.849E-02  1.411E+00 3.4588462E+00 3.1883316E+00 -1.4388271E+00
  4.318E-02  9.903E-02  1.434E+00 3.4565991E+00 3.1288049E+00 -1.5069172E+00
  0.000E+00  6.913E-02  1.365E+00 3.4329109E+00 3.2554043E+00 -1.2771894E+00
  4.318E-02  7.852E-02  1.388E+00 3.4484521E+00 3.2000764E+00 -1.3489237E+00
  0.000E+00  5.207E-02  1.318E+00 3.4040685E+00 3.3143750E+00 -1.1127327E+00
  4.318E-02  6.031E-02  1.342E+00 3.4144487E+00 3.2622721E+00 -1.1865274E+00
  0.000E+00  3.738E-02  1.271E+00 3.4008492E+00 3.3668878E+00 -9.4770090E-01
  4.318E-02  4.443E-02  1.295E+00 3.4032997E+00 3.3176919E+00 -1.0230276E+00
  0.000E+00  2.507E-02  1.223E+00 3.3889933E+00 3.4109483E+00 -7.7995123E-01
  4.318E-02  3.092E-02  1.247E+00 3.3962267E+00 3.3659620E+00 -8.5816394E-01
  0.000E+00  1.519E-02  1.174E+00 3.3707314E+00 3.4449554E+00 -6.0822416E-01
  4.318E-02  1.983E-02  1.198E+00 3.3796877E+00 3.4047179E+00 -6.8954920E-01
  0.000E+00  7.761E-03  1.124E+00 3.3551737E+00 3.4699945E+00 -4.3446028E-01
  4.318E-02  1.117E-02  1.149E+00 3.3619184E+00 3.4338530E+00 -5.1773205E-01
  0.000E+00  2.796E-03  1.075E+00 3.3462964E+00 3.4870402E+00 -2.6052299E-01
  4.318E-02  4.969E-03  1.100E+00 3.3499926E+00 3.4546888E+00 -3.4497807E-01
  0.000E+00  3.108E-04  1.025E+00 3.3428751E+00 3.4958382E+00 -8.6817473E-02
  4.318E-02  1.243E-03  1.050E+00 3.3445007E+00 3.4676058E+00 -1.7240981E-01
  0.000E+00  3.108E-04  9.751E-01 3.3428753E+00 3.4958382E+00 8.6813613E-02
  4.318E-02  0.000E+00  1.000E+00 3.3430844E+00 3.4720288E+00 -1.5607051E-06
  0.000E+00  2.796E-03  9.253E-01 3.3462970E+00 3.4870402E+00 2.6051923E-01
  4.318E-02  1.243E-03  9.502E-01 3.3445011E+00 3.4676055E+00 1.7240665E-01
  0.000E+00  7.761E-03  8.757E-01 3.3551749E+00 3.4699945E+00 4.3445664E-01
  4.318E-02  4.969E-03  9.004E-01 3.3499932E+00 3.4546883E+00 3.4497482E-01
  0.000E+00  1.519E-02  8.264E-01 3.3707333E+00 3.4449557E+00 6.0822058E-01
  4.318E-02  1.117E-02  8.510E-01 3.3619192E+00 3.4338528E+00 5.1772875E-01
  0.000E+00  2.507E-02  7.775E-01 3.3889960E+00 3.4109492E+00 7.7994765E-01
  4.318E-02  1.983E-02  8.019E-01 3.3796886E+00 3.4047184E+00 6.8954592E-01
  0.000E+00  3.738E-02  7.292E-01 3.4008524E+00 3.3668883E+00 9.4769730E-01
  4.318E-02  3.092E-02  7.532E-01 3.3962278E+00 3.3659628E+00 8.5816074E-01
  0.000E+00  5.207E-02  6.815E-01 3.4040717E+00 3.3143742E+00 1.1127291E+00
  4.318E-02  4.443E-02  7.052E-01 3.4033012E+00 3.3176916E+00 1.0230245E+00
  0.000E+00  6.913E-02  6.347E-01 3.4329140E+00 3.2554050E+00 1.2771858E+00
  4.318E-02  6.031E-02  6.580E-01 3.4144508E+00 3.2622717E+00 1.1865243E+00
  0.000E+00  8.849E-02  5.887E-01 3.4588492E+00 3.1883328E+00 1.4388236E+00
  4.318E-02  7.852E-02  6.116E-01 3.4484549E+00 3.2000777E+00 1.3489207E+00
  0.000E+00  1.101E-01  5.438E-01 3.4561838E+00 3.1121896E+00 1.5955439E+00
  4.318E-02  9.903E-02  5.661E-01 3.4566024E+00 3.1288048E+00 1.5069142E+00
  0.000E+00  1.340E-01  5.000E-01 3.4905705E+00 3.0287734E+00 1.7485824E+00
  4.318E-02  1.218E-01  5.217E-01 3.4743516E+00 3.0494478E+00 1.6605600E+00
  0.000E+00  1.600E-01  4.575E-01 3.4897728E+00 2.9379726E+00 1.8975411E+00
  4.318E-02  1.467E-01  4.786E-01 3.5002667E+00 2.9630619E+00 1.8106574E+00
  0.000E+00  1.881E-01  4.163E-01 3.5213151E+00 2.8396551E+00 2.0415602E+00
  4.318E-02  1.738E-01  4.367E-01 3.4968447E+00 2.8691003E+00 1.9561154E+00
  0.000E+00  2.182E-01  3.765E-01 3.5117503E+00 2.7343833E+00 2.1805906E+00
  4.318E-02  2.029E-01  3.962E-01 3.5180668E+00 2.7679974E+00 2.0966653E+00
  0.000E+00  2.502E-01  3.383E-01 3.5284109E+00 2.6222925E+00 2.3141766E+00
  4.318E-02  2.340E-01  3.572E-01 3.5255979E+00 2.6600714E+00 2.2320574E+00
  0.000E+00  2.841E-01  3.018E-01 3.5282615E+00 2.5036758E+00 2.4420096E+00
  4.318E-02  2.669E-01  3.198E-01 3.5269988E+00 2.5454977E+00 2.3618673E+00
  0.000E+00  3.198E-01  2.669E-01 3.5269935E+00 2.3788357E+00 2.5637748E+00
  4.318E-02  3.018E-01  2.841E-01 3.5282671E+00 2.4246012E+00 2.4858177E+00
  0.000E+00  3.572E-01  2.340E-01 3.5255925E+00 2.2480935E+00 2.6791716E+00
  4.318E-02  3.383E-01  2.502E-01 3.5284170E+00 2.2976801E+00 2.6035889E+00
  0.000E+00  3.962E-01  2.029E-01 3.5180614E+00 2.1117285E+00 2.7878720E+00
  4.318E-02  3.765E-01  2.182E-01 3.5117569E+00 2.1650465E+00 2.7148800E+00
  0.000E+00  4.367E-01  1.738E-01 3.4968395E+00 1.9701688E+00 2.8897013E+00
  4.318E-02  4.163E-01  1.881E-01 3.5213220E+00 2.0270074E+00 2.8194007E+00
  0.000E+00  4.786E-01  1.467E-01 3.5002629E+00 1.8236671E+00 2.9843388E+00
  4.318E-02  4.575E-01  1.600E-01 3.4897797E+00 1.8840156E+00 2.9170179E+00
  0.000E+00  5.217E-01  1.218E-01 3.4743488E+00 1.6724929E+00 3.0713463E+00
  4.318E-02  5.000E-01  1.340E-01 3.4905773E+00 1.7361192E+00 3.0071720E+00
  0.000E+00  5.661E-01  9.903E-02 3.4565990E+00 1.5177436E+00 3.1512726E+00
  4.318E-02  5.438E-01  1.101E-01 3.4561910E+00 1.5841712E+00 3.0899941E+00
  0.000E+00  6.116E-01  7.852E-02 3.4484500E+00 1.3586133E+00 3.2230552E+00
  4.318E-02  5.887E-01  8.849E-02 3.4588571E+00 1.4285682E+00 3.1655921E+00
  0.000E+00  6.580E-01  6.031E-02 3.4144462E+00 1.1950477E+00 3.2856959E+00
  4.318E-02  6.347E-01  6.913E-02 3.4329225E+00 1.2680845E+00 3.2321862E+00
  0.000E+00  7.052E-01  4.443E-02 3.4032995E+00 1.0303730E+00 3.3415147E+00
  4.318E-02  6.815E-01  5.207E-02 3.4040798E+00 1.1048024E+00 3.2907370E+00
  0.000E+00  7.532E-01  3.092E-02 3.3962293E+00 8.6432741E-01 3.3901334E+00
  4.318E-02  7.292E-01  3.738E-02 3.4008594E+00 9.4094725E-01 3.3428770E+00
  0.000E+00  8.019E-01  1.983E-02 3.3796910E+00 6.9450475E-01 3.4291681E+00
  4.318E-02  7.775E-01  2.507E-02 3.3890027E+00 7.7439186E-01 3.3866237E+00
  0.000E+00  8.510E-01  1.117E-02 3.3619202E+00 5.2145556E-01 3.4585120E+00
  4.318E-02  8.264E-01  1.519E-02 3.3707408E+00 6.0388736E-01 3.4203876E+00
  0.000E+00  9.004E-01  4.969E-03 3.3499924E+00 3.4746093E-01 3.4794969E+00
  4.318E-02  8.757E-01  7.761E-03 3.3551837E+00 4.3136169E-01 3.4452474E+00
  4.318E-02  9.253E-01  2.796E-03 3.3463070E+00 2.5866502E-01 3.4621710E+00
  1.000E+01  1.050E+00  1.243E-03 3.3444992E+00 -1.7364505E-01 3.4925067E+00
  1.000E+01  1.000E+00  5.551E-16 3.3430822E+00 3.4573400E-06 3.4969615E+00
  9.957E+00  1.025E+00  3.108E-04 3.3428924E+00 -8.7437131E-02 3.5210333E+00
  1.000E+01  9.502E-01  1.243E-03 3.3444990E+00 1.7365196E-01 3.4925066E+00
  9.957E+00  9.751E-01  3.108E-04 3.3428923E+00 8.7444339E-02 3.5210332E+00
  1.000E+01  9.004E-01  4.969E-03 3.3499924E+00 3.4746093E-01 3.4794969E+00
  9.957E+00  9.253E-01  2.796E-03 3.3463131E+00 2.6240105E-01 3.5121720E+00
  1.000E+01  8.510E-01  1.117E-02 3.3619202E+00 5.2145556E-01 3.4585120E+00
  9.957E+00  8.757E-01  7.761E-03 3.3551892E+00 4.3759192E-01 3.4950039E+00
  1.000E+01  8.019E-01  1.983E-02 3.3796910E+00 6.9450475E-01 3.4291681E+00
  9.957E+00  8.264E-01  1.519E-02 3.3707457E+00 6.1260922E-01 3.4697849E+00
  1.000E+01  7.532E-01  3.092E-02 3.3962293E+00 8.6432741E-01 3.3901334E+00
  9.957E+00  7.775E-01  2.507E-02 3.3890075E+00 7.8557602E-01 3.4355336E+00
  1.000E+01  7.052E-01  4.443E-02 3.4032995E+00 1.0303730E+00 3.3415147E+00
  9.957E+00  7.292E-01  3.738E-02 3.4008649E+00 9.5453677E-01 3.3911554E+00
  1.000E+01  6.580E-01  6.031E-02 3.4144462E+00 1.1950477E+00 3.2856959E+00
  9.957E+00  6.815E-01  5.207E-02 3.4040861E+00 1.1207585E+00 3.3382625E+00
  1.000E+01  6.116E-01  7.852E-02 3.4484500E+00 1.3586133E+00 3.2230552E+00
  9.957E+00  6.347E-01  6.913E-02 3.4329290E+00 1.2863991E+00 3.2788656E+00
  1.000E+01  5.661E-01  9.903E-02 3.4565990E+00 1.5177436E+00 3.1512726E+00
  9.957E+00  5.887E-01  8.849E-02 3.4588631E+00 1.4492005E+00 3.2113094E+00
  1.000E+01  5.217E-01  1.218E-01 3.4743488E+00 1.6724929E+00 3.0713463E+00
  9.957E+00  5.438E-01  1.101E-01 3.4561964E+00 1.6070505E+00 3.1346196E+00
  1.000E+01  4.786E-01  1.467E-01 3.5002629E+00 1.8236671E+00 2.9843388E+00
  9.957E+00  5.000E-01  1.340E-01 3.4905828E+00 1.7611928E+00 3.0506017E+00
  1.000E+01  4.367E-01  1.738E-01 3.4968395E+00 1.9701688E+00 2.8897013E+00
  9.957E+00  4.575E-01  1.600E-01 3.4897856E+00 1.9112253E+00 2.9591458E+00
  1.000E+01  3.962E-01  2.029E-01 3.5180614E+00 2.1117285E+00 2.7878720E+00
  9.957E+00  4.163E-01  1.881E-01 3.5213279E+00 2.0562821E+00 2.8601187E+00
  1.000E+01  3.572E-01  2.340E-01 3.5255925E+00 2.2480935E+00 2.6791716E+00
  9.957E+00  3.765E-01  2.182E-01 3.5117626E+00 2.1963147E+00 2.7540884E+00
  1.000E+01  3.198E-01  2.669E-01 3.5269935E+00 2.3788357E+00 2.5637748E+00
  9.957E+00  3.383E-01  2.502E-01 3.5284226E+00 2.3308638E+00 2.6411900E+00
  1.000E+01  2.841E-01  3.018E-01 3.5282615E+00 2.5036758E+00 2.4420096E+00
  9.957E+00  3.018E-01  2.841E-01 3.5282728E+00 2.4596179E+00 2.5217180E+00
  1.000E+01  2.502E-01  3.383E-01 3.5284109E+00 2.6222925E+00 2.3141766E+00
  9.957E+00  2.669E-01  3.198E-01 3.5270046E+00 2.5822605E+00 2.3959775E+00
  1.000E+01  2.182E-01  3.765E-01 3.5117503E+00 2.7343833E+00 2.1805906E+00
  9.957E+00  2.340E-01  3.572E-01 3.5256037E+00 2.6984889E+00 2.2642929E+00
  1.000E+01  1.881E-01  4.163E-01 3.5213151E+00 2.8396551E+00 2.0415602E+00
  9.957E+00  2.029E-01  3.962E-01 3.5180725E+00 2.8079735E+00 2.1269454E+00
  1.000E+01  1.600E-01  4.575E-01 3.4897728E+00 2.9379726E+00 1.8975411E+00
  9.957E+00  1.738E-01  4.367E-01 3.4968502E+00 2.9105364E+00 1.9843654E+00
  1.000E+01  1.340E-01  5.000E-01 3.4905705E+00 3.0287734E+00 1.7485824E+00
  9.957E+00  1.467E-01  4.786E-01 3.5002724E+00 3.0058552E+00 1.8368067E+00
  1.000E+01  1.101E-01  5.438E-01 3.4561838E+00 3.1121896E+00 1.5955439E+00
  9.957E+00  1.218E-01  5.217E-01 3.4743575E+00 3.0934889E+00 1.6845418E+00
  1.000E+01  8.849E-02  5.887E-01 3.4588492E+00 3.1883328E+00 1.4388236E+00
  9.957E+00  9.903E-02  5.661E-01 3.4566085E+00 3.1739922E+00 1.5286771E+00
  1.000E+01  6.913E-02  6.347E-01 3.4329140E+00 3.2554050E+00 1.2771858E+00
  9.957E+00  7.852E-02  6.116E-01 3.4484608E+00 3.2462942E+00 1.3684015E+00
  1.000E+01  5.207E-02  6.815E-01 3.4040717E+00 3.3143742E+00 1.1127291E+00
  9.957E+00  6.031E-02  6.580E-01 3.4144563E+00 3.3093862E+00 1.2036594E+00
  1.000E+01  3.738E-02  7.292E-01 3.4008524E+00 3.3668883E+00 9.4769730E-01
  9.957E+00  4.443E-02  7.052E-01 3.4033067E+00 3.3656064E+00 1.0377982E+00
  1.000E+01  2.507E-02  7.775E-01 3.3889960E+00 3.4109492E+00 7.7994765E-01
  9.957E+00  3.092E-02  7.532E-01 3.3962336E+00 3.4145748E+00 8.7055379E-01
  1.000E+01  1.519E-02  8.264E-01 3.3707333E+00 3.4449557E+00 6.0822058E-01
  9.957E+00  1.983E-02  8.019E-01 3.3796946E+00 3.4538901E+00 6.9950415E-01
  1.000E+01  7.761E-03  8.757E-01 3.3551749E+00 3.4699945E+00 4.3445664E-01
  9.957E+00  1.117E-02  8.510E-01 3.3619252E+00 3.4834454E+00 5.2520579E-01
  1.000E+01  2.796E-03  9.253E-01 3.3462970E+00 3.4870402E+00 2.6051923E-01
  9.957E+00  4.969E-03  9.004E-01 3.3499992E+00 3.5045819E+00 3.4995691E-01
  1.000E+01  3.108E-04  9.751E-01 3.3428753E+00 3.4958382E+00 8.6813613E-02
  9.957E+00  1.243E-03  9.502E-01 3.3445070E+00 3.5176856E+00 1.7489632E-01
  1.000E+01  3.108E-04  1.025E+00 3.3428751E+00 3.4958382E+00 -8.6817473E-02
  9.957E+00  0.000E+00  1.000E+00 3.3430903E+00 3.5221727E+00 -2.0680649E-06
  1.000E+01  2.796E-03  1.075E+00 3.3462964E+00 3.4870402E+00 -2.6052299E-01
  9.957E+00  1.243E-03  1.050E+00 3.3445066E+00 3.5176858E+00 -1.7490048E-01
  1.000E+01  7.761E-03  1.124E+00 3.3551737E+00 3.4699945E+00 -4.3446028E-01
  9.957E+00  4.969E-03  1.100E+00 3.3499986E+00 3.5045823E+00 -3.4996111E-01
  1.000E+01  1.519E-02  1.174E+00 3.3707314E+00 3.4449554E+00 -6.0822416E-01
  9.957E+00  1.117E-02  1.149E+00 3.3619244E+00 3.4834456E+00 -5.2521000E-01
  1.000E+01  2.507E-02  1.223E+00 3.3889933E+00 3.4109483E+00 -7.7995123E-01
  9.957E+00  1.983E-02  1.198E+00 3.3796937E+00 3.4538896E+00 -6.9950834E-01
  1.000E+01  3.738E-02  1.271E+00 3.4008492E+00 3.3668878E+00 -9.4770090E-01
  9.957E+00  3.092E-02  1.247E+00 3.3962325E+00 3.4145739E+00 -8.7055796E-01
  1.000E+01  5.207E-02  1.318E+00 3.4040685E+00 3.3143750E+00 -1.1127327E+00
  9.957E+00  4.443E-02  1.295E+00 3.4033052E+00 3.3656066E+00 -1.0378024E+00
  1.000E+01  6.913E-02  1.365E+00 3.4329109E+00 3.2554043E+00 -1.2771894E+00
  9.957E+00  6.031E-02  1.342E+00 3.4144543E+00 3.3093864E+00 -1.2036635E+00
  1.000E+01  8.849E-02  1.411E+00 3.4588462E+00 3.1883316E+00 -1.4388271E+00
  9.957E+00  7.852E-02  1.388E+00 3.4484581E+00 3.2462927E+00 -1.3684056E+00
  1.000E+01  1.101E-01  1.456E+00 3.4561808E+00 3.1121900E+00 -1.5955474E+00
  9.957E+00  9.903E-02  1.434E+00 3.4566053E+00 3.1739921E+00 -1.5286811E+00
  1.000E+01  1.340E-01  1.500E+00 3.4905674E+00 3.0287722E+00 -1.7485858E+00
  9.957E+00  1.218E-01  1.478E+00 3.4743538E+00 3.0934887E+00 -1.6845457E+00
  1.000E+01  1.600E-01  1.543E+00 3.4897696E+00 2.9379719E+00 -1.8975444E+00
  9.957E+00  1.467E-01  1.521E+00 3.5002682E+00 3.0058540E+00 -1.8368106E+00
  1.000E+01  1.881E-01  1.584E+00 3.5213116E+00 2.8396543E+00 -2.0415635E+00
  9.957E+00  1.738E-01  1.563E+00 3.4968457E+00 2.9105362E+00 -1.9843692E+00
  1.000E+01  2.182E-01  1.623E+00 3.5117463E+00 2.7343824E+00 -2.1805938E+00
  9.957E+00  2.029E-01  1.604E+00 3.5180679E+00 2.8079725E+00 -2.1269491E+00
  1.000E+01  2.502E-01  1.662E+00 3.5284064E+00 2.6222918E+00 -2.3141797E+00
  9.957E+00  2.340E-01  1.643E+00 3.5255989E+00 2.6984884E+00 -2.2642966E+00
  1.000E+01  2.841E-01  1.698E+00 3.5282566E+00 2.5036749E+00 -2.4420127E+00
  9.957E+00  2.669E-01  1.680E+00 3.5269997E+00 2.5822597E+00 -2.3959811E+00
  1.000E+01  3.198E-01  1.733E+00 3.5269886E+00 2.3788348E+00 -2.5637777E+00
  9.957E+00  3.018E-01  1.716E+00 3.5282677E+00 2.4596173E+00 -2.5217216E+00
  1.000E+01  3.572E-01  1.766E+00 3.5255879E+00 2.2480928E+00 -2.6791745E+00
  9.957E+00  3.383E-01  1.750E+00 3.5284170E+00 2.3308631E+00 -2.6411936E+00
  1.000E+01  3.962E-01  1.797E+00 3.5180570E+00 2.1117282E+00 -2.7878749E+00
  9.957E+00  3.765E-01  1.782E+00 3.5117565E+00 2.1963139E+00 -2.7540919E+00
  1.000E+01  4.367E-01  1.826E+00 3.4968348E+00 1.9701689E+00 -2.8897043E+00
  9.957E+00  4.163E-01  1.812E+00 3.5213215E+00 2.0562810E+00 -2.8601220E+00
  1.000E+01  4.786E-01  1.853E+00 3.5002565E+00 1.8236665E+00 -2.9843416E+00
  9.957E+00  4.575E-01  1.840E+00 3.4897797E+00 1.9112244E+00 -2.9591490E+00
  1.000E+01  5.217E-01  1.878E+00 3.4743413E+00 1.6724905E+00 -3.0713486E+00
  9.957E+00  5.000E-01  1.866E+00 3.4905779E+00 1.7611927E+00 -3.0506051E+00
  1.000E+01  5.661E-01  1.901E+00 3.4565934E+00 1.5177407E+00 -3.1512747E+00
  9.957E+00  5.438E-01  1.890E+00 3.4561909E+00 1.6070514E+00 -3.1346233E+00
  1.000E+01  6.116E-01  1.921E+00 3.4484479E+00 1.3586137E+00 -3.2230580E+00
  9.957E+00  5.887E-01  1.912E+00 3.4588549E+00 1.4492004E+00 -3.2113129E+00
  1.000E+01  6.580E-01  1.940E+00 3.4144443E+00 1.1950535E+00 -3.2857002E+00
  9.957E+00  6.347E-01  1.931E+00 3.4329188E+00 1.2863963E+00 -3.2788681E+00
  1.000E+01  7.052E-01  1.956E+00 3.4032931E+00 1.0303808E+00 -3.3415200E+00
  9.957E+00  6.815E-01  1.948E+00 3.4040778E+00 1.1207535E+00 -3.3382639E+00
  1.000E+01  7.532E-01  1.969E+00 3.3962179E+00 8.6433179E-01 -3.3901386E+00
  9.957E+00  7.292E-01  1.963E+00 3.4008607E+00 9.5453240E-01 -3.3911565E+00
  1.000E+01  8.019E-01  1.980E+00 3.3796784E+00 6.9450306E-01 -3.4291725E+00
  9.957E+00  7.775E-01  1.975E+00 3.3890058E+00 7.8557484E-01 -3.4355352E+00
  1.000E+01  8.510E-01  1.989E+00 3.3619104E+00 5.2144964E-01 -3.4585153E+00
  9.957E+00  8.264E-01  1.985E+00 3.3707430E+00 6.1261131E-01 -3.4697872E+00
  1.000E+01  9.004E-01  1.995E+00 3.3499862E+00 3.4745457E-01 -3.4794994E+00
  9.957E+00  8.757E-01  1.992E+00 3.3551835E+00 4.3759553E-01 -3.4950067E+00
  1.000E+01  9.502E-01  1.999E+00 3.3444954E+00 1.7364812E-01 -3.4925087E+00
  9.957E+00  9.253E-01  1.997E+00 3.3463047E+00 2.6240412E-01 -3.5121751E+00
  1.000E+01  1.000E+00  2.000E+00 3.3430794E+00 3.5232830E-06 -3.4969634E+00
  9.957E+00  9.751E-01  2.000E+00 3.3428825E+00 8.7445546E-02 -3.5210365E+00
  1.000E+01  1.050E+00  1.999E+00 3.3444956E+00 -1.7364109E-01 -3.4925088E+00
  9.957E+00  1.025E+00  2.000E+00 3.3428826E+00 -8.7438211E-02 -3.5210365E+00
  1.000E+01  1.100E+00  1.995E+00 3.3499866E+00 -3.4744755E-01 -3.4794997E+00
  9.957E+00  1.075E+00  1.997E+00 3.3463049E+00 -2.6239680E-01 -3.5121753E+00
  1.000E+01  1.149E+00  1.989E+00 3.3619109E+00 -5.2144266E-01 -3.4585157E+00
  9.957E+00  1.124E+00  1.992E+00 3.3551839E+00 -4.3758823E-01 -3.4950070E+00
  1.000E+01  1.198E+00  1.980E+00 3.3796791E+00 -6.9449612E-01 -3.4291730E+00
  9.957E+00  1.174E+00  1.985E+00 3.3707436E+00 -6.1260406E-01 -3.4697877E+00