# TIME = 8.000000
variables = x, y, z
zone N=5762 E=11520 F=FEPOINT ET=TRIANGLE
 8.3423076E+00 1.4856385E+00 1.7856117E+00
 8.3423076E+00 1.4856381E+00 2.1438851E-01
 8.3423076E+00 5.1436195E-01 1.7856116E+00
 8.3423077E+00 5.1436187E-01 2.1438819E-01
 7.1540992E+00 1.0000001E+00 1.6064230E+00
 9.5573592E+00 1.0000001E+00 1.6179121E+00
 7.1540989E+00 1.0000001E+00 3.9357662E-01
 9.5573592E+00 1.0000001E+00 3.8208781E-01
 7.6392933E+00 1.9225384E+00 9.9999983E-01
 7.6392934E+00 7.7462076E-02 1.0000000E+00
 9.0355346E+00 1.8577056E+00 9.9999993E-01
 9.0355346E+00 1.4229449E-01 9.9999992E-01
 8.2968068E+00 1.4784455E+00 1.7940205E+00
 8.2466749E+00 1.4703752E+00 1.8033283E+00
 8.1941581E+00 1.4617987E+00 1.8130793E+00
 8.1397669E+00 1.4526004E+00 1.8231246E+00
 8.0838295E+00 1.4426148E+00 1.8332452E+00
 8.0267053E+00 1.4316308E+00 1.8431156E+00
 7.9686998E+00 1.4194078E+00 1.8523113E+00
 7.9100750E+00 1.4056977E+00 1.8603211E+00
 7.8510448E+00 1.3902664E+00 1.8665788E+00
 7.7918069E+00 1.3729209E+00 1.8705030E+00
 7.7325956E+00 1.3535357E+00 1.8715466E+00
 7.6737335E+00 1.3320740E+00 1.8692480E+00
 7.6156537E+00 1.3086012E+00 1.8632798E+00
 7.5588800E+00 1.2832843E+00 1.8534812E+00
 7.5039757E+00 1.2563792E+00 1.8398690E+00
 7.4514834E+00 1.2282071E+00 1.8226264E+00
 7.4018740E+00 1.1991263E+00 1.8020736E+00
 7.3555146E+00 1.1695059E+00 1.7786301E+00
 7.3126546E+00 1.1397040E+00 1.7527744E+00
 7.2734254E+00 1.1100517E+00 1.7250059E+00
 7.2378669E+00 1.0808571E+00 1.6958316E+00
 7.2059489E+00 1.0523980E+00 1.6657459E+00
 7.1776883E+00 1.0250177E+00 1.6353485E+00
 8.2914248E+00 5.5538778E-01 1.8139143E+00
 8.2394926E+00 5.6558387E-01 1.8239679E+00
 8.1857954E+00 5.7584732E-01 1.8340868E+00
 8.1305947E+00 5.8661246E-01 1.8442943E+00
 8.0741261E+00 5.9821228E-01 1.8544388E+00
 8.0166804E+00 6.1090560E-01 1.8641962E+00
 7.9585409E+00 6.2492791E-01 1.8731187E+00
 7.8999441E+00 6.4049175E-01 1.8806706E+00
 7.8410894E+00 6.5777736E-01 1.8862692E+00
 7.7821715E+00 6.7691406E-01 1.8893320E+00
 7.7234322E+00 6.9796046E-01 1.8893278E+00
 7.6652067E+00 7.2088864E-01 1.8858278E+00
 7.6079354E+00 7.4557779E-01 1.8785506E+00
 7.5521372E+00 7.7182021E-01 1.8673883E+00
 7.4983559E+00 7.9933901E-01 1.8524119E+00
 7.4471026E+00 8.2781302E-01 1.8338525E+00
 7.3988076E+00 8.5690275E-01 1.8120680E+00
 7.3537887E+00 8.8627069E-01 1.7874969E+00
 7.3122317E+00 9.1558997E-01 1.7606082E+00
 7.2741696E+00 9.4454381E-01 1.7318360E+00
 7.2394608E+00 9.7281817E-01 1.7015024E+00
 7.2077537E+00 1.0000001E+00 1.6697169E+00
 8.2891343E+00 5.9041450E-01 1.8322904E+00
 8.2351870E+00 6.0268263E-01 1.8428690E+00
 8.1801509E+00 6.1468183E-01 1.8532245E+00
 8.1239609E+00 6.2712729E-01 1.8635177E+00
 8.0668063E+00 6.4043590E-01 1.8736019E+00
 8.0089126E+00 6.5490790E-01 1.8831482E+00
 7.9505180E+00 6.7076510E-01 1.8916863E+00
 7.8918320E+00 6.8818251E-01 1.8986596E+00
 7.8330386E+00 7.0728822E-01 1.9034747E+00
 7.7743297E+00 7.2815223E-01 1.9055525E+00
 7.7159548E+00 7.5077205E-01 1.9043819E+00
 7.6582592E+00 7.7506324E-01 1.8995702E+00
 7.6016880E+00 8.0085909E-01 1.8908833E+00
 7.5467518E+00 8.2792250E-01 1.8782664E+00
 7.4939715E+00 8.5596738E-01 1.8618409E+00
 7.4438195E+00 8.8468388E-01 1.8418784E+00
 7.3966692E+00 9.1375888E-01 1.8187549E+00
 7.3527490E+00 9.4288431E-01 1.7928858E+00
 7.3120967E+00 9.7174685E-01 1.7646386E+00
 7.2745135E+00 1.0000001E+00 1.7342245E+00
 7.2394608E+00 1.0271820E+00 1.7015024E+00
 8.2875532E+00 6.2716876E-01 1.8495411E+00
 8.2322722E+00 6.4116820E-01 1.8602224E+00
 8.1760592E+00 6.5489825E-01 1.8706333E+00
 8.1189668E+00 6.6905804E-01 1.8808610E+00
 8.0611334E+00 6.8412657E-01 1.8907520E+00
 8.0027688E+00 7.0040486E-01 1.8999485E+00
 7.9440835E+00 7.1809477E-01 1.9079572E+00
 7.8852686E+00 7.3733079E-01 1.9142039E+00
 7.8264987E+00 7.5819049E-01 1.9180897E+00
 7.7679660E+00 7.8068822E-01 1.9190454E+00
 7.7099270E+00 8.0476640E-01 1.9165856E+00
 7.6527344E+00 8.3029214E-01 1.9103573E+00
 7.5968327E+00 8.5706340E-01 1.9001756E+00
 7.5427174E+00 8.8482567E-01 1.8860362E+00
 7.4908758E+00 9.1329531E-01 1.8681032E+00
 7.4417231E+00 9.4218009E-01 1.8466695E+00
 7.3955368E+00 9.7118580E-01 1.8220907E+00
 7.3523925E+00 1.0000001E+00 1.7946909E+00
 7.3120967E+00 1.0282533E+00 1.7646386E+00
 7.2741696E+00 1.0554564E+00 1.7318360E+00
 8.2863341E+00 6.6567650E-01 1.8655404E+00
 8.2300059E+00 6.8126119E-01 1.8760794E+00
 8.1728486E+00 6.9664497E-01 1.8863309E+00
 8.1149714E+00 7.1251742E-01 1.8963222E+00
 8.0565422E+00 7.2934427E-01 1.9058513E+00
 7.9977619E+00 7.4741268E-01 1.9145294E+00
 7.9388323E+00 7.6689069E-01 1.9218386E+00
 7.8799341E+00 7.8787026E-01 1.9271926E+00
 7.8212373E+00 8.1037906E-01 1.9299947E+00
 7.7629352E+00 8.3437969E-01 1.9296926E+00
 7.7052892E+00 8.5976616E-01 1.9258333E+00
 7.6486535E+00 8.8636692E-01 1.9181074E+00
 7.5934630E+00 9.1395665E-01 1.9063783E+00
 7.5401856E+00 9.4227600E-01 1.8906853E+00
 7.4892553E+00 9.7105110E-01 1.8712182E+00
 7.4409956E+00 1.0000001E+00 1.8482589E+00
 7.3955368E+00 1.0288144E+00 1.8220907E+00
 7.3527490E+00 1.0571159E+00 1.7928858E+00
 7.3122317E+00 1.0844102E+00 1.7606082E+00
 8.2853050E+00 7.0595592E-01 1.8801433E+00
 8.2280983E+00 7.2300666E-01 1.8903374E+00
 8.1701543E+00 7.3998164E-01 1.9002399E+00
 8.1116331E+00 7.5752646E-01 1.9098093E+00
 8.0527272E+00 7.7607406E-01 1.9187935E+00
 7.9936437E+00 7.9587450E-01 1.9267691E+00
 7.9345795E+00 8.1705599E-01 1.9331992E+00
 7.8757099E+00 8.3966471E-01 1.9374930E+00
 7.8172014E+00 8.6368055E-01 1.9390643E+00
 7.7592473E+00 8.8901948E-01 1.9373866E+00
 7.7021083E+00 9.1553610E-01 1.9320443E+00
 7.6461312E+00 9.4303203E-01 1.9227730E+00
 7.5917281E+00 9.7127175E-01 1.9094793E+00
 7.5393196E+00 1.0000001E+00 1.8922316E+00
 7.4892553E+00 1.0289491E+00 1.8712182E+00
 7.4417231E+00 1.0578201E+00 1.8466695E+00
 7.3966691E+00 1.0862413E+00 1.8187549E+00
 7.3537887E+00 1.1137295E+00 1.7874969E+00
 8.2843951E+00 7.4792724E-01 1.8931616E+00
 8.2264368E+00 7.6635072E-01 1.9028365E+00
 8.1678487E+00 7.8484813E-01 1.9122100E+00
 8.1088310E+00 8.0400405E-01 1.9211729E+00
 8.0495962E+00 8.2420005E-01 1.9294249E+00
 7.9903565E+00 8.4563890E-01 1.9365135E+00
 7.9313059E+00 8.6840274E-01 1.9418904E+00
 7.8726144E+00 8.9249245E-01 1.9449697E+00
 7.8144439E+00 9.1784380E-01 1.9451845E+00
 7.7569832E+00 9.4433428E-01 1.9420407E+00
 7.7004850E+00 9.7179033E-01 1.9351638E+00
 7.6452763E+00 1.0000001E+00 1.9243306E+00
 7.5917281E+00 1.0287284E+00 1.9094793E+00
 7.5401856E+00 1.0577242E+00 1.8906853E+00
 7.4908758E+00 1.0867049E+00 1.8681032E+00
 7.4438195E+00 1.1153163E+00 1.8418784E+00
 7.3988076E+00 1.1430974E+00 1.8120680E+00
 8.2835953E+00 7.9143994E-01 1.9043931E+00
 8.2250094E+00 8.1115195E-01 1.9133918E+00
 8.1659250E+00 8.3109070E-01 1.9220644E+00
 8.1065700E+00 8.5177208E-01 1.9302409E+00
 8.0471703E+00 8.7351387E-01 1.9375795E+00
 7.9879398E+00 8.9646458E-01 1.9436073E+00
 7.9290677E+00 9.2065904E-01 1.9477738E+00
 7.8707167E+00 9.4605533E-01 1.9495072E+00
 7.8130408E+00 9.7255246E-01 1.9482681E+00
 7.7562188E+00 1.0000001E+00 1.9435987E+00
 7.7004850E+00 1.0282099E+00 1.9351638E+00
 7.6461312E+00 1.0569682E+00 1.9227731E+00
 7.5934630E+00 1.0860435E+00 1.9063783E+00
 7.5427174E+00 1.1151745E+00 1.8860362E+00
 7.4939715E+00 1.1440328E+00 1.8618409E+00
 7.4471026E+00 1.1721872E+00 1.8338526E+00
 8.2829203E+00 8.3629472E-01 1.9136459E+00
 8.2238459E+00 8.5719970E-01 1.9218216E+00
 8.1644239E+00 8.7848074E-01 1.9296309E+00
 8.1049005E+00 9.0057566E-01 1.9368511E+00
 8.0455079E+00 9.2373126E-01 1.9431088E+00
 7.9864572E+00 9.4803894E-01 1.9479206E+00
 7.9279293E+00 9.7348793E-01 1.9507439E+00
 7.8700766E+00 1.0000001E+00 1.9510288E+00
 7.8130408E+00 1.0274478E+00 1.9482681E+00
 7.7569832E+00 1.0556659E+00 1.9420408E+00
 7.7021083E+00 1.0844641E+00 1.9320443E+00
 7.6486535E+00 1.1136333E+00 1.9181074E+00
 7.5968327E+00 1.1429368E+00 1.9001756E+00
 7.5467518E+00 1.1720777E+00 1.8782664E+00
 7.4983559E+00 1.2006612E+00 1.8524119E+00
 8.2823915E+00 8.8224695E-01 1.9207499E+00
 8.2229836E+00 9.0423099E-01 1.9279673E+00
 8.1633929E+00 9.2673208E-01 1.9347634E+00
 8.1038751E+00 9.5010220E-01 1.9408733E+00
 8.0446620E+00 9.7451319E-01 1.9459027E+00
 7.9859571E+00 1.0000001E+00 1.9493683E+00
 7.9279293E+00 1.0265123E+00 1.9507439E+00
 7.8707167E+00 1.0539449E+00 1.9495073E+00
 7.8144439E+00 1.0821564E+00 1.9451845E+00
 7.7592473E+00 1.1109807E+00 1.9373866E+00
 7.7052892E+00 1.1402340E+00 1.9258333E+00
 7.6527345E+00 1.1697080E+00 1.9103573E+00
 7.6016880E+00 1.1991411E+00 1.8908833E+00
 7.5521372E+00 1.2281800E+00 1.8673884E+00
 8.2820279E+00 9.2901348E-01 1.9255672E+00
 8.2224533E+00 9.5194193E-01 1.9317063E+00
 8.1628679E+00 9.7551716E-01 1.9373571E+00
 8.1035292E+00 1.0000001E+00 1.9422236E+00
 8.0446621E+00 1.0254870E+00 1.9459027E+00
 7.9864572E+00 1.0519613E+00 1.9479206E+00
 7.9290677E+00 1.0793412E+00 1.9477738E+00
 7.8726145E+00 1.1075078E+00 1.9449697E+00
 7.8172015E+00 1.1363197E+00 1.9390644E+00
 7.7629353E+00 1.1656205E+00 1.9296927E+00
 7.7099271E+00 1.1952338E+00 1.9165856E+00
 7.6582593E+00 1.2249370E+00 1.8995702E+00
 7.6079354E+00 1.2544224E+00 1.8785506E+00
 8.2818427E+00 9.7628145E-01 1.9280009E+00
 8.2222744E+00 1.0000001E+00 1.9329615E+00
 8.1628679E+00 1.0244830E+00 1.9373571E+00
 8.1038751E+00 1.0498980E+00 1.9408733E+00
 8.0455080E+00 1.0762690E+00 1.9431089E+00
 7.9879399E+00 1.1035357E+00 1.9436073E+00
 7.9313060E+00 1.1315975E+00 1.9418905E+00
 7.8757100E+00 1.1603355E+00 1.9374931E+00
 7.8212374E+00 1.1896212E+00 1.9299947E+00
 7.7679661E+00 1.2193120E+00 1.9190455E+00
 7.7159548E+00 1.2492282E+00 1.9043820E+00
 7.6652067E+00 1.2791116E+00 1.8858279E+00
 8.2818427E+00 1.0237187E+00 1.9280009E+00
 8.2224533E+00 1.0480583E+00 1.9317063E+00
 8.1633929E+00 1.0732681E+00 1.9347635E+00
 8.1049006E+00 1.0994246E+00 1.9368512E+00
 8.0471703E+00 1.1264864E+00 1.9375796E+00
 7.9903566E+00 1.1543613E+00 1.9365136E+00
 7.9345796E+00 1.1829443E+00 1.9331992E+00
 7.8799342E+00 1.2121300E+00 1.9271927E+00
 7.8264988E+00 1.2418097E+00 1.9180898E+00
 7.7743298E+00 1.2718480E+00 1.9055526E+00
 7.7234323E+00 1.3020398E+00 1.8893279E+00
 8.2820279E+00 1.0709867E+00 1.9255672E+00
 8.2229836E+00 1.0957692E+00 1.9279673E+00
 8.1644240E+00 1.1215195E+00 1.9296309E+00
 8.1065700E+00 1.1482282E+00 1.9302409E+00
 8.0495962E+00 1.1758002E+00 1.9294249E+00
 7.9936438E+00 1.2041257E+00 1.9267692E+00
 7.9388324E+00 1.2331096E+00 1.9218386E+00
 7.8852687E+00 1.2626695E+00 1.9142040E+00
 7.8330387E+00 1.2927120E+00 1.9034747E+00
 7.7821716E+00 1.3230862E+00 1.8893321E+00
 8.2823915E+00 1.1177533E+00 1.9207499E+00
 8.2238459E+00 1.1428005E+00 1.9218216E+00
 8.1659250E+00 1.1689095E+00 1.9220645E+00
 8.1088310E+00 1.1959962E+00 1.9211729E+00
 8.0527273E+00 1.2239262E+00 1.9187935E+00
 7.9977620E+00 1.2525876E+00 1.9145295E+00
 7.9440836E+00 1.2819055E+00 1.9079573E+00
 7.8918321E+00 1.3118177E+00 1.8986597E+00
 7.8410896E+00 1.3422229E+00 1.8862693E+00
 8.2829203E+00 1.1637055E+00 1.9136460E+00
 8.2250095E+00 1.1888483E+00 1.9133918E+00
 8.1678487E+00 1.2151521E+00 1.9122101E+00
 8.1116332E+00 1.2424738E+00 1.9098093E+00
 8.0565423E+00 1.2706560E+00 1.9058514E+00
 8.0027689E+00 1.2995954E+00 1.8999486E+00
 7.9505181E+00 1.3292352E+00 1.8916864E+00
 7.8999442E+00 1.3595085E+00 1.8806707E+00
 8.2835953E+00 1.2085603E+00 1.9043932E+00
 8.2264369E+00 1.2336495E+00 1.9028366E+00
 8.1701544E+00 1.2600186E+00 1.9002400E+00
 8.1149715E+00 1.2874829E+00 1.8963222E+00
 8.0611335E+00 1.3158737E+00 1.8907520E+00
 8.0089127E+00 1.3450924E+00 1.8831483E+00
 7.9585410E+00 1.3750724E+00 1.8731188E+00
 8.2843952E+00 1.2520730E+00 1.8931616E+00
 8.2280983E+00 1.2769936E+00 1.8903375E+00
 8.1728486E+00 1.3033553E+00 1.8863310E+00
 8.1189669E+00 1.3309423E+00 1.8808611E+00
 8.0668064E+00 1.3595644E+00 1.8736020E+00
 8.0166805E+00 1.3890947E+00 1.8641963E+00
 8.2853050E+00 1.2940444E+00 1.8801434E+00
 8.2300060E+00 1.3187391E+00 1.8760794E+00
 8.1760593E+00 1.3451020E+00 1.8706334E+00
 8.1239610E+00 1.3728730E+00 1.8635178E+00
 8.0741262E+00 1.4017880E+00 1.8544389E+00
 8.2863342E+00 1.3343238E+00 1.8655405E+00
 8.2322723E+00 1.3588321E+00 1.8602225E+00
 8.1801510E+00 1.3853185E+00 1.8532246E+00
 8.1305948E+00 1.4133879E+00 1.8442944E+00
 8.2875533E+00 1.3728316E+00 1.8495412E+00
 8.2351871E+00 1.3973177E+00 1.8428691E+00
 8.1857954E+00 1.4241530E+00 1.8340869E+00
 8.2891343E+00 1.4095858E+00 1.8322905E+00
 8.2394927E+00 1.4344165E+00 1.8239680E+00
 8.2914249E+00 1.4446126E+00 1.8139144E+00
 8.3421859E+00 1.4564166E+00 1.8029804E+00
 8.3420150E+00 1.4232918E+00 1.8209708E+00
 8.3418604E+00 1.3881369E+00 1.8382035E+00
 8.3417284E+00 1.3509840E+00 1.8544586E+00
 8.3416193E+00 1.3119326E+00 1.8695051E+00
 8.3415292E+00 1.2711162E+00 1.8831109E+00
 8.3414544E+00 1.2286770E+00 1.8950635E+00
 8.3413931E+00 1.1848014E+00 1.9051617E+00
 8.3413447E+00 1.1397172E+00 1.9132248E+00
 8.3413095E+00 1.0936881E+00 1.9191008E+00
 8.3412880E+00 1.0470095E+00 1.9226745E+00
 8.3412808E+00 1.0000001E+00 1.9238739E+00
 8.3412880E+00 9.5299064E-01 1.9226745E+00
 8.3413094E+00 9.0631210E-01 1.9191007E+00
 8.3413446E+00 8.6028304E-01 1.9132247E+00
 8.3413930E+00 8.1519879E-01 1.9051617E+00
 8.3414544E+00 7.7132323E-01 1.8950634E+00
 8.3415291E+00 7.2888406E-01 1.8831108E+00
 8.3416192E+00 6.8806773E-01 1.8695050E+00
 8.3417283E+00 6.4901627E-01 1.8544585E+00
 8.3418603E+00 6.1186341E-01 1.8382034E+00
 8.3420150E+00 5.7670857E-01 1.8209707E+00
 8.3421858E+00 5.4358375E-01 1.8029802E+00
 8.3875726E+00 5.2495021E-01 1.7884291E+00
 8.4371206E+00 5.3660161E-01 1.7915256E+00
 8.4887474E+00 5.4871495E-01 1.7947290E+00
 8.5420301E+00 5.6131450E-01 1.7980009E+00
 8.5967658E+00 5.7447361E-01 1.8012560E+00
 8.6527335E+00 5.8829131E-01 1.8043644E+00
 8.7097334E+00 6.0288272E-01 1.8071498E+00
 8.7675474E+00 6.1836792E-01 1.8093940E+00
 8.8259372E+00 6.3486609E-01 1.8108466E+00
 8.8846367E+00 6.5248530E-01 1.8112357E+00
 8.9433496E+00 6.7131263E-01 1.8102822E+00
 9.0017512E+00 6.9140517E-01 1.8077156E+00
 9.0594939E+00 7.1278281E-01 1.8032911E+00
 9.1162165E+00 7.3542396E-01 1.7968046E+00
 9.1715553E+00 7.5926427E-01 1.7881056E+00
 9.2251563E+00 7.8419901E-01 1.7771059E+00
 9.2766874E+00 8.1008784E-01 1.7637837E+00
 9.3258472E+00 8.3676178E-01 1.7481840E+00
 9.3723724E+00 8.6403128E-01 1.7304157E+00
 9.4160450E+00 8.9169596E-01 1.7106435E+00
 9.4566790E+00 9.1953534E-01 1.6890909E+00
 9.4941255E+00 9.4730795E-01 1.6660231E+00
 9.5281546E+00 9.7462416E-01 1.6418425E+00
 8.3926421E+00 1.4410300E+00 1.8075563E+00
 8.4439448E+00 1.4274122E+00 1.8110213E+00
 8.4967107E+00 1.4138724E+00 1.8142838E+00
 8.5507810E+00 1.4000391E+00 1.8174631E+00
 8.6060575E+00 1.3856580E+00 1.8205466E+00
 8.6623871E+00 1.3705711E+00 1.8234137E+00
 8.7195820E+00 1.3546531E+00 1.8258779E+00
 8.7774333E+00 1.3377974E+00 1.8277050E+00
 8.8357019E+00 1.3199095E+00 1.8286299E+00
 8.8941173E+00 1.3009117E+00 1.8283720E+00
 8.9523781E+00 1.2807502E+00 1.8266510E+00
 9.0101570E+00 1.2594023E+00 1.8232032E+00
 9.0671082E+00 1.2368813E+00 1.8177982E+00
 9.1228774E+00 1.2132382E+00 1.8102529E+00
 9.1771134E+00 1.1885599E+00 1.8004432E+00
 9.2294801E+00 1.1629642E+00 1.7883097E+00
 9.2796694E+00 1.1365945E+00 1.7738589E+00
 9.3274159E+00 1.1096156E+00 1.7571565E+00
 9.3725152E+00 1.0822153E+00 1.7383127E+00
 9.4148615E+00 1.0546112E+00 1.7174482E+00
 9.4545022E+00 1.0270624E+00 1.6946366E+00
 9.4917306E+00 1.0000001E+00 1.6698070E+00
 8.3945818E+00 1.4061134E+00 1.8255235E+00
 8.4478761E+00 1.3905958E+00 1.8291071E+00
 8.5019613E+00 1.3755871E+00 1.8322845E+00
 8.5570158E+00 1.3604069E+00 1.8352833E+00
 8.6129973E+00 1.3447082E+00 1.8381043E+00
 8.6698184E+00 1.3282765E+00 1.8406297E+00
 8.7273272E+00 1.3109814E+00 1.8426593E+00
 8.7853277E+00 1.2927289E+00 1.8439442E+00
 8.8435834E+00 1.2734480E+00 1.8442082E+00
 8.9018202E+00 1.2530889E+00 1.8431654E+00
 8.9597332E+00 1.2316284E+00 1.8405374E+00
 9.0169932E+00 1.2090750E+00 1.8360700E+00
 9.0732579E+00 1.1854702E+00 1.8295494E+00
 9.1281821E+00 1.1608875E+00 1.8208148E+00
 9.1814315E+00 1.1354272E+00 1.8097671E+00
 9.2326978E+00 1.1092103E+00 1.7963705E+00
 9.2817201E+00 1.0823746E+00 1.7806442E+00
 9.3283212E+00 1.0550809E+00 1.7626381E+00
 9.3724652E+00 1.0275306E+00 1.7423851E+00
 9.4143354E+00 1.0000001E+00 1.7198245E+00
 9.4545022E+00 9.7293779E-01 1.6946366E+00
 8.3958511E+00 1.3695663E+00 1.8424423E+00
 8.4504633E+00 1.3525690E+00 1.8458094E+00
 8.5057097E+00 1.3361318E+00 1.8487488E+00
 8.5616641E+00 1.3195953E+00 1.8514390E+00
 8.6183439E+00 1.3025402E+00 1.8538802E+00
 8.6756756E+00 1.2847382E+00 1.8559383E+00
 8.7335267E+00 1.2660587E+00 1.8573990E+00
 8.7917070E+00 1.2464237E+00 1.8580007E+00
 8.8499784E+00 1.2257846E+00 1.8574593E+00
 8.9080634E+00 1.2041184E+00 1.8554874E+00
 8.9656536E+00 1.1814304E+00 1.8518120E+00
 9.0224211E+00 1.1577555E+00 1.8461917E+00
 9.0780298E+00 1.1331573E+00 1.8384312E+00
 9.1321499E+00 1.1077235E+00 1.8283917E+00
 9.1844749E+00 1.0815587E+00 1.8159946E+00
 9.2347469E+00 1.0547813E+00 1.8012135E+00
 9.2827999E+00 1.0275320E+00 1.7840494E+00
 9.3286259E+00 1.0000001E+00 1.7644813E+00
 9.3724652E+00 9.7246963E-01 1.7423851E+00
 9.4148615E+00 9.4538901E-01 1.7174482E+00
 8.3968129E+00 1.3313251E+00 1.8581527E+00
 8.4524590E+00 1.3130456E+00 1.8611004E+00
 8.5086358E+00 1.2952991E+00 1.8636272E+00
 8.5653732E+00 1.2774359E+00 1.8658675E+00
 8.6226659E+00 1.2590435E+00 1.8677888E+00
 8.6804477E+00 1.2398930E+00 1.8692370E+00
 8.7385864E+00 1.2198679E+00 1.8699818E+00
 8.7968913E+00 1.1989087E+00 1.8697516E+00
 8.8551210E+00 1.1769900E+00 1.8682585E+00
 8.9129947E+00 1.1541144E+00 1.8652177E+00
 8.9702040E+00 1.1303116E+00 1.8603660E+00
 9.0264263E+00 1.1056377E+00 1.8534775E+00
 9.0813390E+00 1.0801703E+00 1.8443763E+00
 9.1346387E+00 1.0540019E+00 1.8329422E+00
 9.1860677E+00 1.0272368E+00 1.8191057E+00
 9.2354576E+00 1.0000001E+00 1.8028266E+00
 9.2827999E+00 9.7246825E-01 1.7840494E+00
 9.3283212E+00 9.4491936E-01 1.7626381E+00
 9.3725152E+00 9.1778497E-01 1.7383128E+00
 8.3976310E+00 1.2913553E+00 1.8724942E+00
 8.4541455E+00 1.2719535E+00 1.8748513E+00
 8.5110974E+00 1.2529951E+00 1.8768105E+00
 8.5684783E+00 1.2338722E+00 1.8784520E+00
 8.6262634E+00 1.2141964E+00 1.8797065E+00
 8.6843784E+00 1.1937612E+00 1.8803958E+00
 8.7426882E+00 1.1724700E+00 1.8802757E+00
 8.8009984E+00 1.1502857E+00 1.8790683E+00
 8.8590652E+00 1.1272059E+00 1.8764862E+00
 8.9166079E+00 1.1032560E+00 1.8722522E+00
 8.9733231E+00 1.0784850E+00 1.8661162E+00
 9.0289006E+00 1.0529622E+00 1.8578698E+00
 9.0830424E+00 1.0267698E+00 1.8473541E+00
 9.1354901E+00 1.0000001E+00 1.8344588E+00
 9.1860677E+00 9.7276343E-01 1.8191057E+00
 9.2347469E+00 9.4521891E-01 1.8012135E+00
 9.2817201E+00 9.1762561E-01 1.7806442E+00
 9.3274159E+00 8.9038462E-01 1.7571565E+00
 8.3983667E+00 1.2497293E+00 1.8852741E+00
 8.4556252E+00 1.2293326E+00 1.8868969E+00
 8.5132134E+00 1.2092602E+00 1.8881452E+00
 8.5710929E+00 1.1889607E+00 1.8890437E+00
 8.6292228E+00 1.1680865E+00 1.8894859E+00
 8.6875212E+00 1.1464630E+00 1.8892712E+00
 8.7458488E+00 1.1240199E+00 1.8881451E+00
 8.8040095E+00 1.1007428E+00 1.8858278E+00
 8.8617602E+00 1.0766509E+00 1.8820376E+00
 8.9188255E+00 1.0517871E+00 1.8765085E+00
 8.9749143E+00 1.0262125E+00 1.8690059E+00
 9.0297390E+00 1.0000001E+00 1.8593372E+00
 9.0830424E+00 9.7323044E-01 1.8473541E+00
 9.1346387E+00 9.4599836E-01 1.8329422E+00
 9.1844749E+00 9.1844156E-01 1.8159946E+00
 9.2326978E+00 8.9078997E-01 1.7963706E+00
 9.2796694E+00 8.6340572E-01 1.7738589E+00
 8.3990227E+00 1.2065937E+00 1.8962936E+00
 8.4569045E+00 1.1853148E+00 1.8970592E+00
 8.5149855E+00 1.1642331E+00 1.8974653E+00
 8.5732079E+00 1.1428586E+00 1.8974854E+00
 8.6315199E+00 1.1208962E+00 1.8969785E+00
 8.6898346E+00 1.0982092E+00 1.8957263E+00
 8.7480115E+00 1.0747555E+00 1.8934685E+00
 8.8058561E+00 1.0505426E+00 1.8899287E+00
 8.8631315E+00 1.0256063E+00 1.8848344E+00
 8.9195743E+00 1.0000001E+00 1.8779334E+00
 8.9749143E+00 9.7378769E-01 1.8690059E+00
 9.0289006E+00 9.4703805E-01 1.8578698E+00
 9.0813390E+00 9.1982995E-01 1.8443763E+00
 9.1321499E+00 8.9227671E-01 1.8283918E+00
 9.1814315E+00 8.6457298E-01 1.8097671E+00
 9.2294801E+00 8.3703606E-01 1.7883097E+00
 8.3995817E+00 1.1621440E+00 1.9053668E+00
 8.4579515E+00 1.1401019E+00 1.9051678E+00
 8.5163716E+00 1.1181272E+00 1.9046139E+00
 8.5747721E+00 1.0957994E+00 1.9036325E+00
 8.6330957E+00 1.0728819E+00 1.9020542E+00
 8.6912549E+00 1.0492795E+00 1.8996485E+00
 8.7491119E+00 1.0249771E+00 1.8961546E+00
 8.8064791E+00 1.0000001E+00 1.8913035E+00
 8.8631315E+00 9.7439390E-01 1.8848344E+00
 8.9188255E+00 9.4821312E-01 1.8765085E+00
 8.9733231E+00 9.2151518E-01 1.8661162E+00
 9.0264263E+00 8.9436247E-01 1.8534775E+00
 9.0780297E+00 8.6684291E-01 1.8384312E+00
 9.1281821E+00 8.3911274E-01 1.8208148E+00
 9.1771134E+00 8.1144037E-01 1.8004432E+00
 8.4000220E+00 1.1166202E+00 1.9123298E+00
 8.4587292E+00 1.0939463E+00 1.9110751E+00
 8.5173249E+00 1.0712114E+00 1.9094592E+00
 8.5757337E+00 1.0480715E+00 1.9073702E+00
 8.6338981E+00 1.0243524E+00 1.9046174E+00
 8.6917341E+00 1.0000001E+00 1.9009644E+00
 8.7491119E+00 9.7502307E-01 1.8961546E+00
 8.8058561E+00 9.4945759E-01 1.8899287E+00
 8.8617602E+00 9.2334929E-01 1.8820376E+00
 8.9166079E+00 8.9674424E-01 1.8722522E+00
 8.9702040E+00 8.6968859E-01 1.8603660E+00
 9.0224210E+00 8.4224477E-01 1.8461917E+00
 9.0732579E+00 8.1453007E-01 1.8295494E+00
 9.1228774E+00 7.8676201E-01 1.8102529E+00
 8.4003256E+00 1.0702995E+00 1.9170500E+00
 8.4592080E+00 1.0471395E+00 1.9146675E+00
 8.5178106E+00 1.0237938E+00 1.9119066E+00
 8.5760582E+00 1.0000001E+00 1.9086246E+00
 8.6338980E+00 9.7564772E-01 1.9046174E+00
 8.6912549E+00 9.5072068E-01 1.8996485E+00
 8.7480115E+00 9.2524469E-01 1.8934685E+00
 8.8040095E+00 8.9925735E-01 1.8858278E+00
 8.8590652E+00 8.7279426E-01 1.8764862E+00
 8.9129946E+00 8.4588586E-01 1.8652177E+00
 8.9656536E+00 8.1856983E-01 1.8518120E+00
 9.0169932E+00 7.9092526E-01 1.8360700E+00
 9.0671082E+00 7.6311893E-01 1.8177982E+00
 8.4004805E+00 1.0234884E+00 1.9194343E+00
 8.4593697E+00 1.0000001E+00 1.9158732E+00
 8.5178106E+00 9.7620633E-01 1.9119066E+00
 8.5757337E+00 9.5192868E-01 1.9073702E+00
 8.6330957E+00 9.2711823E-01 1.9020542E+00
 8.6898346E+00 9.0179094E-01 1.8957262E+00
 8.7458488E+00 8.7598030E-01 1.8881450E+00
 8.8009984E+00 8.4971451E-01 1.8790682E+00
 8.8551210E+00 8.2301021E-01 1.8682585E+00
 8.9080633E+00 7.9588177E-01 1.8554874E+00
 8.9597331E+00 7.6837178E-01 1.8405374E+00
 9.0101570E+00 7.4059790E-01 1.8232032E+00
 8.4004804E+00 9.7651172E-01 1.9194343E+00
 8.4592080E+00 9.5286069E-01 1.9146675E+00
 8.5173249E+00 9.2878878E-01 1.9094592E+00
 8.5747721E+00 9.0420080E-01 1.9036325E+00
 8.6315199E+00 8.7910400E-01 1.8969784E+00
 8.6875212E+00 8.5353717E-01 1.8892712E+00
 8.7426882E+00 8.2753019E-01 1.8802756E+00
 8.7968913E+00 8.0109155E-01 1.8697516E+00
 8.8499784E+00 7.7421563E-01 1.8574593E+00
 8.9018202E+00 7.4691136E-01 1.8431654E+00
 8.9523781E+00 7.1925000E-01 1.8266510E+00
 8.4003256E+00 9.2970063E-01 1.9170500E+00
 8.4587292E+00 9.0605389E-01 1.9110751E+00
 8.5163715E+00 8.8187301E-01 1.9046139E+00
 8.5732079E+00 8.5714157E-01 1.8974853E+00
 8.6292227E+00 8.3191367E-01 1.8894858E+00
 8.6843784E+00 8.0623904E-01 1.8803958E+00
 8.7385864E+00 7.8013231E-01 1.8699818E+00
 8.7917069E+00 7.5357650E-01 1.8580006E+00
 8.8435833E+00 7.2655223E-01 1.8442082E+00
 8.8941172E+00 6.9908853E-01 1.8283720E+00
 8.4000219E+00 8.8338003E-01 1.9123297E+00
 8.4579515E+00 8.5989829E-01 1.9051677E+00
 8.5149855E+00 8.3576708E-01 1.8974652E+00
 8.5710928E+00 8.1103954E-01 1.8890437E+00
 8.6262633E+00 7.8580381E-01 1.8797064E+00
 8.6804476E+00 7.6010723E-01 1.8692370E+00
 8.7335267E+00 7.3394153E-01 1.8573989E+00
 8.7853277E+00 7.0727130E-01 1.8439442E+00
 8.8357019E+00 6.8009078E-01 1.8286299E+00
 8.3995816E+00 8.3785617E-01 1.9053667E+00
 8.4569044E+00 8.1468540E-01 1.8970591E+00
 8.5132134E+00 7.9073998E-01 1.8881451E+00
 8.5684782E+00 7.6612803E-01 1.8784519E+00
 8.6226658E+00 7.4095673E-01 1.8677888E+00
 8.6756755E+00 7.1526205E-01 1.8559382E+00
 8.7273272E+00 6.8901889E-01 1.8426592E+00
 8.7774333E+00 6.6220291E-01 1.8277050E+00
 8.3990227E+00 7.9340649E-01 1.8962935E+00
 8.4556252E+00 7.7066767E-01 1.8868969E+00
 8.5110973E+00 7.4700512E-01 1.8768105E+00
 8.5653732E+00 7.2256436E-01 1.8658675E+00
 8.6183438E+00 6.9746005E-01 1.8538801E+00
 8.6698184E+00 6.7172380E-01 1.8406296E+00
 8.7195819E+00 6.4534714E-01 1.8258779E+00
 8.3983666E+00 7.5027094E-01 1.8852740E+00
 8.4541454E+00 7.2804672E-01 1.8748513E+00
 8.5086357E+00 7.0470118E-01 1.8636272E+00
 8.5616641E+00 6.8040497E-01 1.8514389E+00
 8.6129973E+00 6.5529213E-01 1.8381042E+00
 8.6623870E+00 6.2942923E-01 1.8234136E+00
 8.3976310E+00 7.0864500E-01 1.8724941E+00
 8.4524590E+00 6.8695464E-01 1.8611003E+00
 8.5057096E+00 6.6386846E-01 1.8487487E+00
 8.5570157E+00 6.3959339E-01 1.8352832E+00
 8.6060575E+00 6.1434232E-01 1.8205465E+00
 8.3968128E+00 6.6867518E-01 1.8581526E+00
 8.4504633E+00 6.4743129E-01 1.8458093E+00
 8.5019613E+00 6.2441317E-01 1.8322844E+00
 8.5507809E+00 5.9996120E-01 1.8174630E+00
 8.3958511E+00 6.3043400E-01 1.8424422E+00
 8.4478760E+00 6.0940457E-01 1.8291070E+00
 8.4967107E+00 5.8612793E-01 1.8142837E+00
 8.3945817E+00 5.9388697E-01 1.8255234E+00
 8.4439447E+00 5.7258818E-01 1.8110212E+00
 8.3926420E+00 5.5897038E-01 1.8075562E+00
 8.3141562E+00 1.5098315E+00 1.7726410E+00
 8.2830057E+00 1.5363171E+00 1.7573939E+00
 8.2505057E+00 1.5635439E+00 1.7405331E+00
 8.2168810E+00 1.5913182E+00 1.7219848E+00
 8.1823191E+00 1.6194919E+00 1.7016323E+00
 8.1470557E+00 1.6478848E+00 1.6793507E+00
 8.1113219E+00 1.6762918E+00 1.6550143E+00
 8.0753666E+00 1.7044654E+00 1.6285173E+00
 8.0394488E+00 1.7321230E+00 1.5997819E+00
 8.0038269E+00 1.7589542E+00 1.5687716E+00
 7.9687508E+00 1.7846332E+00 1.5355029E+00
 7.9344550E+00 1.8088345E+00 1.5000531E+00
 7.9011536E+00 1.8312503E+00 1.4625639E+00
 7.8690379E+00 1.8516074E+00 1.4232395E+00
 7.8382748E+00 1.8696818E+00 1.3823387E+00
 7.8090067E+00 1.8853085E+00 1.3401633E+00
 7.7813525E+00 1.8983875E+00 1.2970445E+00
 7.7554089E+00 1.9088841E+00 1.2533280E+00
 7.7312534E+00 1.9168255E+00 1.2093618E+00
 7.7089452E+00 1.9222952E+00 1.1654850E+00
 7.6885297E+00 1.9254223E+00 1.1220414E+00
 7.6700156E+00 1.9263674E+00 1.0793624E+00
 7.6534482E+00 1.9253294E+00 1.0380419E+00
 7.1725150E+00 1.0727748E+00 1.6255638E+00
 7.1678570E+00 1.1200641E+00 1.6125549E+00
 7.1649133E+00 1.1681620E+00 1.5974461E+00
 7.1641503E+00 1.2171993E+00 1.5804726E+00
 7.1658861E+00 1.2671053E+00 1.5616998E+00
 7.1703740E+00 1.3176752E+00 1.5411506E+00
 7.1778131E+00 1.3686107E+00 1.5188359E+00
 7.1883557E+00 1.4195521E+00 1.4947803E+00
 7.2021082E+00 1.4700923E+00 1.4690397E+00
 7.2191247E+00 1.5197898E+00 1.4417115E+00
 7.2393992E+00 1.5681829E+00 1.4129371E+00
 7.2628585E+00 1.6148072E+00 1.3829012E+00
 7.2893596E+00 1.6592147E+00 1.3518269E+00
 7.3186910E+00 1.7009934E+00 1.3199693E+00
 7.3505796E+00 1.7397860E+00 1.2876058E+00
 7.3847013E+00 1.7753051E+00 1.2550269E+00
 7.4206946E+00 1.8073434E+00 1.2225240E+00
 7.4581728E+00 1.8357793E+00 1.1903755E+00
 7.4967357E+00 1.8605771E+00 1.1588261E+00
 7.5359819E+00 1.8817854E+00 1.1280492E+00
 7.5755289E+00 1.8995325E+00 1.0980800E+00
 7.6149301E+00 1.9139914E+00 1.0686726E+00
 7.2024096E+00 1.1030076E+00 1.6559967E+00
 7.1995295E+00 1.1527995E+00 1.6430423E+00
 7.1982888E+00 1.2026630E+00 1.6277313E+00
 7.1992582E+00 1.2530010E+00 1.6103976E+00
 7.2028152E+00 1.3038668E+00 1.5911639E+00
 7.2092226E+00 1.3551053E+00 1.5700661E+00
 7.2186603E+00 1.4064262E+00 1.5471135E+00
 7.2312471E+00 1.4574530E+00 1.5223304E+00
 7.2470475E+00 1.5077551E+00 1.4957800E+00
 7.2660687E+00 1.5568701E+00 1.4675740E+00
 7.2882541E+00 1.6043244E+00 1.4378745E+00
 7.3134790E+00 1.6496543E+00 1.4068904E+00
 7.3415515E+00 1.6924282E+00 1.3748707E+00
 7.3722184E+00 1.7322667E+00 1.3420954E+00
 7.4051762E+00 1.7688605E+00 1.3088639E+00
 7.4400865E+00 1.8019834E+00 1.2754802E+00
 7.4765904E+00 1.8314999E+00 1.2422320E+00
 7.5143214E+00 1.8573675E+00 1.2093544E+00
 7.5529155E+00 1.8796351E+00 1.1769669E+00
 7.5920139E+00 1.8984330E+00 1.1449802E+00
 7.6312463E+00 1.9139519E+00 1.1128849E+00
 7.2358669E+00 1.1331868E+00 1.6857923E+00
 7.2347143E+00 1.1846931E+00 1.6726260E+00
 7.2352373E+00 1.2360008E+00 1.6569784E+00
 7.2380232E+00 1.2874646E+00 1.6391751E+00
 7.2434786E+00 1.3391608E+00 1.6193576E+00
 7.2518619E+00 1.3909368E+00 1.5975665E+00
 7.2633273E+00 1.4424893E+00 1.5738136E+00
 7.2779562E+00 1.4934215E+00 1.5481312E+00
 7.2957681E+00 1.5432815E+00 1.5205980E+00
 7.3167207E+00 1.5915927E+00 1.4913479E+00
 7.3407064E+00 1.6378791E+00 1.4605700E+00
 7.3675513E+00 1.6816898E+00 1.4285024E+00
 7.3970205E+00 1.7226223E+00 1.3954226E+00
 7.4288294E+00 1.7603433E+00 1.3616356E+00
 7.4626587E+00 1.7946040E+00 1.3274560E+00
 7.4981714E+00 1.8252510E+00 1.2931829E+00
 7.5350239E+00 1.8522295E+00 1.2590567E+00
 7.5728689E+00 1.8755821E+00 1.2251888E+00
 7.6113502E+00 1.8954389E+00 1.1914545E+00
 7.6500816E+00 1.9119898E+00 1.1573811E+00
 7.2729553E+00 1.1635509E+00 1.7144553E+00
 7.2735263E+00 1.2162746E+00 1.7008619E+00
 7.2758542E+00 1.2686593E+00 1.6847127E+00
 7.2805226E+00 1.3209782E+00 1.6663011E+00
 7.2879323E+00 1.3732605E+00 1.6457595E+00
 7.2983206E+00 1.4253251E+00 1.6231280E+00
 7.3118066E+00 1.4768422E+00 1.5984252E+00
 7.3284280E+00 1.5273921E+00 1.5716990E+00
 7.3481561E+00 1.5765080E+00 1.5430513E+00
 7.3708983E+00 1.6237093E+00 1.5126447E+00
 7.3964981E+00 1.6685306E+00 1.4806997E+00
 7.4247389E+00 1.7105488E+00 1.4474859E+00
 7.4553548E+00 1.7494062E+00 1.4133086E+00
 7.4880449E+00 1.7848294E+00 1.3784905E+00
 7.5224910E+00 1.8166427E+00 1.3433443E+00
 7.5583670E+00 1.8447731E+00 1.3081280E+00
 7.5953374E+00 1.8692515E+00 1.2729722E+00
 7.6330409E+00 1.8902019E+00 1.2377864E+00
 7.6710715E+00 1.9078155E+00 1.2021832E+00
 7.3137285E+00 1.1940255E+00 1.7415249E+00
 7.3160232E+00 1.2475977E+00 1.7272984E+00
 7.3201861E+00 1.3007230E+00 1.7104746E+00