# TIME = 5.400000
variables = x, y, z
zone N=5762 E=11520 F=FEPOINT ET=TRIANGLE
 7.2640193E+00 1.4864022E+00 1.7868516E+00
 7.2640192E+00 1.4864021E+00 2.1314824E-01
 7.2640192E+00 5.1359789E-01 1.7868515E+00
 7.2640193E+00 5.1359784E-01 2.1314833E-01
 6.0766060E+00 9.9999996E-01 1.6032862E+00
 8.4760671E+00 9.9999997E-01 1.6170509E+00
 6.0766061E+00 9.9999997E-01 3.9671382E-01
 8.4760671E+00 9.9999997E-01 3.8294896E-01
 6.5614839E+00 1.9250381E+00 9.9999988E-01
 6.5614838E+00 7.4961672E-02 1.0000000E+00
 7.9544671E+00 1.8583435E+00 9.9999995E-01
 7.9544671E+00 1.4165654E-01 9.9999994E-01
 7.2195912E+00 1.4793002E+00 1.7952137E+00
 7.1706368E+00 1.4713223E+00 1.8044852E+00
 7.1192069E+00 1.4628221E+00 1.8142431E+00
 7.0657188E+00 1.4536886E+00 1.8243564E+00
 7.0104412E+00 1.4437685E+00 1.8346162E+00
 6.9536882E+00 1.4328574E+00 1.8447011E+00
 6.8957364E+00 1.4207086E+00 1.8541785E+00
 6.8368427E+00 1.4070563E+00 1.8625083E+00
 6.7772431E+00 1.3916405E+00 1.8690721E+00
 6.7171789E+00 1.3742409E+00 1.8732199E+00
 6.6569474E+00 1.3547110E+00 1.8743340E+00
 6.5969564E+00 1.3330068E+00 1.8718986E+00
 6.5377424E+00 1.3092051E+00 1.8655625E+00
 6.4799370E+00 1.2835020E+00 1.8551793E+00
 6.4241954E+00 1.2561942E+00 1.8408145E+00
 6.3711220E+00 1.2276474E+00 1.8227220E+00
 6.3212132E+00 1.1982598E+00 1.8013008E+00
 6.2748283E+00 1.1684294E+00 1.7770440E+00
 6.2321850E+00 1.1385305E+00 1.7504899E+00
 6.1933719E+00 1.1089012E+00 1.7221838E+00
 6.1583847E+00 1.0798518E+00 1.6926655E+00
 6.1271402E+00 1.0516556E+00 1.6624409E+00
 6.0995769E+00 1.0246301E+00 1.6320754E+00
 7.2144045E+00 5.5421203E-01 1.8149350E+00
 7.1636810E+00 5.6426801E-01 1.8249425E+00
 7.1110598E+00 5.7440871E-01 1.8350636E+00
 7.0567212E+00 5.8509272E-01 1.8453544E+00
 7.0008488E+00 5.9664100E-01 1.8556707E+00
 6.9436873E+00 6.0929397E-01 1.8656827E+00
 6.8854974E+00 6.2328407E-01 1.8749233E+00
 6.8265227E+00 6.3883848E-01 1.8828184E+00
 6.7669951E+00 6.5616142E-01 1.8887262E+00
 6.7071604E+00 6.7540577E-01 1.8919921E+00
 6.6473301E+00 6.9664461E-01 1.8920156E+00
 6.5879294E+00 7.1984915E-01 1.8883193E+00
 6.5295050E+00 7.4487977E-01 1.8806068E+00
 6.4726812E+00 7.7149432E-01 1.8687944E+00
 6.4180881E+00 7.9937226E-01 1.8530094E+00
 6.3662902E+00 8.2814826E-01 1.8335591E+00
 6.3177369E+00 8.5744719E-01 1.8108831E+00
 6.2727368E+00 8.8691254E-01 1.7854982E+00
 6.2314520E+00 9.1621842E-01 1.7579438E+00
 6.1938851E+00 9.4506096E-01 1.7287133E+00
 6.1598437E+00 9.7312903E-01 1.6981558E+00
 6.1288864E+00 9.9999996E-01 1.6663460E+00
 7.2123046E+00 5.8893911E-01 1.8331810E+00
 7.1596762E+00 6.0100666E-01 1.8436960E+00
 7.1057718E+00 6.1283651E-01 1.8540486E+00
 7.0504453E+00 6.2518865E-01 1.8644407E+00
 6.9938288E+00 6.3846194E-01 1.8747293E+00
 6.9361136E+00 6.5292668E-01 1.8845701E+00
 6.8775336E+00 6.6879651E-01 1.8934638E+00
 6.8183234E+00 6.8625952E-01 1.9008053E+00
 6.7587125E+00 7.0546540E-01 1.9059336E+00
 6.6989538E+00 7.2650260E-01 1.9081931E+00
 6.6393740E+00 7.4937560E-01 1.9070033E+00
 6.5804158E+00 7.7399009E-01 1.9019277E+00
 6.5226346E+00 8.0015190E-01 1.8927263E+00
 6.4666470E+00 8.2758244E-01 1.8793787E+00
 6.4130569E+00 8.5594775E-01 1.8620731E+00
 6.3623875E+00 8.8489414E-01 1.8411672E+00
 6.3150331E+00 9.1408024E-01 1.8171315E+00
 6.2712248E+00 9.4319539E-01 1.7904774E+00
 6.2309894E+00 9.7194629E-01 1.7616619E+00
 6.1940815E+00 9.9999995E-01 1.7309480E+00
 6.1598438E+00 1.0268709E+00 1.6981558E+00
 7.2109023E+00 6.2546101E-01 1.8503660E+00
 7.1570237E+00 6.3921684E-01 1.8609798E+00
 7.1019848E+00 6.5274709E-01 1.8713936E+00
 7.0457438E+00 6.6681209E-01 1.8817400E+00
 6.9883815E+00 6.8186642E-01 1.8918655E+00
 6.9300860E+00 6.9817448E-01 1.9013904E+00
 6.8710822E+00 7.1592691E-01 1.9097839E+00
 6.8116026E+00 7.3526914E-01 1.9164139E+00
 6.7518798E+00 7.5629622E-01 1.9206067E+00
 6.6921758E+00 7.7903394E-01 1.9217126E+00
 6.6328330E+00 8.0342250E-01 1.9191781E+00
 6.5743085E+00 8.2930882E-01 1.9126133E+00
 6.5171611E+00 8.5645363E-01 1.9018378E+00
 6.4619931E+00 8.8455391E-01 1.8868943E+00
 6.4093746E+00 9.1327629E-01 1.8680272E+00
 6.3597753E+00 9.4229172E-01 1.8456320E+00
 6.3135061E+00 9.7129665E-01 1.8201793E+00
 6.2706549E+00 9.9999995E-01 1.7921078E+00
 6.2309894E+00 1.0280536E+00 1.7616619E+00
 6.1938852E+00 1.0549389E+00 1.7287132E+00
 7.2097986E+00 6.6383683E-01 1.8663703E+00
 7.1549013E+00 6.7916434E-01 1.8768556E+00
 7.0989243E+00 6.9434579E-01 1.8871286E+00
 7.0418702E+00 7.1013997E-01 1.8972616E+00
 6.9838470E+00 7.2698414E-01 1.9070503E+00
 6.9250435E+00 7.4512616E-01 1.9160802E+00
 6.8656901E+00 7.6472136E-01 1.9237893E+00
 6.8060218E+00 7.8586944E-01 1.9295267E+00
 6.7462768E+00 8.0860941E-01 1.9326153E+00
 6.6867265E+00 8.3290635E-01 1.9324217E+00
 6.6277253E+00 8.5864100E-01 1.9284289E+00
 6.5697376E+00 8.8561034E-01 1.9202996E+00
 6.5133156E+00 9.1354264E-01 1.9079146E+00
 6.4590355E+00 9.4212638E-01 1.8913751E+00
 6.4074181E+00 9.7104472E-01 1.8709683E+00
 6.3588520E+00 9.9999994E-01 1.8470988E+00
 6.3135061E+00 1.0287032E+00 1.8201792E+00
 6.2712249E+00 1.0568045E+00 1.7904773E+00
 6.2314521E+00 1.0837815E+00 1.7579437E+00
 7.2088226E+00 7.0409222E-01 1.8810358E+00
 7.1530387E+00 7.2090458E-01 1.8912018E+00
 7.0962593E+00 7.3770588E-01 1.9011520E+00
 7.0385275E+00 7.5520944E-01 1.9108855E+00
 6.9799729E+00 7.7381828E-01 1.9201471E+00
 6.9207974E+00 7.9374364E-01 1.9284859E+00
 6.8612372E+00 8.1510035E-01 1.9353168E+00
 6.8015320E+00 8.3793796E-01 1.9399797E+00
 6.7419247E+00 8.6223960E-01 1.9418061E+00
 6.6826934E+00 8.8791274E-01 1.9401900E+00
 6.6241978E+00 9.1478633E-01 1.9346596E+00
 6.5668989E+00 9.4261955E-01 1.9249345E+00
 6.5113290E+00 9.7112480E-01 1.9109532E+00
 6.4580206E+00 9.9999995E-01 1.8928632E+00
 6.4074181E+00 1.0289552E+00 1.8709683E+00
 6.3597754E+00 1.0577082E+00 1.8456319E+00
 6.3150331E+00 1.0859196E+00 1.8171313E+00
 6.2727369E+00 1.1130873E+00 1.7854980E+00
 7.2079330E+00 7.4614243E-01 1.8941535E+00
 7.1513771E+00 7.6437574E-01 1.9038297E+00
 7.0939317E+00 7.8275469E-01 1.9132774E+00
 7.0356719E+00 8.0192440E-01 1.9224220E+00
 6.9767460E+00 8.2223624E-01 1.9309601E+00
 6.9173670E+00 8.4385678E-01 1.9384114E+00
 6.8577765E+00 8.6685412E-01 1.9441771E+00
 6.7982175E+00 8.9122666E-01 1.9475998E+00
 6.7389350E+00 9.1690337E-01 1.9480312E+00
 6.6802085E+00 9.4374068E-01 1.9449034E+00
 6.6223940E+00 9.7152696E-01 1.9377958E+00
 6.5659360E+00 9.9999995E-01 1.9264836E+00
 6.5113290E+00 1.0288751E+00 1.9109531E+00
 6.4590355E+00 1.0578735E+00 1.8913750E+00
 6.4093747E+00 1.0867236E+00 1.8680271E+00
 6.3623876E+00 1.1151057E+00 1.8411670E+00
 6.3177370E+00 1.1425527E+00 1.8108828E+00
 7.2071439E+00 7.8982945E-01 1.9055019E+00
 7.1499414E+00 8.0942100E-01 1.9145278E+00
 7.0919795E+00 8.2931556E-01 1.9232950E+00
 7.0333565E+00 8.5007804E-01 1.9316624E+00
 6.9742351E+00 8.7199650E-01 1.9392852E+00
 6.9148359E+00 8.9518640E-01 1.9456634E+00
 6.8554036E+00 9.1966707E-01 1.9501953E+00
 6.7961812E+00 9.4538668E-01 1.9522383E+00
 6.7374116E+00 9.7222576E-01 1.9511753E+00
 6.6793689E+00 9.9999996E-01 1.9464839E+00
 6.6223940E+00 1.0284729E+00 1.9377958E+00
 6.5668990E+00 1.0573803E+00 1.9249344E+00
 6.5133157E+00 1.0864572E+00 1.9079145E+00
 6.4619932E+00 1.1154460E+00 1.8868941E+00
 6.4130570E+00 1.1440521E+00 1.8620729E+00
 6.3662904E+00 1.1718516E+00 1.8335588E+00
 7.2064796E+00 8.3494410E-01 1.9148717E+00
 7.1487744E+00 8.5581105E-01 1.9230922E+00
 7.0904592E+00 8.7713284E-01 1.9310066E+00
 7.0316487E+00 8.9938151E-01 1.9384159E+00
 6.9725153E+00 9.2277428E-01 1.9449445E+00
 6.9132831E+00 9.4737230E-01 1.9500834E+00
 6.8541965E+00 9.7314652E-01 1.9532396E+00
 6.7954942E+00 9.9999997E-01 1.9537960E+00
 6.7374116E+00 1.0277742E+00 1.9511753E+00
 6.6802085E+00 1.0562592E+00 1.9449034E+00
 6.6241978E+00 1.0852136E+00 1.9346595E+00
 6.5697377E+00 1.1143895E+00 1.9202994E+00
 6.5171612E+00 1.1435462E+00 1.9018375E+00
 6.4666472E+00 1.1724174E+00 1.8793784E+00
 6.4180882E+00 1.2006276E+00 1.8530090E+00
 7.2059621E+00 8.8122786E-01 1.9220779E+00
 7.1479138E+00 9.0326130E-01 1.9293469E+00
 7.0894186E+00 9.2589097E-01 1.9362467E+00
 7.0306021E+00 9.4948548E-01 1.9425320E+00
 6.9716414E+00 9.7418630E-01 1.9478083E+00
 6.9127598E+00 9.9999997E-01 1.9515685E+00
 6.8541965E+00 1.0268534E+00 1.9532396E+00
 6.7961812E+00 1.0546132E+00 1.9522382E+00
 6.7389351E+00 1.0830965E+00 1.9480311E+00
 6.6826934E+00 1.1120872E+00 1.9401899E+00
 6.6277254E+00 1.1413589E+00 1.9284287E+00
 6.5743086E+00 1.1706910E+00 1.9126131E+00
 6.5226347E+00 1.1998479E+00 1.8927260E+00
 6.4726814E+00 1.2285055E+00 1.8687941E+00
 7.2056081E+00 9.2837976E-01 1.9269706E+00
 7.1473867E+00 9.5144369E-01 1.9331565E+00
 7.0888902E+00 9.7523127E-01 1.9388973E+00
 7.0302496E+00 9.9999996E-01 1.9439150E+00
 6.9716414E+00 1.0258136E+00 1.9478083E+00
 6.9132832E+00 1.0526276E+00 1.9500833E+00
 6.8554036E+00 1.0803329E+00 1.9501953E+00
 6.7982176E+00 1.1087733E+00 1.9475997E+00
 6.7419248E+00 1.1377603E+00 1.9418060E+00
 6.6867266E+00 1.1670935E+00 1.9324215E+00
 6.6328331E+00 1.1965774E+00 1.9191779E+00
 6.5804159E+00 1.2260097E+00 1.9019274E+00
 6.5295051E+00 1.2551200E+00 1.8806064E+00
 7.2054284E+00 9.7606636E-01 1.9294442E+00
 7.1472093E+00 9.9999995E-01 1.9344361E+00
 7.0888902E+00 1.0247686E+00 1.9388973E+00
 7.0306022E+00 1.0505145E+00 1.9425320E+00
 6.9725153E+00 1.0772257E+00 1.9449445E+00
 6.9148359E+00 1.1048135E+00 1.9456633E+00
 6.8577766E+00 1.1331458E+00 1.9441770E+00
 6.8015321E+00 1.1620619E+00 1.9399796E+00
 6.7462769E+00 1.1913905E+00 1.9326151E+00
 6.6921759E+00 1.2209659E+00 1.9217123E+00
 6.6393741E+00 1.2506242E+00 1.9070030E+00
 6.5879296E+00 1.2801506E+00 1.8883189E+00
 7.2054284E+00 1.0239335E+00 1.9294442E+00
 7.1473867E+00 1.0485562E+00 1.9331565E+00
 7.0894186E+00 1.0741089E+00 1.9362466E+00
 7.0316488E+00 1.1006184E+00 1.9384158E+00
 6.9742352E+00 1.1280034E+00 1.9392851E+00
 6.9173670E+00 1.1561432E+00 1.9384114E+00
 6.8612373E+00 1.1848996E+00 1.9353167E+00
 6.8060219E+00 1.2141305E+00 1.9295265E+00
 6.7518799E+00 1.2437036E+00 1.9206064E+00
 6.6989539E+00 1.2734972E+00 1.9081928E+00
 6.6473303E+00 1.3033552E+00 1.8920152E+00
 7.2056081E+00 1.0716201E+00 1.9269706E+00
 7.1479138E+00 1.0967386E+00 1.9293469E+00
 7.0904592E+00 1.1228671E+00 1.9310066E+00
 7.0333566E+00 1.1499219E+00 1.9316623E+00
 6.9767461E+00 1.1777637E+00 1.9309600E+00
 6.9207975E+00 1.2062563E+00 1.9284858E+00
 6.8656902E+00 1.2352785E+00 1.9237891E+00
 6.8116027E+00 1.2647307E+00 1.9164137E+00
 6.7587127E+00 1.2945344E+00 1.9059333E+00
 6.7071606E+00 1.3245940E+00 1.8919918E+00
 7.2059622E+00 1.1187720E+00 1.9220779E+00
 7.1487744E+00 1.1441889E+00 1.9230922E+00
 7.0919795E+00 1.1706844E+00 1.9232950E+00
 7.0356719E+00 1.1980755E+00 1.9224219E+00
 6.9799730E+00 1.2261817E+00 1.9201470E+00
 6.9250436E+00 1.2548738E+00 1.9160800E+00
 6.8710823E+00 1.2840730E+00 1.9097837E+00
 6.8183235E+00 1.3137403E+00 1.9008050E+00
 6.7669953E+00 1.3438384E+00 1.8887259E+00
 7.2064797E+00 1.1650558E+00 1.9148717E+00
 7.1499414E+00 1.1905789E+00 1.9145278E+00
 7.0939317E+00 1.2172453E+00 1.9132773E+00
 7.0385275E+00 1.2447905E+00 1.9108855E+00
 6.9838470E+00 1.2730158E+00 1.9070502E+00
 6.9300861E+00 1.3018254E+00 1.9013903E+00
 6.8775337E+00 1.3312034E+00 1.8934636E+00
 6.8265228E+00 1.3611614E+00 1.8828181E+00
 7.2071440E+00 1.2101705E+00 1.9055019E+00
 7.1513772E+00 1.2356242E+00 1.9038297E+00
 7.0962593E+00 1.2622941E+00 1.9011520E+00
 7.0418703E+00 1.2898600E+00 1.8972616E+00
 6.9883815E+00 1.3181335E+00 1.8918654E+00
 6.9361137E+00 1.3470732E+00 1.8845700E+00
 6.8854975E+00 1.3767158E+00 1.8749231E+00
 7.2079331E+00 1.2538575E+00 1.8941535E+00
 7.1530387E+00 1.2790954E+00 1.8912018E+00
 7.0989244E+00 1.3056542E+00 1.8871286E+00
 7.0457439E+00 1.3331879E+00 1.8817400E+00
 6.9938288E+00 1.3615380E+00 1.8747292E+00
 6.9436874E+00 1.3907059E+00 1.8656825E+00
 7.2088227E+00 1.2959077E+00 1.8810358E+00
 7.1549014E+00 1.3208356E+00 1.8768556E+00
 7.1019849E+00 1.3472529E+00 1.8713935E+00
 7.0504454E+00 1.3748113E+00 1.8644406E+00
 7.0008489E+00 1.4033589E+00 1.8556706E+00
 7.2097987E+00 1.3361631E+00 1.8663703E+00
 7.1570238E+00 1.3607831E+00 1.8609798E+00
 7.1057719E+00 1.3871635E+00 1.8540486E+00
 7.0567213E+00 1.4149072E+00 1.8453543E+00
 7.2109023E+00 1.3745390E+00 1.8503660E+00
 7.1596763E+00 1.3989933E+00 1.8436961E+00
 7.1110599E+00 1.4255913E+00 1.8350636E+00
 7.2123046E+00 1.4110609E+00 1.8331811E+00
 7.1636810E+00 1.4357320E+00 1.8249426E+00
 7.2144045E+00 1.4457880E+00 1.8149351E+00
 7.2639339E+00 1.4574564E+00 1.8040618E+00
 7.2638227E+00 1.4246146E+00 1.8219210E+00
 7.2637314E+00 1.3896915E+00 1.8390789E+00
 7.2636587E+00 1.3526836E+00 1.8553227E+00
 7.2636006E+00 1.3136830E+00 1.8704106E+00
 7.2635528E+00 1.2728272E+00 1.8840943E+00
 7.2635126E+00 1.2302631E+00 1.8961462E+00
 7.2634790E+00 1.1861823E+00 1.9063511E+00
 7.2634522E+00 1.1408215E+00 1.9145142E+00
 7.2634325E+00 1.0944580E+00 1.9204716E+00
 7.2634204E+00 1.0474047E+00 1.9240982E+00
 7.2634164E+00 9.9999993E-01 1.9253160E+00
 7.2634204E+00 9.5259513E-01 1.9240982E+00
 7.2634324E+00 9.0554188E-01 1.9204716E+00
 7.2634521E+00 8.5917843E-01 1.9145142E+00
 7.2634790E+00 8.1381758E-01 1.9063511E+00
 7.2635125E+00 7.6973680E-01 1.8961462E+00
 7.2635527E+00 7.2717273E-01 1.8840942E+00
 7.2636005E+00 6.8631699E-01 1.8704106E+00
 7.2636586E+00 6.4731637E-01 1.8553227E+00
 7.2637314E+00 6.1030850E-01 1.8390788E+00
 7.2638226E+00 5.7538542E-01 1.8219209E+00
 7.2639339E+00 5.4254365E-01 1.8040617E+00
 7.3082791E+00 5.2410150E-01 1.7896051E+00
 7.3567975E+00 5.3566739E-01 1.7926356E+00
 7.4075336E+00 5.4772875E-01 1.7957848E+00
 7.4601076E+00 5.6031469E-01 1.7990171E+00
 7.5143209E+00 5.7349068E-01 1.8022456E+00
 7.5699461E+00 5.8734749E-01 1.8053372E+00
 7.6267787E+00 6.0199832E-01 1.8081130E+00
 7.6845928E+00 6.1756499E-01 1.8103509E+00
 7.7431329E+00 6.3416933E-01 1.8117937E+00
 7.8021078E+00 6.5192152E-01 1.8121603E+00
 7.8611903E+00 6.7090944E-01 1.8111610E+00
 7.9200219E+00 6.9118887E-01 1.8085151E+00
 7.9782197E+00 7.1277536E-01 1.8039698E+00
 8.0353867E+00 7.3563923E-01 1.7973172E+00
 8.0911242E+00 7.5970392E-01 1.7884084E+00
 8.1450473E+00 7.8484882E-01 1.7771636E+00
 8.1968000E+00 8.1091546E-01 1.7635754E+00
 8.2460671E+00 8.3771636E-01 1.7477077E+00
 8.2925815E+00 8.6504390E-01 1.7296910E+00
 8.3361261E+00 8.9267955E-01 1.7097148E+00
 8.3765171E+00 9.2038682E-01 1.6880319E+00
 8.4136189E+00 9.4792314E-01 1.6649347E+00
 8.4472469E+00 9.7493339E-01 1.6408287E+00
 7.3132476E+00 1.4422129E+00 1.8085551E+00
 7.3634959E+00 1.4287299E+00 1.8119402E+00
 7.4153766E+00 1.4152835E+00 1.8151375E+00
 7.4687621E+00 1.4014723E+00 1.8182825E+00
 7.5235519E+00 1.3870540E+00 1.8213573E+00
 7.5795919E+00 1.3718936E+00 1.8242292E+00
 7.6366893E+00 1.3558798E+00 1.8267021E+00
 7.6946199E+00 1.3389087E+00 1.8285343E+00
 7.7531193E+00 1.3208839E+00 1.8294530E+00
 7.8118851E+00 1.3017249E+00 1.8291681E+00
 7.8705810E+00 1.2813772E+00 1.8273889E+00
 7.9288427E+00 1.2598209E+00 1.8238420E+00
 7.9862874E+00 1.2370767E+00 1.8182899E+00
 8.0425245E+00 1.2132081E+00 1.8105474E+00
 8.0971689E+00 1.1883194E+00 1.8004939E+00
 8.1498560E+00 1.1625497E+00 1.7880813E+00
 8.2002555E+00 1.1360629E+00 1.7733341E+00
 8.2480859E+00 1.1090383E+00 1.7563440E+00
 8.2931272E+00 1.0816674E+00 1.7372564E+00
 8.3352584E+00 1.0541655E+00 1.7162336E+00
 8.3745343E+00 1.0267969E+00 1.6933822E+00
 8.4113061E+00 9.9999997E-01 1.6686288E+00
 7.3151207E+00 1.4076049E+00 1.8264015E+00
 7.3672480E+00 1.3922869E+00 1.8298953E+00
 7.4203797E+00 1.3774176E+00 1.8330046E+00
 7.4747260E+00 1.3622682E+00 1.8359784E+00
 7.5302490E+00 1.3465127E+00 1.8388070E+00
 7.5868528E+00 1.3299747E+00 1.8413538E+00
 7.6443670E+00 1.3125461E+00 1.8434051E+00
 7.7025660E+00 1.2941388E+00 1.8447023E+00
 7.7611763E+00 1.2746799E+00 1.8449599E+00
 7.8198836E+00 1.2541175E+00 1.8438809E+00
 7.8783414E+00 1.2324297E+00 1.8411755E+00
 7.9361791E+00 1.2096309E+00 1.8365798E+00
 7.9930135E+00 1.1857752E+00 1.8298739E+00
 8.0484606E+00 1.1609552E+00 1.8208970E+00
 8.1021505E+00 1.1352959E+00 1.8095581E+00
 8.1537429E+00 1.1089443E+00 1.7958392E+00
 8.2029462E+00 1.0820575E+00 1.7797893E+00
 8.2495483E+00 1.0547987E+00 1.7615030E+00
 8.2934784E+00 1.0273559E+00 1.7410697E+00
 8.3349206E+00 9.9999997E-01 1.7184728E+00
 8.3745343E+00 9.7320300E-01 1.6933822E+00
 7.3163373E+00 1.3712943E+00 1.8432669E+00
 7.3696927E+00 1.3545415E+00 1.8465480E+00
 7.4239302E+00 1.3382743E+00 1.8494256E+00
 7.4791673E+00 1.3217696E+00 1.8521017E+00
 7.5354274E+00 1.3046374E+00 1.8545622E+00
 7.5926205E+00 1.2866977E+00 1.8566514E+00
 7.6505812E+00 1.2678474E+00 1.8581396E+00
 7.7090761E+00 1.2480163E+00 1.8587537E+00
 7.7678196E+00 1.2271557E+00 1.8581982E+00
 7.8264854E+00 1.2052427E+00 1.8561732E+00
 7.8847172E+00 1.1822873E+00 1.8523937E+00
 7.9421401E+00 1.1583362E+00 1.8466091E+00
 7.9983732E+00 1.1334727E+00 1.8386204E+00
 8.0530437E+00 1.1078111E+00 1.8282939E+00
 8.1058039E+00 1.0814864E+00 1.8155671E+00
 8.1563525E+00 1.0546415E+00 1.8004449E+00
 8.2044723E+00 1.0274221E+00 1.7829779E+00
 8.2501030E+00 9.9999997E-01 1.7632098E+00
 8.2934784E+00 9.7264403E-01 1.7410698E+00
 8.3352584E+00 9.4583445E-01 1.7162336E+00
 7.3172961E+00 1.3331841E+00 1.8589890E+00
 7.3716501E+00 1.3151618E+00 1.8618655E+00
 7.4267997E+00 1.2975879E+00 1.8643451E+00
 7.4828291E+00 1.2797423E+00 1.8665832E+00
 7.5397423E+00 1.2612475E+00 1.8685311E+00
 7.5974513E+00 1.2419275E+00 1.8700131E+00
 7.6557804E+00 1.2216956E+00 1.8707832E+00
 7.7144853E+00 1.2005020E+00 1.8705573E+00
 7.7732680E+00 1.1783238E+00 1.8690344E+00
 7.8317919E+00 1.1551676E+00 1.8659168E+00
 7.8896947E+00 1.1310740E+00 1.8609296E+00
 7.9466018E+00 1.1061178E+00 1.8538405E+00
 8.0021411E+00 1.0804042E+00 1.8444751E+00
 8.0559602E+00 1.0540584E+00 1.8327265E+00
 8.1077489E+00 1.0272125E+00 1.8185546E+00
 8.1572770E+00 9.9999997E-01 1.8019684E+00
 8.2044723E+00 9.7257782E-01 1.7829779E+00
 8.2495483E+00 9.4520121E-01 1.7615030E+00
 8.2931272E+00 9.1833250E-01 1.7372564E+00
 7.3181556E+00 1.2932345E+00 1.8733924E+00
 7.3733786E+00 1.2740689E+00 1.8757005E+00
 7.4293079E+00 1.2552554E+00 1.8776318E+00
 7.4859975E+00 1.2361182E+00 1.8792821E+00
 7.5434369E+00 1.2163071E+00 1.8805658E+00
 7.6015261E+00 1.1956688E+00 1.8812849E+00
 7.6600792E+00 1.1741367E+00 1.8811803E+00
 7.7188402E+00 1.1516851E+00 1.8799611E+00
 7.7775013E+00 1.1283180E+00 1.8773269E+00
 7.8357196E+00 1.1040707E+00 1.8729879E+00
 7.8931326E+00 1.0790104E+00 1.8666852E+00
 7.9493734E+00 1.0532335E+00 1.8582087E+00
 8.0040888E+00 1.0268559E+00 1.8474095E+00
 8.0569617E+00 9.9999997E-01 1.8342026E+00
 8.1077489E+00 9.7278744E-01 1.8185546E+00
 8.1563525E+00 9.4535849E-01 1.8004449E+00
 8.2029462E+00 9.1794241E-01 1.7797893E+00
 8.2480859E+00 8.9096160E-01 1.7563441E+00
 7.3189482E+00 1.2515252E+00 1.8862677E+00
 7.3749282E+00 1.2313144E+00 1.8878656E+00
 7.4315048E+00 1.2113339E+00 1.8891051E+00
 7.4887097E+00 1.1909730E+00 1.8900199E+00
 7.5465190E+00 1.1699240E+00 1.8904879E+00
 7.6048221E+00 1.1480627E+00 1.8902920E+00
 7.6634229E+00 1.1253479E+00 1.8891642E+00
 7.7220567E+00 1.1017789E+00 1.8868126E+00
 7.7804101E+00 1.0773863E+00 1.8829431E+00
 7.8381399E+00 1.0522307E+00 1.8772799E+00
 7.8948908E+00 1.0263998E+00 1.8695843E+00
 7.9503138E+00 9.9999997E-01 1.8596701E+00
 8.0040888E+00 9.7314405E-01 1.8474095E+00
 8.0559602E+00 9.4594157E-01 1.8327265E+00
 8.1058039E+00 9.1851355E-01 1.8155672E+00
 8.1537429E+00 8.9105567E-01 1.7958392E+00
 8.2002555E+00 8.6393701E-01 1.7733341E+00
 7.3196558E+00 1.2082115E+00 1.8973995E+00
 7.3762706E+00 1.1870477E+00 1.8981612E+00
 7.4333502E+00 1.1659873E+00 1.8985725E+00
 7.4909110E+00 1.1444948E+00 1.8986095E+00
 7.5489192E+00 1.1223149E+00 1.8981180E+00
 7.6072555E+00 1.0993578E+00 1.8968663E+00
 7.6657167E+00 1.0756088E+00 1.8945833E+00
 7.7240335E+00 1.0510926E+00 1.8909818E+00
 7.7818926E+00 1.0258632E+00 1.8857796E+00
 7.8389578E+00 9.9999996E-01 1.8787193E+00
 7.8948908E+00 9.7360017E-01 1.8695843E+00
 7.9493734E+00 9.4676639E-01 1.8582088E+00
 8.0021411E+00 9.1959572E-01 1.8444751E+00
 8.0530437E+00 8.9218883E-01 1.8282940E+00
 8.1021505E+00 8.6470400E-01 1.8095582E+00
 8.1498560E+00 8.3745026E-01 1.7880813E+00
 7.3202532E+00 1.1634991E+00 1.9065861E+00
 7.3773629E+00 1.1414896E+00 1.9063969E+00
 7.4347881E+00 1.1194567E+00 1.9058537E+00
 7.4925354E+00 1.0969510E+00 1.9048816E+00
 7.5505637E+00 1.0737760E+00 1.9033005E+00
 7.6087487E+00 1.0498786E+00 1.9008708E+00
 7.6668838E+00 1.0252710E+00 1.8973235E+00
 7.7247005E+00 9.9999995E-01 1.8923817E+00
 7.7818926E+00 9.7413675E-01 1.8857796E+00
 7.8381399E+00 9.4776920E-01 1.8772799E+00
 7.8931326E+00 9.2098951E-01 1.8666852E+00
 7.9466018E+00 8.9388214E-01 1.8538405E+00
 7.9983732E+00 8.6652726E-01 1.8386204E+00
 8.0484606E+00 8.3904472E-01 1.8208970E+00
 8.0971689E+00 8.1168049E-01 1.8004940E+00
 7.3207190E+00 1.1176416E+00 1.9136490E+00
 7.3781686E+00 1.0949140E+00 1.9124082E+00
 7.4357725E+00 1.0720399E+00 1.9107982E+00
 7.4935310E+00 1.0486655E+00 1.9087020E+00
 7.5513996E+00 1.0246575E+00 1.9059217E+00
 7.6092520E+00 9.9999994E-01 1.9022160E+00
 7.6668838E+00 9.7472886E-01 1.8973235E+00
 7.7240335E+00 9.4890731E-01 1.8909818E+00
 7.7804101E+00 9.2261356E-01 1.8829432E+00
 7.8357196E+00 8.9592925E-01 1.8729879E+00
 7.8896947E+00 8.6892595E-01 1.8609297E+00
 7.9421401E+00 8.4166373E-01 1.8466091E+00
 7.9930135E+00 8.1422474E-01 1.8298739E+00
 8.0425245E+00 7.8679180E-01 1.8105474E+00
 7.3210378E+00 1.0709343E+00 1.9184431E+00
 7.3786621E+00 1.0476362E+00 1.9160682E+00
 7.4362724E+00 1.0240751E+00 1.9132984E+00
 7.4938664E+00 9.9999993E-01 1.9099852E+00
 7.5513995E+00 9.7534233E-01 1.9059217E+00
 7.6087487E+00 9.5012125E-01 1.9008708E+00
 7.6657167E+00 9.2439107E-01 1.8945833E+00
 7.7220567E+00 8.9822099E-01 1.8868126E+00
 7.7775013E+00 8.7168187E-01 1.8773270E+00
 7.8317919E+00 8.4483229E-01 1.8659168E+00
 7.8847171E+00 8.1771263E-01 1.8523938E+00
 7.9361791E+00 7.9036904E-01 1.8365799E+00
 7.9862874E+00 7.6292318E-01 1.8182900E+00
 7.3211996E+00 1.0237036E+00 1.9208666E+00
 7.3788283E+00 9.9999993E-01 1.9172974E+00
 7.4362724E+00 9.7592478E-01 1.9132984E+00
 7.4935310E+00 9.5133434E-01 1.9087020E+00
 7.5505637E+00 9.2622388E-01 1.9033005E+00
 7.6072554E+00 9.0064208E-01 1.8968664E+00
 7.6634229E+00 8.7465199E-01 1.8891642E+00
 7.7188402E+00 8.4831479E-01 1.8799612E+00
 7.7732680E+00 8.2167613E-01 1.8690345E+00
 7.8264854E+00 7.9475723E-01 1.8561733E+00
 7.8783414E+00 7.6757021E-01 1.8411756E+00
 7.9288427E+00 7.4017899E-01 1.8238420E+00
 7.3211996E+00 9.7629625E-01 1.9208666E+00
 7.3786621E+00 9.5236365E-01 1.9160682E+00
 7.4357725E+00 9.2795994E-01 1.9107982E+00
 7.4925354E+00 9.0304892E-01 1.9048816E+00
 7.5489191E+00 8.7768494E-01 1.8981180E+00
 7.6048220E+00 8.5193715E-01 1.8902920E+00
 7.6600792E+00 8.2586322E-01 1.8811803E+00
 7.7144853E+00 7.9949794E-01 1.8705573E+00
 7.7678196E+00 7.7284426E-01 1.8581982E+00
 7.8198836E+00 7.4588240E-01 1.8438809E+00
 7.8705810E+00 7.1862274E-01 1.8273890E+00
 7.3210377E+00 9.2906560E-01 1.9184431E+00
 7.3781686E+00 9.0508584E-01 1.9124082E+00
 7.4347881E+00 8.8054315E-01 1.9058537E+00
 7.4909110E+00 8.5550509E-01 1.8986095E+00
 7.5465189E+00 8.3007588E-01 1.8904879E+00
 7.6015260E+00 8.0433115E-01 1.8812850E+00
 7.6557803E+00 7.7830433E-01 1.8707833E+00
 7.7090761E+00 7.5198359E-01 1.8587537E+00
 7.7611762E+00 7.2532002E-01 1.8449599E+00
 7.8118851E+00 6.9827506E-01 1.8291682E+00
 7.3207189E+00 8.8235826E-01 1.9136490E+00
 7.3773628E+00 8.5851029E-01 1.9063969E+00
 7.4333501E+00 8.3401254E-01 1.8985725E+00
 7.4887096E+00 8.0902690E-01 1.8900199E+00
 7.5434368E+00 7.8369280E-01 1.8805658E+00
 7.5974512E+00 7.5807244E-01 1.8700132E+00
 7.6505811E+00 7.3215253E-01 1.8581396E+00
 7.7025659E+00 7.0586108E-01 1.8447024E+00
 7.7531192E+00 6.7911606E-01 1.8294530E+00
 7.3202531E+00 8.3650083E-01 1.9065861E+00
 7.3762705E+00 8.1295222E-01 1.8981612E+00
 7.4315047E+00 7.8866600E-01 1.8891051E+00
 7.4859974E+00 7.6388172E-01 1.8792821E+00
 7.5397423E+00 7.3875239E-01 1.8685311E+00
 7.5926204E+00 7.1330221E-01 1.8566514E+00
 7.6443669E+00 6.8745380E-01 1.8434051E+00
 7.6946198E+00 6.6109125E-01 1.8285343E+00
 7.3196557E+00 7.9178837E-01 1.8973995E+00
 7.3749281E+00 7.6868555E-01 1.8878656E+00
 7.4293078E+00 7.4474452E-01 1.8776318E+00
 7.4828290E+00 7.2025765E-01 1.8665831E+00
 7.5354273E+00 6.9536249E-01 1.8545622E+00
 7.5868527E+00 6.7002525E-01 1.8413538E+00
 7.6366892E+00 6.4412016E-01 1.8267021E+00
 7.3189481E+00 7.4847472E-01 1.8862677E+00
 7.3733786E+00 7.2593107E-01 1.8757005E+00
 7.4267996E+00 7.0241200E-01 1.8643450E+00
 7.4791673E+00 6.7823039E-01 1.8521017E+00
 7.5302489E+00 6.5348730E-01 1.8388070E+00
 7.5795919E+00 6.2810635E-01 1.8242292E+00
 7.3181555E+00 7.0676548E-01 1.8733924E+00
 7.3716500E+00 6.8483818E-01 1.8618655E+00
 7.4239301E+00 6.6172564E-01 1.8494255E+00
 7.4747259E+00 6.3773173E-01 1.8359784E+00
 7.5235518E+00 6.1294593E-01 1.8213573E+00
 7.3172960E+00 6.6681591E-01 1.8589890E+00
 7.3696926E+00 6.4545844E-01 1.8465480E+00
 7.4203796E+00 6.2258243E-01 1.8330046E+00
 7.4687621E+00 5.9852766E-01 1.8182825E+00
 7.3163372E+00 6.2870571E-01 1.8432669E+00
 7.3672479E+00 6.0771309E-01 1.8298952E+00
 7.4153765E+00 5.8471648E-01 1.8151374E+00
 7.3151206E+00 5.9239510E-01 1.8264015E+00
 7.3634959E+00 5.7127008E-01 1.8119401E+00
 7.3132476E+00 5.5778709E-01 1.8085551E+00
 7.2365369E+00 1.5103872E+00 1.7740223E+00
 7.2061382E+00 1.5366823E+00 1.7589281E+00
 7.1743773E+00 1.5637872E+00 1.7422005E+00
 7.1414306E+00 1.5915279E+00 1.7237499E+00
 7.1074587E+00 1.6197495E+00 1.7034601E+00
 7.0726770E+00 1.6482620E+00 1.6812094E+00
 7.0372999E+00 1.6768553E+00 1.6568710E+00
 7.0015645E+00 1.7052775E+00 1.6303331E+00
 6.9657269E+00 1.7332374E+00 1.6015117E+00
 6.9300523E+00 1.7604105E+00 1.5703650E+00
 6.8948054E+00 1.7864517E+00 1.5369066E+00
 6.8602408E+00 1.8110129E+00 1.5012144E+00
 6.8265961E+00 1.8337629E+00 1.4634358E+00
 6.7940877E+00 1.8544064E+00 1.4237869E+00
 6.7629076E+00 1.8727014E+00 1.3825450E+00
 6.7332214E+00 1.8884713E+00 1.3400363E+00
 6.7051667E+00 1.9016128E+00 1.2966187E+00
 6.6788524E+00 1.9120961E+00 1.2526639E+00
 6.6543615E+00 1.9199604E+00 1.2085421E+00
 6.6317563E+00 1.9253053E+00 1.1646137E+00
 6.6110897E+00 1.9282812E+00 1.1212430E+00
 6.5923832E+00 1.9290745E+00 1.0787663E+00
 6.5756931E+00 1.9279116E+00 1.0377457E+00
 6.0944931E+00 1.0716275E+00 1.6223579E+00
 6.0898348E+00 1.1181782E+00 1.6094132E+00
 6.0868107E+00 1.1656398E+00 1.5943847E+00
 6.0859305E+00 1.2141982E+00 1.5775386E+00
 6.0875285E+00 1.2637858E+00 1.5589376E+00
 6.0918570E+00 1.3141856E+00 1.5385806E+00
 6.0991187E+00 1.3650916E+00 1.5164563E+00
 6.1094795E+00 1.4161390E+00 1.4925773E+00
 6.1230643E+00 1.4669126E+00 1.4669951E+00
 6.1399464E+00 1.5169585E+00 1.4398060E+00
 6.1601360E+00 1.5657983E+00 1.4111512E+00
 6.1835721E+00 1.6129467E+00 1.3812159E+00
 6.2101183E+00 1.6579311E+00 1.3502243E+00
 6.2395623E+00 1.7003119E+00 1.3184342E+00
 6.2716229E+00 1.7397033E+00 1.2861277E+00
 6.3059601E+00 1.7757904E+00 1.2536015E+00
 6.3421915E+00 1.8083436E+00 1.2211551E+00
 6.3799096E+00 1.8372262E+00 1.1890786E+00
 6.4186953E+00 1.8623945E+00 1.1576357E+00
 6.4581254E+00 1.8838938E+00 1.1270234E+00
 6.4977865E+00 1.9018547E+00 1.0972826E+00
 6.5372107E+00 1.9164639E+00 1.0681300E+00
 6.1236361E+00 1.1014533E+00 1.6527940E+00
 6.1206616E+00 1.1504362E+00 1.6399180E+00
 6.1192595E+00 1.1996387E+00 1.6247135E+00
 6.1200669E+00 1.2495387E+00 1.6075513E+00
 6.1234722E+00 1.3001864E+00 1.5885332E+00
 6.1297283E+00 1.3513991E+00 1.5676550E+00
 6.1390166E+00 1.4028620E+00 1.5448983E+00
 6.1514714E+00 1.4541787E+00 1.5202765E+00
 6.1671787E+00 1.5048992E+00 1.4938513E+00
 6.1861657E+00 1.5545385E+00 1.4657366E+00
 6.2083908E+00 1.6025971E+00 1.4360974E+00
 6.2337370E+00 1.6485820E+00 1.4051457E+00
 6.2620111E+00 1.6920295E+00 1.3731348E+00
 6.2929487E+00 1.7325265E+00 1.3403507E+00
 6.3262248E+00 1.7697317E+00 1.3071017E+00
 6.3614728E+00 1.8033917E+00 1.2737045E+00
 6.3983040E+00 1.8333523E+00 1.2404674E+00
 6.4363282E+00 1.8595620E+00 1.2076599E+00
 6.4751630E+00 1.8820704E+00 1.1754450E+00
 6.5144214E+00 1.9010176E+00 1.1437505E+00
 6.5536913E+00 1.9166160E+00 1.1120025E+00
 6.1563987E+00 1.1313523E+00 1.6827927E+00
 6.1550802E+00 1.1820256E+00 1.6697414E+00
 6.1553819E+00 1.2326882E+00 1.6542416E+00
 6.1579788E+00 1.2837838E+00 1.6366535E+00
 6.1632850E+00 1.3353803E+00 1.6170831E+00
 6.1715440E+00 1.3872838E+00 1.5955226E+00
 6.1829113E+00 1.4391518E+00 1.5719547E+00
 6.1974851E+00 1.4905536E+00 1.5464026E+00
 6.2153074E+00 1.5410054E+00 1.5189464E+00
 6.2363542E+00 1.5899970E+00 1.4897249E+00
 6.2605277E+00 1.6370162E+00 1.4589331E+00
 6.2876534E+00 1.6815739E+00 1.4268160E+00
 6.3174835E+00 1.7232288E+00 1.3936602E+00
 6.3497079E+00 1.7616102E+00 1.3597827E+00
 6.3839725E+00 1.7964372E+00 1.3255157E+00
 6.4199023E+00 1.8275333E+00 1.2911866E+00
 6.4571233E+00 1.8548321E+00 1.2570810E+00
 6.4952691E+00 1.8783781E+00 1.2233683E+00
 6.5339593E+00 1.8983175E+00 1.1899522E+00
 6.5727553E+00 1.9148741E+00 1.1562787E+00
 6.1929086E+00 1.1616135E+00 1.7118572E+00
 6.1932723E+00 1.2135541E+00 1.6984207E+00
 6.1953555E+00 1.2653673E+00 1.6824641E+00
 6.1998416E+00 1.3174202E+00 1.6643058E+00
 6.2071353E+00 1.3697304E+00 1.6440322E+00
 6.2174564E+00 1.4220674E+00 1.6216308E+00
 6.2309249E+00 1.4740516E+00 1.5970921E+00
 6.2475955E+00 1.5252179E+00 1.5704570E+00
 6.2674597E+00 1.5750557E+00 1.5418312E+00
 6.2904377E+00 1.6230402E+00 1.5113852E+00
 6.3163742E+00 1.6686609E+00 1.4793495E+00
 6.3450399E+00 1.7114494E+00 1.4460059E+00
 6.3761412E+00 1.7510057E+00 1.4116754E+00
 6.4093383E+00 1.7870195E+00 1.3767027E+00
 6.4442694E+00 1.8192882E+00 1.3414337E+00
 6.4805734E+00 1.8477247E+00 1.3061780E+00
 6.5178955E+00 1.8723613E+00 1.2711314E+00
 6.5558565E+00 1.8933426E+00 1.2362391E+00
 6.5939961E+00 1.9109035E+00 1.2010299E+00
 6.2332721E+00 1.1921614E+00 1.7395065E+00
 6.2353602E+00 1.2450573E+00 1.7254834E+00
 6.2393030E+00 1.2977269E+00 1.7089002E+00