# TIME = 1.000000
VARIABLES = X, Y, Z, FX, FY, FZ
ZONE N=29232 E=58212 F=FEPOINT ET=TRIANGLE
  0.000E+00  9.502E-01  1.243E-03 6.2534934E+00 2.3227337E-01 4.6862673E+00
  0.000E+00  1.000E+00  0.000E+00 6.2423029E+00 1.8697734E-05 4.6923237E+00
  4.318E-02  9.751E-01  3.108E-04 6.2436354E+00 1.1353342E-01 4.5863320E+00
  0.000E+00  1.050E+00  1.243E-03 6.2534921E+00 -2.3223664E-01 4.6862692E+00
  4.318E-02  1.025E+00  3.108E-04 6.2436348E+00 -1.1349739E-01 4.5863330E+00
  0.000E+00  1.100E+00  4.969E-03 6.2907152E+00 -4.6507652E-01 4.6687144E+00
  4.318E-02  1.075E+00  2.796E-03 6.2690465E+00 -3.4078216E-01 4.5746790E+00
  0.000E+00  1.149E+00  1.117E-02 6.3608074E+00 -6.9916626E-01 4.6407563E+00
  4.318E-02  1.124E+00  7.761E-03 6.3230865E+00 -5.6898663E-01 4.5522852E+00
  0.000E+00  1.198E+00  1.983E-02 6.4618061E+00 -9.3318780E-01 4.6023214E+00
  4.318E-02  1.174E+00  1.519E-02 6.4080392E+00 -7.9824748E-01 4.5199954E+00
  0.000E+00  1.247E+00  3.092E-02 6.5728045E+00 -1.1624864E+00 4.5509916E+00
  4.318E-02  1.223E+00  2.507E-02 6.5169381E+00 -1.0254248E+00 4.4765409E+00
  0.000E+00  1.295E+00  4.443E-02 6.6656864E+00 -1.3834871E+00 4.4845515E+00
  4.318E-02  1.271E+00  3.738E-02 6.6233567E+00 -1.2455436E+00 4.4188835E+00
  0.000E+00  1.342E+00  6.031E-02 6.7467992E+00 -1.6015297E+00 4.4076228E+00
  4.318E-02  1.318E+00  5.207E-02 6.7049442E+00 -1.4590555E+00 4.3478998E+00
  0.000E+00  1.388E+00  7.852E-02 6.9082408E+00 -1.8219991E+00 4.3244856E+00
  4.318E-02  1.365E+00  6.913E-02 6.8152857E+00 -1.6735293E+00 4.2697222E+00
  0.000E+00  1.434E+00  9.903E-02 7.0441383E+00 -2.0379374E+00 4.2299578E+00
  4.318E-02  1.411E+00  8.849E-02 6.9900623E+00 -1.8881450E+00 4.1837820E+00
  0.000E+00  1.478E+00  1.218E-01 7.1033256E+00 -2.2444710E+00 4.1215093E+00
  4.318E-02  1.456E+00  1.101E-01 7.0837039E+00 -2.0944233E+00 4.0841434E+00
  0.000E+00  1.521E+00  1.467E-01 7.2651346E+00 -2.4467932E+00 4.0044460E+00
  4.318E-02  1.500E+00  1.340E-01 7.1654393E+00 -2.2936939E+00 3.9733656E+00
  0.000E+00  1.563E+00  1.738E-01 7.3137607E+00 -2.6441316E+00 3.8781190E+00
  4.318E-02  1.543E+00  1.600E-01 7.3133562E+00 -2.4896922E+00 3.8548739E+00
  0.000E+00  1.604E+00  2.029E-01 7.4041774E+00 -2.8337921E+00 3.7411539E+00
  4.318E-02  1.584E+00  1.881E-01 7.3405085E+00 -2.6788383E+00 3.7259669E+00
  0.000E+00  1.643E+00  2.340E-01 7.4596844E+00 -3.0168105E+00 3.5953283E+00
  4.318E-02  1.623E+00  2.182E-01 7.4358972E+00 -2.8609843E+00 3.5876189E+00
  0.000E+00  1.680E+00  2.669E-01 7.4634717E+00 -3.1922858E+00 3.4404780E+00
  4.318E-02  1.662E+00  2.502E-01 7.4501002E+00 -3.0364047E+00 3.4406744E+00
  0.000E+00  1.716E+00  3.018E-01 7.4964563E+00 -3.3597527E+00 3.2770405E+00
  4.318E-02  1.698E+00  2.841E-01 7.4964765E+00 -3.2040405E+00 3.2849605E+00
  0.000E+00  1.750E+00  3.383E-01 7.4500783E+00 -3.5190132E+00 3.1055852E+00
  4.318E-02  1.733E+00  3.198E-01 7.4634902E+00 -3.3638424E+00 3.1212248E+00
  0.000E+00  1.782E+00  3.765E-01 7.4358736E+00 -3.6693045E+00 2.9261716E+00
  4.318E-02  1.766E+00  3.572E-01 7.4597008E+00 -3.5152403E+00 2.9496565E+00
  0.000E+00  1.812E+00  4.163E-01 7.3404832E+00 -3.8108109E+00 2.7398786E+00
  4.318E-02  1.797E+00  3.962E-01 7.4041917E+00 -3.6578252E+00 2.7707159E+00
  0.000E+00  1.840E+00  4.575E-01 7.3133285E+00 -3.9426453E+00 2.5464258E+00
  4.318E-02  1.826E+00  4.367E-01 7.3137725E+00 -3.7917382E+00 2.5852799E+00
  0.000E+00  1.866E+00  5.000E-01 7.1654085E+00 -4.0638488E+00 2.3459625E+00
  4.318E-02  1.853E+00  4.786E-01 7.2651430E+00 -3.9152508E+00 2.3923371E+00
  0.000E+00  1.890E+00  5.438E-01 7.0836712E+00 -4.1771507E+00 2.1421545E+00
  4.318E-02  1.878E+00  5.217E-01 7.1033314E+00 -4.0297224E+00 2.1945212E+00
  0.000E+00  1.912E+00  5.887E-01 6.9900274E+00 -4.2790491E+00 1.9311794E+00
  4.318E-02  1.901E+00  5.661E-01 7.0441422E+00 -4.1357429E+00 1.9925873E+00
  0.000E+00  1.931E+00  6.347E-01 6.8152478E+00 -4.3669618E+00 1.7116763E+00
  4.318E-02  1.921E+00  6.116E-01 6.9082424E+00 -4.2281688E+00 1.7814557E+00
  0.000E+00  1.948E+00  6.815E-01 6.7049045E+00 -4.4469235E+00 1.4923174E+00
  4.318E-02  1.940E+00  6.580E-01 6.7467975E+00 -4.3094679E+00 1.5658945E+00
  0.000E+00  1.963E+00  7.292E-01 6.6233172E+00 -4.5195183E+00 1.2739424E+00
  4.318E-02  1.956E+00  7.052E-01 6.6656811E+00 -4.3846763E+00 1.3527072E+00
  0.000E+00  1.975E+00  7.775E-01 6.5168973E+00 -4.5784923E+00 1.0488100E+00
  4.318E-02  1.969E+00  7.532E-01 6.5727967E+00 -4.4496352E+00 1.1366309E+00
  0.000E+00  1.985E+00  8.264E-01 6.4079946E+00 -4.6229411E+00 8.1645780E-01
  4.318E-02  1.980E+00  8.019E-01 6.4617952E+00 -4.4998281E+00 9.1244112E-01
  0.000E+00  1.992E+00  8.757E-01 6.3230374E+00 -4.6559671E+00 5.8197473E-01
  4.318E-02  1.989E+00  8.510E-01 6.3607933E+00 -4.5374110E+00 6.8363101E-01
  0.000E+00  1.997E+00  9.253E-01 6.2689951E+00 -4.6788739E+00 3.4857221E-01
  4.318E-02  1.995E+00  9.004E-01 6.2906989E+00 -4.5647487E+00 4.5475243E-01
  0.000E+00  2.000E+00  9.751E-01 6.2435818E+00 -4.6907975E+00 1.1611232E-01
  4.318E-02  1.999E+00  9.502E-01 6.2534756E+00 -4.5819174E+00 2.2709571E-01
  0.000E+00  2.000E+00  1.025E+00 6.2435799E+00 -4.6907976E+00 -1.1608770E-01
  4.318E-02  2.000E+00  1.000E+00 6.2422844E+00 -4.5878398E+00 1.2137375E-05
  0.000E+00  1.997E+00  1.075E+00 6.2689894E+00 -4.6788736E+00 -3.4854757E-01
  4.318E-02  1.999E+00  1.050E+00 6.2534716E+00 -4.5819175E+00 -2.2707148E-01
  0.000E+00  1.992E+00  1.124E+00 6.3230279E+00 -4.6559673E+00 -5.8195016E-01
  4.318E-02  1.995E+00  1.100E+00 6.2906911E+00 -4.5647484E+00 -4.5472830E-01
  0.000E+00  1.985E+00  1.174E+00 6.4079812E+00 -4.6229478E+00 -8.1643341E-01
  4.318E-02  1.989E+00  1.149E+00 6.3607817E+00 -4.5374135E+00 -6.8360704E-01
  0.000E+00  1.975E+00  1.223E+00 6.5168802E+00 -4.5785130E+00 -1.0487858E+00
  4.318E-02  1.980E+00  1.198E+00 6.4617800E+00 -4.4998415E+00 -9.1241734E-01
  0.000E+00  1.963E+00  1.271E+00 6.6232966E+00 -4.5195416E+00 -1.2739184E+00
  4.318E-02  1.969E+00  1.247E+00 6.5727779E+00 -4.4496597E+00 -1.1366073E+00
  0.000E+00  1.948E+00  1.318E+00 6.7048807E+00 -4.4469263E+00 -1.4922936E+00
  4.318E-02  1.956E+00  1.295E+00 6.6656588E+00 -4.3846906E+00 -1.3526839E+00
  0.000E+00  1.931E+00  1.365E+00 6.8152210E+00 -4.3669699E+00 -1.7116528E+00
  4.318E-02  1.940E+00  1.342E+00 6.7467719E+00 -4.3094661E+00 -1.5658713E+00
  0.000E+00  1.912E+00  1.411E+00 6.9899970E+00 -4.2790891E+00 -1.9311564E+00
  4.318E-02  1.921E+00  1.388E+00 6.9082141E+00 -4.2281962E+00 -1.7814333E+00
  0.000E+00  1.890E+00  1.456E+00 7.0836388E+00 -4.1771687E+00 -2.1421321E+00
  4.318E-02  1.901E+00  1.434E+00 7.0441110E+00 -4.1357777E+00 -1.9925653E+00
  0.000E+00  1.866E+00  1.500E+00 7.1653737E+00 -4.0638631E+00 -2.3459406E+00
  4.318E-02  1.878E+00  1.478E+00 7.1032975E+00 -4.0297283E+00 -2.1944994E+00
  0.000E+00  1.840E+00  1.543E+00 7.3132915E+00 -3.9426866E+00 -2.5464051E+00
  4.318E-02  1.853E+00  1.521E+00 7.2651068E+00 -3.9152839E+00 -2.3923166E+00
  0.000E+00  1.812E+00  1.584E+00 7.3404441E+00 -3.8108333E+00 -2.7398582E+00
  4.318E-02  1.826E+00  1.563E+00 7.3137343E+00 -3.7917694E+00 -2.5852598E+00
  0.000E+00  1.782E+00  1.623E+00 7.4358329E+00 -3.6693396E+00 -2.9261526E+00
  4.318E-02  1.797E+00  1.604E+00 7.4041517E+00 -3.6578507E+00 -2.7706968E+00
  0.000E+00  1.750E+00  1.662E+00 7.4500362E+00 -3.5190466E+00 -3.1055670E+00
  4.318E-02  1.766E+00  1.643E+00 7.4596592E+00 -3.5152778E+00 -2.9496387E+00
  0.000E+00  1.716E+00  1.698E+00 7.4964132E+00 -3.3597867E+00 -3.2770237E+00
  4.318E-02  1.733E+00  1.680E+00 7.4634473E+00 -3.3638720E+00 -3.1212077E+00
  0.000E+00  1.680E+00  1.733E+00 7.4634278E+00 -3.1923226E+00 -3.4404623E+00
  4.318E-02  1.698E+00  1.716E+00 7.4964325E+00 -3.2040776E+00 -3.2849449E+00
  0.000E+00  1.643E+00  1.766E+00 7.4596397E+00 -3.0168458E+00 -3.5953139E+00
  4.318E-02  1.662E+00  1.750E+00 7.4500556E+00 -3.0364383E+00 -3.4406598E+00
  0.000E+00  1.604E+00  1.797E+00 7.4041321E+00 -2.8338290E+00 -3.7411407E+00
  4.318E-02  1.623E+00  1.782E+00 7.4358522E+00 -2.8610207E+00 -3.5876060E+00
  0.000E+00  1.563E+00  1.826E+00 7.3137151E+00 -2.6441677E+00 -3.8781072E+00
  4.318E-02  1.584E+00  1.812E+00 7.3404634E+00 -2.6788744E+00 -3.7259553E+00
  0.000E+00  1.521E+00  1.853E+00 7.2650890E+00 -2.4468321E+00 -4.0044362E+00
  4.318E-02  1.543E+00  1.840E+00 7.3133113E+00 -2.4897294E+00 -3.8548639E+00
  0.000E+00  1.478E+00  1.878E+00 7.1032807E+00 -2.2445108E+00 -4.1215016E+00
  4.318E-02  1.500E+00  1.866E+00 7.1653945E+00 -2.2937296E+00 -3.9733567E+00
  0.000E+00  1.434E+00  1.901E+00 7.0440947E+00 -2.0379782E+00 -4.2299518E+00
  4.318E-02  1.456E+00  1.890E+00 7.0836587E+00 -2.0944599E+00 -4.0841358E+00
  0.000E+00  1.388E+00  1.921E+00 6.9081987E+00 -1.8220347E+00 -4.3244803E+00
  4.318E-02  1.411E+00  1.912E+00 6.9900166E+00 -1.8881830E+00 -4.1837766E+00
  0.000E+00  1.342E+00  1.940E+00 6.7467576E+00 -1.6015635E+00 -4.4076181E+00
  4.318E-02  1.365E+00  1.931E+00 6.8152405E+00 -1.6735691E+00 -4.2697193E+00
  0.000E+00  1.295E+00  1.956E+00 6.6656439E+00 -1.3835219E+00 -4.4845482E+00
  4.318E-02  1.318E+00  1.948E+00 6.7049010E+00 -1.4590963E+00 -4.3478993E+00
  0.000E+00  1.247E+00  1.969E+00 6.5727611E+00 -1.1625259E+00 -4.5509909E+00
  4.318E-02  1.271E+00  1.963E+00 6.6233162E+00 -1.2455817E+00 -4.4188847E+00
  0.000E+00  1.198E+00  1.980E+00 6.4617633E+00 -9.3323058E-01 -4.6023239E+00
  4.318E-02  1.223E+00  1.975E+00 6.5168992E+00 -1.0254599E+00 -4.4765432E+00
  0.000E+00  1.149E+00  1.989E+00 6.3607668E+00 -6.9920993E-01 -4.6407619E+00
  4.318E-02  1.174E+00  1.985E+00 6.4080005E+00 -7.9828048E-01 -4.5199987E+00
  0.000E+00  1.100E+00  1.995E+00 6.2906771E+00 -4.6511839E-01 -4.6687227E+00
  4.318E-02  1.124E+00  1.992E+00 6.3230474E+00 -5.6902015E-01 -4.5522899E+00
  0.000E+00  1.050E+00  1.999E+00 6.2534563E+00 -2.3227543E-01 -4.6862800E+00
  4.318E-02  1.075E+00  1.997E+00 6.2690073E+00 -3.4081585E-01 -4.5746852E+00
  0.000E+00  1.000E+00  2.000E+00 6.2422685E+00 -1.8024897E-05 -4.6923366E+00
  4.318E-02  1.025E+00  2.000E+00 6.2435960E+00 -1.1353230E-01 -4.5863410E+00
  0.000E+00  9.502E-01  1.999E+00 6.2534596E+00 2.3224005E-01 -4.6862820E+00
  4.318E-02  9.751E-01  2.000E+00 6.2435976E+00 1.1349777E-01 -4.5863420E+00
  0.000E+00  9.004E-01  1.995E+00 6.2906836E+00 4.6508271E-01 -4.6687268E+00
  4.318E-02  9.253E-01  1.997E+00 6.2690122E+00 3.4078176E-01 -4.5746882E+00
  0.000E+00  8.510E-01  1.989E+00 6.3607764E+00 6.9917442E-01 -4.6407680E+00
  4.318E-02  8.757E-01  1.992E+00 6.3230555E+00 5.6898557E-01 -4.5522949E+00
  0.000E+00  8.019E-01  1.980E+00 6.4617761E+00 9.3319559E-01 -4.6023319E+00
  4.318E-02  8.264E-01  1.985E+00 6.4080118E+00 7.9824664E-01 -4.5200057E+00
  0.000E+00  7.532E-01  1.969E+00 6.5727768E+00 1.1624908E+00 -4.5510009E+00
  4.318E-02  7.775E-01  1.975E+00 6.5169135E+00 1.0254260E+00 -4.4765520E+00
  0.000E+00  7.052E-01  1.956E+00 6.6656625E+00 1.3834873E+00 -4.4845601E+00
  4.318E-02  7.292E-01  1.963E+00 6.6233334E+00 1.2455482E+00 -4.4188953E+00
  0.000E+00  6.580E-01  1.940E+00 6.7467789E+00 1.6015292E+00 -4.4076318E+00
  4.318E-02  6.815E-01  1.948E+00 6.7049210E+00 1.4590629E+00 -4.3479118E+00
  0.000E+00  6.116E-01  1.921E+00 6.9082227E+00 1.8220017E+00 -4.3244958E+00
  4.318E-02  6.347E-01  1.931E+00 6.8152631E+00 1.6735367E+00 -4.2697335E+00
  0.000E+00  5.661E-01  1.901E+00 7.0441209E+00 2.0379443E+00 -4.2299688E+00
  4.318E-02  5.887E-01  1.912E+00 6.9900416E+00 1.8881505E+00 -4.1837922E+00
  0.000E+00  5.217E-01  1.878E+00 7.1033091E+00 2.2444789E+00 -4.1215203E+00
  4.318E-02  5.438E-01  1.890E+00 7.0836861E+00 2.0944278E+00 -4.0841534E+00
  0.000E+00  4.786E-01  1.853E+00 7.2651194E+00 2.4468002E+00 -4.0044564E+00
  4.318E-02  5.000E-01  1.866E+00 7.1654240E+00 2.2936992E+00 -3.9733757E+00
  0.000E+00  4.367E-01  1.826E+00 7.3137472E+00 2.6441376E+00 -3.8781289E+00
  4.318E-02  4.575E-01  1.840E+00 7.3133426E+00 2.4896989E+00 -3.8548843E+00
  0.000E+00  3.962E-01  1.797E+00 7.4041657E+00 2.8337986E+00 -3.7411637E+00
  4.318E-02  4.163E-01  1.812E+00 7.3404964E+00 2.6788457E+00 -3.7259772E+00
  0.000E+00  3.572E-01  1.766E+00 7.4596746E+00 3.0168177E+00 -3.5953381E+00
  4.318E-02  3.765E-01  1.782E+00 7.4358866E+00 2.8609915E+00 -3.5876290E+00
  0.000E+00  3.198E-01  1.733E+00 7.4634637E+00 3.1922934E+00 -3.4404877E+00
  4.318E-02  3.383E-01  1.750E+00 7.4500911E+00 3.0364121E+00 -3.4406841E+00
  0.000E+00  2.841E-01  1.698E+00 7.4964499E+00 3.3597604E+00 -3.2770500E+00
  4.318E-02  3.018E-01  1.716E+00 7.4964690E+00 3.2040481E+00 -3.2849700E+00
  0.000E+00  2.502E-01  1.662E+00 7.4500735E+00 3.5190210E+00 -3.1055944E+00
  4.318E-02  2.669E-01  1.680E+00 7.4634845E+00 3.3638502E+00 -3.1212342E+00
  0.000E+00  2.182E-01  1.623E+00 7.4358705E+00 3.6693123E+00 -2.9261806E+00
  4.318E-02  2.340E-01  1.643E+00 7.4596969E+00 3.5152482E+00 -2.9496657E+00
  0.000E+00  1.881E-01  1.584E+00 7.3404820E+00 3.8108188E+00 -2.7398874E+00
  4.318E-02  2.029E-01  1.604E+00 7.4041896E+00 3.6578332E+00 -2.7707248E+00
  0.000E+00  1.600E-01  1.543E+00 7.3133293E+00 3.9426531E+00 -2.5464344E+00
  4.318E-02  1.738E-01  1.563E+00 7.3137723E+00 3.7917461E+00 -2.5852886E+00
  0.000E+00  1.340E-01  1.500E+00 7.1654112E+00 4.0638565E+00 -2.3459709E+00
  4.318E-02  1.467E-01  1.521E+00 7.2651446E+00 3.9152585E+00 -2.3923456E+00
  0.000E+00  1.101E-01  1.456E+00 7.0836760E+00 4.1771582E+00 -2.1421627E+00
  4.318E-02  1.218E-01  1.478E+00 7.1033350E+00 4.0297300E+00 -2.1945294E+00
  0.000E+00  8.849E-02  1.411E+00 6.9900341E+00 4.2790560E+00 -1.9311874E+00
  4.318E-02  9.903E-02  1.434E+00 7.0441480E+00 4.1357503E+00 -1.9925955E+00
  0.000E+00  6.913E-02  1.365E+00 6.8152569E+00 4.3669686E+00 -1.7116841E+00
  4.318E-02  7.852E-02  1.388E+00 6.9082504E+00 4.2281758E+00 -1.7814636E+00
  0.000E+00  5.207E-02  1.318E+00 6.7049159E+00 4.4469298E+00 -1.4923252E+00
  4.318E-02  6.031E-02  1.342E+00 6.7468077E+00 4.3094744E+00 -1.5659022E+00
  0.000E+00  3.738E-02  1.271E+00 6.6233310E+00 4.5195240E+00 -1.2739501E+00
  4.318E-02  4.443E-02  1.295E+00 6.6656938E+00 4.3846823E+00 -1.3527149E+00
  0.000E+00  2.507E-02  1.223E+00 6.5169136E+00 4.5784974E+00 -1.0488176E+00
  4.318E-02  3.092E-02  1.247E+00 6.5728119E+00 4.4496406E+00 -1.1366384E+00
  0.000E+00  1.519E-02  1.174E+00 6.4080136E+00 4.6229455E+00 -8.1646527E-01
  4.318E-02  1.983E-02  1.198E+00 6.4618130E+00 4.4998329E+00 -9.1244857E-01
  0.000E+00  7.761E-03  1.124E+00 6.3230593E+00 4.6559708E+00 -5.8198208E-01
  4.318E-02  1.117E-02  1.149E+00 6.3608137E+00 4.5374150E+00 -6.8363836E-01
  0.000E+00  2.796E-03  1.075E+00 6.2690198E+00 4.6788767E+00 -3.4857953E-01
  4.318E-02  4.969E-03  1.100E+00 6.2907220E+00 4.5647520E+00 -4.5475968E-01
  0.000E+00  3.108E-04  1.025E+00 6.2436092E+00 4.6907996E+00 -1.1611964E-01
  4.318E-02  1.243E-03  1.050E+00 6.2535015E+00 4.5819198E+00 -2.2710286E-01
  0.000E+00  3.108E-04  9.751E-01 6.2436101E+00 4.6907988E+00 1.1608042E-01
  4.318E-02  0.000E+00  1.000E+00 6.2423132E+00 4.5878413E+00 -1.9226854E-05
  0.000E+00  2.796E-03  9.253E-01 6.2690223E+00 4.6788741E+00 3.4854036E-01
  4.318E-02  1.243E-03  9.502E-01 6.2535034E+00 4.5819181E+00 2.2706439E-01
  0.000E+00  7.761E-03  8.757E-01 6.3230636E+00 4.6559670E+00 5.8194298E-01
  4.318E-02  4.969E-03  9.004E-01 6.2907256E+00 4.5647481E+00 4.5472118E-01
  0.000E+00  1.519E-02  8.264E-01 6.4080198E+00 4.6229466E+00 8.1642618E-01
  4.318E-02  1.117E-02  8.510E-01 6.3608189E+00 4.5374124E+00 6.8359988E-01
  0.000E+00  2.507E-02  7.775E-01 6.5169214E+00 4.5785111E+00 1.0487785E+00
  4.318E-02  1.983E-02  8.019E-01 6.4618199E+00 4.4998397E+00 9.1241015E-01
  0.000E+00  3.738E-02  7.292E-01 6.6233404E+00 4.5195390E+00 1.2739111E+00
  4.318E-02  3.092E-02  7.532E-01 6.5728204E+00 4.4496572E+00 1.1366001E+00
  0.000E+00  5.207E-02  6.815E-01 6.7049268E+00 4.4469231E+00 1.4922863E+00
  4.318E-02  4.443E-02  7.052E-01 6.6657038E+00 4.3846874E+00 1.3526766E+00
  0.000E+00  6.913E-02  6.347E-01 6.8152693E+00 4.3669662E+00 1.7116455E+00
  4.318E-02  6.031E-02  6.580E-01 6.7468193E+00 4.3094624E+00 1.5658640E+00
  0.000E+00  8.849E-02  5.887E-01 6.9900475E+00 4.2790852E+00 1.9311490E+00
  4.318E-02  7.852E-02  6.116E-01 6.9082635E+00 4.2281920E+00 1.7814258E+00
  0.000E+00  1.101E-01  5.438E-01 7.0836910E+00 4.1771641E+00 2.1421245E+00
  4.318E-02  9.903E-02  5.661E-01 7.0441624E+00 4.1357731E+00 1.9925578E+00
  0.000E+00  1.340E-01  5.000E-01 7.1654275E+00 4.0638583E+00 2.3459329E+00
  4.318E-02  1.218E-01  5.217E-01 7.1033507E+00 4.0297234E+00 2.1944918E+00
  0.000E+00  1.600E-01  4.575E-01 7.3133467E+00 3.9426815E+00 2.5463972E+00
  4.318E-02  1.467E-01  4.786E-01 7.2651616E+00 3.9152788E+00 2.3923088E+00
  0.000E+00  1.881E-01  4.163E-01 7.3405006E+00 3.8108281E+00 2.7398502E+00
  4.318E-02  1.738E-01  4.367E-01 7.3137903E+00 3.7917641E+00 2.5852519E+00
  0.000E+00  2.182E-01  3.765E-01 7.4358903E+00 3.6693344E+00 2.9261444E+00
  4.318E-02  2.029E-01  3.962E-01 7.4042087E+00 3.6578453E+00 2.7706887E+00
  0.000E+00  2.502E-01  3.383E-01 7.4500942E+00 3.5190414E+00 3.1055587E+00
  4.318E-02  2.340E-01  3.572E-01 7.4597170E+00 3.5152723E+00 2.9496303E+00
  0.000E+00  2.841E-01  3.018E-01 7.4964715E+00 3.3597814E+00 3.2770151E+00
  4.318E-02  2.669E-01  3.198E-01 7.4635057E+00 3.3638665E+00 3.1211992E+00
  0.000E+00  3.198E-01  2.669E-01 7.4634862E+00 3.1923173E+00 3.4404536E+00
  4.318E-02  3.018E-01  2.841E-01 7.4964913E+00 3.2040723E+00 3.2849362E+00
  0.000E+00  3.572E-01  2.340E-01 7.4596981E+00 3.0168407E+00 3.5953051E+00
  4.318E-02  3.383E-01  2.502E-01 7.4501143E+00 3.0364331E+00 3.4406509E+00
  0.000E+00  3.962E-01  2.029E-01 7.4041904E+00 2.8338246E+00 3.7411319E+00
  4.318E-02  3.765E-01  2.182E-01 7.4359106E+00 2.8610156E+00 3.5875968E+00
  0.000E+00  4.367E-01  1.738E-01 7.3137729E+00 2.6441637E+00 3.8780982E+00
  4.318E-02  4.163E-01  1.881E-01 7.3405211E+00 2.6788691E+00 3.7259459E+00
  0.000E+00  4.786E-01  1.467E-01 7.2651460E+00 2.4468271E+00 4.0044267E+00
  4.318E-02  4.575E-01  1.600E-01 7.3133680E+00 2.4897247E+00 3.8548544E+00
  0.000E+00  5.217E-01  1.218E-01 7.1033362E+00 2.2445047E+00 4.1214914E+00
  4.318E-02  5.000E-01  1.340E-01 7.1654503E+00 2.2937262E+00 3.9733474E+00
  0.000E+00  5.661E-01  9.903E-02 7.0441480E+00 2.0379731E+00 4.2299415E+00
  4.318E-02  5.438E-01  1.101E-01 7.0837140E+00 2.0944573E+00 4.0841268E+00
  0.000E+00  6.116E-01  7.852E-02 6.9082497E+00 1.8220337E+00 4.3244710E+00
  4.318E-02  5.887E-01  8.849E-02 6.9900714E+00 1.8881790E+00 4.1837667E+00
  0.000E+00  6.580E-01  6.031E-02 6.7468071E+00 1.6015656E+00 4.4076099E+00
  4.318E-02  6.347E-01  6.913E-02 6.8152941E+00 1.6735634E+00 4.2697087E+00
  0.000E+00  7.052E-01  4.443E-02 6.6656933E+00 1.3835231E+00 4.4845403E+00
  4.318E-02  6.815E-01  5.207E-02 6.7049515E+00 1.4590906E+00 4.3478880E+00
  0.000E+00  7.532E-01  3.092E-02 6.5728104E+00 1.1625229E+00 4.5509822E+00
  4.318E-02  7.292E-01  3.738E-02 6.6233630E+00 1.2455788E+00 4.4188734E+00
  0.000E+00  8.019E-01  1.983E-02 6.4618109E+00 9.3322421E-01 4.6023138E+00
  4.318E-02  7.775E-01  2.507E-02 6.5169434E+00 1.0254603E+00 4.4765326E+00
  0.000E+00  8.510E-01  1.117E-02 6.3608110E+00 6.9920317E-01 4.6407506E+00
  4.318E-02  8.264E-01  1.519E-02 6.4080434E+00 7.9828287E-01 4.5199889E+00
  0.000E+00  9.004E-01  4.969E-03 6.2907176E+00 4.6511356E-01 4.6687106E+00
  4.318E-02  8.757E-01  7.761E-03 6.3230895E+00 5.6902273E-01 4.5522806E+00
  4.318E-02  9.253E-01  2.796E-03 6.2690483E+00 3.4081776E-01 4.5746762E+00
  1.000E+01  1.050E+00  1.243E-03 6.2534921E+00 -2.3223664E-01 4.6862692E+00
  1.000E+01  1.000E+00  5.551E-16 6.2423029E+00 1.8697734E-05 4.6923237E+00
  9.957E+00  1.025E+00  3.108E-04 6.2436308E+00 -1.1867492E-01 4.7956096E+00
  1.000E+01  9.502E-01  1.243E-03 6.2534934E+00 2.3227337E-01 4.6862673E+00
  9.957E+00  9.751E-01  3.108E-04 6.2436314E+00 1.1871292E-01 4.7956086E+00
  1.000E+01  9.004E-01  4.969E-03 6.2907176E+00 4.6511356E-01 4.6687106E+00
  9.957E+00  9.253E-01  2.796E-03 6.2690444E+00 3.5636718E-01 4.7834208E+00
  1.000E+01  8.510E-01  1.117E-02 6.3608110E+00 6.9920317E-01 4.6407506E+00
  9.957E+00  8.757E-01  7.761E-03 6.3230857E+00 5.9498674E-01 4.7600028E+00
  1.000E+01  8.019E-01  1.983E-02 6.4618109E+00 9.3322421E-01 4.6023138E+00
  9.957E+00  8.264E-01  1.519E-02 6.4080401E+00 8.3470905E-01 4.7262373E+00
  1.000E+01  7.532E-01  3.092E-02 6.5728104E+00 1.1625229E+00 4.5509822E+00
  9.957E+00  7.775E-01  2.507E-02 6.5169404E+00 1.0722508E+00 4.6807979E+00
  1.000E+01  7.052E-01  4.443E-02 6.6656933E+00 1.3835231E+00 4.4845403E+00
  9.957E+00  7.292E-01  3.738E-02 6.6233599E+00 1.3024115E+00 4.6205074E+00
  1.000E+01  6.580E-01  6.031E-02 6.7468071E+00 1.6015656E+00 4.4076099E+00
  9.957E+00  6.815E-01  5.207E-02 6.7049480E+00 1.5256658E+00 4.5462824E+00
  1.000E+01  6.116E-01  7.852E-02 6.9082497E+00 1.8220337E+00 4.3244710E+00
  9.957E+00  6.347E-01  6.913E-02 6.8152902E+00 1.7499267E+00 4.4645352E+00
  1.000E+01  5.661E-01  9.903E-02 7.0441480E+00 2.0379731E+00 4.2299415E+00
  9.957E+00  5.887E-01  8.849E-02 6.9900670E+00 1.9743347E+00 4.3746710E+00
  1.000E+01  5.217E-01  1.218E-01 7.1033362E+00 2.2445047E+00 4.1214914E+00
  9.957E+00  5.438E-01  1.101E-01 7.0837104E+00 2.1900250E+00 4.2704843E+00
  1.000E+01  4.786E-01  1.467E-01 7.2651460E+00 2.4468271E+00 4.0044267E+00
  9.957E+00  5.000E-01  1.340E-01 7.1654470E+00 2.3983871E+00 4.1546491E+00
  1.000E+01  4.367E-01  1.738E-01 7.3137729E+00 2.6441637E+00 3.8780982E+00
  9.957E+00  4.575E-01  1.600E-01 7.3133648E+00 2.6033294E+00 4.0307489E+00
  1.000E+01  3.962E-01  2.029E-01 7.4041904E+00 2.8338246E+00 3.7411319E+00
  9.957E+00  4.163E-01  1.881E-01 7.3405177E+00 2.8011037E+00 3.8959584E+00
  1.000E+01  3.572E-01  2.340E-01 7.4596981E+00 3.0168407E+00 3.5953051E+00
  9.957E+00  3.765E-01  2.182E-01 7.4359070E+00 2.9915603E+00 3.7512968E+00
  1.000E+01  3.198E-01  2.669E-01 7.4634862E+00 3.1923173E+00 3.4404536E+00
  9.957E+00  3.383E-01  2.502E-01 7.4501109E+00 3.1749819E+00 3.5976462E+00
  1.000E+01  2.841E-01  3.018E-01 7.4964715E+00 3.3597814E+00 3.2770151E+00
  9.957E+00  3.018E-01  2.841E-01 7.4964879E+00 3.3502702E+00 3.4348263E+00
  1.000E+01  2.502E-01  3.383E-01 7.4500942E+00 3.5190414E+00 3.1055587E+00
  9.957E+00  2.669E-01  3.198E-01 7.4635023E+00 3.5173559E+00 3.2636177E+00
  1.000E+01  2.182E-01  3.765E-01 7.4358903E+00 3.6693344E+00 2.9261444E+00
  9.957E+00  2.340E-01  3.572E-01 7.4597136E+00 3.6756710E+00 3.0842200E+00
  1.000E+01  1.881E-01  4.163E-01 7.3405006E+00 3.8108281E+00 2.7398502E+00
  9.957E+00  2.029E-01  3.962E-01 7.4042053E+00 3.8247503E+00 2.8971125E+00
  1.000E+01  1.600E-01  4.575E-01 7.3133467E+00 3.9426815E+00 2.5463972E+00
  9.957E+00  1.738E-01  4.367E-01 7.3137868E+00 3.9647807E+00 2.7032131E+00
  1.000E+01  1.340E-01  5.000E-01 7.1654275E+00 4.0638583E+00 2.3459329E+00
  9.957E+00  1.467E-01  4.786E-01 7.2651579E+00 4.0939317E+00 2.5014660E+00
  1.000E+01  1.101E-01  5.438E-01 7.0836910E+00 4.1771641E+00 2.1421245E+00
  9.957E+00  1.218E-01  5.217E-01 7.1033473E+00 4.2135986E+00 2.2946236E+00
  1.000E+01  8.849E-02  5.887E-01 6.9900475E+00 4.2790852E+00 1.9311490E+00
  9.957E+00  9.903E-02  5.661E-01 7.0441590E+00 4.3244873E+00 2.0834761E+00
  1.000E+01  6.913E-02  6.347E-01 6.8152693E+00 4.3669662E+00 1.7116455E+00
  9.957E+00  7.852E-02  6.116E-01 6.9082598E+00 4.4211236E+00 1.8627091E+00
  1.000E+01  5.207E-02  6.815E-01 6.7049268E+00 4.4469231E+00 1.4922863E+00
  9.957E+00  6.031E-02  6.580E-01 6.7468158E+00 4.5061030E+00 1.6373126E+00
  1.000E+01  3.738E-02  7.292E-01 6.6233404E+00 4.5195390E+00 1.2739111E+00
  9.957E+00  4.443E-02  7.052E-01 6.6657005E+00 4.5847609E+00 1.4143989E+00
  1.000E+01  2.507E-02  7.775E-01 6.5169214E+00 4.5785111E+00 1.0487785E+00
  9.957E+00  3.092E-02  7.532E-01 6.5728168E+00 4.6526955E+00 1.1884626E+00
  1.000E+01  1.519E-02  8.264E-01 6.4080198E+00 4.6229466E+00 8.1642618E-01
  9.957E+00  1.983E-02  8.019E-01 6.4618160E+00 4.7051682E+00 9.5404097E-01
  1.000E+01  7.761E-03  8.757E-01 6.3230636E+00 4.6559670E+00 5.8194298E-01
  9.957E+00  1.117E-02  8.510E-01 6.3608151E+00 4.7444558E+00 7.1479072E-01
  1.000E+01  2.796E-03  9.253E-01 6.2690223E+00 4.6788741E+00 3.4854036E-01
  9.957E+00  4.969E-03  9.004E-01 6.2907220E+00 4.7730394E+00 4.7547043E-01
  1.000E+01  3.108E-04  9.751E-01 6.2436101E+00 4.6907988E+00 1.1608042E-01
  9.957E+00  1.243E-03  9.502E-01 6.2534987E+00 4.7909918E+00 2.3742716E-01
  1.000E+01  3.108E-04  1.025E+00 6.2436092E+00 4.6907996E+00 -1.1611964E-01
  9.957E+00  0.000E+00  1.000E+00 6.2423096E+00 4.7971866E+00 -1.9811976E-05
  1.000E+01  2.796E-03  1.075E+00 6.2690198E+00 4.6788767E+00 -3.4857953E-01
  9.957E+00  1.243E-03  1.050E+00 6.2534968E+00 4.7909934E+00 -2.3746679E-01
  1.000E+01  7.761E-03  1.124E+00 6.3230593E+00 4.6559708E+00 -5.8198208E-01
  9.957E+00  4.969E-03  1.100E+00 6.2907183E+00 4.7730433E+00 -4.7551006E-01
  1.000E+01  1.519E-02  1.174E+00 6.4080136E+00 4.6229455E+00 -8.1646527E-01
  9.957E+00  1.117E-02  1.149E+00 6.3608097E+00 4.7444584E+00 -7.1483031E-01
  1.000E+01  2.507E-02  1.223E+00 6.5169136E+00 4.5784974E+00 -1.0488176E+00
  9.957E+00  1.983E-02  1.198E+00 6.4618090E+00 4.7051609E+00 -9.5408050E-01
  1.000E+01  3.738E-02  1.271E+00 6.6233310E+00 4.5195240E+00 -1.2739501E+00
  9.957E+00  3.092E-02  1.247E+00 6.5728082E+00 4.6526779E+00 -1.1885021E+00
  1.000E+01  5.207E-02  1.318E+00 6.7049159E+00 4.4469298E+00 -1.4923252E+00
  9.957E+00  4.443E-02  1.295E+00 6.6656903E+00 4.5847553E+00 -1.4144383E+00
  1.000E+01  6.913E-02  1.365E+00 6.8152569E+00 4.3669686E+00 -1.7116841E+00
  9.957E+00  6.031E-02  1.342E+00 6.7468040E+00 4.5061152E+00 -1.6373519E+00
  1.000E+01  8.849E-02  1.411E+00 6.9900341E+00 4.2790560E+00 -1.9311874E+00
  9.957E+00  7.852E-02  1.388E+00 6.9082466E+00 4.4211064E+00 -1.8627482E+00
  1.000E+01  1.101E-01  1.456E+00 7.0836760E+00 4.1771582E+00 -2.1421627E+00
  9.957E+00  9.903E-02  1.434E+00 7.0441444E+00 4.3244632E+00 -2.0835148E+00
  1.000E+01  1.340E-01  1.500E+00 7.1654112E+00 4.0638565E+00 -2.3459709E+00
  9.957E+00  1.218E-01  1.478E+00 7.1033313E+00 4.2136049E+00 -2.2946623E+00
  1.000E+01  1.600E-01  1.543E+00 7.3133293E+00 3.9426531E+00 -2.5464344E+00
  9.957E+00  1.467E-01  1.521E+00 7.2651406E+00 4.0939100E+00 -2.5015038E+00
  1.000E+01  1.881E-01  1.584E+00 7.3404820E+00 3.8108188E+00 -2.7398874E+00
  9.957E+00  1.738E-01  1.563E+00 7.3137685E+00 3.9647613E+00 -2.7032508E+00
  1.000E+01  2.182E-01  1.623E+00 7.4358705E+00 3.6693123E+00 -2.9261806E+00
  9.957E+00  2.029E-01  1.604E+00 7.4041858E+00 3.8247371E+00 -2.8971496E+00
  1.000E+01  2.502E-01  1.662E+00 7.4500735E+00 3.5190210E+00 -3.1055944E+00
  9.957E+00  2.340E-01  1.643E+00 7.4596931E+00 3.6756452E+00 -3.0842563E+00
  1.000E+01  2.841E-01  1.698E+00 7.4964499E+00 3.3597604E+00 -3.2770500E+00
  9.957E+00  2.669E-01  1.680E+00 7.4634807E+00 3.5173383E+00 -3.2636536E+00
  1.000E+01  3.198E-01  1.733E+00 7.4634637E+00 3.1922934E+00 -3.4404877E+00
  9.957E+00  3.018E-01  1.716E+00 7.4964653E+00 3.3502443E+00 -3.4348610E+00
  1.000E+01  3.572E-01  1.766E+00 7.4596746E+00 3.0168177E+00 -3.5953381E+00
  9.957E+00  3.383E-01  1.750E+00 7.4500875E+00 3.1749593E+00 -3.5976803E+00
  1.000E+01  3.962E-01  1.797E+00 7.4041657E+00 2.8337986E+00 -3.7411637E+00
  9.957E+00  3.765E-01  1.782E+00 7.4358828E+00 2.9915345E+00 -3.7513297E+00
  1.000E+01  4.367E-01  1.826E+00 7.3137472E+00 2.6441376E+00 -3.8781289E+00
  9.957E+00  4.163E-01  1.812E+00 7.3404927E+00 2.8010786E+00 -3.8959904E+00
  1.000E+01  4.786E-01  1.853E+00 7.2651194E+00 2.4468002E+00 -4.0044564E+00
  9.957E+00  4.575E-01  1.840E+00 7.3133388E+00 2.6033018E+00 -4.0307794E+00
  1.000E+01  5.217E-01  1.878E+00 7.1033091E+00 2.2444789E+00 -4.1215203E+00
  9.957E+00  5.000E-01  1.866E+00 7.1654201E+00 2.3983582E+00 -4.1546779E+00
  1.000E+01  5.661E-01  1.901E+00 7.0441209E+00 2.0379443E+00 -4.2299688E+00
  9.957E+00  5.438E-01  1.890E+00 7.0836825E+00 2.1899934E+00 -4.2705115E+00
  1.000E+01  6.116E-01  1.921E+00 6.9082227E+00 1.8220017E+00 -4.3244958E+00
  9.957E+00  5.887E-01  1.912E+00 6.9900377E+00 1.9743039E+00 -4.3746967E+00
  1.000E+01  6.580E-01  1.940E+00 6.7467789E+00 1.6015292E+00 -4.4076318E+00
  9.957E+00  6.347E-01  1.931E+00 6.8152597E+00 1.7498980E+00 -4.4645603E+00
  1.000E+01  7.052E-01  1.956E+00 6.6656625E+00 1.3834873E+00 -4.4845601E+00
  9.957E+00  6.815E-01  1.948E+00 6.7049168E+00 1.5256365E+00 -4.5463063E+00
  1.000E+01  7.532E-01  1.969E+00 6.5727768E+00 1.1624908E+00 -4.5510009E+00
  9.957E+00  7.292E-01  1.963E+00 6.6233286E+00 1.3023792E+00 -4.6205295E+00
  1.000E+01  8.019E-01  1.980E+00 6.4617761E+00 9.3319559E-01 -4.6023319E+00
  9.957E+00  7.775E-01  1.975E+00 6.5169089E+00 1.0722145E+00 -4.6808175E+00
  1.000E+01  8.510E-01  1.989E+00 6.3607764E+00 6.9917442E-01 -4.6407680E+00
  9.957E+00  8.264E-01  1.985E+00 6.4080078E+00 8.3467049E-01 -4.7262542E+00
  1.000E+01  9.004E-01  1.995E+00 6.2906836E+00 4.6508271E-01 -4.6687268E+00
  9.957E+00  8.757E-01  1.992E+00 6.3230519E+00 5.9494710E-01 -4.7600171E+00
  1.000E+01  9.502E-01  1.999E+00 6.2534596E+00 2.3224005E-01 -4.6862820E+00
  9.957E+00  9.253E-01  1.997E+00 6.2690089E+00 3.5632880E-01 -4.7834327E+00
  1.000E+01  1.000E+00  2.000E+00 6.2422685E+00 -1.8024897E-05 -4.6923366E+00
  9.957E+00  9.751E-01  2.000E+00 6.2435944E+00 1.1867505E-01 -4.7956183E+00
  1.000E+01  1.050E+00  1.999E+00 6.2534563E+00 -2.3227543E-01 -4.6862800E+00
  9.957E+00  1.025E+00  2.000E+00 6.2435928E+00 -1.1871186E-01 -4.7956173E+00
  1.000E+01  1.100E+00  1.995E+00 6.2906771E+00 -4.6511839E-01 -4.6687227E+00
  9.957E+00  1.075E+00  1.997E+00 6.2690041E+00 -3.5636515E-01 -4.7834296E+00
  1.000E+01  1.149E+00  1.989E+00 6.3607668E+00 -6.9920993E-01 -4.6407619E+00
  9.957E+00  1.124E+00  1.992E+00 6.3230439E+00 -5.9498395E-01 -4.7600119E+00
  1.000E+01  1.198E+00  1.980E+00 6.4617633E+00 -9.3323058E-01 -4.6023239E+00
  9.957E+00  1.174E+00  1.985E+00 6.4079966E+00 -8.3470657E-01 -4.7262470E+00