# TIME = 3.000000
VARIABLES = X, Y, Z, FX, FY, FZ
ZONE N=29232 E=58212 F=FEPOINT ET=TRIANGLE
  0.000E+00  9.502E-01  1.243E-03 6.2012745E+00 3.0878333E-01 6.2305989E+00
  0.000E+00  1.000E+00  0.000E+00 6.1899415E+00 2.6934478E-06 6.2386513E+00
  4.318E-02  9.751E-01  3.108E-04 6.1913245E+00 1.5150140E-01 6.1212105E+00
  0.000E+00  1.050E+00  1.243E-03 6.2012746E+00 -3.0877880E-01 6.2305997E+00
  4.318E-02  1.025E+00  3.108E-04 6.1913246E+00 -1.5149633E-01 6.1212109E+00
  0.000E+00  1.100E+00  4.969E-03 6.2388898E+00 -6.1833929E-01 6.2072565E+00
  4.318E-02  1.075E+00  2.796E-03 6.2169977E+00 -4.5483322E-01 6.1056540E+00
  0.000E+00  1.149E+00  1.117E-02 6.3095415E+00 -9.2956555E-01 6.1700816E+00
  4.318E-02  1.124E+00  7.761E-03 6.2715156E+00 -7.5939826E-01 6.0757620E+00
  0.000E+00  1.198E+00  1.983E-02 6.4112322E+00 -1.2407044E+00 6.1189774E+00
  4.318E-02  1.174E+00  1.519E-02 6.3571074E+00 -1.0653751E+00 6.0326627E+00
  0.000E+00  1.247E+00  3.092E-02 6.5231404E+00 -1.5455620E+00 6.0507272E+00
  4.318E-02  1.223E+00  2.507E-02 6.4667993E+00 -1.3685724E+00 5.9746630E+00
  0.000E+00  1.295E+00  4.443E-02 6.6172816E+00 -1.8393787E+00 5.9623818E+00
  4.318E-02  1.271E+00  3.738E-02 6.5742810E+00 -1.6623480E+00 5.8977041E+00
  0.000E+00  1.342E+00  6.031E-02 6.6999100E+00 -2.1292616E+00 5.8600915E+00
  4.318E-02  1.318E+00  5.207E-02 6.6572906E+00 -1.9473056E+00 5.8029558E+00
  0.000E+00  1.388E+00  7.852E-02 6.8623574E+00 -2.4223793E+00 5.7495543E+00
  4.318E-02  1.365E+00  6.913E-02 6.7689886E+00 -2.2335539E+00 5.6986103E+00
  0.000E+00  1.434E+00  9.903E-02 6.9993083E+00 -2.7094767E+00 5.6238727E+00
  4.318E-02  1.411E+00  8.849E-02 6.9446459E+00 -2.5199949E+00 5.5839081E+00
  0.000E+00  1.478E+00  1.218E-01 7.0600175E+00 -2.9840682E+00 5.4796789E+00
  4.318E-02  1.456E+00  1.101E-01 7.0395847E+00 -2.7953026E+00 5.4509173E+00
  0.000E+00  1.521E+00  1.467E-01 7.2225589E+00 -3.2530629E+00 5.3240358E+00
  4.318E-02  1.500E+00  1.340E-01 7.1226463E+00 -3.0612553E+00 5.3030593E+00
  0.000E+00  1.563E+00  1.738E-01 7.2722166E+00 -3.5154329E+00 5.1560764E+00
  4.318E-02  1.543E+00  1.600E-01 7.2712031E+00 -3.3228452E+00 5.1449111E+00
  0.000E+00  1.604E+00  2.029E-01 7.3633410E+00 -3.7675921E+00 4.9739722E+00
  4.318E-02  1.584E+00  1.881E-01 7.2994733E+00 -3.5752905E+00 4.9728599E+00
  0.000E+00  1.643E+00  2.340E-01 7.4192475E+00 -4.0109215E+00 4.7800891E+00
  4.318E-02  1.623E+00  2.182E-01 7.3952700E+00 -3.8183922E+00 4.7882097E+00
  0.000E+00  1.680E+00  2.669E-01 7.4235190E+00 -4.2442229E+00 4.5742075E+00
  4.318E-02  1.662E+00  2.502E-01 7.4100325E+00 -4.0525197E+00 4.5920867E+00
  0.000E+00  1.716E+00  3.018E-01 7.4563737E+00 -4.4668772E+00 4.3569092E+00
  4.318E-02  1.698E+00  2.841E-01 7.4564007E+00 -4.2762566E+00 4.3842596E+00
  0.000E+00  1.750E+00  3.383E-01 7.4100081E+00 -4.6786219E+00 4.1289517E+00
  4.318E-02  1.733E+00  3.198E-01 7.4235485E+00 -4.4895388E+00 4.1657267E+00
  0.000E+00  1.782E+00  3.765E-01 7.3952482E+00 -4.8784413E+00 3.8904125E+00
  4.318E-02  1.766E+00  3.572E-01 7.4192788E+00 -4.6916049E+00 3.9367400E+00
  0.000E+00  1.812E+00  4.163E-01 7.2994541E+00 -5.0665818E+00 3.6427289E+00
  4.318E-02  1.797E+00  3.962E-01 7.3633742E+00 -4.8819093E+00 3.6979138E+00
  0.000E+00  1.840E+00  4.575E-01 7.2711856E+00 -5.2418641E+00 3.3855246E+00
  4.318E-02  1.826E+00  4.367E-01 7.2722514E+00 -5.0606410E+00 3.4504198E+00
  0.000E+00  1.866E+00  5.000E-01 7.1226294E+00 -5.4030101E+00 3.1189997E+00
  4.318E-02  1.853E+00  4.786E-01 7.2225951E+00 -5.2254908E+00 3.1929050E+00
  0.000E+00  1.890E+00  5.438E-01 7.0395701E+00 -5.5536554E+00 2.8480314E+00
  4.318E-02  1.878E+00  5.217E-01 7.0600552E+00 -5.3782745E+00 2.9288889E+00
  0.000E+00  1.912E+00  5.887E-01 6.9446330E+00 -5.6891391E+00 2.5675328E+00
  4.318E-02  1.901E+00  5.661E-01 6.9993472E+00 -5.5197833E+00 2.6593789E+00
  0.000E+00  1.931E+00  6.347E-01 6.7689766E+00 -5.8060230E+00 2.2756920E+00
  4.318E-02  1.921E+00  6.116E-01 6.8623969E+00 -5.6431432E+00 2.3775883E+00
  0.000E+00  1.948E+00  6.815E-01 6.6572798E+00 -5.9123397E+00 1.9840480E+00
  4.318E-02  1.940E+00  6.580E-01 6.6999500E+00 -5.7516515E+00 2.0898863E+00
  0.000E+00  1.963E+00  7.292E-01 6.5742735E+00 -6.0088664E+00 1.6937179E+00
  4.318E-02  1.956E+00  7.052E-01 6.6173229E+00 -5.8520371E+00 1.8053603E+00
  0.000E+00  1.975E+00  7.775E-01 6.4667942E+00 -6.0872797E+00 1.3944004E+00
  4.318E-02  1.969E+00  7.532E-01 6.5231834E+00 -5.9387431E+00 1.5169793E+00
  0.000E+00  1.985E+00  8.264E-01 6.3571025E+00 -6.1463776E+00 1.0854810E+00
  4.318E-02  1.980E+00  8.019E-01 6.4112750E+00 -6.0057365E+00 1.2177649E+00
  0.000E+00  1.992E+00  8.757E-01 6.2715097E+00 -6.1902882E+00 7.7372989E-01
  4.318E-02  1.989E+00  8.510E-01 6.3095830E+00 -6.0558983E+00 9.1238383E-01
  0.000E+00  1.997E+00  9.253E-01 6.2169921E+00 -6.2207452E+00 4.6341839E-01
  4.318E-02  1.995E+00  9.004E-01 6.2389311E+00 -6.0923866E+00 6.0691421E-01
  0.000E+00  2.000E+00  9.751E-01 6.1913198E+00 -6.2365985E+00 1.5436135E-01
  4.318E-02  1.999E+00  9.502E-01 6.2013177E+00 -6.1153021E+00 3.0307746E-01
  0.000E+00  2.000E+00  1.025E+00 6.1913193E+00 -6.2365968E+00 -1.5434975E-01
  4.318E-02  2.000E+00  1.000E+00 6.1899847E+00 -6.1232060E+00 5.8392973E-06
  0.000E+00  1.997E+00  1.075E+00 6.2169907E+00 -6.2207395E+00 -4.6340680E-01
  4.318E-02  1.999E+00  1.050E+00 6.2013167E+00 -6.1152987E+00 -3.0306579E-01
  0.000E+00  1.992E+00  1.124E+00 6.2715072E+00 -6.1902797E+00 -7.7371833E-01
  4.318E-02  1.995E+00  1.100E+00 6.2389291E+00 -6.0923789E+00 -6.0690254E-01
  0.000E+00  1.985E+00  1.174E+00 6.3570990E+00 -6.1463740E+00 -1.0854695E+00
  4.318E-02  1.989E+00  1.149E+00 6.3095801E+00 -6.0558911E+00 -9.1237220E-01
  0.000E+00  1.975E+00  1.223E+00 6.4667897E+00 -6.0872914E+00 -1.3943889E+00
  4.318E-02  1.980E+00  1.198E+00 6.4112712E+00 -6.0057405E+00 -1.2177533E+00
  0.000E+00  1.963E+00  1.271E+00 6.5742681E+00 -6.0088783E+00 -1.6937063E+00
  4.318E-02  1.969E+00  1.247E+00 6.5231788E+00 -5.9387588E+00 -1.5169677E+00
  0.000E+00  1.948E+00  1.318E+00 6.6572736E+00 -5.9123214E+00 -1.9840365E+00
  4.318E-02  1.956E+00  1.295E+00 6.6173173E+00 -5.8520361E+00 -1.8053487E+00
  0.000E+00  1.931E+00  1.365E+00 6.7689697E+00 -5.8060089E+00 -2.2756806E+00
  4.318E-02  1.940E+00  1.342E+00 6.6999436E+00 -5.7516261E+00 -2.0898748E+00
  0.000E+00  1.912E+00  1.411E+00 6.9446248E+00 -5.6891648E+00 -2.5675214E+00
  4.318E-02  1.921E+00  1.388E+00 6.8623899E+00 -5.6431541E+00 -2.3775771E+00
  0.000E+00  1.890E+00  1.456E+00 7.0395618E+00 -5.5536494E+00 -2.8480202E+00
  4.318E-02  1.901E+00  1.434E+00 6.9993394E+00 -5.5198014E+00 -2.6593677E+00
  0.000E+00  1.866E+00  1.500E+00 7.1226207E+00 -5.4029969E+00 -3.1189884E+00
  4.318E-02  1.878E+00  1.478E+00 7.0600466E+00 -5.3782517E+00 -2.9288773E+00
  0.000E+00  1.840E+00  1.543E+00 7.2711762E+00 -5.2418846E+00 -3.3855141E+00
  4.318E-02  1.853E+00  1.521E+00 7.2225859E+00 -5.2255022E+00 -3.1928943E+00
  0.000E+00  1.812E+00  1.584E+00 7.2994441E+00 -5.0665750E+00 -3.6427178E+00
  4.318E-02  1.826E+00  1.563E+00 7.2722416E+00 -5.0606478E+00 -3.4504088E+00
  0.000E+00  1.782E+00  1.623E+00 7.3952377E+00 -4.8784497E+00 -3.8904022E+00
  4.318E-02  1.797E+00  1.604E+00 7.3633640E+00 -4.8819068E+00 -3.6979032E+00
  0.000E+00  1.750E+00  1.662E+00 7.4099972E+00 -4.6786263E+00 -4.1289413E+00
  4.318E-02  1.766E+00  1.643E+00 7.4192681E+00 -4.6916169E+00 -3.9367298E+00
  0.000E+00  1.716E+00  1.698E+00 7.4563629E+00 -4.4668816E+00 -4.3568994E+00
  4.318E-02  1.733E+00  1.680E+00 7.4235373E+00 -4.4895385E+00 -4.1657163E+00
  0.000E+00  1.680E+00  1.733E+00 7.4235080E+00 -4.2442299E+00 -4.5741980E+00
  4.318E-02  1.698E+00  1.716E+00 7.4563890E+00 -4.2762649E+00 -4.3842498E+00
  0.000E+00  1.643E+00  1.766E+00 7.4192357E+00 -4.0109250E+00 -4.7800798E+00
  4.318E-02  1.662E+00  1.750E+00 7.4100205E+00 -4.0525223E+00 -4.5920770E+00
  0.000E+00  1.604E+00  1.797E+00 7.3633284E+00 -3.7675957E+00 -4.9739627E+00
  4.318E-02  1.623E+00  1.782E+00 7.3952582E+00 -3.8183981E+00 -4.7882008E+00
  0.000E+00  1.563E+00  1.826E+00 7.2722037E+00 -3.5154339E+00 -5.1560670E+00
  4.318E-02  1.584E+00  1.812E+00 7.2994617E+00 -3.5752959E+00 -4.9728516E+00
  0.000E+00  1.521E+00  1.853E+00 7.2225472E+00 -3.2530682E+00 -5.3240276E+00
  4.318E-02  1.543E+00  1.840E+00 7.2711914E+00 -3.3228514E+00 -5.1449032E+00
  0.000E+00  1.478E+00  1.878E+00 7.0600066E+00 -2.9840779E+00 -5.4796729E+00
  4.318E-02  1.500E+00  1.866E+00 7.1226339E+00 -3.0612575E+00 -5.3030510E+00
  0.000E+00  1.434E+00  1.901E+00 6.9992967E+00 -2.7094909E+00 -5.6238685E+00
  4.318E-02  1.456E+00  1.890E+00 7.0395717E+00 -2.7953028E+00 -5.4509084E+00
  0.000E+00  1.388E+00  1.921E+00 6.8623448E+00 -2.4223854E+00 -5.7495498E+00
  4.318E-02  1.411E+00  1.912E+00 6.9446323E+00 -2.5199957E+00 -5.5838995E+00
  0.000E+00  1.342E+00  1.940E+00 6.6998978E+00 -2.1292573E+00 -5.8600843E+00
  4.318E-02  1.365E+00  1.931E+00 6.7689746E+00 -2.2335604E+00 -5.6986037E+00
  0.000E+00  1.295E+00  1.956E+00 6.6172703E+00 -1.8393663E+00 -5.9623712E+00
  4.318E-02  1.318E+00  1.948E+00 6.6572766E+00 -1.9473199E+00 -5.8029524E+00
  0.000E+00  1.247E+00  1.969E+00 6.5231291E+00 -1.5455515E+00 -6.0507150E+00
  4.318E-02  1.271E+00  1.963E+00 6.5742682E+00 -1.6623639E+00 -5.8977035E+00
  0.000E+00  1.198E+00  1.980E+00 6.4112198E+00 -1.2407020E+00 -6.1189654E+00
  4.318E-02  1.223E+00  1.975E+00 6.4667881E+00 -1.3685846E+00 -5.9746639E+00
  0.000E+00  1.149E+00  1.989E+00 6.3095282E+00 -9.2957138E-01 -6.1700709E+00
  4.318E-02  1.174E+00  1.985E+00 6.3570970E+00 -1.0653811E+00 -6.0326642E+00
  0.000E+00  1.100E+00  1.995E+00 6.2388765E+00 -6.1834861E-01 -6.2072475E+00
  4.318E-02  1.124E+00  1.992E+00 6.2715049E+00 -7.5940126E-01 -6.0757637E+00
  0.000E+00  1.050E+00  1.999E+00 6.2012618E+00 -3.0878654E-01 -6.2305922E+00
  4.318E-02  1.075E+00  1.997E+00 6.2169860E+00 -4.5483480E-01 -6.1056558E+00
  0.000E+00  1.000E+00  2.000E+00 6.1899290E+00 -2.4253884E-06 -6.2386448E+00
  4.318E-02  1.025E+00  2.000E+00 6.1913122E+00 -1.5150001E-01 -6.1212132E+00
  0.000E+00  9.502E-01  1.999E+00 6.2012618E+00 3.0878254E-01 -6.2305930E+00
  4.318E-02  9.751E-01  2.000E+00 6.1913122E+00 1.5149537E-01 -6.1212135E+00
  0.000E+00  9.004E-01  1.995E+00 6.2388766E+00 6.1834408E-01 -6.2072490E+00
  4.318E-02  9.253E-01  1.997E+00 6.2169860E+00 4.5483067E-01 -6.1056569E+00
  0.000E+00  8.510E-01  1.989E+00 6.3095283E+00 9.2956684E-01 -6.1700731E+00
  4.318E-02  8.757E-01  1.992E+00 6.2715050E+00 7.5939630E-01 -6.0757655E+00
  0.000E+00  8.019E-01  1.980E+00 6.4112198E+00 1.2406978E+00 -6.1189683E+00
  4.318E-02  8.264E-01  1.985E+00 6.3570971E+00 1.0653769E+00 -6.0326668E+00
  0.000E+00  7.532E-01  1.969E+00 6.5231292E+00 1.5455469E+00 -6.0507186E+00
  4.318E-02  7.775E-01  1.975E+00 6.4667881E+00 1.3685799E+00 -5.9746672E+00
  0.000E+00  7.052E-01  1.956E+00 6.6172704E+00 1.8393619E+00 -5.9623755E+00
  4.318E-02  7.292E-01  1.963E+00 6.5742682E+00 1.6623594E+00 -5.8977074E+00
  0.000E+00  6.580E-01  1.940E+00 6.6998979E+00 2.1292526E+00 -5.8600892E+00
  4.318E-02  6.815E-01  1.948E+00 6.6572767E+00 1.9473151E+00 -5.8029570E+00
  0.000E+00  6.116E-01  1.921E+00 6.8623451E+00 2.4223818E+00 -5.7495554E+00
  4.318E-02  6.347E-01  1.931E+00 6.7689747E+00 2.2335562E+00 -5.6986090E+00
  0.000E+00  5.661E-01  1.901E+00 6.9992968E+00 2.7094852E+00 -5.6238746E+00
  4.318E-02  5.887E-01  1.912E+00 6.9446322E+00 2.5199908E+00 -5.5839050E+00
  0.000E+00  5.217E-01  1.878E+00 7.0600067E+00 2.9840740E+00 -5.4796796E+00
  4.318E-02  5.438E-01  1.890E+00 7.0395718E+00 2.7952975E+00 -5.4509148E+00
  0.000E+00  4.786E-01  1.853E+00 7.2225473E+00 3.2530632E+00 -5.3240347E+00
  4.318E-02  5.000E-01  1.866E+00 7.1226341E+00 3.0612536E+00 -5.3030579E+00
  0.000E+00  4.367E-01  1.826E+00 7.2722039E+00 3.5154303E+00 -5.1560746E+00
  4.318E-02  4.575E-01  1.840E+00 7.2711915E+00 3.3228464E+00 -5.1449106E+00
  0.000E+00  3.962E-01  1.797E+00 7.3633285E+00 3.7675904E+00 -4.9739708E+00
  4.318E-02  4.163E-01  1.812E+00 7.2994618E+00 3.5752920E+00 -4.9728595E+00
  0.000E+00  3.572E-01  1.766E+00 7.4192359E+00 4.0109215E+00 -4.7800882E+00
  4.318E-02  3.765E-01  1.782E+00 7.3952583E+00 3.8183924E+00 -4.7882090E+00
  0.000E+00  3.198E-01  1.733E+00 7.4235081E+00 4.2442234E+00 -4.5742068E+00
  4.318E-02  3.383E-01  1.750E+00 7.4100206E+00 4.0525192E+00 -4.5920858E+00
  0.000E+00  2.841E-01  1.698E+00 7.4563630E+00 4.4668773E+00 -4.3569085E+00
  4.318E-02  3.018E-01  1.716E+00 7.4563891E+00 4.2762561E+00 -4.3842587E+00
  0.000E+00  2.502E-01  1.662E+00 7.4099973E+00 4.6786214E+00 -4.1289509E+00
  4.318E-02  2.669E-01  1.680E+00 7.4235374E+00 4.4895386E+00 -4.1657259E+00
  0.000E+00  2.182E-01  1.623E+00 7.3952377E+00 4.8784408E+00 -3.8904117E+00
  4.318E-02  2.340E-01  1.643E+00 7.4192682E+00 4.6916048E+00 -3.9367393E+00
  0.000E+00  1.881E-01  1.584E+00 7.2994441E+00 5.0665813E+00 -3.6427282E+00
  4.318E-02  2.029E-01  1.604E+00 7.3633640E+00 4.8819090E+00 -3.6979132E+00
  0.000E+00  1.600E-01  1.543E+00 7.2711762E+00 5.2418638E+00 -3.3855240E+00
  4.318E-02  1.738E-01  1.563E+00 7.2722416E+00 5.0606405E+00 -3.4504192E+00
  0.000E+00  1.340E-01  1.500E+00 7.1226206E+00 5.4030097E+00 -3.1189991E+00
  4.318E-02  1.467E-01  1.521E+00 7.2225858E+00 5.2254903E+00 -3.1929044E+00
  0.000E+00  1.101E-01  1.456E+00 7.0395618E+00 5.5536550E+00 -2.8480309E+00
  4.318E-02  1.218E-01  1.478E+00 7.0600465E+00 5.3782739E+00 -2.9288883E+00
  0.000E+00  8.849E-02  1.411E+00 6.9446252E+00 5.6891382E+00 -2.5675322E+00
  4.318E-02  9.903E-02  1.434E+00 6.9993392E+00 5.5197828E+00 -2.6593784E+00
  0.000E+00  6.913E-02  1.365E+00 6.7689696E+00 5.8060224E+00 -2.2756915E+00
  4.318E-02  7.852E-02  1.388E+00 6.8623896E+00 5.6431427E+00 -2.3775878E+00
  0.000E+00  5.207E-02  1.318E+00 6.6572735E+00 5.9123390E+00 -1.9840475E+00
  4.318E-02  6.031E-02  1.342E+00 6.6999435E+00 5.7516509E+00 -2.0898859E+00
  0.000E+00  3.738E-02  1.271E+00 6.5742679E+00 6.0088656E+00 -1.6937175E+00
  4.318E-02  4.443E-02  1.295E+00 6.6173171E+00 5.8520365E+00 -1.8053599E+00
  0.000E+00  2.507E-02  1.223E+00 6.4667895E+00 6.0872788E+00 -1.3944001E+00
  4.318E-02  3.092E-02  1.247E+00 6.5231785E+00 5.9387424E+00 -1.5169790E+00
  0.000E+00  1.519E-02  1.174E+00 6.3570988E+00 6.1463768E+00 -1.0854807E+00
  4.318E-02  1.983E-02  1.198E+00 6.4112709E+00 6.0057358E+00 -1.2177645E+00
  0.000E+00  7.761E-03  1.124E+00 6.2715069E+00 6.1902875E+00 -7.7372962E-01
  4.318E-02  1.117E-02  1.149E+00 6.3095798E+00 6.0558976E+00 -9.1238350E-01
  0.000E+00  2.796E-03  1.075E+00 6.2169904E+00 6.2207445E+00 -4.6341813E-01
  4.318E-02  4.969E-03  1.100E+00 6.2389287E+00 6.0923858E+00 -6.0691390E-01
  0.000E+00  3.108E-04  1.025E+00 6.1913189E+00 6.2365978E+00 -1.5436110E-01
  4.318E-02  1.243E-03  1.050E+00 6.2013163E+00 6.1153013E+00 -3.0307717E-01
  0.000E+00  3.108E-04  9.751E-01 6.1913193E+00 6.2365961E+00 1.5434998E-01
  4.318E-02  0.000E+00  1.000E+00 6.1899843E+00 6.1232051E+00 -5.5622028E-06
  0.000E+00  2.796E-03  9.253E-01 6.2169916E+00 6.2207388E+00 4.6340702E-01
  4.318E-02  1.243E-03  9.502E-01 6.2013172E+00 6.1152979E+00 3.0306605E-01
  0.000E+00  7.761E-03  8.757E-01 6.2715091E+00 6.1902789E+00 7.7371853E-01
  4.318E-02  4.969E-03  9.004E-01 6.2389305E+00 6.0923781E+00 6.0690280E-01
  0.000E+00  1.519E-02  8.264E-01 6.3571019E+00 6.1463734E+00 1.0854697E+00
  4.318E-02  1.117E-02  8.510E-01 6.3095824E+00 6.0558902E+00 9.1237246E-01
  0.000E+00  2.507E-02  7.775E-01 6.4667936E+00 6.0872908E+00 1.3943891E+00
  4.318E-02  1.983E-02  8.019E-01 6.4112743E+00 6.0057396E+00 1.2177536E+00
  0.000E+00  3.738E-02  7.292E-01 6.5742728E+00 6.0088777E+00 1.6937066E+00
  4.318E-02  3.092E-02  7.532E-01 6.5231827E+00 5.9387579E+00 1.5169680E+00
  0.000E+00  5.207E-02  6.815E-01 6.6572790E+00 5.9123208E+00 1.9840367E+00
  4.318E-02  4.443E-02  7.052E-01 6.6173221E+00 5.8520352E+00 1.8053490E+00
  0.000E+00  6.913E-02  6.347E-01 6.7689759E+00 5.8060082E+00 2.2756808E+00
  4.318E-02  6.031E-02  6.580E-01 6.6999493E+00 5.7516253E+00 2.0898750E+00
  0.000E+00  8.849E-02  5.887E-01 6.9446318E+00 5.6891645E+00 2.5675218E+00
  4.318E-02  7.852E-02  6.116E-01 6.8623963E+00 5.6431533E+00 2.3775774E+00
  0.000E+00  1.101E-01  5.438E-01 7.0395693E+00 5.5536487E+00 2.8480205E+00
  4.318E-02  9.903E-02  5.661E-01 6.9993464E+00 5.5198006E+00 2.6593680E+00
  0.000E+00  1.340E-01  5.000E-01 7.1226287E+00 5.4029962E+00 3.1189887E+00
  4.318E-02  1.218E-01  5.217E-01 7.0600543E+00 5.3782510E+00 2.9288777E+00
  0.000E+00  1.600E-01  4.575E-01 7.2711848E+00 5.2418840E+00 3.3855144E+00
  4.318E-02  1.467E-01  4.786E-01 7.2225942E+00 5.2255016E+00 3.1928946E+00
  0.000E+00  1.881E-01  4.163E-01 7.2994533E+00 5.0665746E+00 3.6427181E+00
  4.318E-02  1.738E-01  4.367E-01 7.2722505E+00 5.0606472E+00 3.4504092E+00
  0.000E+00  2.182E-01  3.765E-01 7.3952474E+00 4.8784494E+00 3.8904026E+00
  4.318E-02  2.029E-01  3.962E-01 7.3633733E+00 4.8819061E+00 3.6979035E+00
  0.000E+00  2.502E-01  3.383E-01 7.4100072E+00 4.6786261E+00 4.1289417E+00
  4.318E-02  2.340E-01  3.572E-01 7.4192778E+00 4.6916162E+00 3.9367302E+00
  0.000E+00  2.841E-01  3.018E-01 7.4563728E+00 4.4668809E+00 4.3568997E+00
  4.318E-02  2.669E-01  3.198E-01 7.4235476E+00 4.4895381E+00 4.1657167E+00
  0.000E+00  3.198E-01  2.669E-01 7.4235181E+00 4.2442289E+00 4.5741982E+00
  4.318E-02  3.018E-01  2.841E-01 7.4563998E+00 4.2762648E+00 4.3842504E+00
  0.000E+00  3.572E-01  2.340E-01 7.4192466E+00 4.0109247E+00 4.7800802E+00
  4.318E-02  3.383E-01  2.502E-01 7.4100316E+00 4.0525223E+00 4.5920775E+00
  0.000E+00  3.962E-01  2.029E-01 7.3633402E+00 3.7675971E+00 4.9739637E+00
  4.318E-02  3.765E-01  2.182E-01 7.3952691E+00 3.8183975E+00 4.7882012E+00
  0.000E+00  4.367E-01  1.738E-01 7.2722158E+00 3.5154363E+00 5.1560684E+00
  4.318E-02  4.163E-01  1.881E-01 7.2994724E+00 3.5752940E+00 4.9728516E+00
  0.000E+00  4.786E-01  1.467E-01 7.2225581E+00 3.2530678E+00 5.3240283E+00
  4.318E-02  4.575E-01  1.600E-01 7.2712023E+00 3.3228500E+00 5.1449034E+00
  0.000E+00  5.217E-01  1.218E-01 7.0600168E+00 2.9840721E+00 5.4796719E+00
  4.318E-02  5.000E-01  1.340E-01 7.1226455E+00 3.0612591E+00 5.3030520E+00
  0.000E+00  5.661E-01  9.903E-02 6.9993075E+00 2.7094825E+00 5.6238661E+00
  4.318E-02  5.438E-01  1.101E-01 7.0395840E+00 2.7953079E+00 5.4509107E+00
  0.000E+00  6.116E-01  7.852E-02 6.8623568E+00 2.4223832E+00 5.7495484E+00
  4.318E-02  5.887E-01  8.849E-02 6.9446450E+00 2.5199996E+00 5.5839017E+00
  0.000E+00  6.580E-01  6.031E-02 6.6999095E+00 2.1292666E+00 5.8600863E+00
  4.318E-02  6.347E-01  6.913E-02 6.7689880E+00 2.2335583E+00 5.6986048E+00
  0.000E+00  7.052E-01  4.443E-02 6.6172811E+00 1.8393835E+00 5.9623772E+00
  4.318E-02  6.815E-01  5.207E-02 6.6572900E+00 1.9473106E+00 5.8029510E+00
  0.000E+00  7.532E-01  3.092E-02 6.5231400E+00 1.5455670E+00 6.0507234E+00
  4.318E-02  7.292E-01  3.738E-02 6.5742805E+00 1.6623529E+00 5.8976999E+00
  0.000E+00  8.019E-01  1.983E-02 6.4112318E+00 1.2407091E+00 6.1189743E+00
  4.318E-02  7.775E-01  2.507E-02 6.4667989E+00 1.3685774E+00 5.9746595E+00
  0.000E+00  8.510E-01  1.117E-02 6.3095413E+00 9.2957057E-01 6.1700792E+00
  4.318E-02  8.264E-01  1.519E-02 6.3571070E+00 1.0653797E+00 6.0326600E+00
  0.000E+00  9.004E-01  4.969E-03 6.2388896E+00 6.1834433E-01 6.2072549E+00
  4.318E-02  8.757E-01  7.761E-03 6.2715154E+00 7.5940361E-01 6.0757601E+00
  4.318E-02  9.253E-01  2.796E-03 6.2169975E+00 4.5483777E-01 6.1056528E+00
  1.000E+01  1.050E+00  1.243E-03 6.2012746E+00 -3.0877880E-01 6.2305997E+00
  1.000E+01  1.000E+00  5.551E-16 6.1899415E+00 2.6934478E-06 6.2386513E+00
  9.957E+00  1.025E+00  3.108E-04 6.1913078E+00 -1.5721945E-01 6.3524833E+00
  1.000E+01  9.502E-01  1.243E-03 6.2012745E+00 3.0878333E-01 6.2305989E+00
  9.957E+00  9.751E-01  3.108E-04 6.1913077E+00 1.5722446E-01 6.3524829E+00
  1.000E+01  9.004E-01  4.969E-03 6.2388896E+00 6.1834433E-01 6.2072549E+00
  9.957E+00  9.253E-01  2.796E-03 6.2169812E+00 4.7202111E-01 6.3363374E+00
  1.000E+01  8.510E-01  1.117E-02 6.3095413E+00 9.2957057E-01 6.1700792E+00
  9.957E+00  8.757E-01  7.761E-03 6.2714997E+00 7.8809625E-01 6.3053150E+00
  1.000E+01  8.019E-01  1.983E-02 6.4112318E+00 1.2407091E+00 6.1189743E+00
  9.957E+00  8.264E-01  1.519E-02 6.3570921E+00 1.1056344E+00 6.2605866E+00
  1.000E+01  7.532E-01  3.092E-02 6.5231400E+00 1.5455670E+00 6.0507234E+00
  9.957E+00  7.775E-01  2.507E-02 6.4667834E+00 1.4202865E+00 6.2003948E+00
  1.000E+01  7.052E-01  4.443E-02 6.6172811E+00 1.8393835E+00 5.9623772E+00
  9.957E+00  7.292E-01  3.738E-02 6.5742635E+00 1.7251604E+00 6.1205277E+00
  1.000E+01  6.580E-01  6.031E-02 6.6999095E+00 2.1292666E+00 5.8600863E+00
  9.957E+00  6.815E-01  5.207E-02 6.6572714E+00 2.0208850E+00 6.0221990E+00
  1.000E+01  6.116E-01  7.852E-02 6.8623568E+00 2.4223832E+00 5.7495484E+00
  9.957E+00  6.347E-01  6.913E-02 6.7689688E+00 2.3179493E+00 5.9139104E+00
  1.000E+01  5.661E-01  9.903E-02 6.9993075E+00 2.7094825E+00 5.6238661E+00
  9.957E+00  5.887E-01  8.849E-02 6.9446258E+00 2.6152123E+00 5.7948734E+00
  1.000E+01  5.217E-01  1.218E-01 7.0600168E+00 2.9840721E+00 5.4796719E+00
  9.957E+00  5.438E-01  1.101E-01 7.0395660E+00 2.9009222E+00 5.6568584E+00
  1.000E+01  4.786E-01  1.467E-01 7.2225581E+00 3.2530678E+00 5.3240283E+00
  9.957E+00  5.000E-01  1.340E-01 7.1226277E+00 3.1769225E+00 5.5034127E+00
  1.000E+01  4.367E-01  1.738E-01 7.2722158E+00 3.5154363E+00 5.1560684E+00
  9.957E+00  4.575E-01  1.600E-01 7.2711839E+00 3.4483975E+00 5.3392891E+00
  1.000E+01  3.962E-01  2.029E-01 7.3633402E+00 3.7675971E+00 4.9739637E+00
  9.957E+00  4.163E-01  1.881E-01 7.2994532E+00 3.7103784E+00 5.1607375E+00
  1.000E+01  3.572E-01  2.340E-01 7.4192466E+00 4.0109247E+00 4.7800802E+00
  9.957E+00  3.765E-01  2.182E-01 7.3952492E+00 3.9626655E+00 4.9691113E+00
  1.000E+01  3.198E-01  2.669E-01 7.4235181E+00 4.2442289E+00 4.5741982E+00
  9.957E+00  3.383E-01  2.502E-01 7.4100116E+00 4.2056356E+00 4.7655786E+00
  1.000E+01  2.841E-01  3.018E-01 7.4563728E+00 4.4668809E+00 4.3568997E+00
  9.957E+00  3.018E-01  2.841E-01 7.4563795E+00 4.4378313E+00 4.5498997E+00
  1.000E+01  2.502E-01  3.383E-01 7.4100072E+00 4.6786261E+00 4.1289417E+00
  9.957E+00  2.669E-01  3.198E-01 7.4235268E+00 4.6591623E+00 4.3231093E+00
  1.000E+01  2.182E-01  3.765E-01 7.3952474E+00 4.8784494E+00 3.8904026E+00
  9.957E+00  2.340E-01  3.572E-01 7.4192567E+00 4.8688757E+00 4.0854712E+00
  1.000E+01  1.881E-01  4.163E-01 7.2994533E+00 5.0665746E+00 3.6427181E+00
  9.957E+00  2.029E-01  3.962E-01 7.3633518E+00 5.0663555E+00 3.8376206E+00
  1.000E+01  1.600E-01  4.575E-01 7.2711848E+00 5.2418840E+00 3.3855144E+00
  9.957E+00  1.738E-01  4.367E-01 7.2722287E+00 5.2518502E+00 3.5807743E+00
  1.000E+01  1.340E-01  5.000E-01 7.1226287E+00 5.4029962E+00 3.1189887E+00
  9.957E+00  1.467E-01  4.786E-01 7.2225719E+00 5.4229331E+00 3.3135303E+00
  1.000E+01  1.101E-01  5.438E-01 7.0395693E+00 5.5536487E+00 2.8480205E+00
  9.957E+00  1.218E-01  5.217E-01 7.0600322E+00 5.5814534E+00 3.0395391E+00
  1.000E+01  8.849E-02  5.887E-01 6.9446318E+00 5.6891645E+00 2.5675218E+00
  9.957E+00  9.903E-02  5.661E-01 6.9993239E+00 5.7283504E+00 2.7598473E+00
  1.000E+01  6.913E-02  6.347E-01 6.7689759E+00 5.8060082E+00 2.2756808E+00
  9.957E+00  7.852E-02  6.116E-01 6.8623732E+00 5.8563634E+00 2.4674087E+00
  1.000E+01  5.207E-02  6.815E-01 6.6572790E+00 5.9123208E+00 1.9840367E+00
  9.957E+00  6.031E-02  6.580E-01 6.6999264E+00 5.9689339E+00 2.1688374E+00
  1.000E+01  3.738E-02  7.292E-01 6.5742728E+00 6.0088777E+00 1.6937066E+00
  9.957E+00  4.443E-02  7.052E-01 6.6172993E+00 6.0731373E+00 1.8735624E+00
  1.000E+01  2.507E-02  7.775E-01 6.4667936E+00 6.0872908E+00 1.3943891E+00
  9.957E+00  3.092E-02  7.532E-01 6.5231595E+00 6.1631362E+00 1.5742850E+00
  1.000E+01  1.519E-02  8.264E-01 6.3571019E+00 6.1463734E+00 1.0854697E+00
  9.957E+00  1.983E-02  8.019E-01 6.4112506E+00 6.2326486E+00 1.2637631E+00
  1.000E+01  7.761E-03  8.757E-01 6.2715091E+00 6.1902789E+00 7.7371853E-01
  9.957E+00  1.117E-02  8.510E-01 6.3095586E+00 6.2846942E+00 9.4684410E-01
  1.000E+01  2.796E-03  9.253E-01 6.2169916E+00 6.2207388E+00 4.6340702E-01
  9.957E+00  4.969E-03  9.004E-01 6.2389070E+00 6.3225610E+00 6.2983460E-01
  1.000E+01  3.108E-04  9.751E-01 6.1913193E+00 6.2365961E+00 1.5434998E-01
  9.957E+00  1.243E-03  9.502E-01 6.2012926E+00 6.3463451E+00 3.1451904E-01
  1.000E+01  3.108E-04  1.025E+00 6.1913189E+00 6.2365978E+00 -1.5436110E-01
  9.957E+00  0.000E+00  1.000E+00 6.1899608E+00 6.3545529E+00 -5.5816798E-06
  1.000E+01  2.796E-03  1.075E+00 6.2169904E+00 6.2207445E+00 -4.6341813E-01
  9.957E+00  1.243E-03  1.050E+00 6.2012917E+00 6.3463487E+00 -3.1453019E-01
  1.000E+01  7.761E-03  1.124E+00 6.2715069E+00 6.1902875E+00 -7.7372962E-01
  9.957E+00  4.969E-03  1.100E+00 6.2389053E+00 6.3225690E+00 -6.2984573E-01
  1.000E+01  1.519E-02  1.174E+00 6.3570988E+00 6.1463768E+00 -1.0854807E+00
  9.957E+00  1.117E-02  1.149E+00 6.3095560E+00 6.2847019E+00 -9.4685515E-01
  1.000E+01  2.507E-02  1.223E+00 6.4667895E+00 6.0872788E+00 -1.3944001E+00
  9.957E+00  1.983E-02  1.198E+00 6.4112472E+00 6.2326447E+00 -1.2637740E+00
  1.000E+01  3.738E-02  1.271E+00 6.5742679E+00 6.0088656E+00 -1.6937175E+00
  9.957E+00  3.092E-02  1.247E+00 6.5231554E+00 6.1631203E+00 -1.5742959E+00
  1.000E+01  5.207E-02  1.318E+00 6.6572735E+00 5.9123390E+00 -1.9840475E+00
  9.957E+00  4.443E-02  1.295E+00 6.6172944E+00 6.0731387E+00 -1.8735733E+00
  1.000E+01  6.913E-02  1.365E+00 6.7689696E+00 5.8060224E+00 -2.2756915E+00
  9.957E+00  6.031E-02  1.342E+00 6.6999207E+00 5.9689605E+00 -2.1688483E+00
  1.000E+01  8.849E-02  1.411E+00 6.9446252E+00 5.6891382E+00 -2.5675322E+00
  9.957E+00  7.852E-02  1.388E+00 6.8623668E+00 5.8563528E+00 -2.4674194E+00
  1.000E+01  1.101E-01  1.456E+00 7.0395618E+00 5.5536550E+00 -2.8480309E+00
  9.957E+00  9.903E-02  1.434E+00 6.9993169E+00 5.7283322E+00 -2.7598575E+00
  1.000E+01  1.340E-01  1.500E+00 7.1226206E+00 5.4030097E+00 -3.1189991E+00
  9.957E+00  1.218E-01  1.478E+00 7.0600244E+00 5.5814773E+00 -3.0395497E+00
  1.000E+01  1.600E-01  1.543E+00 7.2711762E+00 5.2418638E+00 -3.3855240E+00
  9.957E+00  1.467E-01  1.521E+00 7.2225635E+00 5.4229215E+00 -3.3135400E+00
  1.000E+01  1.881E-01  1.584E+00 7.2994441E+00 5.0665813E+00 -3.6427282E+00
  9.957E+00  1.738E-01  1.563E+00 7.2722199E+00 5.2518435E+00 -3.5807843E+00
  1.000E+01  2.182E-01  1.623E+00 7.3952377E+00 4.8784408E+00 -3.8904117E+00
  9.957E+00  2.029E-01  1.604E+00 7.3633426E+00 5.0663587E+00 -3.8376302E+00
  1.000E+01  2.502E-01  1.662E+00 7.4099973E+00 4.6786214E+00 -4.1289509E+00
  9.957E+00  2.340E-01  1.643E+00 7.4192471E+00 4.8688640E+00 -4.0854803E+00
  1.000E+01  2.841E-01  1.698E+00 7.4563630E+00 4.4668773E+00 -4.3569085E+00
  9.957E+00  2.669E-01  1.680E+00 7.4235166E+00 4.6591629E+00 -4.3231185E+00
  1.000E+01  3.198E-01  1.733E+00 7.4235081E+00 4.2442234E+00 -4.5742068E+00
  9.957E+00  3.018E-01  1.716E+00 7.4563687E+00 4.4378224E+00 -4.5499079E+00
  1.000E+01  3.572E-01  1.766E+00 7.4192359E+00 4.0109215E+00 -4.7800882E+00
  9.957E+00  3.383E-01  1.750E+00 7.4100009E+00 4.2056328E+00 -4.7655868E+00
  1.000E+01  3.962E-01  1.797E+00 7.3633285E+00 3.7675904E+00 -4.9739708E+00
  9.957E+00  3.765E-01  1.782E+00 7.3952387E+00 3.9626606E+00 -4.9691191E+00
  1.000E+01  4.367E-01  1.826E+00 7.2722039E+00 3.5154303E+00 -5.1560746E+00
  9.957E+00  4.163E-01  1.812E+00 7.2994428E+00 3.7103766E+00 -5.1607453E+00
  1.000E+01  4.786E-01  1.853E+00 7.2225473E+00 3.2530632E+00 -5.3240347E+00
  9.957E+00  4.575E-01  1.840E+00 7.2711724E+00 3.4483937E+00 -5.3392963E+00
  1.000E+01  5.217E-01  1.878E+00 7.0600067E+00 2.9840740E+00 -5.4796796E+00
  9.957E+00  5.000E-01  1.866E+00 7.1226150E+00 3.1769170E+00 -5.5034187E+00
  1.000E+01  5.661E-01  1.901E+00 6.9992968E+00 2.7094852E+00 -5.6238746E+00
  9.957E+00  5.438E-01  1.890E+00 7.0395535E+00 2.9009120E+00 -5.6568624E+00
  1.000E+01  6.116E-01  1.921E+00 6.8623451E+00 2.4223818E+00 -5.7495554E+00
  9.957E+00  5.887E-01  1.912E+00 6.9446149E+00 2.6152036E+00 -5.7948763E+00
  1.000E+01  6.580E-01  1.940E+00 6.6998979E+00 2.1292526E+00 -5.8600892E+00
  9.957E+00  6.347E-01  1.931E+00 6.7689591E+00 2.3179473E+00 -5.9139146E+00
  1.000E+01  7.052E-01  1.956E+00 6.6172704E+00 1.8393619E+00 -5.9623755E+00
  9.957E+00  6.815E-01  1.948E+00 6.6572605E+00 2.0208894E+00 -6.0222050E+00
  1.000E+01  7.532E-01  1.969E+00 6.5231292E+00 1.5455469E+00 -6.0507186E+00
  9.957E+00  7.292E-01  1.963E+00 6.5742507E+00 1.7251670E+00 -6.1205351E+00
  1.000E+01  8.019E-01  1.980E+00 6.4112198E+00 1.2406978E+00 -6.1189683E+00
  9.957E+00  7.775E-01  1.975E+00 6.4667699E+00 1.4202894E+00 -6.2004024E+00
  1.000E+01  8.510E-01  1.989E+00 6.3095283E+00 9.2956684E-01 -6.1700731E+00
  9.957E+00  8.264E-01  1.985E+00 6.3570793E+00 1.1056319E+00 -6.2605933E+00
  1.000E+01  9.004E-01  1.995E+00 6.2388766E+00 6.1834408E-01 -6.2072490E+00
  9.957E+00  8.757E-01  1.992E+00 6.2714879E+00 7.8808910E-01 -6.3053204E+00
  1.000E+01  9.502E-01  1.999E+00 6.2012618E+00 3.0878254E-01 -6.2305930E+00
  9.957E+00  9.253E-01  1.997E+00 6.2169701E+00 4.7201408E-01 -6.3363415E+00
  1.000E+01  1.000E+00  2.000E+00 6.1899290E+00 -2.4253884E-06 -6.2386448E+00
  9.957E+00  9.751E-01  2.000E+00 6.1912968E+00 1.5721854E-01 -6.3524859E+00
  1.000E+01  1.050E+00  1.999E+00 6.2012618E+00 -3.0878654E-01 -6.2305922E+00
  9.957E+00  1.025E+00  2.000E+00 6.1912968E+00 -1.5722292E-01 -6.3524856E+00
  1.000E+01  1.100E+00  1.995E+00 6.2388765E+00 -6.1834861E-01 -6.2072475E+00
  9.957E+00  1.075E+00  1.997E+00 6.2169700E+00 -4.7201795E-01 -6.3363404E+00
  1.000E+01  1.149E+00  1.989E+00 6.3095282E+00 -9.2957138E-01 -6.1700709E+00
  9.957E+00  1.124E+00  1.992E+00 6.2714879E+00 -7.8809382E-01 -6.3053186E+00
  1.000E+01  1.198E+00  1.980E+00 6.4112198E+00 -1.2407020E+00 -6.1189654E+00
  9.957E+00  1.174E+00  1.985E+00 6.3570792E+00 -1.1056359E+00 -6.2605908E+00