# TIME = 7.000000
VARIABLES = X, Y, Z, FX, FY, FZ
ZONE N=29232 E=58212 F=FEPOINT ET=TRIANGLE
  0.000E+00  9.502E-01  1.243E-03 6.3433581E+00 3.3025060E-01 6.6644427E+00
  0.000E+00  1.000E+00  0.000E+00 6.3321356E+00 -6.9793986E-06 6.6730605E+00
  4.318E-02  9.751E-01  3.108E-04 6.3117891E+00 1.6250764E-01 6.5667652E+00
  0.000E+00  1.050E+00  1.243E-03 6.3433579E+00 -3.3026508E-01 6.6644438E+00
  4.318E-02  1.025E+00  3.108E-04 6.3117890E+00 -1.6252153E-01 6.5667658E+00
  0.000E+00  1.100E+00  4.969E-03 6.3807397E+00 -6.6135221E-01 6.6394881E+00
  4.318E-02  1.075E+00  2.796E-03 6.3373152E+00 -4.8791556E-01 6.5500917E+00
  0.000E+00  1.149E+00  1.117E-02 6.4512448E+00 -9.9423966E-01 6.5997743E+00
  4.318E-02  1.124E+00  7.761E-03 6.3916372E+00 -8.1463364E-01 6.5180504E+00
  0.000E+00  1.198E+00  1.983E-02 6.5529253E+00 -1.3270770E+00 6.5451415E+00
  4.318E-02  1.174E+00  1.519E-02 6.4770881E+00 -1.1428895E+00 6.4718457E+00
  0.000E+00  1.247E+00  3.092E-02 6.6646070E+00 -1.6532342E+00 6.4720696E+00
  4.318E-02  1.223E+00  2.507E-02 6.5866481E+00 -1.4682087E+00 6.4096240E+00
  0.000E+00  1.295E+00  4.443E-02 6.7577785E+00 -1.9675724E+00 6.3774452E+00
  4.318E-02  1.271E+00  3.738E-02 6.6936105E+00 -1.7834432E+00 6.3269737E+00
  0.000E+00  1.342E+00  6.031E-02 6.8388920E+00 -2.2776630E+00 6.2680852E+00
  4.318E-02  1.318E+00  5.207E-02 6.7753821E+00 -2.0891756E+00 6.2252357E+00
  0.000E+00  1.388E+00  7.852E-02 7.0015628E+00 -2.5911809E+00 6.1500476E+00
  4.318E-02  1.365E+00  6.913E-02 6.8861989E+00 -2.3962401E+00 6.1134581E+00
  0.000E+00  1.434E+00  9.903E-02 7.1383554E+00 -2.8982485E+00 6.0153856E+00
  4.318E-02  1.411E+00  8.849E-02 7.0622309E+00 -2.7035400E+00 5.9904504E+00
  0.000E+00  1.478E+00  1.218E-01 7.1972741E+00 -3.1920120E+00 5.8611199E+00
  4.318E-02  1.456E+00  1.101E-01 7.1562127E+00 -2.9988861E+00 5.8475399E+00
  0.000E+00  1.521E+00  1.467E-01 7.3604888E+00 -3.4797531E+00 5.6948909E+00
  4.318E-02  1.500E+00  1.340E-01 7.2381871E+00 -3.2842002E+00 5.6890880E+00
  0.000E+00  1.563E+00  1.738E-01 7.4090503E+00 -3.7602674E+00 5.5148735E+00
  4.318E-02  1.543E+00  1.600E-01 7.3872136E+00 -3.5648473E+00 5.5194132E+00
  0.000E+00  1.604E+00  2.029E-01 7.5000652E+00 -4.0301522E+00 5.3204353E+00
  4.318E-02  1.584E+00  1.881E-01 7.4141657E+00 -3.8356630E+00 5.3347479E+00
  0.000E+00  1.643E+00  2.340E-01 7.5559732E+00 -4.2902694E+00 5.1127802E+00
  4.318E-02  1.623E+00  2.182E-01 7.5102924E+00 -4.0964062E+00 5.1367475E+00
  0.000E+00  1.680E+00  2.669E-01 7.5595207E+00 -4.5398882E+00 4.8927668E+00
  4.318E-02  1.662E+00  2.502E-01 7.5244030E+00 -4.3476561E+00 4.9262794E+00
  0.000E+00  1.716E+00  3.018E-01 7.5929731E+00 -4.7780140E+00 4.6601716E+00
  4.318E-02  1.698E+00  2.841E-01 7.5712270E+00 -4.5875566E+00 4.7033612E+00
  0.000E+00  1.750E+00  3.383E-01 7.5460716E+00 -5.0044451E+00 4.4164774E+00
  4.318E-02  1.733E+00  3.198E-01 7.5378964E+00 -4.8164956E+00 4.4689422E+00
  0.000E+00  1.782E+00  3.765E-01 7.5320699E+00 -5.2182505E+00 4.1612273E+00
  4.318E-02  1.766E+00  3.572E-01 7.5342754E+00 -5.0330880E+00 4.2232193E+00
  0.000E+00  1.812E+00  4.163E-01 7.4358496E+00 -5.4193657E+00 3.8963563E+00
  4.318E-02  1.797E+00  3.962E-01 7.4784318E+00 -5.2374618E+00 3.9671372E+00
  0.000E+00  1.840E+00  4.575E-01 7.4090890E+00 -5.6069510E+00 3.6212484E+00
  4.318E-02  1.826E+00  4.367E-01 7.3874707E+00 -5.4289005E+00 3.7014869E+00
  0.000E+00  1.866E+00  5.000E-01 7.2599069E+00 -5.7793173E+00 3.3361505E+00
  4.318E-02  1.853E+00  4.786E-01 7.3388293E+00 -5.6060399E+00 3.4253284E+00
  0.000E+00  1.890E+00  5.438E-01 7.1780587E+00 -5.9402378E+00 3.0463184E+00
  4.318E-02  1.878E+00  5.217E-01 7.1758140E+00 -5.7697208E+00 3.1420835E+00
  0.000E+00  1.912E+00  5.887E-01 7.0841628E+00 -6.0854280E+00 2.7462965E+00
  4.318E-02  1.901E+00  5.661E-01 7.1167213E+00 -5.9215395E+00 2.8529126E+00
  0.000E+00  1.931E+00  6.347E-01 6.9079667E+00 -6.2103786E+00 2.4341306E+00
  4.318E-02  1.921E+00  6.116E-01 6.9800142E+00 -6.0540592E+00 2.5506383E+00
  0.000E+00  1.948E+00  6.815E-01 6.7972158E+00 -6.3238886E+00 2.1222114E+00
  4.318E-02  1.940E+00  6.580E-01 6.8174855E+00 -6.1702915E+00 2.2420186E+00
  0.000E+00  1.963E+00  7.292E-01 6.7155759E+00 -6.4272362E+00 1.8116392E+00
  4.318E-02  1.956E+00  7.052E-01 6.7362471E+00 -6.2779272E+00 1.9367755E+00
  0.000E+00  1.975E+00  7.775E-01 6.6086223E+00 -6.5112052E+00 1.4914099E+00
  4.318E-02  1.969E+00  7.532E-01 6.6430287E+00 -6.3710409E+00 1.6273615E+00
  0.000E+00  1.985E+00  8.264E-01 6.4990131E+00 -6.5744081E+00 1.1609402E+00
  4.318E-02  1.980E+00  8.019E-01 6.5313981E+00 -6.4429607E+00 1.3063177E+00
  0.000E+00  1.992E+00  8.757E-01 6.4135296E+00 -6.6213305E+00 8.2749534E-01
  4.318E-02  1.989E+00  8.510E-01 6.4297832E+00 -6.4967420E+00 9.7869259E-01
  0.000E+00  1.997E+00  9.253E-01 6.3592047E+00 -6.6538713E+00 4.9561728E-01
  4.318E-02  1.995E+00  9.004E-01 6.3593062E+00 -6.5358390E+00 6.5101192E-01
  0.000E+00  2.000E+00  9.751E-01 6.3336865E+00 -6.6708078E+00 1.6508764E-01
  4.318E-02  1.999E+00  9.502E-01 6.3219229E+00 -6.5604078E+00 3.2510110E-01
  0.000E+00  2.000E+00  1.025E+00 6.3336871E+00 -6.6708053E+00 -1.6507094E-01
  4.318E-02  2.000E+00  1.000E+00 6.3106957E+00 -6.5688889E+00 8.4952587E-06
  0.000E+00  1.997E+00  1.075E+00 6.3592066E+00 -6.6538633E+00 -4.9560063E-01
  4.318E-02  1.999E+00  1.050E+00 6.3219240E+00 -6.5604028E+00 -3.2508411E-01
  0.000E+00  1.992E+00  1.124E+00 6.4135328E+00 -6.6213179E+00 -8.2747879E-01
  4.318E-02  1.995E+00  1.100E+00 6.3593084E+00 -6.5358281E+00 -6.5099498E-01
  0.000E+00  1.985E+00  1.174E+00 6.4990174E+00 -6.5743997E+00 -1.1609238E+00
  4.318E-02  1.989E+00  1.149E+00 6.4297866E+00 -6.4967301E+00 -9.7867575E-01
  0.000E+00  1.975E+00  1.223E+00 6.6086276E+00 -6.5112124E+00 -1.4913936E+00
  4.318E-02  1.980E+00  1.198E+00 6.5314026E+00 -6.4429598E+00 -1.3063010E+00
  0.000E+00  1.963E+00  1.271E+00 6.7155822E+00 -6.4272431E+00 -1.8116231E+00
  4.318E-02  1.969E+00  1.247E+00 6.6430343E+00 -6.3710518E+00 -1.6273449E+00
  0.000E+00  1.948E+00  1.318E+00 6.7972229E+00 -6.3238623E+00 -2.1221954E+00
  4.318E-02  1.956E+00  1.295E+00 6.7362538E+00 -6.2779197E+00 -1.9367590E+00
  0.000E+00  1.931E+00  1.365E+00 6.9079747E+00 -6.2103550E+00 -2.4341148E+00
  4.318E-02  1.940E+00  1.342E+00 6.8174932E+00 -6.1702567E+00 -2.2420023E+00
  0.000E+00  1.912E+00  1.411E+00 7.0841710E+00 -6.0854460E+00 -2.7462808E+00
  4.318E-02  1.921E+00  1.388E+00 6.9800232E+00 -6.0540619E+00 -2.5506226E+00
  0.000E+00  1.890E+00  1.456E+00 7.1780683E+00 -5.9402212E+00 -3.0463031E+00
  4.318E-02  1.901E+00  1.434E+00 7.1167310E+00 -5.9215493E+00 -2.8528969E+00
  0.000E+00  1.866E+00  1.500E+00 7.2599174E+00 -5.7792917E+00 -3.3361352E+00
  4.318E-02  1.878E+00  1.478E+00 7.1758244E+00 -5.7696860E+00 -3.1420676E+00
  0.000E+00  1.840E+00  1.543E+00 7.4091002E+00 -5.6069611E+00 -3.6212340E+00
  4.318E-02  1.853E+00  1.521E+00 7.3388404E+00 -5.6060408E+00 -3.4253136E+00
  0.000E+00  1.812E+00  1.584E+00 7.4358615E+00 -5.4193464E+00 -3.8963414E+00
  4.318E-02  1.826E+00  1.563E+00 7.3874824E+00 -5.4288961E+00 -3.7014720E+00
  0.000E+00  1.782E+00  1.623E+00 7.5320825E+00 -5.2182466E+00 -4.1612134E+00
  4.318E-02  1.797E+00  1.604E+00 7.4784439E+00 -5.2374465E+00 -3.9671226E+00
  0.000E+00  1.750E+00  1.662E+00 7.5460846E+00 -5.0044362E+00 -4.4164636E+00
  4.318E-02  1.766E+00  1.643E+00 7.5342879E+00 -5.0330872E+00 -4.2232054E+00
  0.000E+00  1.716E+00  1.698E+00 7.5929863E+00 -4.7780039E+00 -4.6601583E+00
  4.318E-02  1.733E+00  1.680E+00 7.5379095E+00 -4.8164813E+00 -4.4689282E+00
  0.000E+00  1.680E+00  1.733E+00 7.5595338E+00 -4.5398800E+00 -4.8927537E+00
  4.318E-02  1.698E+00  1.716E+00 7.5712408E+00 -4.5875518E+00 -4.7033482E+00
  0.000E+00  1.643E+00  1.766E+00 7.5559863E+00 -4.2902572E+00 -5.1127676E+00
  4.318E-02  1.662E+00  1.750E+00 7.5244174E+00 -4.3476447E+00 -4.9262665E+00
  0.000E+00  1.604E+00  1.797E+00 7.5000791E+00 -4.0301427E+00 -5.3204236E+00
  4.318E-02  1.623E+00  1.782E+00 7.5103071E+00 -4.0963968E+00 -5.1367352E+00
  0.000E+00  1.563E+00  1.826E+00 7.4090659E+00 -3.7602570E+00 -5.5148626E+00
  4.318E-02  1.584E+00  1.812E+00 7.4141798E+00 -3.8356507E+00 -5.3347357E+00
  0.000E+00  1.521E+00  1.853E+00 7.3605058E+00 -3.4797425E+00 -5.6948804E+00
  4.318E-02  1.543E+00  1.840E+00 7.3872267E+00 -3.5648359E+00 -5.5194017E+00
  0.000E+00  1.478E+00  1.878E+00 7.1972893E+00 -3.1919979E+00 -5.8611093E+00
  4.318E-02  1.500E+00  1.866E+00 7.2382003E+00 -3.2841877E+00 -5.6890775E+00
  0.000E+00  1.434E+00  1.901E+00 7.1383662E+00 -2.8982354E+00 -6.0153754E+00
  4.318E-02  1.456E+00  1.890E+00 7.1562285E+00 -2.9988762E+00 -5.8475307E+00
  0.000E+00  1.388E+00  1.921E+00 7.0015710E+00 -2.5911670E+00 -6.1500384E+00
  4.318E-02  1.411E+00  1.912E+00 7.0622498E+00 -2.7035289E+00 -5.9904419E+00
  0.000E+00  1.342E+00  1.940E+00 6.8389032E+00 -2.2776508E+00 -6.2680774E+00
  4.318E-02  1.365E+00  1.931E+00 6.8862178E+00 -2.3962273E+00 -6.1134499E+00
  0.000E+00  1.295E+00  1.956E+00 6.7577961E+00 -1.9675583E+00 -6.3774379E+00
  4.318E-02  1.318E+00  1.948E+00 6.7753973E+00 -2.0891642E+00 -6.2252283E+00
  0.000E+00  1.247E+00  1.969E+00 6.6646288E+00 -1.6532177E+00 -6.4720625E+00
  4.318E-02  1.271E+00  1.963E+00 6.6936218E+00 -1.7834322E+00 -6.3269678E+00
  0.000E+00  1.198E+00  1.980E+00 6.5529463E+00 -1.3270604E+00 -6.5451348E+00
  4.318E-02  1.223E+00  1.975E+00 6.5866586E+00 -1.4681980E+00 -6.4096199E+00
  0.000E+00  1.149E+00  1.989E+00 6.4512620E+00 -9.9422492E-01 -6.5997685E+00
  4.318E-02  1.174E+00  1.985E+00 6.4771008E+00 -1.1428771E+00 -6.4718430E+00
  0.000E+00  1.100E+00  1.995E+00 6.3807531E+00 -6.6133906E-01 -6.6394835E+00
  4.318E-02  1.124E+00  1.992E+00 6.3916526E+00 -8.1462025E-01 -6.5180488E+00
  0.000E+00  1.050E+00  1.999E+00 6.3433691E+00 -3.3025180E-01 -6.6644406E+00
  4.318E-02  1.075E+00  1.997E+00 6.3373325E+00 -4.8790097E-01 -6.5500911E+00
  0.000E+00  1.000E+00  2.000E+00 6.3321462E+00 6.6190823E-06 -6.6730584E+00
  4.318E-02  1.025E+00  2.000E+00 6.3118070E+00 -1.6250762E-01 -6.5667663E+00
  0.000E+00  9.502E-01  1.999E+00 6.3433694E+00 3.3026557E-01 -6.6644417E+00
  4.318E-02  9.751E-01  2.000E+00 6.3118072E+00 1.6252085E-01 -6.5667669E+00
  0.000E+00  9.004E-01  1.995E+00 6.3807538E+00 6.6135243E-01 -6.6394859E+00
  4.318E-02  9.253E-01  1.997E+00 6.3373330E+00 4.8791453E-01 -6.5500929E+00
  0.000E+00  8.510E-01  1.989E+00 6.4512631E+00 9.9423822E-01 -6.5997720E+00
  4.318E-02  8.757E-01  1.992E+00 6.3916535E+00 8.1463316E-01 -6.5180518E+00
  0.000E+00  8.019E-01  1.980E+00 6.5529477E+00 1.3270737E+00 -6.5451394E+00
  4.318E-02  8.264E-01  1.985E+00 6.4771020E+00 1.1428904E+00 -6.4718471E+00
  0.000E+00  7.532E-01  1.969E+00 6.6646305E+00 1.6532307E+00 -6.4720682E+00
  4.318E-02  7.775E-01  1.975E+00 6.5866602E+00 1.4682108E+00 -6.4096251E+00
  0.000E+00  7.052E-01  1.956E+00 6.7577981E+00 1.9675711E+00 -6.3774446E+00
  4.318E-02  7.292E-01  1.963E+00 6.6936237E+00 1.7834451E+00 -6.3269740E+00
  0.000E+00  6.580E-01  1.940E+00 6.8389055E+00 2.2776632E+00 -6.2680849E+00
  4.318E-02  6.815E-01  1.948E+00 6.7753995E+00 2.0891763E+00 -6.2252355E+00
  0.000E+00  6.116E-01  1.921E+00 7.0015737E+00 2.5911805E+00 -6.1500471E+00
  4.318E-02  6.347E-01  1.931E+00 6.8862203E+00 2.3962403E+00 -6.1134581E+00
  0.000E+00  5.661E-01  1.901E+00 7.1383691E+00 2.8982461E+00 -6.0153846E+00
  4.318E-02  5.887E-01  1.912E+00 7.0622523E+00 2.7035407E+00 -5.9904505E+00
  0.000E+00  5.217E-01  1.878E+00 7.1972924E+00 3.1920106E+00 -5.8611194E+00
  4.318E-02  5.438E-01  1.890E+00 7.1562315E+00 2.9988872E+00 -5.8475405E+00
  0.000E+00  4.786E-01  1.853E+00 7.3605090E+00 3.4797538E+00 -5.6948910E+00
  4.318E-02  5.000E-01  1.866E+00 7.2382035E+00 3.2842003E+00 -5.6890881E+00
  0.000E+00  4.367E-01  1.826E+00 7.4090693E+00 3.7602691E+00 -5.5148739E+00
  4.318E-02  4.575E-01  1.840E+00 7.3872301E+00 3.5648466E+00 -5.5194128E+00
  0.000E+00  3.962E-01  1.797E+00 7.5000827E+00 4.0301530E+00 -5.3204354E+00
  4.318E-02  4.163E-01  1.812E+00 7.4141834E+00 3.8356624E+00 -5.3347475E+00
  0.000E+00  3.572E-01  1.766E+00 7.5559900E+00 4.2902691E+00 -5.1127800E+00
  4.318E-02  3.765E-01  1.782E+00 7.5103108E+00 4.0964064E+00 -5.1367475E+00
  0.000E+00  3.198E-01  1.733E+00 7.5595376E+00 4.5398879E+00 -4.8927666E+00
  4.318E-02  3.383E-01  1.750E+00 7.5244212E+00 4.3476565E+00 -4.9262795E+00
  0.000E+00  2.841E-01  1.698E+00 7.5929902E+00 4.7780139E+00 -4.6601716E+00
  4.318E-02  3.018E-01  1.716E+00 7.5712446E+00 4.5875568E+00 -4.7033612E+00
  0.000E+00  2.502E-01  1.662E+00 7.5460886E+00 5.0044453E+00 -4.4164774E+00
  4.318E-02  2.669E-01  1.680E+00 7.5379134E+00 4.8164957E+00 -4.4689422E+00
  0.000E+00  2.182E-01  1.623E+00 7.5320865E+00 5.2182508E+00 -4.1612273E+00
  4.318E-02  2.340E-01  1.643E+00 7.5342920E+00 5.0330880E+00 -4.2232193E+00
  0.000E+00  1.881E-01  1.584E+00 7.4358655E+00 5.4193658E+00 -3.8963563E+00
  4.318E-02  2.029E-01  1.604E+00 7.4784479E+00 5.2374619E+00 -3.9671372E+00
  0.000E+00  1.600E-01  1.543E+00 7.4091042E+00 5.6069511E+00 -3.6212484E+00
  4.318E-02  1.738E-01  1.563E+00 7.3874864E+00 5.4289006E+00 -3.7014869E+00
  0.000E+00  1.340E-01  1.500E+00 7.2599213E+00 5.7793173E+00 -3.3361504E+00
  4.318E-02  1.467E-01  1.521E+00 7.3388444E+00 5.6060400E+00 -3.4253284E+00
  0.000E+00  1.101E-01  1.456E+00 7.1780723E+00 5.9402379E+00 -3.0463185E+00
  4.318E-02  1.218E-01  1.478E+00 7.1758285E+00 5.7697209E+00 -3.1420835E+00
  0.000E+00  8.849E-02  1.411E+00 7.0841754E+00 6.0854277E+00 -2.7462963E+00
  4.318E-02  9.903E-02  1.434E+00 7.1167350E+00 5.9215396E+00 -2.8529126E+00
  0.000E+00  6.913E-02  1.365E+00 6.9079786E+00 6.2103786E+00 -2.4341306E+00
  4.318E-02  7.852E-02  1.388E+00 6.9800271E+00 6.0540592E+00 -2.5506383E+00
  0.000E+00  5.207E-02  1.318E+00 6.7972269E+00 6.3238885E+00 -2.1222114E+00
  4.318E-02  6.031E-02  1.342E+00 6.8174973E+00 6.1702914E+00 -2.2420186E+00
  0.000E+00  3.738E-02  1.271E+00 6.7155861E+00 6.4272361E+00 -1.8116392E+00
  4.318E-02  4.443E-02  1.295E+00 6.7362578E+00 6.2779271E+00 -1.9367755E+00
  0.000E+00  2.507E-02  1.223E+00 6.6086314E+00 6.5112052E+00 -1.4914099E+00
  4.318E-02  3.092E-02  1.247E+00 6.6430382E+00 6.3710407E+00 -1.6273615E+00
  0.000E+00  1.519E-02  1.174E+00 6.4990212E+00 6.5744081E+00 -1.1609402E+00
  4.318E-02  1.983E-02  1.198E+00 6.5314065E+00 6.4429605E+00 -1.3063177E+00
  0.000E+00  7.761E-03  1.124E+00 6.4135366E+00 6.6213304E+00 -8.2749529E-01
  4.318E-02  1.117E-02  1.149E+00 6.4297905E+00 6.4967417E+00 -9.7869258E-01
  0.000E+00  2.796E-03  1.075E+00 6.3592104E+00 6.6538711E+00 -4.9561719E-01
  4.318E-02  4.969E-03  1.100E+00 6.3593122E+00 6.5358387E+00 -6.5101190E-01
  0.000E+00  3.108E-04  1.025E+00 6.3336909E+00 6.6708075E+00 -1.6508751E-01
  4.318E-02  1.243E-03  1.050E+00 6.3219278E+00 6.5604075E+00 -3.2510107E-01
  0.000E+00  3.108E-04  9.751E-01 6.3336902E+00 6.6708049E+00 1.6507108E-01
  4.318E-02  0.000E+00  1.000E+00 6.3106994E+00 6.5688886E+00 -8.4649440E-06
  0.000E+00  2.796E-03  9.253E-01 6.3592084E+00 6.6538628E+00 4.9560077E-01
  4.318E-02  1.243E-03  9.502E-01 6.3219266E+00 6.5604024E+00 3.2508417E-01
  0.000E+00  7.761E-03  8.757E-01 6.4135333E+00 6.6213174E+00 8.2747893E-01
  4.318E-02  4.969E-03  9.004E-01 6.3593099E+00 6.5358277E+00 6.5099506E-01
  0.000E+00  1.519E-02  8.264E-01 6.4990168E+00 6.5743991E+00 1.1609239E+00
  4.318E-02  1.117E-02  8.510E-01 6.4297869E+00 6.4967297E+00 9.7867585E-01
  0.000E+00  2.507E-02  7.775E-01 6.6086259E+00 6.5112118E+00 1.4913938E+00
  4.318E-02  1.983E-02  8.019E-01 6.5314017E+00 6.4429593E+00 1.3063011E+00
  0.000E+00  3.738E-02  7.292E-01 6.7155796E+00 6.4272425E+00 1.8116232E+00
  4.318E-02  3.092E-02  7.532E-01 6.6430323E+00 6.3710513E+00 1.6273451E+00
  0.000E+00  5.207E-02  6.815E-01 6.7972194E+00 6.3238617E+00 2.1221956E+00
  4.318E-02  4.443E-02  7.052E-01 6.7362507E+00 6.2779190E+00 1.9367592E+00
  0.000E+00  6.913E-02  6.347E-01 6.9079703E+00 6.2103544E+00 2.4341150E+00
  4.318E-02  6.031E-02  6.580E-01 6.8174890E+00 6.1702560E+00 2.2420024E+00
  0.000E+00  8.849E-02  5.887E-01 7.0841659E+00 6.0854457E+00 2.7462812E+00
  4.318E-02  7.852E-02  6.116E-01 6.9800180E+00 6.0540611E+00 2.5506226E+00
  0.000E+00  1.101E-01  5.438E-01 7.1780622E+00 5.9402205E+00 3.0463033E+00
  4.318E-02  9.903E-02  5.661E-01 7.1167248E+00 5.9215484E+00 2.8528971E+00
  0.000E+00  1.340E-01  5.000E-01 7.2599104E+00 5.7792910E+00 3.3361354E+00
  4.318E-02  1.218E-01  5.217E-01 7.1758174E+00 5.7696851E+00 3.1420678E+00
  0.000E+00  1.600E-01  4.575E-01 7.4090924E+00 5.6069603E+00 3.6212343E+00
  4.318E-02  1.467E-01  4.786E-01 7.3388328E+00 5.6060399E+00 3.4253137E+00
  0.000E+00  1.881E-01  4.163E-01 7.4358529E+00 5.4193456E+00 3.8963417E+00
  4.318E-02  1.738E-01  4.367E-01 7.3874741E+00 5.4288952E+00 3.7014721E+00
  0.000E+00  2.182E-01  3.765E-01 7.5320733E+00 5.2182457E+00 4.1612136E+00
  4.318E-02  2.029E-01  3.962E-01 7.4784351E+00 5.2374457E+00 3.9671228E+00
  0.000E+00  2.502E-01  3.383E-01 7.5460748E+00 5.0044353E+00 4.4164638E+00
  4.318E-02  2.340E-01  3.572E-01 7.5342786E+00 5.0330864E+00 4.2232056E+00
  0.000E+00  2.841E-01  3.018E-01 7.5929763E+00 4.7780032E+00 4.6601586E+00
  4.318E-02  2.669E-01  3.198E-01 7.5378995E+00 4.8164805E+00 4.4689284E+00
  0.000E+00  3.198E-01  2.669E-01 7.5595237E+00 4.5398796E+00 4.8927541E+00
  4.318E-02  3.018E-01  2.841E-01 7.5712301E+00 4.5875508E+00 4.7033482E+00
  0.000E+00  3.572E-01  2.340E-01 7.5559761E+00 4.2902568E+00 5.1127680E+00
  4.318E-02  3.383E-01  2.502E-01 7.5244059E+00 4.3476435E+00 4.9262665E+00
  0.000E+00  3.962E-01  2.029E-01 7.5000679E+00 4.0301413E+00 5.3204236E+00
  4.318E-02  3.765E-01  2.182E-01 7.5102952E+00 4.0963958E+00 5.1367354E+00
  0.000E+00  4.367E-01  1.738E-01 7.4090529E+00 3.7602546E+00 5.5148623E+00
  4.318E-02  4.163E-01  1.881E-01 7.4141683E+00 3.8356506E+00 5.3347362E+00
  0.000E+00  4.786E-01  1.467E-01 7.3604913E+00 3.4797411E+00 5.6948803E+00
  4.318E-02  4.575E-01  1.600E-01 7.3872161E+00 3.5648359E+00 5.5194022E+00
  0.000E+00  5.217E-01  1.218E-01 7.1972765E+00 3.1919985E+00 5.8611100E+00
  4.318E-02  5.000E-01  1.340E-01 7.2381894E+00 3.2841869E+00 5.6890775E+00
  0.000E+00  5.661E-01  9.903E-02 7.1383575E+00 2.8982370E+00 6.0153764E+00
  4.318E-02  5.438E-01  1.101E-01 7.1562148E+00 2.9988744E+00 5.8475302E+00
  0.000E+00  6.116E-01  7.852E-02 7.0015648E+00 2.5911667E+00 6.1500392E+00
  4.318E-02  5.887E-01  8.849E-02 7.0622326E+00 2.7035273E+00 5.9904412E+00
  0.000E+00  6.580E-01  6.031E-02 6.8388937E+00 2.2776498E+00 6.2680777E+00
  4.318E-02  6.347E-01  6.913E-02 6.8862007E+00 2.3962265E+00 6.1134501E+00
  0.000E+00  7.052E-01  4.443E-02 6.7577800E+00 1.9675588E+00 6.3774385E+00
  4.318E-02  6.815E-01  5.207E-02 6.7753837E+00 2.0891628E+00 6.2252285E+00
  0.000E+00  7.532E-01  3.092E-02 6.6646083E+00 1.6532204E+00 6.4720640E+00
  4.318E-02  7.292E-01  3.738E-02 6.6936118E+00 1.7834296E+00 6.3269675E+00
  0.000E+00  8.019E-01  1.983E-02 6.5529263E+00 1.3270629E+00 6.5451370E+00
  4.318E-02  7.775E-01  2.507E-02 6.5866492E+00 1.4681952E+00 6.4096189E+00
  0.000E+00  8.510E-01  1.117E-02 6.4512456E+00 9.9422563E-01 6.5997708E+00
  4.318E-02  8.264E-01  1.519E-02 6.4770890E+00 1.1428755E+00 6.4718416E+00
  0.000E+00  9.004E-01  4.969E-03 6.3807402E+00 6.6133812E-01 6.6394858E+00
  4.318E-02  8.757E-01  7.761E-03 6.3916378E+00 8.1462008E-01 6.5180475E+00
  4.318E-02  9.253E-01  2.796E-03 6.3373156E+00 4.8790135E-01 6.5500899E+00
  1.000E+01  1.050E+00  1.243E-03 6.3433579E+00 -3.3026508E-01 6.6644438E+00
  1.000E+01  1.000E+00  5.551E-16 6.3321356E+00 -6.9793986E-06 6.6730605E+00
  9.957E+00  1.025E+00  3.108E-04 6.3593992E+00 -1.6761045E-01 6.7725890E+00
  1.000E+01  9.502E-01  1.243E-03 6.3433581E+00 3.3025060E-01 6.6644427E+00
  9.957E+00  9.751E-01  3.108E-04 6.3593993E+00 1.6759601E-01 6.7725885E+00
  1.000E+01  9.004E-01  4.969E-03 6.3807402E+00 6.6133812E-01 6.6394858E+00
  9.957E+00  9.253E-01  2.796E-03 6.3849190E+00 5.0317971E-01 6.7553958E+00
  1.000E+01  8.510E-01  1.117E-02 6.4512456E+00 9.9422563E-01 6.5997708E+00
  9.957E+00  8.757E-01  7.761E-03 6.4392637E+00 8.4013362E-01 6.7223590E+00
  1.000E+01  8.019E-01  1.983E-02 6.5529263E+00 1.3270629E+00 6.5451370E+00
  9.957E+00  8.264E-01  1.519E-02 6.5248033E+00 1.1786794E+00 6.6747183E+00
  1.000E+01  7.532E-01  3.092E-02 6.6646083E+00 1.6532204E+00 6.4720640E+00
  9.957E+00  7.775E-01  2.507E-02 6.6344927E+00 1.5142116E+00 6.6105470E+00
  1.000E+01  7.052E-01  4.443E-02 6.7577800E+00 1.9675588E+00 6.3774385E+00
  9.957E+00  7.292E-01  3.738E-02 6.7414642E+00 1.8393528E+00 6.5252699E+00
  1.000E+01  6.580E-01  6.031E-02 6.8388937E+00 2.2776498E+00 6.2680777E+00
  9.957E+00  6.815E-01  5.207E-02 6.8229811E+00 2.1546814E+00 6.4203001E+00
  1.000E+01  6.116E-01  7.852E-02 7.0015648E+00 2.5911667E+00 6.1500392E+00
  9.957E+00  6.347E-01  6.913E-02 6.9336852E+00 2.4713623E+00 6.3050775E+00
  1.000E+01  5.661E-01  9.903E-02 7.1383575E+00 2.8982370E+00 6.0153764E+00
  9.957E+00  5.887E-01  8.849E-02 7.1101114E+00 2.7882978E+00 6.1782366E+00
  1.000E+01  5.217E-01  1.218E-01 7.1972765E+00 3.1919985E+00 5.8611100E+00
  9.957E+00  5.438E-01  1.101E-01 7.2039551E+00 3.0928978E+00 6.0307496E+00
  1.000E+01  4.786E-01  1.467E-01 7.3604913E+00 3.4797411E+00 5.6948803E+00
  9.957E+00  5.000E-01  1.340E-01 7.2857040E+00 3.3871517E+00 5.8673891E+00
  1.000E+01  4.367E-01  1.738E-01 7.4090529E+00 3.7602546E+00 5.5148623E+00
  9.957E+00  4.575E-01  1.600E-01 7.4351160E+00 3.6766041E+00 5.6923957E+00
  1.000E+01  3.962E-01  2.029E-01 7.5000679E+00 4.0301413E+00 5.3204236E+00
  9.957E+00  4.163E-01  1.881E-01 7.4616998E+00 3.9558984E+00 5.5018982E+00
  1.000E+01  3.572E-01  2.340E-01 7.5559761E+00 4.2902568E+00 5.1127680E+00
  9.957E+00  3.765E-01  2.182E-01 7.5580829E+00 4.2247968E+00 5.2977317E+00
  1.000E+01  3.198E-01  2.669E-01 7.5595237E+00 4.5398796E+00 4.8927541E+00
  9.957E+00  3.383E-01  2.502E-01 7.5720085E+00 4.4839443E+00 5.0806356E+00
  1.000E+01  2.841E-01  3.018E-01 7.5929763E+00 4.7780032E+00 4.6601586E+00
  9.957E+00  3.018E-01  2.841E-01 7.6190577E+00 4.7313266E+00 4.8507475E+00
  1.000E+01  2.502E-01  3.383E-01 7.5460748E+00 5.0044353E+00 4.4164638E+00
  9.957E+00  2.669E-01  3.198E-01 7.5855133E+00 4.9674765E+00 4.6089848E+00
  1.000E+01  2.182E-01  3.765E-01 7.5320733E+00 5.2182457E+00 4.1612136E+00
  9.957E+00  2.340E-01  3.572E-01 7.5821090E+00 5.1908047E+00 4.3555363E+00
  1.000E+01  1.881E-01  4.163E-01 7.4358529E+00 5.4193456E+00 3.8963417E+00
  9.957E+00  2.029E-01  3.962E-01 7.5261762E+00 5.4016500E+00 4.0914746E+00
  1.000E+01  1.600E-01  4.575E-01 7.4090924E+00 5.6069603E+00 3.6212343E+00
  9.957E+00  1.738E-01  4.367E-01 7.4351515E+00 5.5989834E+00 3.8174417E+00
  1.000E+01  1.340E-01  5.000E-01 7.2599104E+00 5.7792910E+00 3.3361354E+00
  9.957E+00  1.467E-01  4.786E-01 7.3867320E+00 5.7817949E+00 3.5326703E+00
  1.000E+01  1.101E-01  5.438E-01 7.1780622E+00 5.9402205E+00 3.0463033E+00
  9.957E+00  1.218E-01  5.217E-01 7.2233230E+00 5.9504738E+00 3.2405384E+00
  1.000E+01  8.849E-02  5.887E-01 7.0841659E+00 6.0854457E+00 2.7462812E+00
  9.957E+00  9.903E-02  5.661E-01 7.1646536E+00 6.1071096E+00 2.9422932E+00
  1.000E+01  6.913E-02  6.347E-01 6.9079703E+00 6.2103544E+00 2.4341150E+00
  9.957E+00  7.852E-02  6.116E-01 7.0277940E+00 6.2438412E+00 2.6305552E+00
  1.000E+01  5.207E-02  6.815E-01 6.7972194E+00 6.3238617E+00 2.1221956E+00
  9.957E+00  6.031E-02  6.580E-01 6.8649921E+00 6.3636049E+00 2.3122719E+00
  1.000E+01  3.738E-02  7.292E-01 6.7155796E+00 6.4272425E+00 1.8116232E+00
  9.957E+00  4.443E-02  7.052E-01 6.7840711E+00 6.4746277E+00 1.9974618E+00
  1.000E+01  2.507E-02  7.775E-01 6.6086259E+00 6.5112118E+00 1.4913938E+00
  9.957E+00  3.092E-02  7.532E-01 6.6909922E+00 6.5707180E+00 1.6783330E+00
  1.000E+01  1.519E-02  8.264E-01 6.4990168E+00 6.5743991E+00 1.1609239E+00
  9.957E+00  1.983E-02  8.019E-01 6.5792711E+00 6.6448966E+00 1.3472064E+00
  1.000E+01  7.761E-03  8.757E-01 6.4135333E+00 6.6213174E+00 8.2747893E-01
  9.957E+00  1.117E-02  8.510E-01 6.4775233E+00 6.7003374E+00 1.0093088E+00
  1.000E+01  2.796E-03  9.253E-01 6.3592084E+00 6.6538628E+00 4.9560077E-01
  9.957E+00  4.969E-03  9.004E-01 6.4069934E+00 6.7406421E+00 6.7136995E-01
  1.000E+01  3.108E-04  9.751E-01 6.3336902E+00 6.6708049E+00 1.6507108E-01
  9.957E+00  1.243E-03  9.502E-01 6.3696226E+00 6.7659798E+00 3.3526146E-01
  1.000E+01  3.108E-04  1.025E+00 6.3336909E+00 6.6708075E+00 -1.6508751E-01
  9.957E+00  0.000E+00  1.000E+00 6.3584111E+00 6.7747350E+00 -8.0340188E-06
  1.000E+01  2.796E-03  1.075E+00 6.3592104E+00 6.6538711E+00 -4.9561719E-01
  9.957E+00  1.243E-03  1.050E+00 6.3696238E+00 6.7659851E+00 -3.3527751E-01
  1.000E+01  7.761E-03  1.124E+00 6.4135366E+00 6.6213304E+00 -8.2749529E-01
  9.957E+00  4.969E-03  1.100E+00 6.4069958E+00 6.7406535E+00 -6.7138593E-01
  1.000E+01  1.519E-02  1.174E+00 6.4990212E+00 6.5744081E+00 -1.1609402E+00
  9.957E+00  1.117E-02  1.149E+00 6.4775268E+00 6.7003501E+00 -1.0093247E+00
  1.000E+01  2.507E-02  1.223E+00 6.6086314E+00 6.5112052E+00 -1.4914099E+00
  9.957E+00  1.983E-02  1.198E+00 6.5792758E+00 6.6448981E+00 -1.3472221E+00
  1.000E+01  3.738E-02  1.271E+00 6.7155861E+00 6.4272361E+00 -1.8116392E+00
  9.957E+00  3.092E-02  1.247E+00 6.6909981E+00 6.5707072E+00 -1.6783486E+00
  1.000E+01  5.207E-02  1.318E+00 6.7972269E+00 6.3238885E+00 -2.1222114E+00
  9.957E+00  4.443E-02  1.295E+00 6.7840781E+00 6.4746360E+00 -1.9974773E+00
  1.000E+01  6.913E-02  1.365E+00 6.9079786E+00 6.2103786E+00 -2.4341306E+00
  9.957E+00  6.031E-02  1.342E+00 6.8650003E+00 6.3636415E+00 -2.3122874E+00
  1.000E+01  8.849E-02  1.411E+00 7.0841754E+00 6.0854277E+00 -2.7462963E+00
  9.957E+00  7.852E-02  1.388E+00 7.0278032E+00 6.2438399E+00 -2.6305704E+00
  1.000E+01  1.101E-01  1.456E+00 7.1780723E+00 5.9402379E+00 -3.0463185E+00
  9.957E+00  9.903E-02  1.434E+00 7.1646638E+00 6.1071009E+00 -2.9423079E+00
  1.000E+01  1.340E-01  1.500E+00 7.2599213E+00 5.7793173E+00 -3.3361504E+00
  9.957E+00  1.218E-01  1.478E+00 7.2233339E+00 5.9505111E+00 -3.2405534E+00
  1.000E+01  1.600E-01  1.543E+00 7.4091042E+00 5.6069511E+00 -3.6212484E+00
  9.957E+00  1.467E-01  1.521E+00 7.3867435E+00 5.7817953E+00 -3.5326843E+00
  1.000E+01  1.881E-01  1.584E+00 7.4358655E+00 5.4193658E+00 -3.8963563E+00
  9.957E+00  1.738E-01  1.563E+00 7.4351637E+00 5.5989891E+00 -3.8174559E+00
  1.000E+01  2.182E-01  1.623E+00 7.5320865E+00 5.2182508E+00 -4.1612273E+00
  9.957E+00  2.029E-01  1.604E+00 7.5261889E+00 5.4016669E+00 -4.0914883E+00
  1.000E+01  2.502E-01  1.662E+00 7.5460886E+00 5.0044453E+00 -4.4164774E+00
  9.957E+00  2.340E-01  1.643E+00 7.5821222E+00 5.1908067E+00 -4.3555495E+00
  1.000E+01  2.841E-01  1.698E+00 7.5929902E+00 4.7780139E+00 -4.6601716E+00
  9.957E+00  2.669E-01  1.680E+00 7.5855271E+00 4.9674925E+00 -4.6089981E+00
  1.000E+01  3.198E-01  1.733E+00 7.5595376E+00 4.5398879E+00 -4.8927666E+00
  9.957E+00  3.018E-01  1.716E+00 7.6190721E+00 4.7313331E+00 -4.8507599E+00
  1.000E+01  3.572E-01  1.766E+00 7.5559900E+00 4.2902691E+00 -5.1127800E+00
  9.957E+00  3.383E-01  1.750E+00 7.5720236E+00 4.4839580E+00 -5.0806481E+00
  1.000E+01  3.962E-01  1.797E+00 7.5000827E+00 4.0301530E+00 -5.3204354E+00
  9.957E+00  3.765E-01  1.782E+00 7.5580981E+00 4.2248079E+00 -5.2977434E+00
  1.000E+01  4.367E-01  1.826E+00 7.4090693E+00 3.7602691E+00 -5.5148739E+00
  9.957E+00  4.163E-01  1.812E+00 7.4617146E+00 3.9559105E+00 -5.5019094E+00
  1.000E+01  4.786E-01  1.853E+00 7.3605090E+00 3.4797538E+00 -5.6948910E+00
  9.957E+00  4.575E-01  1.840E+00 7.4351301E+00 3.6766152E+00 -5.6924062E+00
  1.000E+01  5.217E-01  1.878E+00 7.1972924E+00 3.1920106E+00 -5.8611194E+00
  9.957E+00  5.000E-01  1.866E+00 7.2857185E+00 3.3871662E+00 -5.8673992E+00
  1.000E+01  5.661E-01  1.901E+00 7.1383691E+00 2.8982461E+00 -6.0153846E+00
  9.957E+00  5.438E-01  1.890E+00 7.2039717E+00 3.0929120E+00 -6.0307594E+00
  1.000E+01  6.116E-01  1.921E+00 7.0015737E+00 2.5911805E+00 -6.1500471E+00
  9.957E+00  5.887E-01  1.912E+00 7.1101302E+00 2.7883122E+00 -6.1782453E+00
  1.000E+01  6.580E-01  1.940E+00 6.8389055E+00 2.2776632E+00 -6.2680849E+00
  9.957E+00  6.347E-01  1.931E+00 6.9337044E+00 2.4713762E+00 -6.3050857E+00
  1.000E+01  7.052E-01  1.956E+00 6.7577981E+00 1.9675711E+00 -6.3774446E+00
  9.957E+00  6.815E-01  1.948E+00 6.8229972E+00 2.1546941E+00 -6.4203074E+00
  1.000E+01  7.532E-01  1.969E+00 6.6646305E+00 1.6532307E+00 -6.4720682E+00
  9.957E+00  7.292E-01  1.963E+00 6.7414766E+00 1.8393680E+00 -6.5252766E+00
  1.000E+01  8.019E-01  1.980E+00 6.5529477E+00 1.3270737E+00 -6.5451394E+00
  9.957E+00  7.775E-01  1.975E+00 6.6345037E+00 1.5142279E+00 -6.6105531E+00
  1.000E+01  8.510E-01  1.989E+00 6.4512631E+00 9.9423822E-01 -6.5997720E+00
  9.957E+00  8.264E-01  1.985E+00 6.5248157E+00 1.1786955E+00 -6.6747236E+00
  1.000E+01  9.004E-01  1.995E+00 6.3807538E+00 6.6135243E-01 -6.6394859E+00
  9.957E+00  8.757E-01  1.992E+00 6.4392787E+00 8.4014811E-01 -6.7223632E+00
  1.000E+01  9.502E-01  1.999E+00 6.3433694E+00 3.3026557E-01 -6.6644417E+00
  9.957E+00  9.253E-01  1.997E+00 6.3849361E+00 5.0319385E-01 -6.7553989E+00
  1.000E+01  1.000E+00  2.000E+00 6.3321462E+00 6.6190823E-06 -6.6730584E+00
  9.957E+00  9.751E-01  2.000E+00 6.3594175E+00 1.6760987E-01 -6.7725903E+00
  1.000E+01  1.050E+00  1.999E+00 6.3433691E+00 -3.3025180E-01 -6.6644406E+00
  9.957E+00  1.025E+00  2.000E+00 6.3594173E+00 -1.6759621E-01 -6.7725897E+00
  1.000E+01  1.100E+00  1.995E+00 6.3807531E+00 -6.6133906E-01 -6.6394835E+00
  9.957E+00  1.075E+00  1.997E+00 6.3849356E+00 -5.0317994E-01 -6.7553971E+00
  1.000E+01  1.149E+00  1.989E+00 6.4512620E+00 -9.9422492E-01 -6.5997685E+00
  9.957E+00  1.124E+00  1.992E+00 6.4392778E+00 -8.4013473E-01 -6.7223603E+00
  1.000E+01  1.198E+00  1.980E+00 6.5529463E+00 -1.3270604E+00 -6.5451348E+00
  9.957E+00  1.174E+00  1.985E+00 6.5248145E+00 -1.1786819E+00 -6.6747196E+00