# TIME = 5.000000
VARIABLES = X, Y, Z, FX, FY, FZ
ZONE N=29232 E=58212 F=FEPOINT ET=TRIANGLE
  0.000E+00  9.502E-01  1.243E-03 6.2169005E+00 3.1210836E-01 6.2978407E+00
  0.000E+00  1.000E+00  0.000E+00 6.2056100E+00 -8.1733680E-06 6.3059799E+00
  4.318E-02  9.751E-01  3.108E-04 6.2067582E+00 1.5322566E-01 6.1912716E+00
  0.000E+00  1.050E+00  1.243E-03 6.2169006E+00 -3.1212555E-01 6.2978408E+00
  4.318E-02  1.025E+00  3.108E-04 6.2067583E+00 -1.5324274E-01 6.1912716E+00
  0.000E+00  1.100E+00  4.969E-03 6.2544003E+00 -6.2503011E-01 6.2742451E+00
  4.318E-02  1.075E+00  2.796E-03 6.2323561E+00 -4.6005432E-01 6.1755363E+00
  0.000E+00  1.149E+00  1.117E-02 6.3248886E+00 -9.3961805E-01 6.2366685E+00
  4.318E-02  1.124E+00  7.761E-03 6.2867365E+00 -7.6810863E-01 6.1453018E+00
  0.000E+00  1.198E+00  1.983E-02 6.4263791E+00 -1.2541171E+00 6.1850116E+00
  4.318E-02  1.174E+00  1.519E-02 6.3721449E+00 -1.0775919E+00 6.1017085E+00
  0.000E+00  1.247E+00  3.092E-02 6.5380247E+00 -1.5622664E+00 6.1160224E+00
  4.318E-02  1.223E+00  2.507E-02 6.4816083E+00 -1.3842646E+00 6.0430436E+00
  0.000E+00  1.295E+00  4.443E-02 6.6318005E+00 -1.8592566E+00 6.0267216E+00
  4.318E-02  1.271E+00  3.738E-02 6.5887798E+00 -1.6814072E+00 5.9652014E+00
  0.000E+00  1.342E+00  6.031E-02 6.7139888E+00 -2.1522733E+00 5.9233294E+00
  4.318E-02  1.318E+00  5.207E-02 6.6713715E+00 -1.9696284E+00 5.8693665E+00
  0.000E+00  1.388E+00  7.852E-02 6.8761514E+00 -2.4485602E+00 5.8116008E+00
  4.318E-02  1.365E+00  6.913E-02 6.7826752E+00 -2.2591527E+00 5.7638270E+00
  0.000E+00  1.434E+00  9.903E-02 7.0127953E+00 -2.7387596E+00 5.6845583E+00
  4.318E-02  1.411E+00  8.849E-02 6.9580816E+00 -2.5488721E+00 5.6478098E+00
  0.000E+00  1.478E+00  1.218E-01 7.0730560E+00 -3.0163154E+00 5.5388080E+00
  4.318E-02  1.456E+00  1.101E-01 7.0526428E+00 -2.8273326E+00 5.5132940E+00
  0.000E+00  1.521E+00  1.467E-01 7.2353930E+00 -3.2882105E+00 5.3814854E+00
  4.318E-02  1.500E+00  1.340E-01 7.1353213E+00 -3.0963322E+00 5.3637461E+00
  0.000E+00  1.563E+00  1.738E-01 7.2847458E+00 -3.5534106E+00 5.2117084E+00
  4.318E-02  1.543E+00  1.600E-01 7.2836960E+00 -3.3609178E+00 5.2037864E+00
  0.000E+00  1.604E+00  2.029E-01 7.3756724E+00 -3.8082945E+00 5.0276436E+00
  4.318E-02  1.584E+00  1.881E-01 7.3116379E+00 -3.6162532E+00 5.0297656E+00
  0.000E+00  1.643E+00  2.340E-01 7.4314619E+00 -4.0542486E+00 4.8316641E+00
  4.318E-02  1.623E+00  2.182E-01 7.4073191E+00 -3.8621351E+00 4.8430018E+00
  0.000E+00  1.680E+00  2.669E-01 7.4355937E+00 -4.2900689E+00 4.6235640E+00
  4.318E-02  1.662E+00  2.502E-01 7.4219186E+00 -4.0989433E+00 4.6446336E+00
  0.000E+00  1.716E+00  3.018E-01 7.4684880E+00 -4.5151243E+00 4.4039176E+00
  4.318E-02  1.698E+00  2.841E-01 7.4682913E+00 -4.3252384E+00 4.4344278E+00
  0.000E+00  1.750E+00  3.383E-01 7.4221175E+00 -4.7291528E+00 4.1735027E+00
  4.318E-02  1.733E+00  3.198E-01 7.4354010E+00 -4.5409633E+00 4.2133947E+00
  0.000E+00  1.782E+00  3.765E-01 7.4075220E+00 -4.9311282E+00 3.9323874E+00
  4.318E-02  1.766E+00  3.572E-01 7.4312710E+00 -4.7453384E+00 3.9817863E+00
  0.000E+00  1.812E+00  4.163E-01 7.3118421E+00 -5.1212975E+00 3.6820326E+00
  4.318E-02  1.797E+00  3.962E-01 7.3754844E+00 -4.9378227E+00 3.7402287E+00
  0.000E+00  1.840E+00  4.575E-01 7.2839039E+00 -5.2984705E+00 3.4220523E+00
  4.318E-02  1.826E+00  4.367E-01 7.2845623E+00 -5.1185952E+00 3.4899008E+00
  0.000E+00  1.866E+00  5.000E-01 7.1355283E+00 -5.4613559E+00 3.1526516E+00
  4.318E-02  1.853E+00  4.786E-01 7.2352100E+00 -5.2853335E+00 3.2294397E+00
  0.000E+00  1.890E+00  5.438E-01 7.0528546E+00 -5.6136224E+00 2.8787594E+00
  4.318E-02  1.878E+00  5.217E-01 7.0728770E+00 -5.4398633E+00 2.9624029E+00
  0.000E+00  1.912E+00  5.887E-01 6.9582987E+00 -5.7505703E+00 2.5952337E+00
  4.318E-02  1.901E+00  5.661E-01 7.0126141E+00 -5.5829894E+00 2.6898076E+00
  0.000E+00  1.931E+00  6.347E-01 6.7828918E+00 -5.8687151E+00 2.3002436E+00
  4.318E-02  1.921E+00  6.116E-01 6.8759705E+00 -5.7077628E+00 2.4047923E+00
  0.000E+00  1.948E+00  6.815E-01 6.6715885E+00 -5.9761751E+00 2.0054528E+00
  4.318E-02  1.940E+00  6.580E-01 6.7138117E+00 -5.8175108E+00 2.1137982E+00
  0.000E+00  1.963E+00  7.292E-01 6.5889997E+00 -6.0737433E+00 1.7119896E+00
  4.318E-02  1.956E+00  7.052E-01 6.6316264E+00 -5.9190429E+00 1.8260159E+00
  0.000E+00  1.975E+00  7.775E-01 6.4818298E+00 -6.1530036E+00 1.4094413E+00
  4.318E-02  1.969E+00  7.532E-01 6.5378545E+00 -6.0067414E+00 1.5343344E+00
  0.000E+00  1.985E+00  8.264E-01 6.3723666E+00 -6.2127389E+00 1.0971874E+00
  4.318E-02  1.980E+00  8.019E-01 6.4262102E+00 -6.0745018E+00 1.2316949E+00
  0.000E+00  1.992E+00  8.757E-01 6.2869583E+00 -6.2571225E+00 7.8207188E-01
  4.318E-02  1.989E+00  8.510E-01 6.3247184E+00 -6.1252371E+00 9.2281834E-01
  0.000E+00  1.997E+00  9.253E-01 6.2325797E+00 -6.2879071E+00 4.6841221E-01
  4.318E-02  1.995E+00  9.004E-01 6.2542288E+00 -6.1621418E+00 6.1385280E-01
  0.000E+00  2.000E+00  9.751E-01 6.2069837E+00 -6.3039306E+00 1.5602088E-01
  4.318E-02  1.999E+00  9.502E-01 6.2167300E+00 -6.1853188E+00 3.0653932E-01
  0.000E+00  2.000E+00  1.025E+00 6.2069835E+00 -6.3039282E+00 -1.5602066E-01
  4.318E-02  2.000E+00  1.000E+00 6.2054393E+00 -6.1933124E+00 -1.5217231E-07
  0.000E+00  1.997E+00  1.075E+00 6.2325792E+00 -6.2878994E+00 -4.6841202E-01
  4.318E-02  1.999E+00  1.050E+00 6.2167295E+00 -6.1853139E+00 -3.0653962E-01
  0.000E+00  1.992E+00  1.124E+00 6.2869574E+00 -6.2571106E+00 -7.8207177E-01
  4.318E-02  1.995E+00  1.100E+00 6.2542278E+00 -6.1621313E+00 -6.1385310E-01
  0.000E+00  1.985E+00  1.174E+00 6.3723653E+00 -6.2127308E+00 -1.0971873E+00
  4.318E-02  1.989E+00  1.149E+00 6.3247169E+00 -6.1252255E+00 -9.2281866E-01
  0.000E+00  1.975E+00  1.223E+00 6.4818280E+00 -6.1530097E+00 -1.4094413E+00
  4.318E-02  1.980E+00  1.198E+00 6.4262083E+00 -6.0745003E+00 -1.2316953E+00
  0.000E+00  1.963E+00  1.271E+00 6.5889974E+00 -6.0737483E+00 -1.7119896E+00
  4.318E-02  1.969E+00  1.247E+00 6.5378522E+00 -6.0067505E+00 -1.5343348E+00
  0.000E+00  1.948E+00  1.318E+00 6.6715858E+00 -5.9761483E+00 -2.0054528E+00
  4.318E-02  1.956E+00  1.295E+00 6.6316237E+00 -5.9190338E+00 -1.8260163E+00
  0.000E+00  1.931E+00  1.365E+00 6.7828888E+00 -5.8686914E+00 -2.3002436E+00
  4.318E-02  1.940E+00  1.342E+00 6.7138087E+00 -5.8174760E+00 -2.1137986E+00
  0.000E+00  1.912E+00  1.411E+00 6.9582947E+00 -5.7505857E+00 -2.5952337E+00
  4.318E-02  1.921E+00  1.388E+00 6.8759674E+00 -5.7077635E+00 -2.4047931E+00
  0.000E+00  1.890E+00  1.456E+00 7.0528509E+00 -5.6136047E+00 -2.8787596E+00
  4.318E-02  1.901E+00  1.434E+00 7.0126105E+00 -5.5829963E+00 -2.6898082E+00
  0.000E+00  1.866E+00  1.500E+00 7.1355245E+00 -5.4613298E+00 -3.1526516E+00
  4.318E-02  1.878E+00  1.478E+00 7.0728730E+00 -5.4398280E+00 -2.9624032E+00
  0.000E+00  1.840E+00  1.543E+00 7.2839000E+00 -5.2984776E+00 -3.4220529E+00
  4.318E-02  1.853E+00  1.521E+00 7.2352058E+00 -5.2853318E+00 -3.2294407E+00
  0.000E+00  1.812E+00  1.584E+00 7.3118380E+00 -5.1212764E+00 -3.6820325E+00
  4.318E-02  1.826E+00  1.563E+00 7.2845577E+00 -5.1185879E+00 -3.4899014E+00
  0.000E+00  1.782E+00  1.623E+00 7.4075178E+00 -4.9311218E+00 -3.9323879E+00
  4.318E-02  1.797E+00  1.604E+00 7.3754796E+00 -4.9378050E+00 -3.7402294E+00
  0.000E+00  1.750E+00  1.662E+00 7.4221130E+00 -4.7291418E+00 -4.1735029E+00
  4.318E-02  1.766E+00  1.643E+00 7.4312660E+00 -4.7453345E+00 -3.9817871E+00
  0.000E+00  1.716E+00  1.698E+00 7.4684833E+00 -4.5151119E+00 -4.4039179E+00
  4.318E-02  1.733E+00  1.680E+00 7.4353959E+00 -4.5409464E+00 -4.2133951E+00
  0.000E+00  1.680E+00  1.733E+00 7.4355886E+00 -4.2900579E+00 -4.6235641E+00
  4.318E-02  1.698E+00  1.716E+00 7.4682862E+00 -4.3252299E+00 -4.4344288E+00
  0.000E+00  1.643E+00  1.766E+00 7.4314560E+00 -4.0542336E+00 -4.8316640E+00
  4.318E-02  1.662E+00  1.750E+00 7.4219138E+00 -4.0989287E+00 -4.6446342E+00
  0.000E+00  1.604E+00  1.797E+00 7.3756666E+00 -3.8082813E+00 -5.0276436E+00
  4.318E-02  1.623E+00  1.782E+00 7.4073146E+00 -3.8621229E+00 -4.8430025E+00
  0.000E+00  1.563E+00  1.826E+00 7.2847415E+00 -3.5533964E+00 -5.2117087E+00
  4.318E-02  1.584E+00  1.812E+00 7.3116328E+00 -3.6162381E+00 -5.0297660E+00
  0.000E+00  1.521E+00  1.853E+00 7.2353908E+00 -3.2881983E+00 -5.3814860E+00
  4.318E-02  1.543E+00  1.840E+00 7.2836895E+00 -3.3609028E+00 -5.2037865E+00
  0.000E+00  1.478E+00  1.878E+00 7.0730529E+00 -3.0163015E+00 -5.5388085E+00
  4.318E-02  1.500E+00  1.866E+00 7.1353140E+00 -3.0963152E+00 -5.3637462E+00
  0.000E+00  1.434E+00  1.901E+00 7.0127876E+00 -2.7387460E+00 -5.6845585E+00
  4.318E-02  1.456E+00  1.890E+00 7.0526373E+00 -2.8273169E+00 -5.5132943E+00
  0.000E+00  1.388E+00  1.921E+00 6.8761399E+00 -2.4485422E+00 -5.8116003E+00
  4.318E-02  1.411E+00  1.912E+00 6.9580793E+00 -2.5488567E+00 -5.6478103E+00
  0.000E+00  1.342E+00  1.940E+00 6.7139790E+00 -2.1522528E+00 -5.9233278E+00
  4.318E-02  1.365E+00  1.931E+00 6.7826738E+00 -2.2591388E+00 -5.7638277E+00
  0.000E+00  1.295E+00  1.956E+00 6.6317966E+00 -1.8592329E+00 -6.0267184E+00
  4.318E-02  1.318E+00  1.948E+00 6.6713674E+00 -1.9696175E+00 -5.8693680E+00
  0.000E+00  1.247E+00  1.969E+00 6.5380254E+00 -1.5622431E+00 -6.1160181E+00
  4.318E-02  1.271E+00  1.963E+00 6.5887725E+00 -1.6813967E+00 -5.9652039E+00
  0.000E+00  1.198E+00  1.980E+00 6.4263799E+00 -1.2540969E+00 -6.1850069E+00
  4.318E-02  1.223E+00  1.975E+00 6.4816000E+00 -1.3842522E+00 -6.0430468E+00
  0.000E+00  1.149E+00  1.989E+00 6.3248864E+00 -9.3960256E-01 -6.2366642E+00
  4.318E-02  1.174E+00  1.985E+00 6.3721380E+00 -1.0775757E+00 -6.1017117E+00
  0.000E+00  1.100E+00  1.995E+00 6.2543948E+00 -6.2501687E-01 -6.2742415E+00
  4.318E-02  1.124E+00  1.992E+00 6.2867317E+00 -7.6809070E-01 -6.1453046E+00
  0.000E+00  1.050E+00  1.999E+00 6.2168932E+00 -3.1211118E-01 -6.2978378E+00
  4.318E-02  1.075E+00  1.997E+00 6.2323526E+00 -4.6003509E-01 -6.1755387E+00
  0.000E+00  1.000E+00  2.000E+00 6.2056020E+00 7.7441389E-06 -6.3059771E+00
  4.318E-02  1.025E+00  2.000E+00 6.2067554E+00 -1.5322519E-01 -6.1912738E+00
  0.000E+00  9.502E-01  1.999E+00 6.2168933E+00 3.1212751E-01 -6.2978378E+00
  4.318E-02  9.751E-01  2.000E+00 6.2067554E+00 1.5324142E-01 -6.1912738E+00
  0.000E+00  9.004E-01  1.995E+00 6.2543949E+00 6.2503265E-01 -6.2742415E+00
  4.318E-02  9.253E-01  1.997E+00 6.2323527E+00 4.6005181E-01 -6.1755387E+00
  0.000E+00  8.510E-01  1.989E+00 6.3248866E+00 9.3961827E-01 -6.2366643E+00
  4.318E-02  8.757E-01  1.992E+00 6.2867319E+00 7.6810654E-01 -6.1453047E+00
  0.000E+00  8.019E-01  1.980E+00 6.4263802E+00 1.2541129E+00 -6.1850070E+00
  4.318E-02  8.264E-01  1.985E+00 6.3721383E+00 1.0775922E+00 -6.1017117E+00
  0.000E+00  7.532E-01  1.969E+00 6.5380258E+00 1.5622585E+00 -6.1160183E+00
  4.318E-02  7.775E-01  1.975E+00 6.4816003E+00 1.3842682E+00 -6.0430468E+00
  0.000E+00  7.052E-01  1.956E+00 6.6317970E+00 1.8592485E+00 -6.0267186E+00
  4.318E-02  7.292E-01  1.963E+00 6.5887729E+00 1.6814127E+00 -5.9652039E+00
  0.000E+00  6.580E-01  1.940E+00 6.7139794E+00 2.1522678E+00 -5.9233279E+00
  4.318E-02  6.815E-01  1.948E+00 6.6713678E+00 1.9696331E+00 -5.8693679E+00
  0.000E+00  6.116E-01  1.921E+00 6.8761405E+00 2.4485581E+00 -5.8116006E+00
  4.318E-02  6.347E-01  1.931E+00 6.7826743E+00 2.2591549E+00 -5.7638277E+00
  0.000E+00  5.661E-01  1.901E+00 7.0127882E+00 2.7387596E+00 -5.6845586E+00
  4.318E-02  5.887E-01  1.912E+00 6.9580797E+00 2.5488718E+00 -5.6478099E+00
  0.000E+00  5.217E-01  1.878E+00 7.0730536E+00 3.0163168E+00 -5.5388087E+00
  4.318E-02  5.438E-01  1.890E+00 7.0526380E+00 2.8273313E+00 -5.5132942E+00
  0.000E+00  4.786E-01  1.853E+00 7.2353915E+00 3.2882121E+00 -5.3814861E+00
  4.318E-02  5.000E-01  1.866E+00 7.1353147E+00 3.0963308E+00 -5.3637460E+00
  0.000E+00  4.367E-01  1.826E+00 7.2847422E+00 3.5534113E+00 -5.2117088E+00
  4.318E-02  4.575E-01  1.840E+00 7.2836902E+00 3.3609169E+00 -5.2037862E+00
  0.000E+00  3.962E-01  1.797E+00 7.3756674E+00 3.8082940E+00 -5.0276436E+00
  4.318E-02  4.163E-01  1.812E+00 7.3116336E+00 3.6162530E+00 -5.0297657E+00
  0.000E+00  3.572E-01  1.766E+00 7.4314568E+00 4.0542477E+00 -4.8316640E+00
  4.318E-02  3.765E-01  1.782E+00 7.4073154E+00 3.8621355E+00 -4.8430021E+00
  0.000E+00  3.198E-01  1.733E+00 7.4355894E+00 4.2900685E+00 -4.6235641E+00
  4.318E-02  3.383E-01  1.750E+00 7.4219147E+00 4.0989435E+00 -4.6446339E+00
  0.000E+00  2.841E-01  1.698E+00 7.4684841E+00 4.5151243E+00 -4.4039178E+00
  4.318E-02  3.018E-01  1.716E+00 7.4682870E+00 4.3252383E+00 -4.4344281E+00
  0.000E+00  2.502E-01  1.662E+00 7.4221139E+00 4.7291529E+00 -4.1735030E+00
  4.318E-02  2.669E-01  1.680E+00 7.4353967E+00 4.5409632E+00 -4.2133949E+00
  0.000E+00  2.182E-01  1.623E+00 7.4075186E+00 4.9311282E+00 -3.9323876E+00
  4.318E-02  2.340E-01  1.643E+00 7.4312668E+00 4.7453383E+00 -3.9817865E+00
  0.000E+00  1.881E-01  1.584E+00 7.3118388E+00 5.1212974E+00 -3.6820329E+00
  4.318E-02  2.029E-01  1.604E+00 7.3754804E+00 4.9378227E+00 -3.7402290E+00
  0.000E+00  1.600E-01  1.543E+00 7.2839007E+00 5.2984704E+00 -3.4220526E+00
  4.318E-02  1.738E-01  1.563E+00 7.2845585E+00 5.1185952E+00 -3.4899011E+00
  0.000E+00  1.340E-01  1.500E+00 7.1355252E+00 5.4613558E+00 -3.1526519E+00
  4.318E-02  1.467E-01  1.521E+00 7.2352065E+00 5.2853335E+00 -3.2294400E+00
  0.000E+00  1.101E-01  1.456E+00 7.0528517E+00 5.6136224E+00 -2.8787598E+00
  4.318E-02  1.218E-01  1.478E+00 7.0728738E+00 5.4398633E+00 -2.9624033E+00
  0.000E+00  8.849E-02  1.411E+00 6.9582958E+00 5.7505699E+00 -2.5952339E+00
  4.318E-02  9.903E-02  1.434E+00 7.0126112E+00 5.5829894E+00 -2.6898079E+00
  0.000E+00  6.913E-02  1.365E+00 6.7828894E+00 5.8687150E+00 -2.3002440E+00
  4.318E-02  7.852E-02  1.388E+00 6.8759679E+00 5.7077628E+00 -2.4047927E+00
  0.000E+00  5.207E-02  1.318E+00 6.6715864E+00 5.9761750E+00 -2.0054532E+00
  4.318E-02  6.031E-02  1.342E+00 6.7138093E+00 5.8175108E+00 -2.1137986E+00
  0.000E+00  3.738E-02  1.271E+00 6.5889979E+00 6.0737432E+00 -1.7119900E+00
  4.318E-02  4.443E-02  1.295E+00 6.6316243E+00 5.9190428E+00 -1.8260163E+00
  0.000E+00  2.507E-02  1.223E+00 6.4818284E+00 6.1530035E+00 -1.4094418E+00
  4.318E-02  3.092E-02  1.247E+00 6.5378526E+00 6.0067413E+00 -1.5343348E+00
  0.000E+00  1.519E-02  1.174E+00 6.3723655E+00 6.2127389E+00 -1.0971879E+00
  4.318E-02  1.983E-02  1.198E+00 6.4262086E+00 6.0745017E+00 -1.2316954E+00
  0.000E+00  7.761E-03  1.124E+00 6.2869576E+00 6.2571224E+00 -7.8207241E-01
  4.318E-02  1.117E-02  1.149E+00 6.3247171E+00 6.1252369E+00 -9.2281884E-01
  0.000E+00  2.796E-03  1.075E+00 6.2325793E+00 6.2879070E+00 -4.6841272E-01
  4.318E-02  4.969E-03  1.100E+00 6.2542280E+00 6.1621416E+00 -6.1385334E-01
  0.000E+00  3.108E-04  1.025E+00 6.2069835E+00 6.3039304E+00 -1.5602139E-01
  4.318E-02  1.243E-03  1.050E+00 6.2167295E+00 6.1853186E+00 -3.0653990E-01
  0.000E+00  3.108E-04  9.751E-01 6.2069836E+00 6.3039279E+00 1.5602014E-01
  4.318E-02  0.000E+00  1.000E+00 6.2054392E+00 6.1933122E+00 -4.5419024E-07
  0.000E+00  2.796E-03  9.253E-01 6.2325795E+00 6.2878990E+00 4.6841145E-01
  4.318E-02  1.243E-03  9.502E-01 6.2167299E+00 6.1853137E+00 3.0653900E-01
  0.000E+00  7.761E-03  8.757E-01 6.2869580E+00 6.2571101E+00 7.8207115E-01
  4.318E-02  4.969E-03  9.004E-01 6.2542286E+00 6.1621311E+00 6.1385249E-01
  0.000E+00  1.519E-02  8.264E-01 6.3723662E+00 6.2127304E+00 1.0971867E+00
  4.318E-02  1.117E-02  8.510E-01 6.3247181E+00 6.1252253E+00 9.2281806E-01
  0.000E+00  2.507E-02  7.775E-01 6.4818293E+00 6.1530093E+00 1.4094407E+00
  4.318E-02  1.983E-02  8.019E-01 6.4262097E+00 6.0745000E+00 1.2316947E+00
  0.000E+00  3.738E-02  7.292E-01 6.5889991E+00 6.0737480E+00 1.7119889E+00
  4.318E-02  3.092E-02  7.532E-01 6.5378539E+00 6.0067501E+00 1.5343341E+00
  0.000E+00  5.207E-02  6.815E-01 6.6715878E+00 5.9761479E+00 2.0054521E+00
  4.318E-02  4.443E-02  7.052E-01 6.6316257E+00 5.9190334E+00 1.8260157E+00
  0.000E+00  6.913E-02  6.347E-01 6.7828912E+00 5.8686909E+00 2.3002430E+00
  4.318E-02  6.031E-02  6.580E-01 6.7138110E+00 5.8174755E+00 2.1137980E+00
  0.000E+00  8.849E-02  5.887E-01 6.9582974E+00 5.7505856E+00 2.5952332E+00
  4.318E-02  7.852E-02  6.116E-01 6.8759700E+00 5.7077629E+00 2.4047924E+00
  0.000E+00  1.101E-01  5.438E-01 7.0528537E+00 5.6136042E+00 2.8787590E+00
  4.318E-02  9.903E-02  5.661E-01 7.0126134E+00 5.5829958E+00 2.6898076E+00
  0.000E+00  1.340E-01  5.000E-01 7.1355275E+00 5.4613294E+00 3.1526510E+00
  4.318E-02  1.218E-01  5.217E-01 7.0728762E+00 5.4398274E+00 2.9624026E+00
  0.000E+00  1.600E-01  4.575E-01 7.2839031E+00 5.2984772E+00 3.4220523E+00
  4.318E-02  1.467E-01  4.786E-01 7.2352092E+00 5.2853312E+00 3.2294401E+00
  0.000E+00  1.881E-01  4.163E-01 7.3118412E+00 5.1212759E+00 3.6820319E+00
  4.318E-02  1.738E-01  4.367E-01 7.2845614E+00 5.1185873E+00 3.4899007E+00
  0.000E+00  2.182E-01  3.765E-01 7.4075212E+00 4.9311212E+00 3.9323873E+00
  4.318E-02  2.029E-01  3.962E-01 7.3754835E+00 4.9378044E+00 3.7402287E+00
  0.000E+00  2.502E-01  3.383E-01 7.4221166E+00 4.7291411E+00 4.1735023E+00
  4.318E-02  2.340E-01  3.572E-01 7.4312701E+00 4.7453340E+00 3.9817865E+00
  0.000E+00  2.841E-01  3.018E-01 7.4684871E+00 4.5151113E+00 4.4039173E+00
  4.318E-02  2.669E-01  3.198E-01 7.4354001E+00 4.5409459E+00 4.2133945E+00
  0.000E+00  3.198E-01  2.669E-01 7.4355928E+00 4.2900576E+00 4.6235636E+00
  4.318E-02  3.018E-01  2.841E-01 7.4682904E+00 4.3252293E+00 4.4344281E+00
  0.000E+00  3.572E-01  2.340E-01 7.4314610E+00 4.0542338E+00 4.8316637E+00
  4.318E-02  3.383E-01  2.502E-01 7.4219177E+00 4.0989278E+00 4.6446334E+00
  0.000E+00  3.962E-01  2.029E-01 7.3756715E+00 3.8082811E+00 5.0276432E+00
  4.318E-02  3.765E-01  2.182E-01 7.4073182E+00 3.8621218E+00 4.8430018E+00
  0.000E+00  4.367E-01  1.738E-01 7.2847450E+00 3.5533950E+00 5.2117080E+00
  4.318E-02  4.163E-01  1.881E-01 7.3116370E+00 3.6162375E+00 5.0297655E+00
  0.000E+00  4.786E-01  1.467E-01 7.2353922E+00 3.2881959E+00 5.3814850E+00
  4.318E-02  4.575E-01  1.600E-01 7.2836952E+00 3.3609030E+00 5.2037863E+00
  0.000E+00  5.217E-01  1.218E-01 7.0730553E+00 3.0162994E+00 5.5388075E+00
  4.318E-02  5.000E-01  1.340E-01 7.1353206E+00 3.0963159E+00 5.3637459E+00
  0.000E+00  5.661E-01  9.903E-02 7.0127945E+00 2.7387452E+00 5.6845578E+00
  4.318E-02  5.438E-01  1.101E-01 7.0526421E+00 2.8273175E+00 5.5132939E+00
  0.000E+00  6.116E-01  7.852E-02 6.8761509E+00 2.4485436E+00 5.8116003E+00
  4.318E-02  5.887E-01  8.849E-02 6.9580808E+00 2.5488560E+00 5.6478094E+00
  0.000E+00  6.580E-01  6.031E-02 6.7139883E+00 2.1522574E+00 5.9233290E+00
  4.318E-02  6.347E-01  6.913E-02 6.7826746E+00 2.2591360E+00 5.7638268E+00
  0.000E+00  7.052E-01  4.443E-02 6.6318001E+00 1.8592403E+00 6.0267211E+00
  4.318E-02  6.815E-01  5.207E-02 6.6713710E+00 1.9696120E+00 5.8693662E+00
  0.000E+00  7.532E-01  3.092E-02 6.5380244E+00 1.5622502E+00 6.1160221E+00
  4.318E-02  7.292E-01  3.738E-02 6.5887794E+00 1.6813904E+00 5.9652012E+00
  0.000E+00  8.019E-01  1.983E-02 6.4263788E+00 1.2541002E+00 6.1850113E+00
  4.318E-02  7.775E-01  2.507E-02 6.4816080E+00 1.3842478E+00 6.0430433E+00
  0.000E+00  8.510E-01  1.117E-02 6.3248884E+00 9.3960149E-01 6.2366682E+00
  4.318E-02  8.264E-01  1.519E-02 6.3721446E+00 1.0775745E+00 6.1017083E+00
  0.000E+00  9.004E-01  4.969E-03 6.2544001E+00 6.2501349E-01 6.2742449E+00
  4.318E-02  8.757E-01  7.761E-03 6.2867364E+00 7.6809196E-01 6.1453016E+00
  4.318E-02  9.253E-01  2.796E-03 6.2323559E+00 4.6003676E-01 6.1755362E+00
  1.000E+01  1.050E+00  1.243E-03 6.2169006E+00 -3.1212555E-01 6.2978408E+00
  1.000E+01  1.000E+00  5.551E-16 6.2056100E+00 -8.1733680E-06 6.3059799E+00
  9.957E+00  1.025E+00  3.108E-04 6.2072626E+00 -1.5883081E-01 6.4171174E+00
  1.000E+01  9.502E-01  1.243E-03 6.2169005E+00 3.1210836E-01 6.2978407E+00
  9.957E+00  9.751E-01  3.108E-04 6.2072626E+00 1.5881453E-01 6.4171174E+00
  1.000E+01  9.004E-01  4.969E-03 6.2544001E+00 6.2501349E-01 6.2742449E+00
  9.957E+00  9.253E-01  2.796E-03 6.2328605E+00 4.7681641E-01 6.4008081E+00
  1.000E+01  8.510E-01  1.117E-02 6.3248884E+00 9.3960149E-01 6.2366682E+00
  9.957E+00  8.757E-01  7.761E-03 6.2872415E+00 7.9611052E-01 6.3694706E+00
  1.000E+01  8.019E-01  1.983E-02 6.4263788E+00 1.2541002E+00 6.1850113E+00
  9.957E+00  8.264E-01  1.519E-02 6.3726514E+00 1.1168840E+00 6.3242873E+00
  1.000E+01  7.532E-01  3.092E-02 6.5380244E+00 1.5622502E+00 6.1160221E+00
  9.957E+00  7.775E-01  2.507E-02 6.4821162E+00 1.4347437E+00 6.2634823E+00
  1.000E+01  7.052E-01  4.443E-02 6.6318001E+00 1.8592403E+00 6.0267211E+00
  9.957E+00  7.292E-01  3.738E-02 6.5892870E+00 1.7427252E+00 6.1827997E+00
  1.000E+01  6.580E-01  6.031E-02 6.7139883E+00 2.1522574E+00 5.9233290E+00
  9.957E+00  6.815E-01  5.207E-02 6.6718752E+00 2.0414613E+00 6.0834683E+00
  1.000E+01  6.116E-01  7.852E-02 6.8761509E+00 2.4485436E+00 5.8116003E+00
  9.957E+00  6.347E-01  6.913E-02 6.7831788E+00 2.3415475E+00 5.9740808E+00
  1.000E+01  5.661E-01  9.903E-02 7.0127945E+00 2.7387452E+00 5.6845578E+00
  9.957E+00  5.887E-01  8.849E-02 6.9585902E+00 2.6418349E+00 5.8538312E+00
  1.000E+01  5.217E-01  1.218E-01 7.0730553E+00 3.0162994E+00 5.5388075E+00
  9.957E+00  5.438E-01  1.101E-01 7.0531496E+00 2.9304540E+00 5.7144075E+00
  1.000E+01  4.786E-01  1.467E-01 7.2353922E+00 3.2881959E+00 5.3814850E+00
  9.957E+00  5.000E-01  1.340E-01 7.1358267E+00 3.2092661E+00 5.5594054E+00
  1.000E+01  4.367E-01  1.738E-01 7.2847450E+00 3.5533950E+00 5.2117080E+00
  9.957E+00  4.575E-01  1.600E-01 7.2842068E+00 3.4835056E+00 5.3936102E+00
  1.000E+01  3.962E-01  2.029E-01 7.3756715E+00 3.8082811E+00 5.0276432E+00
  9.957E+00  4.163E-01  1.881E-01 7.3121440E+00 3.7481537E+00 5.2132415E+00
  1.000E+01  3.572E-01  2.340E-01 7.4314610E+00 4.0542338E+00 4.8316637E+00
  9.957E+00  3.765E-01  2.182E-01 7.4078288E+00 4.0030053E+00 5.0196663E+00
  1.000E+01  3.198E-01  2.669E-01 7.4355928E+00 4.2900576E+00 4.6235636E+00
  9.957E+00  3.383E-01  2.502E-01 7.4224264E+00 4.2484502E+00 4.8140622E+00
  1.000E+01  2.841E-01  3.018E-01 7.4684871E+00 4.5151113E+00 4.4039173E+00
  9.957E+00  3.018E-01  2.841E-01 7.4688017E+00 4.4830051E+00 4.5961895E+00
  1.000E+01  2.502E-01  3.383E-01 7.4221166E+00 4.7291411E+00 4.1735023E+00
  9.957E+00  2.669E-01  3.198E-01 7.4359094E+00 4.7065920E+00 4.3670932E+00
  1.000E+01  2.182E-01  3.765E-01 7.4075212E+00 4.9311212E+00 3.9323873E+00
  9.957E+00  2.340E-01  3.572E-01 7.4317813E+00 4.9184344E+00 4.1270358E+00
  1.000E+01  1.881E-01  4.163E-01 7.3118412E+00 5.1212759E+00 3.6820319E+00
  9.957E+00  2.029E-01  3.962E-01 7.3759950E+00 5.1179285E+00 3.8766670E+00
  1.000E+01  1.600E-01  4.575E-01 7.2839031E+00 5.2984772E+00 3.4220523E+00
  9.957E+00  1.738E-01  4.367E-01 7.2850701E+00 5.3053039E+00 3.6172052E+00
  1.000E+01  1.340E-01  5.000E-01 7.1355275E+00 5.4613294E+00 3.1526510E+00
  9.957E+00  1.467E-01  4.786E-01 7.2357219E+00 5.4781328E+00 3.3472441E+00
  1.000E+01  1.101E-01  5.438E-01 7.0528537E+00 5.6136042E+00 2.8787590E+00
  9.957E+00  1.218E-01  5.217E-01 7.0733831E+00 5.6382629E+00 3.0704666E+00
  1.000E+01  8.849E-02  5.887E-01 6.9582974E+00 5.7505856E+00 2.5952332E+00
  9.957E+00  9.903E-02  5.661E-01 7.0131253E+00 5.7866529E+00 2.7879278E+00
  1.000E+01  6.913E-02  6.347E-01 6.7828912E+00 5.8686909E+00 2.3002430E+00
  9.957E+00  7.852E-02  6.116E-01 6.8764803E+00 5.9159731E+00 2.4925147E+00
  1.000E+01  5.207E-02  6.815E-01 6.6715878E+00 5.9761479E+00 2.0054521E+00
  9.957E+00  6.031E-02  6.580E-01 6.7143174E+00 6.0296868E+00 2.1909067E+00
  1.000E+01  3.738E-02  7.292E-01 6.5889991E+00 6.0737480E+00 1.7119889E+00
  9.957E+00  4.443E-02  7.052E-01 6.6321358E+00 6.1349483E+00 1.8926276E+00
  1.000E+01  2.507E-02  7.775E-01 6.4818293E+00 6.1530093E+00 1.4094407E+00
  9.957E+00  3.092E-02  7.532E-01 6.5383656E+00 6.2258653E+00 1.5903050E+00
  1.000E+01  1.519E-02  8.264E-01 6.3723662E+00 6.2127304E+00 1.0971867E+00
  9.957E+00  1.983E-02  8.019E-01 6.4267199E+00 6.2960871E+00 1.2766229E+00
  1.000E+01  7.761E-03  8.757E-01 6.2869580E+00 6.2571101E+00 7.8207115E-01
  9.957E+00  1.117E-02  8.510E-01 6.3252266E+00 6.3486627E+00 9.5647904E-01
  1.000E+01  2.796E-03  9.253E-01 6.2325795E+00 6.2878990E+00 4.6841145E-01
  9.957E+00  4.969E-03  9.004E-01 6.2547368E+00 6.3869148E+00 6.3624474E-01
  1.000E+01  3.108E-04  9.751E-01 6.2069836E+00 6.3039279E+00 1.5602014E-01
  9.957E+00  1.243E-03  9.502E-01 6.2172373E+00 6.4109412E+00 3.1772233E-01
  1.000E+01  3.108E-04  1.025E+00 6.2069835E+00 6.3039304E+00 -1.5602139E-01
  9.957E+00  0.000E+00  1.000E+00 6.2059481E+00 6.4192333E+00 -9.0043051E-07
  1.000E+01  2.796E-03  1.075E+00 6.2325793E+00 6.2879070E+00 -4.6841272E-01
  9.957E+00  1.243E-03  1.050E+00 6.2172370E+00 6.4109462E+00 -3.1772412E-01
  1.000E+01  7.761E-03  1.124E+00 6.2869576E+00 6.2571224E+00 -7.8207241E-01
  9.957E+00  4.969E-03  1.100E+00 6.2547362E+00 6.3869255E+00 -6.3624647E-01
  1.000E+01  1.519E-02  1.174E+00 6.3723655E+00 6.2127389E+00 -1.0971879E+00
  9.957E+00  1.117E-02  1.149E+00 6.3252257E+00 6.3486745E+00 -9.5648069E-01
  1.000E+01  2.507E-02  1.223E+00 6.4818284E+00 6.1530035E+00 -1.4094418E+00
  9.957E+00  1.983E-02  1.198E+00 6.4267188E+00 6.2960884E+00 -1.2766245E+00
  1.000E+01  3.738E-02  1.271E+00 6.5889979E+00 6.0737432E+00 -1.7119900E+00
  9.957E+00  3.092E-02  1.247E+00 6.5383643E+00 6.2258557E+00 -1.5903065E+00
  1.000E+01  5.207E-02  1.318E+00 6.6715864E+00 5.9761750E+00 -2.0054532E+00
  9.957E+00  4.443E-02  1.295E+00 6.6321344E+00 6.1349575E+00 -1.8926291E+00
  1.000E+01  6.913E-02  1.365E+00 6.7828894E+00 5.8687150E+00 -2.3002440E+00
  9.957E+00  6.031E-02  1.342E+00 6.7143157E+00 6.0297227E+00 -2.1909083E+00
  1.000E+01  8.849E-02  1.411E+00 6.9582958E+00 5.7505699E+00 -2.5952339E+00
  9.957E+00  7.852E-02  1.388E+00 6.8764785E+00 5.9159725E+00 -2.4925161E+00
  1.000E+01  1.101E-01  1.456E+00 7.0528517E+00 5.6136224E+00 -2.8787598E+00
  9.957E+00  9.903E-02  1.434E+00 7.0131233E+00 5.7866457E+00 -2.7879288E+00
  1.000E+01  1.340E-01  1.500E+00 7.1355252E+00 5.4613558E+00 -3.1526519E+00
  9.957E+00  1.218E-01  1.478E+00 7.0733808E+00 5.6382993E+00 -3.0704681E+00
  1.000E+01  1.600E-01  1.543E+00 7.2839007E+00 5.2984704E+00 -3.4220526E+00
  9.957E+00  1.467E-01  1.521E+00 7.2357193E+00 5.4781342E+00 -3.3472448E+00
  1.000E+01  1.881E-01  1.584E+00 7.3118388E+00 5.1212974E+00 -3.6820329E+00
  9.957E+00  1.738E-01  1.563E+00 7.2850672E+00 5.3053110E+00 -3.6172063E+00
  1.000E+01  2.182E-01  1.623E+00 7.4075186E+00 4.9311282E+00 -3.9323876E+00
  9.957E+00  2.029E-01  1.604E+00 7.3759920E+00 5.1179464E+00 -3.8766680E+00
  1.000E+01  2.502E-01  1.662E+00 7.4221139E+00 4.7291529E+00 -4.1735030E+00
  9.957E+00  2.340E-01  1.643E+00 7.4317781E+00 4.9184378E+00 -4.1270365E+00
  1.000E+01  2.841E-01  1.698E+00 7.4684841E+00 4.5151243E+00 -4.4039178E+00
  9.957E+00  2.669E-01  1.680E+00 7.4359061E+00 4.7066087E+00 -4.3670944E+00
  1.000E+01  3.198E-01  1.733E+00 7.4355894E+00 4.2900685E+00 -4.6235641E+00
  9.957E+00  3.018E-01  1.716E+00 7.4687984E+00 4.4830133E+00 -4.5961902E+00
  1.000E+01  3.572E-01  1.766E+00 7.4314568E+00 4.0542477E+00 -4.8316640E+00
  9.957E+00  3.383E-01  1.750E+00 7.4224234E+00 4.2484653E+00 -4.8140634E+00
  1.000E+01  3.962E-01  1.797E+00 7.3756674E+00 3.8082940E+00 -5.0276436E+00
  9.957E+00  3.765E-01  1.782E+00 7.4078259E+00 4.0030182E+00 -5.0196673E+00
  1.000E+01  4.367E-01  1.826E+00 7.2847422E+00 3.5534113E+00 -5.2117088E+00
  9.957E+00  4.163E-01  1.812E+00 7.3121404E+00 3.7481682E+00 -5.2132425E+00
  1.000E+01  4.786E-01  1.853E+00 7.2353915E+00 3.2882121E+00 -5.3814861E+00
  9.957E+00  4.575E-01  1.840E+00 7.2842018E+00 3.4835184E+00 -5.3936109E+00
  1.000E+01  5.217E-01  1.878E+00 7.0730536E+00 3.0163168E+00 -5.5388087E+00
  9.957E+00  5.000E-01  1.866E+00 7.1358210E+00 3.2092804E+00 -5.5594059E+00
  1.000E+01  5.661E-01  1.901E+00 7.0127882E+00 2.7387596E+00 -5.6845586E+00
  9.957E+00  5.438E-01  1.890E+00 7.0531460E+00 2.9304680E+00 -5.7144079E+00
  1.000E+01  6.116E-01  1.921E+00 6.8761405E+00 2.4485581E+00 -5.8116006E+00
  9.957E+00  5.887E-01  1.912E+00 6.9585896E+00 2.6418507E+00 -5.8538316E+00
  1.000E+01  6.580E-01  1.940E+00 6.7139794E+00 2.1522678E+00 -5.9233279E+00
  9.957E+00  6.347E-01  1.931E+00 6.7831794E+00 2.3415654E+00 -5.9740823E+00
  1.000E+01  7.052E-01  1.956E+00 6.6317970E+00 1.8592485E+00 -6.0267186E+00
  9.957E+00  6.815E-01  1.948E+00 6.6718728E+00 2.0414803E+00 -6.0834708E+00
  1.000E+01  7.532E-01  1.969E+00 6.5380258E+00 1.5622585E+00 -6.1160183E+00
  9.957E+00  7.292E-01  1.963E+00 6.5892804E+00 1.7427457E+00 -6.1828030E+00
  1.000E+01  8.019E-01  1.980E+00 6.4263802E+00 1.2541129E+00 -6.1850070E+00
  9.957E+00  7.775E-01  1.975E+00 6.4821074E+00 1.4347632E+00 -6.2634859E+00
  1.000E+01  8.510E-01  1.989E+00 6.3248866E+00 9.3961827E-01 -6.2366643E+00
  9.957E+00  8.264E-01  1.985E+00 6.3726437E+00 1.1169015E+00 -6.3242908E+00
  1.000E+01  9.004E-01  1.995E+00 6.2543949E+00 6.2503265E-01 -6.2742415E+00
  9.957E+00  8.757E-01  1.992E+00 6.2872362E+00 7.9612502E-01 -6.3694736E+00
  1.000E+01  9.502E-01  1.999E+00 6.2168933E+00 3.1212751E-01 -6.2978378E+00
  9.957E+00  9.253E-01  1.997E+00 6.2328574E+00 4.7683112E-01 -6.4008107E+00
  1.000E+01  1.000E+00  2.000E+00 6.2056020E+00 7.7441389E-06 -6.3059771E+00
  9.957E+00  9.751E-01  2.000E+00 6.2072606E+00 1.5882963E-01 -6.4171197E+00
  1.000E+01  1.050E+00  1.999E+00 6.2168932E+00 -3.1211118E-01 -6.2978378E+00
  9.957E+00  1.025E+00  2.000E+00 6.2072605E+00 -1.5881422E-01 -6.4171196E+00
  1.000E+01  1.100E+00  1.995E+00 6.2543948E+00 -6.2501687E-01 -6.2742415E+00
  9.957E+00  1.075E+00  1.997E+00 6.2328573E+00 -4.7681522E-01 -6.4008106E+00
  1.000E+01  1.149E+00  1.989E+00 6.3248864E+00 -9.3960256E-01 -6.2366642E+00
  9.957E+00  1.124E+00  1.992E+00 6.2872361E+00 -7.9611002E-01 -6.3694735E+00
  1.000E+01  1.198E+00  1.980E+00 6.4263799E+00 -1.2540969E+00 -6.1850069E+00
  9.957E+00  1.174E+00  1.985E+00 6.3726434E+00 -1.1168858E+00 -6.3242906E+00