# TIME = 8.300000
variables = x, y, z
zone N=5762 E=11520 F=FEPOINT ET=TRIANGLE
 6.0777498E+00 1.4665009E+00 1.7546056E+00
 6.0777498E+00 1.4665009E+00 2.4539426E-01
 6.0777498E+00 5.3349942E-01 1.7546061E+00
 6.0777499E+00 5.3349937E-01 2.4539363E-01
 4.4496323E+00 1.0000004E+00 1.7489264E+00
 7.6906061E+00 1.0000003E+00 1.7156057E+00
 4.4496318E+00 1.0000003E+00 2.5107273E-01
 7.6906060E+00 1.0000003E+00 2.8439431E-01
 5.1659286E+00 1.9036947E+00 9.9999991E-01
 5.1659287E+00 9.6305826E-02 9.9999992E-01
 6.9706584E+00 1.8725463E+00 9.9999991E-01
 6.9706586E+00 1.2745287E-01 9.9999992E-01
 6.0209623E+00 1.4567767E+00 1.7581369E+00
 5.9582413E+00 1.4459523E+00 1.7618387E+00
 5.8926160E+00 1.4346836E+00 1.7656679E+00
 5.8242531E+00 1.4230755E+00 1.7698347E+00
 5.7532392E+00 1.4112354E+00 1.7745910E+00
 5.6796839E+00 1.3992399E+00 1.7802369E+00
 5.6037588E+00 1.3871406E+00 1.7870736E+00
 5.5258128E+00 1.3749356E+00 1.7953490E+00
 5.4464114E+00 1.3625362E+00 1.8051757E+00
 5.3663185E+00 1.3497389E+00 1.8164397E+00
 5.2863635E+00 1.3362219E+00 1.8287402E+00
 5.2072641E+00 1.3215771E+00 1.8413946E+00
 5.1295230E+00 1.3053664E+00 1.8535046E+00
 5.0534379E+00 1.2871854E+00 1.8640527E+00
 4.9791879E+00 1.2667182E+00 1.8720038E+00
 4.9069400E+00 1.2437814E+00 1.8764041E+00
 4.8369383E+00 1.2183507E+00 1.8764731E+00
 4.7695514E+00 1.1905698E+00 1.8716814E+00
 4.7052631E+00 1.1607378E+00 1.8617997E+00
 4.6446049E+00 1.1292767E+00 1.8469057E+00
 4.5880977E+00 1.0967089E+00 1.8273612E+00
 4.5361842E+00 1.0636208E+00 1.8037477E+00
 4.4893362E+00 1.0307515E+00 1.7769081E+00
 6.0147332E+00 5.7596283E-01 1.7766557E+00
 5.9498768E+00 5.8873053E-01 1.7807476E+00
 5.8826952E+00 6.0141533E-01 1.7846923E+00
 5.8132056E+00 6.1421944E-01 1.7888681E+00
 5.7413046E+00 6.2723941E-01 1.7936372E+00
 5.6670534E+00 6.4047785E-01 1.7993305E+00
 5.5906447E+00 6.5393695E-01 1.8062523E+00
 5.5124648E+00 6.6765517E-01 1.8146239E+00
 5.4331285E+00 6.8175153E-01 1.8245058E+00
 5.3534272E+00 6.9644637E-01 1.8357125E+00
 5.2741763E+00 7.1205410E-01 1.8477688E+00
 5.1960472E+00 7.2894378E-01 1.8599337E+00
 5.1194889E+00 7.4748391E-01 1.8712797E+00
 5.0447585E+00 7.6798828E-01 1.8807933E+00
 4.9720129E+00 7.9067284E-01 1.8874751E+00
 4.9014101E+00 8.1562545E-01 1.8904330E+00
 4.8331843E+00 8.4278958E-01 1.8889647E+00
 4.7676722E+00 8.7196114E-01 1.8826193E+00
 4.7052779E+00 9.0279589E-01 1.8712234E+00
 4.6463693E+00 9.3482641E-01 1.8548494E+00
 4.5911371E+00 9.6748251E-01 1.8337176E+00
 4.5394330E+00 1.0000004E+00 1.8080348E+00
 6.0124650E+00 6.0956797E-01 1.7939854E+00
 5.9451685E+00 6.2421813E-01 1.7982433E+00
 5.8762703E+00 6.3835597E-01 1.8021560E+00
 5.8053916E+00 6.5248498E-01 1.8062497E+00
 5.7324144E+00 6.6680343E-01 1.8109256E+00
 5.6573231E+00 6.8140477E-01 1.8165435E+00
 5.5803086E+00 6.9633485E-01 1.8234013E+00
 5.5017823E+00 7.1166839E-01 1.8316941E+00
 5.4223969E+00 7.2754890E-01 1.8414316E+00
 5.3429612E+00 7.4420553E-01 1.8523623E+00
 5.2642735E+00 7.6193558E-01 1.8639447E+00
 5.1869619E+00 7.8106216E-01 1.8753895E+00
 5.1114279E+00 8.0188397E-01 1.8857490E+00
 5.0378919E+00 8.2463137E-01 1.8940210E+00
 4.9664868E+00 8.4943504E-01 1.8992449E+00
 4.8973463E+00 8.7630645E-01 1.9005876E+00
 4.8306580E+00 9.0512682E-01 1.8974103E+00
 4.7666480E+00 9.3564065E-01 1.8893033E+00
 4.7054887E+00 9.6744900E-01 1.8760643E+00
 4.6471531E+00 1.0000004E+00 1.8576052E+00
 4.5911370E+00 1.0325183E+00 1.8337178E+00
 6.0110445E+00 6.4473602E-01 1.8102831E+00
 5.9421100E+00 6.6085744E-01 1.8143688E+00
 5.8717163E+00 6.7640607E-01 1.8180935E+00
 5.7995930E+00 6.9187795E-01 1.8219689E+00
 5.7255726E+00 7.0756000E-01 1.8264232E+00
 5.6496534E+00 7.2358990E-01 1.8318184E+00
 5.5720309E+00 7.4005508E-01 1.8384441E+00
 5.4931514E+00 7.5705822E-01 1.8464653E+00
 5.4137009E+00 7.7476149E-01 1.8558431E+00
 5.3345010E+00 7.9339350E-01 1.8662648E+00
 5.2563301E+00 8.1322650E-01 1.8771319E+00
 5.1797757E+00 8.3453438E-01 1.8876178E+00
 5.1051959E+00 8.5754964E-01 1.8967653E+00
 5.0327743E+00 8.8242963E-01 1.9035908E+00
 4.9626081E+00 9.0923453E-01 1.9071750E+00
 4.8947744E+00 9.3791188E-01 1.9067354E+00
 4.8293426E+00 9.6827947E-01 1.9016699E+00
 4.7663138E+00 1.0000004E+00 1.8915540E+00
 4.7054886E+00 1.0325519E+00 1.8760646E+00
 4.6463692E+00 1.0651744E+00 1.8548499E+00
 6.0099647E+00 6.8153582E-01 1.8254100E+00
 5.9397652E+00 6.9891533E-01 1.8291108E+00
 5.8681680E+00 7.1575766E-01 1.8324723E+00
 5.7949728E+00 7.3254980E-01 1.8359839E+00
 5.7200476E+00 7.4959817E-01 1.8400668E+00
 5.6434086E+00 7.6707210E-01 1.8450770E+00
 5.5652822E+00 7.8508407E-01 1.8512868E+00
 5.4861495E+00 8.0375870E-01 1.8588294E+00
 5.4067262E+00 8.2326781E-01 1.8676182E+00
 5.3278392E+00 8.4383149E-01 1.8772863E+00
 5.2502434E+00 8.6569153E-01 1.8871895E+00
 5.1744856E+00 8.8907312E-01 1.8964770E+00
 5.1008804E+00 9.1414950E-01 1.9041941E+00
 5.0295669E+00 9.4101648E-01 1.9093833E+00
 4.9605799E+00 9.6967351E-01 1.9111652E+00
 4.8938841E+00 1.0000004E+00 1.9087938E+00
 4.8293425E+00 1.0317214E+00 1.9016701E+00
 4.7666479E+00 1.0643602E+00 1.8893038E+00
 4.7052777E+00 1.0972050E+00 1.8712241E+00
 6.0090411E+00 7.1998294E-01 1.8392088E+00
 5.9377799E+00 7.3846545E-01 1.8423571E+00
 5.8651846E+00 7.5650151E-01 1.8451995E+00
 5.7911057E+00 7.7455687E-01 1.8481969E+00
 5.7154517E+00 7.9293759E-01 1.8517520E+00
 5.6382695E+00 8.1182489E-01 1.8562051E+00
 5.5598186E+00 8.3134770E-01 1.8618062E+00
 5.4806129E+00 8.5164378E-01 1.8686547E+00
 5.4013890E+00 8.7288749E-01 1.8766191E+00
 5.3229694E+00 8.9528445E-01 1.8852875E+00
 5.2460791E+00 9.1904462E-01 1.8939835E+00
 5.1712208E+00 9.4434868E-01 1.9018463E+00
 5.0986593E+00 9.7131967E-01 1.9079349E+00
 5.0284694E+00 1.0000004E+00 1.9113226E+00
 4.9605799E+00 1.0303274E+00 1.9111654E+00
 4.8947744E+00 1.0620890E+00 1.9067358E+00
 4.8306579E+00 1.0948741E+00 1.8974110E+00
 4.7676720E+00 1.1280398E+00 1.8826202E+00
 6.0082073E+00 7.6000774E-01 1.8514981E+00
 5.9360348E+00 7.7947028E-01 1.8539538E+00
 5.8626179E+00 7.9860671E-01 1.8561361E+00
 5.7878492E+00 8.1785181E-01 1.8584727E+00
 5.7116715E+00 8.3749967E-01 1.8613426E+00
 5.6341626E+00 8.5773225E-01 1.8650642E+00
 5.5556119E+00 8.7868687E-01 1.8698619E+00
 5.4765585E+00 9.0050828E-01 1.8758009E+00
 5.3977473E+00 9.2336826E-01 1.8827107E+00
 5.3199843E+00 9.4745602E-01 1.8901450E+00
 5.2439562E+00 9.7295227E-01 1.8974091E+00
 5.1701147E+00 1.0000004E+00 1.9036455E+00
 5.0986593E+00 1.0286812E+00 1.9079350E+00
 5.0295668E+00 1.0589844E+00 1.9093835E+00
 4.9626081E+00 1.0907664E+00 1.9071755E+00
 4.8973462E+00 1.1236945E+00 1.9005884E+00
 4.8331842E+00 1.1572114E+00 1.8889658E+00
 6.0074616E+00 8.0147313E-01 1.8620908E+00
 5.9345242E+00 8.2180718E-01 1.8637339E+00
 5.8604666E+00 8.4194620E-01 1.8651266E+00
 5.7852137E+00 8.6229059E-01 1.8666629E+00
 5.7087366E+00 8.8311306E-01 1.8686940E+00
 5.6311394E+00 9.0458943E-01 1.8715140E+00
 5.5527342E+00 9.2685987E-01 1.8753200E+00
 5.4740732E+00 9.5007223E-01 1.8801449E+00
 5.3958954E+00 9.7439415E-01 1.8857859E+00
 5.3189770E+00 1.0000004E+00 1.8917741E+00
 5.2439562E+00 1.0270486E+00 1.8974092E+00
 5.1712207E+00 1.0556522E+00 1.9018465E+00
 5.1008803E+00 1.0858514E+00 1.9041944E+00
 5.0327742E+00 1.1175713E+00 1.9035912E+00
 4.9664867E+00 1.1505659E+00 1.8992456E+00
 4.9014100E+00 1.1843756E+00 1.8904341E+00
 6.0068255E+00 8.4419366E-01 1.8708104E+00
 5.9332865E+00 8.6528680E-01 1.8715359E+00
 5.8587828E+00 8.8631929E-01 1.8720218E+00
 5.7832635E+00 9.0765236E-01 1.8726277E+00
 5.7067225E+00 9.2953112E-01 1.8736765E+00
 5.6292828E+00 9.5212035E-01 1.8754364E+00
 5.5512697E+00 9.7556010E-01 1.8780771E+00
 5.4732348E+00 1.0000004E+00 1.8816027E+00
 5.3958954E+00 1.0256067E+00 1.8857859E+00
 5.3199843E+00 1.0525448E+00 1.8901450E+00
 5.2460790E+00 1.0809562E+00 1.8939837E+00
 5.1744855E+00 1.1109277E+00 1.8964773E+00
 5.1051958E+00 1.1424513E+00 1.8967657E+00
 5.0378918E+00 1.1753696E+00 1.8940216E+00
 4.9720128E+00 1.2093282E+00 1.8874761E+00
 6.0063240E+00 8.8794131E-01 1.8775008E+00
 5.9323666E+00 9.0966904E-01 1.8772191E+00
 5.8576241E+00 9.3146977E-01 1.8766952E+00
 5.7820640E+00 9.5366022E-01 1.8762551E+00
 5.7056966E+00 9.7645339E-01 1.8761935E+00
 5.6286562E+00 1.0000004E+00 1.8767529E+00
 5.5512697E+00 1.0244406E+00 1.8780771E+00
 5.4740731E+00 1.0499285E+00 1.8801449E+00
 5.3977472E+00 1.0766325E+00 1.8827107E+00
 5.3229693E+00 1.1047164E+00 1.8852876E+00
 5.2502433E+00 1.1343093E+00 1.8871898E+00
 5.1797756E+00 1.1654665E+00 1.8876182E+00
 5.1114278E+00 1.1981170E+00 1.8857496E+00
 5.0447584E+00 1.2320127E+00 1.8807941E+00
 6.0059781E+00 9.3245146E-01 1.8820357E+00
 5.9318001E+00 9.5467528E-01 1.8806750E+00
 5.8570335E+00 9.7710236E-01 1.8790558E+00
 5.7816591E+00 1.0000003E+00 1.8774725E+00
 5.7056965E+00 1.0235473E+00 1.8761934E+00
 5.6292827E+00 1.0478804E+00 1.8754364E+00
 5.5527341E+00 1.0731409E+00 1.8753200E+00
 5.4765584E+00 1.0994925E+00 1.8758010E+00
 5.4013889E+00 1.1271133E+00 1.8766192E+00
 5.3278390E+00 1.1561693E+00 1.8772865E+00
 5.2563300E+00 1.1867744E+00 1.8771322E+00
 5.1869617E+00 1.2189387E+00 1.8753899E+00
 5.1194888E+00 1.2525170E+00 1.8712804E+00
 6.0058017E+00 9.7743117E-01 1.8843262E+00
 5.9316088E+00 1.0000003E+00 1.8818348E+00
 5.8570335E+00 1.0228983E+00 1.8790557E+00
 5.7820640E+00 1.0463404E+00 1.8762550E+00
 5.7067224E+00 1.0704696E+00 1.8736765E+00
 5.6311394E+00 1.0954113E+00 1.8715140E+00
 5.5556118E+00 1.1213139E+00 1.8698619E+00
 5.4806128E+00 1.1483570E+00 1.8686547E+00
 5.4067260E+00 1.1767330E+00 1.8676183E+00
 5.3345009E+00 1.2066073E+00 1.8662650E+00
 5.2642734E+00 1.2380653E+00 1.8639450E+00
 5.1960471E+00 1.2710571E+00 1.8599342E+00
 6.0058017E+00 1.0225695E+00 1.8843262E+00
 5.9318000E+00 1.0453254E+00 1.8806750E+00
 5.8576240E+00 1.0685309E+00 1.8766952E+00
 5.7832635E+00 1.0923483E+00 1.8726277E+00
 5.7087366E+00 1.1168876E+00 1.8686939E+00
 5.6341625E+00 1.1422684E+00 1.8650641E+00
 5.5598184E+00 1.1686530E+00 1.8618062E+00
 5.4861493E+00 1.1962420E+00 1.8588295E+00
 5.4137008E+00 1.2252393E+00 1.8558432E+00
 5.3429611E+00 1.2557953E+00 1.8523625E+00
 5.2741761E+00 1.2879467E+00 1.8477691E+00
 6.0059781E+00 1.0675492E+00 1.8820356E+00
 5.9323666E+00 1.0903316E+00 1.8772191E+00
 5.8587828E+00 1.1136813E+00 1.8720217E+00
 5.7852136E+00 1.1377101E+00 1.8666628E+00
 5.7116713E+00 1.1625010E+00 1.8613425E+00
 5.6382694E+00 1.1881758E+00 1.8562050E+00
 5.5652821E+00 1.2149166E+00 1.8512867E+00
 5.4931512E+00 1.2429425E+00 1.8464654E+00
 5.4223967E+00 1.2724518E+00 1.8414317E+00
 5.3534270E+00 1.3035544E+00 1.8357128E+00
 6.0063240E+00 1.1120593E+00 1.8775006E+00
 5.9332865E+00 1.1347138E+00 1.8715357E+00
 5.8604666E+00 1.1580544E+00 1.8651265E+00
 5.7878491E+00 1.1821488E+00 1.8584726E+00
 5.7154516E+00 1.2070631E+00 1.8517519E+00
 5.6434084E+00 1.2329286E+00 1.8450769E+00
 5.5720307E+00 1.2599456E+00 1.8384441E+00
 5.5017821E+00 1.2883323E+00 1.8316941E+00
 5.4331283E+00 1.3182492E+00 1.8245059E+00
 6.0068254E+00 1.1558069E+00 1.8708102E+00
 5.9345241E+00 1.1781934E+00 1.8637337E+00
 5.8626178E+00 1.2013939E+00 1.8561359E+00
 5.7911056E+00 1.2254437E+00 1.8481967E+00
 5.7200475E+00 1.2504025E+00 1.8400666E+00
 5.6496532E+00 1.2764107E+00 1.8318183E+00
 5.5803084E+00 1.3036658E+00 1.8234013E+00
 5.5124646E+00 1.3323455E+00 1.8146239E+00
 6.0074616E+00 1.1985275E+00 1.8620906E+00
 5.9360348E+00 1.2205303E+00 1.8539536E+00
 5.8651845E+00 1.2434991E+00 1.8451993E+00
 5.7949727E+00 1.2674508E+00 1.8359837E+00
 5.7255725E+00 1.2924406E+00 1.8264230E+00
 5.6573230E+00 1.3185958E+00 1.8165433E+00
 5.5906445E+00 1.3460637E+00 1.8062522E+00
 6.0082072E+00 1.2399928E+00 1.8514978E+00
 5.9377799E+00 1.2615351E+00 1.8423568E+00
 5.8681679E+00 1.2842429E+00 1.8324721E+00
 5.7995929E+00 1.3081226E+00 1.8219686E+00
 5.7324142E+00 1.3331971E+00 1.8109254E+00
 5.6670533E+00 1.3595227E+00 1.7993303E+00
 6.0090410E+00 1.2800176E+00 1.8392084E+00
 5.9397651E+00 1.3010852E+00 1.8291105E+00
 5.8717163E+00 1.3235945E+00 1.8180932E+00
 5.8053915E+00 1.3475156E+00 1.8062494E+00
 5.7413045E+00 1.3727611E+00 1.7936370E+00
 6.0099647E+00 1.3184647E+00 1.8254097E+00
 5.9421100E+00 1.3391431E+00 1.8143685E+00
 5.8762702E+00 1.3616445E+00 1.8021557E+00
 5.8132055E+00 1.3857811E+00 1.7888678E+00
 6.0110445E+00 1.3552645E+00 1.8102827E+00
 5.9451684E+00 1.3757823E+00 1.7982429E+00
 5.8826951E+00 1.3985851E+00 1.7846920E+00
 6.0124650E+00 1.3904325E+00 1.7939850E+00
 5.9498768E+00 1.4112699E+00 1.7807472E+00
 6.0147332E+00 1.4240376E+00 1.7766552E+00
 6.0780313E+00 1.4383736E+00 1.7713441E+00
 6.0783971E+00 1.4065695E+00 1.7886128E+00
 6.0786818E+00 1.3727531E+00 1.8051854E+00
 6.0789042E+00 1.3370314E+00 1.8208050E+00
 6.0790765E+00 1.2994989E+00 1.8352537E+00
 6.0792161E+00 1.2602819E+00 1.8483131E+00
 6.0793325E+00 1.2195202E+00 1.8597803E+00
 6.0794298E+00 1.1773906E+00 1.8694649E+00
 6.0795078E+00 1.1341083E+00 1.8771956E+00
 6.0795653E+00 1.0899244E+00 1.8828284E+00
 6.0796005E+00 1.0451203E+00 1.8862538E+00
 6.0796124E+00 1.0000003E+00 1.8874034E+00
 6.0796005E+00 9.5488030E-01 1.8862539E+00
 6.0795653E+00 9.1007626E-01 1.8828285E+00
 6.0795078E+00 8.6589230E-01 1.8771958E+00
 6.0794298E+00 8.2261000E-01 1.8694652E+00
 6.0793325E+00 7.8048033E-01 1.8597806E+00
 6.0792161E+00 7.3971864E-01 1.8483134E+00
 6.0790765E+00 7.0050164E-01 1.8352540E+00
 6.0789042E+00 6.6296905E-01 1.8208054E+00
 6.0786818E+00 6.2724734E-01 1.8051858E+00
 6.0783971E+00 5.9343088E-01 1.7886133E+00
 6.0780313E+00 5.6162679E-01 1.7713445E+00
 6.1347195E+00 5.4106560E-01 1.7616541E+00
 6.1974330E+00 5.4971950E-01 1.7690734E+00
 6.2627437E+00 5.5912445E-01 1.7763521E+00
 6.3303323E+00 5.6936793E-01 1.7833530E+00
 6.3999936E+00 5.8051143E-01 1.7899420E+00
 6.4715112E+00 5.9261506E-01 1.7960178E+00
 6.5446880E+00 6.0572355E-01 1.8015066E+00
 6.6192805E+00 6.1986754E-01 1.8063574E+00
 6.6950053E+00 6.3507002E-01 1.8105338E+00
 6.7715243E+00 6.5135198E-01 1.8140002E+00
 6.8484423E+00 6.6873866E-01 1.8167049E+00
 6.9253135E+00 6.8726320E-01 1.8185649E+00
 7.0016601E+00 7.0696685E-01 1.8194557E+00
 7.0769991E+00 7.2789476E-01 1.8192104E+00
 7.1508686E+00 7.5008847E-01 1.8176267E+00
 7.2228476E+00 7.7357660E-01 1.8144830E+00
 7.2925646E+00 7.9836643E-01 1.8095571E+00
 7.3596940E+00 8.2443813E-01 1.8026479E+00
 7.4239465E+00 8.5174257E-01 1.7935931E+00
 7.4850624E+00 8.8020528E-01 1.7822826E+00
 7.5427759E+00 9.0970338E-01 1.7686756E+00
 7.5968307E+00 9.4004311E-01 1.7527923E+00
 7.6468161E+00 9.7076680E-01 1.7347971E+00
 6.1415116E+00 1.4263655E+00 1.7806238E+00
 6.2062312E+00 1.4156625E+00 1.7885962E+00
 6.2729379E+00 1.4046411E+00 1.7960721E+00
 6.3414721E+00 1.3929581E+00 1.8030552E+00
 6.4118149E+00 1.3803946E+00 1.8095136E+00
 6.4838192E+00 1.3668470E+00 1.8153753E+00
 6.5572920E+00 1.3522592E+00 1.8205771E+00
 6.6319942E+00 1.3366064E+00 1.8250688E+00
 6.7076311E+00 1.3198763E+00 1.8288100E+00
 6.7838490E+00 1.3020584E+00 1.8317582E+00
 6.8602369E+00 1.2831380E+00 1.8338531E+00
 6.9363388E+00 1.2630935E+00 1.8350028E+00
 7.0116756E+00 1.2418977E+00 1.8350758E+00
 7.0857726E+00 1.2195222E+00 1.8339026E+00
 7.1581843E+00 1.1959434E+00 1.8312849E+00
 7.2285115E+00 1.1711496E+00 1.8270126E+00
 7.2964091E+00 1.1451476E+00 1.8208816E+00
 7.3615917E+00 1.1179703E+00 1.8127090E+00
 7.4238430E+00 1.0896869E+00 1.8023409E+00
 7.4830575E+00 1.0604211E+00 1.7896428E+00
 7.5393197E+00 1.0303704E+00 1.7744632E+00
 7.5930698E+00 1.0000003E+00 1.7565519E+00
 6.1444208E+00 1.3927254E+00 1.7981911E+00
 6.2114552E+00 1.3800276E+00 1.8065394E+00
 6.2797005E+00 1.3673786E+00 1.8140878E+00
 6.3494293E+00 1.3541712E+00 1.8209926E+00
 6.4206451E+00 1.3401200E+00 1.8272477E+00
 6.4932885E+00 1.3250714E+00 1.8328101E+00
 6.5671954E+00 1.3089648E+00 1.8376221E+00
 6.6421353E+00 1.2917795E+00 1.8416347E+00
 6.7178070E+00 1.2735123E+00 1.8448051E+00
 6.7938431E+00 1.2541619E+00 1.8470864E+00
 6.8698191E+00 1.2337236E+00 1.8484118E+00
 6.9452713E+00 1.2121870E+00 1.8486834E+00
 7.0197223E+00 1.1895375E+00 1.8477655E+00
 7.0927096E+00 1.1657599E+00 1.8454884E+00
 7.1638107E+00 1.1408419E+00 1.8416594E+00
 7.2326633E+00 1.1147799E+00 1.8360772E+00
 7.2989850E+00 1.0875861E+00 1.8285441E+00
 7.3626115E+00 1.0593048E+00 1.8188677E+00
 7.4235663E+00 1.0300403E+00 1.8068410E+00
 7.4821729E+00 1.0000003E+00 1.7921940E+00
 7.5393197E+00 9.6963022E-01 1.7744632E+00
 6.1463611E+00 1.3574271E+00 1.8146925E+00
 6.2149371E+00 1.3431078E+00 1.8230353E+00
 6.2845426E+00 1.3288728E+00 1.8304969E+00
 6.3553543E+00 1.3141436E+00 1.8371918E+00
 6.4274371E+00 1.2985769E+00 1.8431319E+00
 6.5007354E+00 1.2820110E+00 1.8482747E+00
 6.5751044E+00 1.2643814E+00 1.8525665E+00
 6.6503103E+00 1.2456750E+00 1.8559582E+00
 6.7260420E+00 1.2258962E+00 1.8584060E+00
 6.8019184E+00 1.2050529E+00 1.8598601E+00
 6.8775042E+00 1.1831496E+00 1.8602499E+00
 6.9523324E+00 1.1601856E+00 1.8594737E+00
 7.0259333E+00 1.1361559E+00 1.8573942E+00
 7.0978652E+00 1.1110526E+00 1.8538434E+00
 7.1677442E+00 1.0848682E+00 1.8486318E+00
 7.2352785E+00 1.0576029E+00 1.8415581E+00
 7.3003186E+00 1.0292837E+00 1.8324095E+00
 7.3629406E+00 1.0000003E+00 1.8209434E+00
 7.4235663E+00 9.6996034E-01 1.8068410E+00
 7.4830575E+00 9.3957956E-01 1.7896429E+00
 6.1478322E+00 1.3204505E+00 1.8300011E+00
 6.2176033E+00 1.3046858E+00 1.8381067E+00
 6.2883086E+00 1.2889693E+00 1.8452924E+00
 6.3600631E+00 1.2727481E+00 1.8516292E+00
 6.4329065E+00 1.2556877E+00 1.8571110E+00
 6.5067828E+00 1.2376272E+00 1.8616907E+00
 6.5815395E+00 1.2185117E+00 1.8653126E+00
 6.6569348E+00 1.1983361E+00 1.8679283E+00
 6.7326449E+00 1.1771137E+00 1.8694937E+00
 6.8082775E+00 1.1548607E+00 1.8699580E+00
 6.8833916E+00 1.1315894E+00 1.8692489E+00
 6.9575245E+00 1.1073057E+00 1.8672635E+00
 7.0302243E+00 1.0820087E+00 1.8638647E+00
 7.1010858E+00 1.0556921E+00 1.8588851E+00
 7.1697935E+00 1.0283508E+00 1.8521325E+00
 7.2361808E+00 1.0000003E+00 1.8433915E+00
 7.3003186E+00 9.7071695E-01 1.8324095E+00
 7.3626115E+00 9.4069581E-01 1.8188677E+00
 7.4238431E+00 9.1031368E-01 1.8023410E+00
 6.1490592E+00 1.2817949E+00 1.8439660E+00
 6.2198338E+00 1.2647144E+00 1.8516505E+00
 6.2914543E+00 1.2476027E+00 1.8583904E+00
 6.3639867E+00 1.2299493E+00 1.8642105E+00
 6.4374421E+00 1.2114463E+00 1.8690800E+00
 6.5117487E+00 1.1919520E+00 1.8729417E+00
 6.5867427E+00 1.1714254E+00 1.8757377E+00
 6.6621705E+00 1.1498724E+00 1.8774204E+00
 6.7376979E+00 1.1273150E+00 1.8779469E+00
 6.8129266E+00 1.1037762E+00 1.8772672E+00
 6.8874183E+00 1.0792724E+00 1.8753095E+00
 6.9607252E+00 1.0538110E+00 1.8719711E+00
 7.0324285E+00 1.0273895E+00 1.8671148E+00
 7.1021854E+00 1.0000003E+00 1.8605700E+00
 7.1697935E+00 9.7164981E-01 1.8521326E+00
 7.2352785E+00 9.4239767E-01 1.8415582E+00
 7.2989851E+00 9.1241455E-01 1.8285442E+00
 7.3615917E+00 8.8203029E-01 1.8127091E+00
 6.1501389E+00 1.2415380E+00 1.8564067E+00
 6.2217741E+00 1.2232449E+00 1.8635131E+00
 6.2941447E+00 1.2048213E+00 1.8696500E+00
 6.3672791E+00 1.1858109E+00 1.8747975E+00
 6.4411639E+00 1.1659447E+00 1.8788999E+00
 6.5157113E+00 1.1451087E+00 1.8818900E+00
 6.5907456E+00 1.1232798E+00 1.8837085E+00
 6.6660036E+00 1.1004756E+00 1.8843099E+00
 6.7411460E+00 1.0767252E+00 1.8836545E+00
 6.8157766E+00 1.0520543E+00 1.8816944E+00
 6.8894703E+00 1.0264786E+00 1.8783591E+00
 6.9618087E+00 1.0000003E+00 1.8735460E+00
 7.0324285E+00 9.7261115E-01 1.8671148E+00
 7.1010858E+00 9.4430850E-01 1.8588852E+00
 7.1677443E+00 9.1513241E-01 1.8486319E+00
 7.2326633E+00 8.8522073E-01 1.8360774E+00
 7.2964091E+00 8.5485295E-01 1.8208818E+00
 6.1510888E+00 1.1998207E+00 1.8671336E+00
 6.2234428E+00 1.1804086E+00 1.8735223E+00
 6.2963916E+00 1.1607639E+00 1.8789098E+00
 6.3699378E+00 1.1404899E+00 1.8832362E+00
 6.4440492E+00 1.1193653E+00 1.8864241E+00
 6.5186255E+00 1.0973080E+00 1.8883987E+00
 6.5934824E+00 1.0743143E+00 1.8891017E+00
 6.6683528E+00 1.0504117E+00 1.8884912E+00
 6.7428995E+00 1.0256327E+00 1.8865315E+00
 6.8167384E+00 1.0000003E+00 1.8831774E+00
 6.8894703E+00 9.7352200E-01 1.8783591E+00
 6.9607252E+00 9.4618959E-01 1.8719712E+00
 7.0302243E+00 9.1799194E-01 1.8638648E+00
 7.0978652E+00 8.8894797E-01 1.8538436E+00
 7.1638108E+00 8.5915865E-01 1.8416596E+00
 7.2285115E+00 8.2885096E-01 1.8270129E+00
 6.1518923E+00 1.1568315E+00 1.8759663E+00
 6.2248053E+00 1.1364013E+00 1.8815105E+00
 6.2981469E+00 1.1156405E+00 1.8860138E+00
 6.3719025E+00 1.0942174E+00 1.8893824E+00
 6.4460275E+00 1.0719632E+00 1.8915220E+00
 6.5204140E+00 1.0488295E+00 1.8923542E+00
 6.5948746E+00 1.0248306E+00 1.8918235E+00
 6.6691451E+00 1.0000003E+00 1.8898933E+00
 6.7428995E+00 9.7436793E-01 1.8865316E+00
 6.8157767E+00 9.4794633E-01 1.8816945E+00
 6.8874183E+00 9.2072823E-01 1.8753096E+00
 6.9575245E+00 8.9269495E-01 1.8672637E+00
 7.0259333E+00 8.6384467E-01 1.8573944E+00
 7.0927097E+00 8.3424072E-01 1.8454887E+00
 7.1581843E+00 8.0405719E-01 1.8312852E+00
 6.1525229E+00 1.1128016E+00 1.8827452E+00
 6.2258163E+00 1.0914693E+00 1.8873314E+00
 6.2993537E+00 1.0697160E+00 1.8908298E+00
 6.3731102E+00 1.0472798E+00 1.8931199E+00
 6.4470346E+00 1.0240463E+00 1.8940966E+00
 6.5210173E+00 1.0000003E+00 1.8936814E+00
 6.5948746E+00 9.7516998E-01 1.8918236E+00
 6.6683528E+00 9.4958889E-01 1.8884913E+00
 6.7411460E+00 9.2327546E-01 1.8836547E+00
 6.8129266E+00 8.9622445E-01 1.8772674E+00
 6.8833916E+00 8.6841122E-01 1.8692491E+00
 6.9523324E+00 8.3981496E-01 1.8594739E+00
 7.0197223E+00 8.1046305E-01 1.8477658E+00
 7.0857727E+00 7.8047836E-01 1.8339029E+00
 6.1529571E+00 1.0679988E+00 1.8873410E+00
 6.2264385E+00 1.0458981E+00 1.8908716E+00
 6.2999685E+00 1.0232950E+00 1.8932626E+00
 6.3735177E+00 1.0000003E+00 1.8943744E+00
 6.4470346E+00 9.7595433E-01 1.8940967E+00
 6.5204140E+00 9.5117110E-01 1.8923543E+00
 6.5934824E+00 9.2568636E-01 1.8891018E+00
 6.6660036E+00 8.9952497E-01 1.8843101E+00
 6.7376979E+00 8.7268556E-01 1.8779471E+00
 6.8082775E+00 8.4513987E-01 1.8699583E+00
 6.8775042E+00 8.1685100E-01 1.8602502E+00
 6.9452713E+00 7.8781358E-01 1.8486838E+00
 7.0116757E+00 7.5810281E-01 1.8350762E+00
 6.1531783E+00 1.0227201E+00 1.8896625E+00
 6.2266485E+00 1.0000003E+00 1.8920599E+00
 6.2999685E+00 9.7670566E-01 1.8932627E+00
 6.3731102E+00 9.5272083E-01 1.8931200E+00
 6.4460275E+00 9.2803747E-01 1.8915221E+00
 6.5186254E+00 9.0269263E-01 1.8883989E+00
 6.5907456E+00 8.7672076E-01 1.8837087E+00
 6.6621705E+00 8.5012819E-01 1.8774206E+00
 6.7326449E+00 8.2288687E-01 1.8694940E+00
 6.8019184E+00 7.9494766E-01 1.8598604E+00
 6.8698191E+00 7.6627695E-01 1.8484122E+00
 6.9363389E+00 7.3690701E-01 1.8350032E+00
 6.1531783E+00 9.7728055E-01 1.8896625E+00
 6.2264385E+00 9.5410249E-01 1.8908717E+00
 6.2993537E+00 9.3028458E-01 1.8908299E+00
 6.3719025E+00 9.0578320E-01 1.8893825E+00
 6.4440492E+00 8.8063535E-01 1.8864243E+00
 6.5157113E+00 8.5489185E-01 1.8818902E+00
 6.5867427E+00 8.2857520E-01 1.8757380E+00
 6.6569348E+00 8.0166450E-01 1.8679286E+00
 6.7260420E+00 7.7410436E-01 1.8584064E+00
 6.7938431E+00 7.4583863E-01 1.8470868E+00
 6.8602370E+00 7.1686250E-01 1.8338536E+00
 6.1529571E+00 9.3200179E-01 1.8873411E+00
 6.2258163E+00 9.0853129E-01 1.8873315E+00
 6.2981469E+00 8.8436013E-01 1.8860140E+00
 6.3699378E+00 8.5951071E-01 1.8832365E+00
 6.4411639E+00 8.3405585E-01 1.8789001E+00
 6.5117486E+00 8.0804853E-01 1.8729420E+00
 6.5815395E+00 7.8148882E-01 1.8653130E+00
 6.6503103E+00 7.5432554E-01 1.8559586E+00
 6.7178070E+00 7.2648823E-01 1.8448056E+00
 6.7838490E+00 6.9794207E-01 1.8317587E+00
 6.1525229E+00 8.8719902E-01 1.8827454E+00
 6.2248053E+00 8.6359932E-01 1.8815107E+00
 6.2963916E+00 8.3923669E-01 1.8789101E+00
 6.3672791E+00 8.1418969E-01 1.8747978E+00
 6.4374420E+00 7.8855427E-01 1.8690803E+00
 6.5067828E+00 7.6237332E-01 1.8616910E+00
 6.5751044E+00 7.3561911E-01 1.8525669E+00
 6.6421353E+00 7.0822092E-01 1.8416352E+00
 6.7076311E+00 6.8012415E-01 1.8288105E+00
 6.1518922E+00 8.4316905E-01 1.8759665E+00
 6.2234428E+00 8.1959202E-01 1.8735225E+00
 6.2941446E+00 7.9517923E-01 1.8696503E+00
 6.3639867E+00 7.7005129E-01 1.8642109E+00
 6.4329065E+00 7.4431282E-01 1.8571114E+00
 6.5007354E+00 7.1798952E-01 1.8482752E+00
 6.5671954E+00 6.9103566E-01 1.8376226E+00
 6.6319942E+00 6.6339398E-01 1.8250694E+00
 6.1510888E+00 8.0017989E-01 1.8671338E+00
 6.2217741E+00 7.7675568E-01 1.8635134E+00
 6.2914542E+00 7.5239781E-01 1.8583907E+00
 6.3600631E+00 7.2725238E-01 1.8516296E+00
 6.4274370E+00 7.0142354E-01 1.8431324E+00
 6.4932885E+00 6.7492901E-01 1.8328106E+00
 6.5572919E+00 6.4774119E-01 1.8205777E+00
 6.1501389E+00 7.5846260E-01 1.8564070E+00
 6.2198337E+00 7.3528613E-01 1.8516509E+00
 6.2883086E+00 7.1103118E-01 1.8452928E+00
 6.3553542E+00 6.8585686E-01 1.8371922E+00
 6.4206451E+00 6.5988040E-01 1.8272482E+00
 6.4838191E+00 6.3315338E-01 1.8153758E+00
 6.1490592E+00 7.1820563E-01 1.8439664E+00
 6.2176032E+00 6.9531471E-01 1.8381071E+00
 6.2845425E+00 6.7112763E-01 1.8304973E+00
 6.3494292E+00 6.4582924E-01 1.8209931E+00
 6.4118148E+00 6.1960580E-01 1.8095142E+00
 6.1478322E+00 6.7954997E-01 1.8300015E+00
 6.2149371E+00 6.5689266E-01 1.8230358E+00
 6.2797004E+00 6.3262185E-01 1.8140883E+00
 6.3414720E+00 6.0704227E-01 1.8030558E+00
 6.1463610E+00 6.4257334E-01 1.8146929E+00
 6.2114552E+00 6.1997282E-01 1.8065399E+00
 6.2729379E+00 5.9535931E-01 1.7960727E+00
 6.1444208E+00 6.0727503E-01 1.7981915E+00
 6.2062312E+00 5.8433790E-01 1.7885967E+00
 6.1415116E+00 5.7363491E-01 1.7806243E+00
 6.0428704E+00 1.4880500E+00 1.7393575E+00
 6.0043157E+00 1.5113288E+00 1.7216804E+00
 5.9640783E+00 1.5349920E+00 1.7024235E+00
 5.9223956E+00 1.5588338E+00 1.6816530E+00
 5.8793840E+00 1.5827746E+00 1.6593700E+00
 5.8352351E+00 1.6067405E+00 1.6355810E+00
 5.7901413E+00 1.6306718E+00 1.6102871E+00
 5.7443218E+00 1.6545006E+00 1.5834984E+00
 5.6980351E+00 1.6781500E+00 1.5552291E+00
 5.6515824E+00 1.7015265E+00 1.5254970E+00
 5.6053079E+00 1.7245136E+00 1.4943234E+00
 5.5595900E+00 1.7469656E+00 1.4617343E+00
 5.5148262E+00 1.7687050E+00 1.4277645E+00
 5.4714106E+00 1.7895246E+00 1.3924637E+00
 5.4297085E+00 1.8091954E+00 1.3559036E+00
 5.3900351E+00 1.8274806E+00 1.3181851E+00
 5.3526428E+00 1.8441511E+00 1.2794425E+00
 5.3177230E+00 1.8590020E+00 1.2398443E+00
 5.2854175E+00 1.8718653E+00 1.1995881E+00
 5.2558408E+00 1.8826181E+00 1.1588919E+00
 5.2290957E+00 1.8911813E+00 1.1180156E+00
 5.2051862E+00 1.8975279E+00 1.0772466E+00
 5.1840550E+00 1.9016878E+00 1.0371030E+00
 4.4802428E+00 1.0894067E+00 1.7663871E+00
 4.4719955E+00 1.1476461E+00 1.7516336E+00
 4.4666973E+00 1.2069295E+00 1.7337222E+00
 4.4651618E+00 1.2672476E+00 1.7128771E+00
 4.4678875E+00 1.3282858E+00 1.6891391E+00
 4.4752489E+00 1.3895441E+00 1.6625270E+00
 4.4875176E+00 1.4503865E+00 1.6330758E+00
 4.5048747E+00 1.5100834E+00 1.6008695E+00
 4.5274033E+00 1.5678374E+00 1.5660645E+00
 4.5550723E+00 1.6228139E+00 1.5289046E+00
 4.5877188E+00 1.6741816E+00 1.4897268E+00
 4.6250381E+00 1.7211637E+00 1.4489592E+00
 4.6665871E+00 1.7630953E+00 1.4071096E+00
 4.7118061E+00 1.7994799E+00 1.3647435E+00
 4.7600559E+00 1.8300359E+00 1.3224553E+00
 4.8106667E+00 1.8547250E+00 1.2808326E+00
 4.8629876E+00 1.8737526E+00 1.2404198E+00
 4.9164263E+00 1.8875443E+00 1.2016810E+00
 4.9704634E+00 1.8966988E+00 1.1649703E+00
 5.0246652E+00 1.9019283E+00 1.1304902E+00
 5.0786675E+00 1.9039966E+00 1.0982155E+00
 5.1320195E+00 1.9036694E+00 1.0678000E+00
 4.5297916E+00 1.1250620E+00 1.7929165E+00
 4.5245193E+00 1.1855391E+00 1.7779263E+00
 4.5220747E+00 1.2460199E+00 1.7595309E+00
 4.5233897E+00 1.3067802E+00 1.7379976E+00
 4.5290351E+00 1.3676349E+00 1.7134126E+00
 4.5393728E+00 1.4281207E+00 1.6858124E+00
 4.5546151E+00 1.4875999E+00 1.6552489E+00
 4.5748550E+00 1.5453258E+00 1.6218348E+00
 4.6000723E+00 1.6004954E+00 1.5857702E+00
 4.6301267E+00 1.6522974E+00 1.5473558E+00
 4.6647496E+00 1.6999652E+00 1.5069932E+00
 4.7035483E+00 1.7428336E+00 1.4651752E+00
 4.7460242E+00 1.7803948E+00 1.4224651E+00
 4.7916070E+00 1.8123435E+00 1.3794679E+00
 4.8396991E+00 1.8386043E+00 1.3367933E+00
 4.8897208E+00 1.8593356E+00 1.2950161E+00
 4.9411454E+00 1.8749083E+00 1.2546345E+00
 4.9935172E+00 1.8858659E+00 1.2160220E+00
 5.0464553E+00 1.8928735E+00 1.1793607E+00
 5.0996228E+00 1.8966617E+00 1.1445643E+00
 5.1527370E+00 1.8979734E+00 1.1110132E+00
 4.5842334E+00 1.1592510E+00 1.8158482E+00
 4.5818062E+00 1.2207215E+00 1.8002784E+00
 4.5822227E+00 1.2817122E+00 1.7811741E+00
 4.5864024E+00 1.3424099E+00 1.7587667E+00
 4.5949291E+00 1.4026283E+00 1.7331529E+00
 4.6081286E+00 1.4618973E+00 1.7043875E+00
 4.6261417E+00 1.5195688E+00 1.6725536E+00
 4.6489719E+00 1.5748968E+00 1.6378103E+00
 4.6765024E+00 1.6271040E+00 1.6004181E+00
 4.7085006E+00 1.6754411E+00 1.5607468E+00
 4.7446219E+00 1.7192465E+00 1.5192680E+00
 4.7844271E+00 1.7580018E+00 1.4765367E+00
 4.8274119E+00 1.7913780E+00 1.4331610E+00
 4.8730457E+00 1.8192634E+00 1.3897661E+00
 4.9208127E+00 1.8417694E+00 1.3469513E+00
 4.9702429E+00 1.8592141E+00 1.3052438E+00
 5.0209281E+00 1.8720882E+00 1.2650430E+00
 5.0725118E+00 1.8810119E+00 1.2265516E+00
 5.1246714E+00 1.8866884E+00 1.1896597E+00
 5.1770618E+00 1.8898445E+00 1.1538455E+00
 4.6431864E+00 1.1919795E+00 1.8344386E+00
 4.6434995E+00 1.2535607E+00 1.8180125E+00
 4.6467104E+00 1.3143396E+00 1.7979750E+00
 4.6536900E+00 1.3743727E+00 1.7745119E+00
 4.6649808E+00 1.4334050E+00 1.7477183E+00
 4.6808469E+00 1.4909374E+00 1.7176736E+00
 4.7013507E+00 1.5463183E+00 1.6845061E+00
 4.7264116E+00 1.5988276E+00 1.6484370E+00
 4.7558346E+00 1.6477488E+00 1.6097978E+00
 4.7893238E+00 1.6924326E+00 1.5690310E+00
 4.8264988E+00 1.7323552E+00 1.5266726E+00
 4.8669199E+00 1.7671656E+00 1.4833249E+00
 4.9101209E+00 1.7967151E+00 1.4396186E+00
 4.9556443E+00 1.8210668E+00 1.3961695E+00
 5.0030685E+00 1.8404837E+00 1.3535301E+00
 5.0520193E+00 1.8554008E+00 1.3121324E+00
 5.1021578E+00 1.8663914E+00 1.2722105E+00
 5.1531411E+00 1.8741240E+00 1.2337117E+00
 5.2045640E+00 1.8793089E+00 1.1962082E+00
 4.7062146E+00 1.2229463E+00 1.8481623E+00
 4.7091312E+00 1.2839507E+00 1.8306462E+00
 4.7150160E+00 1.3438753E+00 1.8094878E+00