# TIME = 11.100000
variables = x, y, z
zone N=5762 E=11520 F=FEPOINT ET=TRIANGLE
 6.4278289E+00 1.4659013E+00 1.7536361E+00
 6.4278289E+00 1.4659013E+00 2.4636383E-01
 6.4278289E+00 5.3409914E-01 1.7536366E+00
 6.4278289E+00 5.3409907E-01 2.4636323E-01
 4.7986992E+00 1.0000005E+00 1.7499124E+00
 8.0434875E+00 1.0000003E+00 1.7159966E+00
 4.7986992E+00 1.0000004E+00 2.5008763E-01
 8.0434874E+00 1.0000003E+00 2.8400353E-01
 5.5079941E+00 1.9049929E+00 1.0000000E+00
 5.5079943E+00 9.5007487E-02 1.0000000E+00
 7.3212546E+00 1.8702109E+00 1.0000000E+00
 7.3212547E+00 1.2978873E-01 1.0000000E+00
 6.3705050E+00 1.4563166E+00 1.7575768E+00
 6.3071628E+00 1.4456260E+00 1.7617130E+00
 6.2408804E+00 1.4344797E+00 1.7659614E+00
 6.1718328E+00 1.4229920E+00 1.7705086E+00
 6.1000779E+00 1.4112729E+00 1.7755901E+00
 6.0256810E+00 1.3993984E+00 1.7814973E+00
 5.9487892E+00 1.3874195E+00 1.7885312E+00
 5.8697803E+00 1.3753361E+00 1.7969431E+00
 5.7893168E+00 1.3630592E+00 1.8068445E+00
 5.7083133E+00 1.3503783E+00 1.8181070E+00
 5.6277502E+00 1.3369589E+00 1.8303036E+00
 5.5484401E+00 1.3223816E+00 1.8427290E+00
 5.4709053E+00 1.3062070E+00 1.8544860E+00
 5.3954020E+00 1.2880407E+00 1.8645929E+00
 5.3220323E+00 1.2675835E+00 1.8720818E+00
 5.2508682E+00 1.2446663E+00 1.8760814E+00
 5.1820498E+00 1.2192692E+00 1.8758880E+00
 5.1158368E+00 1.1915255E+00 1.8710212E+00
 5.0526038E+00 1.1617103E+00 1.8612585E+00
 4.9927871E+00 1.1302141E+00 1.8466380E+00
 4.9368484E+00 1.0975324E+00 1.8274482E+00
 4.8852290E+00 1.0642396E+00 1.8041926E+00
 4.8384598E+00 1.0310809E+00 1.7776635E+00
 6.3642206E+00 5.7670984E-01 1.7763005E+00
 6.2987507E+00 5.8938488E-01 1.7808508E+00
 6.2309374E+00 6.0198429E-01 1.7852271E+00
 6.1607850E+00 6.1469128E-01 1.7897811E+00
 6.0881529E+00 6.2759206E-01 1.7948581E+00
 6.0130628E+00 6.4069459E-01 1.8007860E+00
 5.9356985E+00 6.5400939E-01 1.8078749E+00
 5.8564894E+00 6.6758071E-01 1.8163532E+00
 5.7761554E+00 6.8153218E-01 1.8262802E+00
 5.6956342E+00 6.9609206E-01 1.8374559E+00
 5.6158766E+00 7.1158558E-01 1.8493804E+00
 5.5376303E+00 7.2839021E-01 1.8612956E+00
 5.4613506E+00 7.4687573E-01 1.8722825E+00
 5.3872470E+00 7.6735042E-01 1.8813692E+00
 5.3153986E+00 7.9002221E-01 1.8876239E+00
 5.2458690E+00 8.1497330E-01 1.8902313E+00
 5.1787876E+00 8.4214691E-01 1.8885538E+00
 5.1143778E+00 8.7134497E-01 1.8821725E+00
 5.0529338E+00 9.0223611E-01 1.8709029E+00
 4.9947407E+00 9.3437356E-01 1.8547675E+00
 4.9399648E+00 9.6721251E-01 1.8339232E+00
 4.8884955E+00 1.0000005E+00 1.8085278E+00
 6.3619484E+00 6.1060172E-01 1.7937679E+00
 6.2940176E+00 6.2519500E-01 1.7985042E+00
 6.2244632E+00 6.3928294E-01 1.8028583E+00
 6.1528995E+00 6.5333141E-01 1.8073269E+00
 6.0791763E+00 6.6752732E-01 1.8122971E+00
 6.0032508E+00 6.8197485E-01 1.8181302E+00
 5.9253144E+00 6.9673645E-01 1.8251337E+00
 5.8458275E+00 7.1189817E-01 1.8335102E+00
 5.7655464E+00 7.2761088E-01 1.8432680E+00
 5.6854158E+00 7.4411158E-01 1.8541409E+00
 5.6063513E+00 7.6170680E-01 1.8655663E+00
 5.5290394E+00 7.8072723E-01 1.8767446E+00
 5.4538751E+00 8.0147520E-01 1.8867446E+00
 5.3810247E+00 8.2418171E-01 1.8946101E+00
 5.3105385E+00 8.4897697E-01 1.8994466E+00
 5.2424499E+00 8.7587155E-01 1.9004885E+00
 5.1768321E+00 9.0474484E-01 1.8971451E+00
 5.1137930E+00 9.3534056E-01 1.8890183E+00
 5.0534104E+00 9.6726803E-01 1.8758797E+00
 4.9956235E+00 1.0000005E+00 1.8575957E+00
 4.9399648E+00 1.0327884E+00 1.8339232E+00
 6.3605517E+00 6.4600952E-01 1.8101437E+00
 6.2909506E+00 6.6210207E-01 1.8147157E+00
 6.2198726E+00 6.7762617E-01 1.8188846E+00
 6.1470421E+00 6.9302800E-01 1.8231301E+00
 6.0722702E+00 7.0858139E-01 1.8278682E+00
 5.9955367E+00 7.2444088E-01 1.8334656E+00
 5.9170435E+00 7.4071615E-01 1.8402220E+00
 5.8372867E+00 7.5752521E-01 1.8483101E+00
 5.7570508E+00 7.7503948E-01 1.8576888E+00
 5.6772808E+00 7.9349587E-01 1.8680321E+00
 5.5988548E+00 8.1317594E-01 1.8787252E+00
 5.5224019E+00 8.3436268E-01 1.8889378E+00
 5.4482619E+00 8.5729627E-01 1.8977350E+00
 5.3765552E+00 8.8214001E-01 1.9041806E+00
 5.3072870E+00 9.0895677E-01 1.9074150E+00
 5.2404219E+00 9.3769089E-01 1.9067098E+00
 5.1759087E+00 9.6815193E-01 1.9014915E+00
 5.1136494E+00 1.0000005E+00 1.8913309E+00
 5.0534104E+00 1.0327329E+00 1.8758797E+00
 4.9947407E+00 1.0656274E+00 1.8547675E+00
 6.3595182E+00 6.8297067E-01 1.8252897E+00
 6.2886464E+00 7.0033504E-01 1.8294771E+00
 6.2163603E+00 7.1716494E-01 1.8332801E+00
 6.1424560E+00 7.3388803E-01 1.8371551E+00
 6.0667882E+00 7.5079870E-01 1.8415137E+00
 5.9893624E+00 7.6808713E-01 1.8467173E+00
 5.9104154E+00 7.8589180E-01 1.8530486E+00
 5.8304773E+00 8.0435515E-01 1.8606478E+00
 5.7503566E+00 8.2366020E-01 1.8694264E+00
 5.6709910E+00 8.4403700E-01 1.8790062E+00
 5.5932196E+00 8.6573876E-01 1.8887308E+00
 5.5176158E+00 8.8900279E-01 1.8977507E+00
 5.4444640E+00 9.1401337E-01 1.9051353E+00
 5.3738284E+00 9.4087312E-01 1.9099706E+00
 5.3056397E+00 9.6957949E-01 1.9114267E+00
 5.2397449E+00 1.0000005E+00 1.9087954E+00
 5.1759087E+00 1.0318490E+00 1.9014914E+00
 5.1137930E+00 1.0646603E+00 1.8890183E+00
 5.0529338E+00 1.0977648E+00 1.8709028E+00
 6.3586654E+00 7.2148505E-01 1.8390574E+00
 6.2867584E+00 7.3995058E-01 1.8426891E+00
 6.2134937E+00 7.5796972E-01 1.8459668E+00
 6.1387195E+00 7.7594576E-01 1.8493207E+00
 6.0623382E+00 7.9417532E-01 1.8531458E+00
 5.9843930E+00 8.1286330E-01 1.8577883E+00
 5.9051566E+00 8.3216637E-01 1.8635080E+00
 5.8251910E+00 8.5224191E-01 1.8704107E+00
 5.7453192E+00 8.7327782E-01 1.8783640E+00
 5.6664633E+00 8.9549270E-01 1.8869465E+00
 5.5894186E+00 9.1911106E-01 1.8954721E+00
 5.5147020E+00 9.4432807E-01 1.9030826E+00
 5.4425356E+00 9.7127694E-01 1.9088584E+00
 5.3729078E+00 1.0000005E+00 1.9119087E+00
 5.3056397E+00 1.0304214E+00 1.9114267E+00
 5.2404219E+00 1.0623100E+00 1.9067097E+00
 5.1768321E+00 1.0952560E+00 1.8971450E+00
 5.1143778E+00 1.1286559E+00 1.8821723E+00
 6.3579176E+00 7.6148074E-01 1.8512801E+00
 6.2851440E+00 7.8090972E-01 1.8542153E+00
 6.2110880E+00 8.0000880E-01 1.8568262E+00
 6.1356424E+00 8.1915352E-01 1.8595141E+00
 6.0587505E+00 8.3863280E-01 1.8626523E+00
 5.9804921E+00 8.5865417E-01 1.8665651E+00
 5.9011713E+00 8.7938339E-01 1.8714857E+00
 5.8213730E+00 9.0098629E-01 1.8774856E+00
 5.7419224E+00 9.2365116E-01 1.8843936E+00
 5.6637150E+00 9.4758365E-01 1.8917549E+00
 5.5874964E+00 9.7298130E-01 1.8988653E+00
 5.5137210E+00 1.0000005E+00 1.9048674E+00
 5.4425356E+00 1.0287240E+00 1.9088584E+00
 5.3738284E+00 1.0591278E+00 1.9099705E+00
 5.3072869E+00 1.0910441E+00 1.9074149E+00
 5.2424498E+00 1.1241293E+00 1.9004884E+00
 5.1787875E+00 1.1578539E+00 1.8885536E+00
 6.3572578E+00 8.0282551E-01 1.8617861E+00
 6.2837662E+00 8.2309791E-01 1.8639065E+00
 6.2090986E+00 8.4316712E-01 1.8657239E+00
 6.1331835E+00 8.6338268E-01 1.8676105E+00
 6.0559980E+00 8.8401793E-01 1.8699141E+00
 5.9776513E+00 9.0527579E-01 1.8729338E+00
 5.8984709E+00 9.2732514E-01 1.8768744E+00
 5.8190515E+00 9.5033652E-01 1.8817748E+00
 5.7402060E+00 9.7449706E-01 1.8874313E+00
 5.6627917E+00 1.0000004E+00 1.8933655E+00
 5.5874964E+00 1.0270196E+00 1.8988652E+00
 5.5147020E+00 1.0556728E+00 1.9030825E+00
 5.4444639E+00 1.0859875E+00 1.9051352E+00
 5.3765552E+00 1.1178609E+00 1.9041804E+00
 5.3105384E+00 1.1510239E+00 1.8994464E+00
 5.2458689E+00 1.1850275E+00 1.8902312E+00
 6.3566956E+00 8.4534265E-01 1.8704139E+00
 6.2826413E+00 8.6633955E-01 1.8716184E+00
 6.2075484E+00 8.8726347E-01 1.8725301E+00
 6.1313733E+00 9.0843711E-01 1.8734917E+00
 6.0541191E+00 9.3011334E-01 1.8748235E+00
 5.9759159E+00 9.5248574E-01 1.8767980E+00
 5.8971030E+00 9.7572337E-01 1.8795912E+00
 5.8182712E+00 1.0000004E+00 1.8832123E+00
 5.7402059E+00 1.0255038E+00 1.8874313E+00
 5.6637149E+00 1.0524172E+00 1.8917549E+00
 5.5894186E+00 1.0808898E+00 1.8954720E+00
 5.5176157E+00 1.1109981E+00 1.8977506E+00
 5.4482618E+00 1.1427046E+00 1.8977349E+00
 5.3810246E+00 1.1758191E+00 1.8946099E+00
 5.3153986E+00 1.2099786E+00 1.8876237E+00
 6.3562504E+00 8.8881661E-01 1.8770212E+00
 6.2818037E+00 9.1041257E-01 1.8772254E+00
 6.2064816E+00 9.3206578E-01 1.8771345E+00
 6.1302612E+00 9.5406992E-01 1.8770618E+00
 6.0531639E+00 9.7665414E-01 1.8772997E+00
 5.9753314E+00 1.0000004E+00 1.8780935E+00
 5.8971030E+00 1.0242775E+00 1.8795912E+00
 5.8190515E+00 1.0496643E+00 1.8817747E+00
 5.7419223E+00 1.0763497E+00 1.8843936E+00
 5.6664633E+00 1.1045082E+00 1.8869465E+00
 5.5932195E+00 1.1342621E+00 1.8887307E+00
 5.5224018E+00 1.1656382E+00 1.8889376E+00
 5.4538750E+00 1.1985256E+00 1.8867445E+00
 5.3872469E+00 1.2326504E+00 1.8813690E+00
 6.3559415E+00 9.3299925E-01 1.8814936E+00
 6.2812865E+00 9.5505984E-01 1.8806305E+00
 6.2059373E+00 9.7730604E-01 1.8794575E+00
 6.1298858E+00 1.0000004E+00 1.8782589E+00
 6.0531639E+00 1.0233466E+00 1.8772997E+00
 5.9759159E+00 1.0475151E+00 1.8767979E+00
 5.8984708E+00 1.0726757E+00 1.8768744E+00
 5.8213730E+00 1.0990145E+00 1.8774855E+00
 5.7453191E+00 1.1267230E+00 1.8783640E+00
 5.6709909E+00 1.1559638E+00 1.8790061E+00
 5.5988547E+00 1.1868249E+00 1.8787251E+00
 5.5290393E+00 1.2192736E+00 1.8767445E+00
 5.4613505E+00 1.2531251E+00 1.8722823E+00
 6.3557834E+00 9.7761763E-01 1.8837506E+00
 6.2811115E+00 1.0000004E+00 1.8817725E+00
 6.2059373E+00 1.0226947E+00 1.8794575E+00
 6.1302612E+00 1.0459308E+00 1.8770617E+00
 6.0541190E+00 1.0698874E+00 1.8748234E+00
 5.9776513E+00 1.0947250E+00 1.8729337E+00
 5.9011712E+00 1.1206174E+00 1.8714856E+00
 5.8251909E+00 1.1477589E+00 1.8704107E+00
 5.7503564E+00 1.1763406E+00 1.8694263E+00
 5.6772806E+00 1.2065049E+00 1.8680320E+00
 5.6063512E+00 1.2382940E+00 1.8655661E+00
 5.5376302E+00 1.2716106E+00 1.8612954E+00
 6.3557834E+00 1.0223831E+00 1.8837505E+00
 6.2812865E+00 1.0449409E+00 1.8806304E+00
 6.2064816E+00 1.0679349E+00 1.8771344E+00
 6.1313732E+00 1.0915636E+00 1.8734916E+00
 6.0559979E+00 1.1159828E+00 1.8699140E+00
 5.9804920E+00 1.1413466E+00 1.8665650E+00
 5.9051565E+00 1.1678344E+00 1.8635079E+00
 5.8304771E+00 1.1956456E+00 1.8606477E+00
 5.7570506E+00 1.2249613E+00 1.8576886E+00
 5.6854156E+00 1.2558892E+00 1.8541408E+00
 5.6158764E+00 1.2884152E+00 1.8493802E+00
 6.3559415E+00 1.0670014E+00 1.8814935E+00
 6.2818037E+00 1.0895881E+00 1.8772253E+00
 6.2075484E+00 1.1127372E+00 1.8725300E+00
 6.1331834E+00 1.1366180E+00 1.8676104E+00
 6.0587504E+00 1.1613679E+00 1.8626522E+00
 5.9843929E+00 1.1871374E+00 1.8577882E+00
 5.9104152E+00 1.2141089E+00 1.8530485E+00
 5.8372865E+00 1.2424755E+00 1.8483099E+00
 5.7655462E+00 1.2723899E+00 1.8432679E+00
 5.6956340E+00 1.3039087E+00 1.8374558E+00
 6.3562503E+00 1.1111841E+00 1.8770211E+00
 6.2826412E+00 1.1336611E+00 1.8716182E+00
 6.2090986E+00 1.1568336E+00 1.8657237E+00
 6.1356423E+00 1.1808472E+00 1.8595140E+00
 6.0623380E+00 1.2058254E+00 1.8531456E+00
 5.9893623E+00 1.2319136E+00 1.8467172E+00
 5.9170433E+00 1.2592846E+00 1.8402218E+00
 5.8458273E+00 1.2881025E+00 1.8335100E+00
 5.7761552E+00 1.3184685E+00 1.8262801E+00
 6.3566955E+00 1.1546580E+00 1.8704137E+00
 6.2837661E+00 1.1769028E+00 1.8639063E+00
 6.2110880E+00 1.1999919E+00 1.8568260E+00
 6.1387194E+00 1.2240549E+00 1.8493205E+00
 6.0667881E+00 1.2492020E+00 1.8415135E+00
 5.9955365E+00 1.2755598E+00 1.8334654E+00
 5.9253142E+00 1.3032642E+00 1.8251335E+00
 5.8564892E+00 1.3324199E+00 1.8163530E+00
 6.3572578E+00 1.1971752E+00 1.8617859E+00
 6.2851440E+00 1.2190909E+00 1.8542151E+00
 6.2134936E+00 1.2420309E+00 1.8459666E+00
 6.1424559E+00 1.2661126E+00 1.8371549E+00
 6.0722700E+00 1.2914193E+00 1.8278680E+00
 6.0032506E+00 1.3180258E+00 1.8181300E+00
 5.9356983E+00 1.3459912E+00 1.8078747E+00
 6.3579175E+00 1.2385199E+00 1.8512798E+00
 6.2867583E+00 1.2600500E+00 1.8426889E+00
 6.2163602E+00 1.2828357E+00 1.8332798E+00
 6.1470420E+00 1.3069726E+00 1.8231298E+00
 6.0791761E+00 1.3324733E+00 1.8122968E+00
 6.0130626E+00 1.3593060E+00 1.8007858E+00
 6.3586654E+00 1.2785156E+00 1.8390571E+00
 6.2886463E+00 1.2996656E+00 1.8294768E+00
 6.2198725E+00 1.3223744E+00 1.8188843E+00
 6.1528994E+00 1.3466692E+00 1.8073266E+00
 6.0881527E+00 1.3724085E+00 1.7948578E+00
 6.3595181E+00 1.3170299E+00 1.8252893E+00
 6.2909505E+00 1.3378985E+00 1.8147153E+00
 6.2244631E+00 1.3607176E+00 1.8028580E+00
 6.1607848E+00 1.3853093E+00 1.7897807E+00
 6.3605517E+00 1.3539910E+00 1.8101433E+00
 6.2940176E+00 1.3748055E+00 1.7985038E+00
 6.2309373E+00 1.3980162E+00 1.7852268E+00
 6.3619483E+00 1.3893988E+00 1.7937675E+00
 6.2987506E+00 1.4106156E+00 1.7808504E+00
 6.3642206E+00 1.4232906E+00 1.7763001E+00
 6.4280871E+00 1.4375155E+00 1.7705202E+00
 6.4284696E+00 1.4054490E+00 1.7879069E+00
 6.4288081E+00 1.3714000E+00 1.8045551E+00
 6.4290907E+00 1.3355123E+00 1.8201969E+00
 6.4293141E+00 1.2978992E+00 1.8346175E+00
 6.4294913E+00 1.2586925E+00 1.8476103E+00
 6.4296338E+00 1.2180296E+00 1.8589868E+00
 6.4297488E+00 1.1760814E+00 1.8685714E+00
 6.4298390E+00 1.1330541E+00 1.8762067E+00
 6.4299045E+00 1.0891855E+00 1.8817611E+00
 6.4299444E+00 1.0447398E+00 1.8851352E+00
 6.4299578E+00 1.0000003E+00 1.8862670E+00
 6.4299444E+00 9.5526093E-01 1.8851353E+00
 6.4299045E+00 9.1081518E-01 1.8817612E+00
 6.4298390E+00 8.6694659E-01 1.8762068E+00
 6.4297488E+00 8.2391930E-01 1.8685716E+00
 6.4296338E+00 7.8197107E-01 1.8589871E+00
 6.4294913E+00 7.4130813E-01 1.8476106E+00
 6.4293141E+00 7.0210137E-01 1.8346178E+00
 6.4290907E+00 6.6448823E-01 1.8201973E+00
 6.4288081E+00 6.2860047E-01 1.8045556E+00
 6.4284696E+00 5.9455152E-01 1.7879074E+00
 6.4280871E+00 5.6248497E-01 1.7705207E+00
 6.4852558E+00 5.4196577E-01 1.7603642E+00
 6.5484020E+00 5.5092908E-01 1.7674186E+00
 6.6140414E+00 5.6061771E-01 1.7743200E+00
 6.6818196E+00 5.7109584E-01 1.7809513E+00
 6.7515392E+00 5.8240757E-01 1.7872053E+00
 6.8230231E+00 5.9460044E-01 1.7930089E+00
 6.8961158E+00 6.0771176E-01 1.7983122E+00
 6.9706041E+00 6.2176964E-01 1.8030818E+00
 7.0462198E+00 6.3680001E-01 1.8072900E+00
 7.1226275E+00 6.5283246E-01 1.8109014E+00
 7.1994275E+00 6.6990597E-01 1.8138552E+00
 7.2761692E+00 6.8807132E-01 1.8160524E+00
 7.3523770E+00 7.0738988E-01 1.8173472E+00
 7.4275799E+00 7.2792806E-01 1.8175486E+00
 7.5013373E+00 7.4974886E-01 1.8164299E+00
 7.5732534E+00 7.7290240E-01 1.8137461E+00
 7.6429791E+00 7.9741806E-01 1.8092541E+00
 7.7102055E+00 8.2329986E-01 1.8027333E+00
 7.7746539E+00 8.5052415E-01 1.7940023E+00
 7.8360697E+00 8.7903846E-01 1.7829303E+00
 7.8941822E+00 9.0872533E-01 1.7694534E+00
 7.9487120E+00 9.3936416E-01 1.7535718E+00
 7.9992117E+00 9.7043865E-01 1.7354408E+00
 6.4920852E+00 1.4251671E+00 1.7794324E+00
 6.5572399E+00 1.4141483E+00 1.7870170E+00
 6.6242322E+00 1.4028462E+00 1.7940979E+00
 6.6928996E+00 1.3909471E+00 1.8006977E+00
 6.7632504E+00 1.3782552E+00 1.8068081E+00
 6.8351792E+00 1.3646737E+00 1.8123873E+00
 6.9085295E+00 1.3501439E+00 1.8173997E+00
 6.9830878E+00 1.3346342E+00 1.8218142E+00
 7.0585727E+00 1.3181232E+00 1.8255988E+00
 7.1346347E+00 1.3005882E+00 1.8287094E+00
 7.2108611E+00 1.2819990E+00 1.8310750E+00
 7.2867949E+00 1.2623150E+00 1.8325857E+00
 7.3619623E+00 1.2414872E+00 1.8330877E+00
 7.4359024E+00 1.2194640E+00 1.8323869E+00
 7.5081908E+00 1.1961983E+00 1.8302606E+00
 7.5784524E+00 1.1716565E+00 1.8264744E+00
 7.6463660E+00 1.1458262E+00 1.8207999E+00
 7.7116695E+00 1.1187256E+00 1.8130290E+00
 7.7741666E+00 1.0904127E+00 1.8029812E+00
 7.8337591E+00 1.0610035E+00 1.7904947E+00
 7.8905143E+00 1.0306998E+00 1.7753956E+00
 7.9448333E+00 1.0000003E+00 1.7574203E+00
 6.4950599E+00 1.3912653E+00 1.7970816E+00
 6.5625385E+00 1.3782446E+00 1.8050140E+00
 6.6310618E+00 1.3653139E+00 1.8121476E+00
 6.7009020E+00 1.3519110E+00 1.8186496E+00
 6.7720945E+00 1.3377731E+00 1.8245399E+00
 6.8446181E+00 1.3227454E+00 1.8298087E+00
 6.9183440E+00 1.3067548E+00 1.8344283E+00
 6.9930687E+00 1.2897664E+00 1.8383695E+00
 7.0685089E+00 1.2717630E+00 1.8415970E+00
 7.1443062E+00 1.2527282E+00 1.8440602E+00
 7.2200400E+00 1.2326390E+00 1.8456800E+00
 7.2952511E+00 1.2114636E+00 1.8463390E+00
 7.3694725E+00 1.1891628E+00 1.8458780E+00
 7.4422596E+00 1.1656952E+00 1.8441020E+00
 7.5132150E+00 1.1410235E+00 1.8407914E+00
 7.5820071E+00 1.1151235E+00 1.8357168E+00
 7.6483892E+00 1.0879956E+00 1.8286500E+00
 7.7122319E+00 1.0596804E+00 1.8193649E+00
 7.7735774E+00 1.0302802E+00 1.8076216E+00
 7.8327281E+00 1.0000003E+00 1.7931243E+00
 7.8905143E+00 9.6930091E-01 1.7753957E+00
 6.4970804E+00 1.3557610E+00 1.8136190E+00
 6.5661062E+00 1.3411238E+00 1.8215180E+00
 6.6359777E+00 1.3266177E+00 1.8285403E+00
 6.7068773E+00 1.3117208E+00 1.8348112E+00
 6.7788977E+00 1.2961121E+00 1.8403705E+00
 6.8520201E+00 1.2796203E+00 1.8452121E+00
 6.9261363E+00 1.2621609E+00 1.8493134E+00
 7.0010441E+00 1.2437005E+00 1.8526446E+00
 7.0764557E+00 1.2242253E+00 1.8551679E+00
 7.1520054E+00 1.2037244E+00 1.8568279E+00
 7.2272680E+00 1.1821807E+00 1.8575396E+00
 7.3017876E+00 1.1595684E+00 1.8571802E+00
 7.3751111E+00 1.1358542E+00 1.8555869E+00
 7.4468218E+00 1.1110024E+00 1.8525634E+00
 7.5165706E+00 1.0849819E+00 1.8478888E+00
 7.5841103E+00 1.0577797E+00 1.8413272E+00
 7.6493395E+00 1.0294214E+00 1.8326272E+00
 7.7123628E+00 1.0000003E+00 1.8215081E+00
 7.7735774E+00 9.6972051E-01 1.8076217E+00
 7.8337591E+00 9.3899715E-01 1.7904947E+00
 6.4986102E+00 1.3186594E+00 1.8289111E+00
 6.5688067E+00 1.3026004E+00 1.8365422E+00
 6.6397459E+00 1.2866404E+00 1.8432619E+00
 6.7115502E+00 1.2702919E+00 1.8491538E+00
 6.7842847E+00 1.2532390E+00 1.8542431E+00
 6.8579282E+00 1.2353053E+00 1.8585205E+00
 6.9323668E+00 1.2164094E+00 1.8619611E+00
 7.0073944E+00 1.1965213E+00 1.8645341E+00
 7.0827159E+00 1.1756321E+00 1.8661993E+00
 7.1579604E+00 1.1537350E+00 1.8668981E+00
 7.2327033E+00 1.1308162E+00 1.8665413E+00
 7.3064997E+00 1.1068528E+00 1.8650021E+00
 7.3789218E+00 1.0818136E+00 1.8621142E+00
 7.4495999E+00 1.0556663E+00 1.8576770E+00
 7.5182668E+00 1.0283904E+00 1.8514608E+00
 7.5848110E+00 1.0000003E+00 1.8432087E+00
 7.6493395E+00 9.7057926E-01 1.8326272E+00
 7.7122319E+00 9.4032031E-01 1.8193650E+00
 7.7741666E+00 9.0958800E-01 1.8029813E+00
 6.4998503E+00 1.2799750E+00 1.8428123E+00
 6.5709988E+00 1.2626427E+00 1.8499907E+00
 6.6428043E+00 1.2453352E+00 1.8562379E+00
 6.7153418E+00 1.2276087E+00 1.8615957E+00
 6.7886443E+00 1.2091691E+00 1.8660675E+00
 6.8626730E+00 1.1898534E+00 1.8696336E+00
 6.9373040E+00 1.1695896E+00 1.8722652E+00
 7.0123227E+00 1.1483550E+00 1.8739297E+00
 7.0874283E+00 1.1261450E+00 1.8745853E+00
 7.1622494E+00 1.1029551E+00 1.8741713E+00
 7.2363698E+00 1.0787718E+00 1.8725952E+00
 7.3093667E+00 1.0535710E+00 1.8697266E+00
 7.3808543E+00 1.0273221E+00 1.8653939E+00
 7.4505366E+00 1.0000003E+00 1.8593875E+00
 7.5182668E+00 9.7161032E-01 1.8514608E+00
 7.5841103E+00 9.4222100E-01 1.8413273E+00
 7.6483892E+00 9.1200503E-01 1.8286501E+00
 7.7116695E+00 8.8127511E-01 1.8130291E+00
 6.5009039E+00 1.2397880E+00 1.8551554E+00
 6.5728494E+00 1.2213035E+00 1.8617264E+00
 6.6453528E+00 1.2027503E+00 1.8673477E+00
 6.7184514E+00 1.1837336E+00 1.8720217E+00
 6.7921501E+00 1.1639914E+00 1.8757287E+00
 6.8663926E+00 1.1433833E+00 1.8784378E+00
 6.9410438E+00 1.1218520E+00 1.8801158E+00
 7.0158828E+00 1.0993829E+00 1.8807286E+00
 7.0906078E+00 1.0759743E+00 1.8802338E+00
 7.1648539E+00 1.0516208E+00 1.8785689E+00
 7.2382240E+00 1.0263052E+00 1.8756384E+00
 7.3103314E+00 1.0000003E+00 1.8713067E+00
 7.3808543E+00 9.7267855E-01 1.8653939E+00
 7.4495999E+00 9.4433437E-01 1.8576770E+00
 7.5165706E+00 9.1501881E-01 1.8478889E+00
 7.5820071E+00 8.8487716E-01 1.8357169E+00
 7.6463661E+00 8.5417447E-01 1.8208000E+00
 6.5018087E+00 1.1982353E+00 1.8657674E+00
 6.5744122E+00 1.1787064E+00 1.8715972E+00
 6.6474490E+00 1.1590122E+00 1.8764532E+00
 6.7209290E+00 1.1388070E+00 1.8803030E+00
 6.7948356E+00 1.1178678E+00 1.8831063E+00
 6.8690993E+00 1.0960819E+00 1.8848219E+00
 6.9435775E+00 1.0734084E+00 1.8854132E+00
 7.0180481E+00 1.0498397E+00 1.8848456E+00
 7.0922149E+00 1.0253739E+00 1.8830763E+00
 7.1657291E+00 1.0000003E+00 1.8800406E+00
 7.2382240E+00 9.7369546E-01 1.8756384E+00
 7.3093667E+00 9.4642965E-01 1.8697266E+00
 7.3789218E+00 9.1818706E-01 1.8621143E+00
 7.4468218E+00 8.8899825E-01 1.8525635E+00
 7.5132151E+00 8.5897717E-01 1.8407915E+00
 7.5784524E+00 8.2834415E-01 1.8264746E+00
 6.5025657E+00 1.1554968E+00 1.8744841E+00
 6.5756792E+00 1.1350334E+00 1.8794546E+00
 6.6490768E+00 1.1143109E+00 1.8834199E+00
 6.7227495E+00 1.0930340E+00 1.8863185E+00
 6.7966670E+00 1.0710225E+00 1.8880924E+00
 6.8707521E+00 1.0481931E+00 1.8886931E+00
 6.9448608E+00 1.0245203E+00 1.8880821E+00
 7.0187760E+00 1.0000003E+00 1.8862245E+00
 7.0922149E+00 9.7462680E-01 1.8830764E+00
 7.1648539E+00 9.4837992E-01 1.8785689E+00
 7.2363698E+00 9.2122886E-01 1.8725953E+00
 7.3064997E+00 8.9314788E-01 1.8650022E+00
 7.3751111E+00 8.6414641E-01 1.8555871E+00
 7.4422597E+00 8.3430549E-01 1.8441022E+00
 7.5081909E+00 8.0380228E-01 1.8302608E+00
 6.5031584E+00 1.1117909E+00 1.8811609E+00
 6.5766186E+00 1.0905124E+00 1.8851689E+00
 6.6501948E+00 1.0688861E+00 1.8881337E+00
 6.7238668E+00 1.0466693E+00 1.8899701E+00
 6.7975976E+00 1.0237256E+00 1.8906068E+00
 6.8713087E+00 1.0000003E+00 1.8899907E+00
 6.9448608E+00 9.7548039E-01 1.8880821E+00
 7.0180480E+00 9.5016100E-01 1.8848457E+00
 7.0906078E+00 9.2402634E-01 1.8802339E+00
 7.1622494E+00 8.9704554E-01 1.8741714E+00
 7.2327033E+00 8.6918441E-01 1.8665415E+00
 7.3017877E+00 8.4043228E-01 1.8571804E+00
 7.3694725E+00 8.1083787E-01 1.8458782E+00
 7.4359025E+00 7.8053663E-01 1.8323872E+00
 6.5035671E+00 1.0673687E+00 1.8856810E+00
 6.5771976E+00 1.0454058E+00 1.8886397E+00
 6.6507647E+00 1.0230129E+00 1.8905122E+00
 6.7242437E+00 1.0000003E+00 1.8911946E+00
 6.7975976E+00 9.7627505E-01 1.8906069E+00
 6.8707521E+00 9.5180760E-01 1.8886932E+00
 6.9435775E+00 9.2659224E-01 1.8854133E+00
 7.0158828E+00 9.0061779E-01 1.8807287E+00
 7.0874283E+00 8.7385561E-01 1.8745855E+00
 7.1579604E+00 8.4626567E-01 1.8668983E+00
 7.2272680E+00 8.1781992E-01 1.8575398E+00
 7.2952511E+00 7.8853706E-01 1.8463392E+00
 7.3619623E+00 7.5851340E-01 1.8330879E+00
 6.5037757E+00 1.0225060E+00 1.8879623E+00
 6.5773932E+00 1.0000003E+00 1.8898039E+00
 6.6507647E+00 9.7698781E-01 1.8905122E+00
 6.7238668E+00 9.5333141E-01 1.8899701E+00
 6.7966670E+00 9.2897814E-01 1.8880925E+00
 6.8690992E+00 9.0391875E-01 1.8848220E+00
 6.9410438E+00 8.7814867E-01 1.8801160E+00
 7.0123227E+00 8.5164565E-01 1.8739299E+00
 7.0827159E+00 8.2436852E-01 1.8661995E+00
 7.1520054E+00 7.9627621E-01 1.8568281E+00
 7.2200400E+00 7.6736161E-01 1.8456803E+00
 7.2867950E+00 7.3768559E-01 1.8325860E+00
 6.5037757E+00 9.7749468E-01 1.8879623E+00
 6.5771976E+00 9.5459487E-01 1.8886398E+00
 6.6501948E+00 9.3111460E-01 1.8881338E+00
 6.7227495E+00 9.0696666E-01 1.8863186E+00
 6.7948356E+00 8.8213285E-01 1.8831064E+00
 6.8663926E+00 8.5661738E-01 1.8784380E+00
 6.9373040E+00 8.3041107E-01 1.8722655E+00
 7.0073944E+00 8.0347933E-01 1.8645344E+00
 7.0764557E+00 7.7577533E-01 1.8551682E+00
 7.1443062E+00 7.4727242E-01 1.8440605E+00
 7.2108612E+00 7.1800152E-01 1.8310753E+00
 6.5035671E+00 9.3263198E-01 1.8856811E+00
 6.5766186E+00 9.0948830E-01 1.8851690E+00
 6.6490768E+00 8.8568979E-01 1.8834201E+00
 6.7209289E+00 8.6119369E-01 1.8803032E+00
 6.7921501E+00 8.3600928E-01 1.8757289E+00
 6.8626730E+00 8.1014727E-01 1.8696339E+00
 6.9323668E+00 7.8359123E-01 1.8619614E+00
 7.0010441E+00 7.5630012E-01 1.8526449E+00
 7.0685089E+00 7.2823758E-01 1.8415973E+00
 7.1346347E+00 6.9941230E-01 1.8287098E+00
 6.5031584E+00 8.8820973E-01 1.8811611E+00
 6.5756792E+00 8.6496723E-01 1.8794548E+00
 6.6474490E+00 8.4098848E-01 1.8764534E+00
 6.7184514E+00 8.1626703E-01 1.8720219E+00
 6.7886442E+00 7.9083154E-01 1.8660678E+00
 6.8579282E+00 7.6469531E-01 1.8585208E+00
 6.9261363E+00 7.3783967E-01 1.8493138E+00
 6.9930687E+00 7.1023410E-01 1.8383699E+00
 7.0585727E+00 6.8187735E-01 1.8255992E+00
 6.5025657E+00 8.4450385E-01 1.8744843E+00
 6.5744122E+00 8.2129425E-01 1.8715975E+00
 6.6453528E+00 7.9725032E-01 1.8673480E+00
 6.7153418E+00 7.7239193E-01 1.8615961E+00
 6.7842847E+00 7.4676158E-01 1.8542435E+00
 6.8520201E+00 7.2038024E-01 1.8452125E+00
 6.9183439E+00 6.9324574E-01 1.8344287E+00
 6.9830878E+00 6.6536626E-01 1.8218146E+00
 6.5018087E+00 8.0176533E-01 1.8657676E+00
 6.5728494E+00 7.7869712E-01 1.8617267E+00
 6.6428043E+00 7.5466539E-01 1.8562382E+00
 6.7115502E+00 7.2970871E-01 1.8491542E+00
 6.7788977E+00 7.0388849E-01 1.8403709E+00
 6.8446181E+00 6.7725509E-01 1.8298091E+00
 6.9085295E+00 6.4985658E-01 1.8174002E+00
 6.5009039E+00 7.6021259E-01 1.8551557E+00
 6.5709988E+00 7.3735792E-01 1.8499910E+00
 6.6397459E+00 7.1336017E-01 1.8432623E+00
 6.7068773E+00 6.8827974E-01 1.8348116E+00
 6.7720945E+00 6.6222744E-01 1.8245404E+00
 6.8351792E+00 6.3532678E-01 1.8123878E+00
 6.4998503E+00 7.2002564E-01 1.8428126E+00
 6.5688067E+00 6.9740021E-01 1.8365426E+00
 6.6359777E+00 6.7338285E-01 1.8285407E+00
 6.7009020E+00 6.4808951E-01 1.8186501E+00
 6.7632504E+00 6.2174531E-01 1.8068086E+00
 6.4986102E+00 6.8134112E-01 1.8289115E+00
 6.5661062E+00 6.5887674E-01 1.8215184E+00
 6.6310618E+00 6.3468655E-01 1.8121481E+00
 6.6928995E+00 6.0905333E-01 1.8006982E+00
 6.4970804E+00 6.4423950E-01 1.8136194E+00
 6.5625385E+00 6.2175590E-01 1.8050145E+00
 6.6242321E+00 5.9715426E-01 1.7940985E+00
 6.4950599E+00 6.0873515E-01 1.7970821E+00
 6.5572399E+00 5.8585218E-01 1.7870175E+00
 6.4920852E+00 5.7483339E-01 1.7794329E+00
 6.3926141E+00 1.4877961E+00 1.7384706E+00
 6.3537292E+00 1.5114398E+00 1.7208681E+00
 6.3132010E+00 1.5354487E+00 1.7016812E+00
 6.2712653E+00 1.5595859E+00 1.6809948E+00
 6.2280270E+00 1.5837580E+00 1.6588212E+00
 6.1836573E+00 1.6078908E+00 1.6351691E+00
 6.1383297E+00 1.6319296E+00 1.6100376E+00
 6.0922478E+00 1.6558133E+00 1.5834350E+00
 6.0456573E+00 1.6794720E+00 1.5553742E+00
 5.9988489E+00 1.7028216E+00 1.5258717E+00
 5.9521605E+00 1.7257570E+00 1.4949458E+00
 5.9059712E+00 1.7481457E+00 1.4626172E+00
 5.8606874E+00 1.7698237E+00 1.4289120E+00
 5.8167207E+00 1.7905954E+00 1.3938675E+00
 5.7744599E+00 1.8102409E+00 1.3575394E+00
 5.7342462E+00 1.8285275E+00 1.3200096E+00
 5.6963585E+00 1.8452261E+00 1.2813913E+00
 5.6610140E+00 1.8601274E+00 1.2418299E+00
 5.6283766E+00 1.8730552E+00 1.2014996E+00
 5.5985705E+00 1.8838749E+00 1.1605992E+00
 5.5716825E+00 1.8924933E+00 1.1193861E+00
 5.5476632E+00 1.8988697E+00 1.0781762E+00
 5.5263754E+00 1.9030257E+00 1.0375540E+00
 4.8293474E+00 1.0903605E+00 1.7670843E+00
 4.8211293E+00 1.1491674E+00 1.7522194E+00
 4.8159108E+00 1.2089139E+00 1.7341518E+00
 4.8144661E+00 1.2695277E+00 1.7131100E+00
 4.8172530E+00 1.3306669E+00 1.6891480E+00
 4.8246148E+00 1.3918304E+00 1.6623079E+00
 4.8367957E+00 1.4523953E+00 1.6326538E+00
 4.8539465E+00 1.5116570E+00 1.6002974E+00
 4.8761192E+00 1.5688564E+00 1.5654168E+00
 4.9032583E+00 1.6232124E+00 1.5282693E+00
 4.9351913E+00 1.6739589E+00 1.4891958E+00
 4.9716248E+00 1.7203895E+00 1.4486177E+00
 5.0121514E+00 1.7619041E+00 1.4070254E+00
 5.0562691E+00 1.7980555E+00 1.3649577E+00
 5.1034133E+00 1.8285860E+00 1.3229758E+00
 5.1529965E+00 1.8534504E+00 1.2816329E+00
 5.2044484E+00 1.8728183E+00 1.2414422E+00
 5.2572486E+00 1.8870581E+00 1.2028437E+00
 5.3109378E+00 1.8967017E+00 1.1661758E+00
 5.3651276E+00 1.9023968E+00 1.1316357E+00
 5.4194728E+00 1.9048564E+00 1.0992070E+00
 5.4734853E+00 1.9048186E+00 1.0685600E+00
 4.8788306E+00 1.1262777E+00 1.7932393E+00
 4.8736154E+00 1.1872871E+00 1.7780808E+00
 4.8712634E+00 1.2481574E+00 1.7594821E+00
 4.8726394E+00 1.3091034E+00 1.7377170E+00
 4.8782636E+00 1.3699207E+00 1.7128919E+00
 4.8884727E+00 1.4301615E+00 1.6850781E+00
 4.9034627E+00 1.4892221E+00 1.6543644E+00
 4.9233072E+00 1.5464017E+00 1.6208923E+00
 4.9479676E+00 1.6009548E+00 1.5848785E+00
 4.9772953E+00 1.6521371E+00 1.5466271E+00
 5.0110323E+00 1.6992521E+00 1.5065310E+00
 5.0488190E+00 1.7416994E+00 1.4650619E+00
 5.0902124E+00 1.7790194E+00 1.4227520E+00
 5.1347144E+00 1.8109306E+00 1.3801683E+00
 5.1818077E+00 1.8373520E+00 1.3378798E+00
 5.2309914E+00 1.8584083E+00 1.2964227E+00
 5.2818079E+00 1.8744160E+00 1.2562614E+00
 5.3338578E+00 1.8858552E+00 1.2177438E+00
 5.3868055E+00 1.8933289E+00 1.1810400E+00
 5.4403476E+00 1.8975150E+00 1.1460758E+00
 5.4941988E+00 1.8991234E+00 1.1122672E+00
 4.9329423E+00 1.1606290E+00 1.8157449E+00
 4.9305621E+00 1.2225836E+00 1.7999526E+00
 4.9310505E+00 1.2838904E+00 1.7806064E+00
 4.9352321E+00 1.3446729E+00 1.7579503E+00
 4.9436356E+00 1.4047376E+00 1.7321118E+00
 4.9565701E+00 1.4636468E+00 1.7031882E+00
 4.9741716E+00 1.5208060E+00 1.6713003E+00
 4.9964371E+00 1.5755336E+00 1.6366309E+00
 5.0232468E+00 1.6271237E+00 1.5994469E+00
 5.0543778E+00 1.6749000E+00 1.5601079E+00
 5.0895156E+00 1.7182669E+00 1.5190615E+00
 5.1282726E+00 1.7567562E+00 1.4768265E+00
 5.1702131E+00 1.7900643E+00 1.4339672E+00
 5.2148852E+00 1.8180763E+00 1.3910616E+00
 5.2618515E+00 1.8408735E+00 1.3486626E+00
 5.3107116E+00 1.8587237E+00 1.3072558E+00
 5.3611127E+00 1.8720582E+00 1.2672057E+00
 5.4127423E+00 1.8814376E+00 1.2286963E+00
 5.4653150E+00 1.8875114E+00 1.1916307E+00
 5.5185069E+00 1.8909665E+00 1.1555391E+00
 4.9912628E+00 1.1934100E+00 1.8339338E+00
 4.9915863E+00 1.2554051E+00 1.8172557E+00
 4.9948191E+00 1.3164170E+00 1.7969653E+00
 5.0017181E+00 1.3764463E+00 1.7732699E+00
 5.0127736E+00 1.4352426E+00 1.7463041E+00
 5.0282448E+00 1.4923537E+00 1.7161917E+00
 5.0482023E+00 1.5471951E+00 1.6830941E+00
 5.0725739E+00 1.5991218E+00 1.6472453E+00
 5.1011770E+00 1.6474933E+00 1.6089699E+00
 5.1337430E+00 1.6917292E+00 1.5686850E+00
 5.1699370E+00 1.7313588E+00 1.5268875E+00
 5.2093827E+00 1.7660600E+00 1.4841307E+00
 5.2516889E+00 1.7956859E+00 1.4409925E+00
 5.2964750E+00 1.8202747E+00 1.3980363E+00
 5.3433896E+00 1.8400452E+00 1.3557660E+00
 5.3921138E+00 1.8553792E+00 1.3145727E+00
 5.4423496E+00 1.8667947E+00 1.2746661E+00
 5.4937903E+00 1.8749075E+00 1.2360051E+00
 5.5460639E+00 1.8803833E+00 1.1982245E+00
 5.0533787E+00 1.2243334E+00 1.8473731E+00
 5.0562489E+00 1.2856683E+00 1.8296081E+00
 5.0620804E+00 1.3457471E+00 1.8082175E+00