# TIME = 4.000000
VARIABLES = X, Y, Z, FX, FY, FZ
ZONE N=29232 E=58212 F=FEPOINT ET=TRIANGLE
  0.000E+00  9.502E-01  1.243E-03 3.3540376E+00 3.5514012E-02 7.1423873E-01
  0.000E+00  1.000E+00  0.000E+00 3.3526233E+00 1.3056530E-06 7.1514985E-01
  4.318E-02  9.751E-01  3.108E-04 3.3524286E+00 1.7159220E-02 6.9088050E-01
  0.000E+00  1.050E+00  1.243E-03 3.3540374E+00 -3.5511407E-02 7.1423910E-01
  4.318E-02  1.025E+00  3.108E-04 3.3524285E+00 -1.7156272E-02 6.9088068E-01
  0.000E+00  1.100E+00  4.969E-03 3.3595262E+00 -7.1057056E-02 7.1157895E-01
  4.318E-02  1.075E+00  2.796E-03 3.3558471E+00 -5.1486406E-02 6.8914236E-01
  0.000E+00  1.149E+00  1.117E-02 3.3714552E+00 -1.0664071E-01 7.0728765E-01
  4.318E-02  1.124E+00  7.761E-03 3.3647250E+00 -8.5862047E-02 6.8577405E-01
  0.000E+00  1.198E+00  1.983E-02 3.3892340E+00 -1.4203104E-01 7.0128678E-01
  4.318E-02  1.174E+00  1.519E-02 3.3802912E+00 -1.2020299E-01 6.8082580E-01
  0.000E+00  1.247E+00  3.092E-02 3.4057713E+00 -1.7676182E-01 6.9330442E-01
  4.318E-02  1.223E+00  2.507E-02 3.3985602E+00 -1.5414146E-01 6.7410526E-01
  0.000E+00  1.295E+00  4.443E-02 3.4128093E+00 -2.1072021E-01 6.8336249E-01
  4.318E-02  1.271E+00  3.738E-02 3.4103981E+00 -1.8729474E-01 6.6539835E-01
  0.000E+00  1.342E+00  6.031E-02 3.4239277E+00 -2.4439722E-01 6.7194761E-01
  4.318E-02  1.318E+00  5.207E-02 3.4135675E+00 -2.1991121E-01 6.5502099E-01
  0.000E+00  1.388E+00  7.852E-02 3.4579656E+00 -2.7784649E-01 6.5913702E-01
  4.318E-02  1.365E+00  6.913E-02 3.4424268E+00 -2.5241308E-01 6.4336684E-01
  0.000E+00  1.434E+00  9.903E-02 3.4660775E+00 -3.1038977E-01 6.4445773E-01
  4.318E-02  1.411E+00  8.849E-02 3.4683758E+00 -2.8435767E-01 6.3011175E-01
  0.000E+00  1.478E+00  1.218E-01 3.4838132E+00 -3.4203769E-01 6.2811307E-01
  4.318E-02  1.456E+00  1.101E-01 3.4656439E+00 -3.1533091E-01 6.1506489E-01
  0.000E+00  1.521E+00  1.467E-01 3.5097504E+00 -3.7295413E-01 6.1031998E-01
  4.318E-02  1.500E+00  1.340E-01 3.5000695E+00 -3.4557595E-01 5.9857954E-01
  0.000E+00  1.563E+00  1.738E-01 3.5062727E+00 -4.0291485E-01 5.9096663E-01
  4.318E-02  1.543E+00  1.600E-01 3.4992227E+00 -3.7501455E-01 5.8063480E-01
  0.000E+00  1.604E+00  2.029E-01 3.5275185E+00 -4.3186473E-01 5.7014237E-01
  4.318E-02  1.584E+00  1.881E-01 3.5308066E+00 -4.0347724E-01 5.6120471E-01
  0.000E+00  1.643E+00  2.340E-01 3.5350405E+00 -4.5975213E-01 5.4791288E-01
  4.318E-02  1.623E+00  2.182E-01 3.5211892E+00 -4.3095402E-01 5.4040048E-01
  0.000E+00  1.680E+00  2.669E-01 3.5364355E+00 -4.8648972E-01 5.2431397E-01
  4.318E-02  1.662E+00  2.502E-01 3.5378723E+00 -4.5735468E-01 5.1824846E-01
  0.000E+00  1.716E+00  3.018E-01 3.5377002E+00 -5.1202023E-01 4.9941256E-01
  4.318E-02  1.698E+00  2.841E-01 3.5377124E+00 -4.8261820E-01 4.9480653E-01
  0.000E+00  1.750E+00  3.383E-01 3.5378600E+00 -5.3627801E-01 4.7327022E-01
  4.318E-02  1.733E+00  3.198E-01 3.5364475E+00 -5.0668244E-01 4.7013459E-01
  0.000E+00  1.782E+00  3.765E-01 3.5211769E+00 -5.5920113E-01 4.4595127E-01
  4.318E-02  1.766E+00  3.572E-01 3.5350523E+00 -5.2948814E-01 4.4429625E-01
  0.000E+00  1.812E+00  4.163E-01 3.5307941E+00 -5.8072971E-01 4.1751888E-01
  4.318E-02  1.797E+00  3.962E-01 3.5275302E+00 -5.5097056E-01 4.1734680E-01
  0.000E+00  1.840E+00  4.575E-01 3.4992102E+00 -6.0083607E-01 3.8806612E-01
  4.318E-02  1.826E+00  4.367E-01 3.5062842E+00 -5.7109504E-01 3.8937063E-01
  0.000E+00  1.866E+00  5.000E-01 3.5000566E+00 -6.1940515E-01 3.5760328E-01
  4.318E-02  1.853E+00  4.786E-01 3.5097616E+00 -5.8979758E-01 3.6041736E-01
  0.000E+00  1.890E+00  5.438E-01 3.4656310E+00 -6.3646451E-01 3.2630587E-01
  4.318E-02  1.878E+00  5.217E-01 3.4838242E+00 -6.0699266E-01 3.3054060E-01
  0.000E+00  1.912E+00  5.887E-01 3.4683629E+00 -6.5203541E-01 2.9425519E-01
  4.318E-02  1.901E+00  5.661E-01 3.4660884E+00 -6.2278823E-01 2.9995713E-01
  0.000E+00  1.931E+00  6.347E-01 3.4424139E+00 -6.6575224E-01 2.6119943E-01
  4.318E-02  1.921E+00  6.116E-01 3.4579763E+00 -6.3697446E-01 2.6850854E-01
  0.000E+00  1.948E+00  6.815E-01 3.4135542E+00 -6.7781236E-01 2.2756709E-01
  4.318E-02  1.940E+00  6.580E-01 3.4239381E+00 -6.4935494E-01 2.3618413E-01
  0.000E+00  1.963E+00  7.292E-01 3.4103845E+00 -6.8855099E-01 1.9381614E-01
  4.318E-02  1.956E+00  7.052E-01 3.4128192E+00 -6.6038605E-01 2.0363913E-01
  0.000E+00  1.975E+00  7.775E-01 3.3985464E+00 -6.9756116E-01 1.5950948E-01
  4.318E-02  1.969E+00  7.532E-01 3.4057808E+00 -6.6999355E-01 1.7082206E-01
  0.000E+00  1.985E+00  8.264E-01 3.3802772E+00 -7.0451601E-01 1.2439009E-01
  4.318E-02  1.980E+00  8.019E-01 3.3892435E+00 -6.7770775E-01 1.3725886E-01
  0.000E+00  1.992E+00  8.757E-01 3.3647110E+00 -7.0963696E-01 8.8854162E-02
  4.318E-02  1.989E+00  8.510E-01 3.3714646E+00 -6.8350735E-01 1.0305864E-01
  0.000E+00  1.997E+00  9.253E-01 3.3558331E+00 -7.1312298E-01 5.3282398E-02
  4.318E-02  1.995E+00  9.004E-01 3.3595355E+00 -6.8765489E-01 6.8671770E-02
  0.000E+00  2.000E+00  9.751E-01 3.3524145E+00 -7.1492226E-01 1.7757817E-02
  4.318E-02  1.999E+00  9.502E-01 3.3540466E+00 -6.9022605E-01 3.4321593E-02
  0.000E+00  2.000E+00  1.025E+00 3.3524144E+00 -7.1492246E-01 -1.7751583E-02
  4.318E-02  2.000E+00  1.000E+00 3.3526324E+00 -6.9110659E-01 3.1833229E-06
  0.000E+00  1.997E+00  1.075E+00 3.3558330E+00 -7.1312355E-01 -5.3276184E-02
  4.318E-02  1.999E+00  1.050E+00 3.3540465E+00 -6.9022644E-01 -3.4315234E-02
  0.000E+00  1.992E+00  1.124E+00 3.3647108E+00 -7.0963793E-01 -8.8847986E-02
  4.318E-02  1.995E+00  1.100E+00 3.3595353E+00 -6.8765566E-01 -6.8665435E-02
  0.000E+00  1.985E+00  1.174E+00 3.3802769E+00 -7.0451747E-01 -1.2438397E-01
  4.318E-02  1.989E+00  1.149E+00 3.3714643E+00 -6.8350857E-01 -1.0305235E-01
  0.000E+00  1.975E+00  1.223E+00 3.3985460E+00 -6.9756314E-01 -1.5950342E-01
  4.318E-02  1.980E+00  1.198E+00 3.3892431E+00 -6.7770951E-01 -1.3725263E-01
  0.000E+00  1.963E+00  1.271E+00 3.4103839E+00 -6.8855327E-01 -1.9381015E-01
  4.318E-02  1.969E+00  1.247E+00 3.4057803E+00 -6.6999577E-01 -1.7081591E-01
  0.000E+00  1.948E+00  1.318E+00 3.4135536E+00 -6.7781479E-01 -2.2756120E-01
  4.318E-02  1.956E+00  1.295E+00 3.4128186E+00 -6.6038843E-01 -2.0363307E-01
  0.000E+00  1.931E+00  1.365E+00 3.4424131E+00 -6.6575536E-01 -2.6119366E-01
  4.318E-02  1.940E+00  1.342E+00 3.4239374E+00 -6.4935770E-01 -2.3617818E-01
  0.000E+00  1.912E+00  1.411E+00 3.4683621E+00 -6.5203898E-01 -2.9424956E-01
  4.318E-02  1.921E+00  1.388E+00 3.4579756E+00 -6.3697794E-01 -2.6850272E-01
  0.000E+00  1.890E+00  1.456E+00 3.4656301E+00 -6.3646810E-01 -3.2630039E-01
  4.318E-02  1.901E+00  1.434E+00 3.4660875E+00 -6.2279180E-01 -2.9995145E-01
  0.000E+00  1.866E+00  1.500E+00 3.5000557E+00 -6.1940942E-01 -3.5759797E-01
  4.318E-02  1.878E+00  1.478E+00 3.4838233E+00 -6.0699660E-01 -3.3053508E-01
  0.000E+00  1.840E+00  1.543E+00 3.4992091E+00 -6.0084056E-01 -3.8806100E-01
  4.318E-02  1.853E+00  1.521E+00 3.5097606E+00 -5.8980206E-01 -3.6041203E-01
  0.000E+00  1.812E+00  1.584E+00 3.5307930E+00 -5.8073453E-01 -4.1751396E-01
  4.318E-02  1.826E+00  1.563E+00 3.5062831E+00 -5.7109967E-01 -3.8936549E-01
  0.000E+00  1.782E+00  1.623E+00 3.5211757E+00 -5.5920629E-01 -4.4594656E-01
  4.318E-02  1.797E+00  1.604E+00 3.5275291E+00 -5.5097565E-01 -4.1734188E-01
  0.000E+00  1.750E+00  1.662E+00 3.5378587E+00 -5.3628343E-01 -4.7326576E-01
  4.318E-02  1.766E+00  1.643E+00 3.5350511E+00 -5.2949345E-01 -4.4429156E-01
  0.000E+00  1.716E+00  1.698E+00 3.5376989E+00 -5.1202598E-01 -4.9940835E-01
  4.318E-02  1.733E+00  1.680E+00 3.5364462E+00 -5.0668808E-01 -4.7013015E-01
  0.000E+00  1.680E+00  1.733E+00 3.5364342E+00 -4.8649574E-01 -5.2431005E-01
  4.318E-02  1.698E+00  1.716E+00 3.5377110E+00 -4.8262406E-01 -4.9480234E-01
  0.000E+00  1.643E+00  1.766E+00 3.5350391E+00 -4.5975840E-01 -5.4790925E-01
  4.318E-02  1.662E+00  1.750E+00 3.5378708E+00 -4.5736081E-01 -5.1824456E-01
  0.000E+00  1.604E+00  1.797E+00 3.5275171E+00 -4.3187116E-01 -5.7013903E-01
  4.318E-02  1.623E+00  1.782E+00 3.5211878E+00 -4.3096039E-01 -5.4039688E-01
  0.000E+00  1.563E+00  1.826E+00 3.5062711E+00 -4.0292140E-01 -5.9096358E-01
  4.318E-02  1.584E+00  1.812E+00 3.5308051E+00 -4.0348390E-01 -5.6120145E-01
  0.000E+00  1.521E+00  1.853E+00 3.5097489E+00 -3.7296087E-01 -6.1031726E-01
  4.318E-02  1.543E+00  1.840E+00 3.4992212E+00 -3.7502144E-01 -5.8063188E-01
  0.000E+00  1.478E+00  1.878E+00 3.4838117E+00 -3.4204480E-01 -6.2811076E-01
  4.318E-02  1.500E+00  1.866E+00 3.5000679E+00 -3.4558301E-01 -5.9857695E-01
  0.000E+00  1.434E+00  1.901E+00 3.4660760E+00 -3.1039740E-01 -6.4445589E-01
  4.318E-02  1.456E+00  1.890E+00 3.4656423E+00 -3.1533793E-01 -6.1506259E-01
  0.000E+00  1.388E+00  1.921E+00 3.4579640E+00 -2.7785452E-01 -6.5913565E-01
  4.318E-02  1.411E+00  1.912E+00 3.4683742E+00 -2.8436460E-01 -6.3010976E-01
  0.000E+00  1.342E+00  1.940E+00 3.4239259E+00 -2.4440510E-01 -6.7194660E-01
  4.318E-02  1.365E+00  1.931E+00 3.4424252E+00 -2.5242012E-01 -6.4336520E-01
  0.000E+00  1.295E+00  1.956E+00 3.4128074E+00 -2.1072740E-01 -6.8336171E-01
  4.318E-02  1.318E+00  1.948E+00 3.4135658E+00 -2.1991876E-01 -6.5501980E-01
  0.000E+00  1.247E+00  1.969E+00 3.4057696E+00 -1.7676827E-01 -6.9330379E-01
  4.318E-02  1.271E+00  1.963E+00 3.4103963E+00 -1.8730299E-01 -6.6539770E-01
  0.000E+00  1.198E+00  1.980E+00 3.3892325E+00 -1.4203728E-01 -7.0128635E-01
  4.318E-02  1.223E+00  1.975E+00 3.3985584E+00 -1.5415017E-01 -6.7410519E-01
  0.000E+00  1.149E+00  1.989E+00 3.3714536E+00 -1.0664731E-01 -7.0728753E-01
  4.318E-02  1.174E+00  1.985E+00 3.3802893E+00 -1.2021173E-01 -6.8082624E-01
  0.000E+00  1.100E+00  1.995E+00 3.3595245E+00 -7.1064229E-02 -7.1157921E-01
  4.318E-02  1.124E+00  1.992E+00 3.3647233E+00 -8.5870524E-02 -6.8577497E-01
  0.000E+00  1.050E+00  1.999E+00 3.3540356E+00 -3.5519036E-02 -7.1423976E-01
  4.318E-02  1.075E+00  1.997E+00 3.3558454E+00 -5.1494596E-02 -6.8914372E-01
  0.000E+00  1.000E+00  2.000E+00 3.3526215E+00 -6.6115097E-06 -7.1515093E-01
  4.318E-02  1.025E+00  2.000E+00 3.3524268E+00 -1.7164265E-02 -6.9088248E-01
  0.000E+00  9.502E-01  1.999E+00 3.3540358E+00 3.5505823E-02 -7.1424024E-01
  4.318E-02  9.751E-01  2.000E+00 3.3524269E+00 1.7151383E-02 -6.9088271E-01
  0.000E+00  9.004E-01  1.995E+00 3.3595249E+00 7.1051047E-02 -7.1158016E-01
  4.318E-02  9.253E-01  1.997E+00 3.3558457E+00 5.1481734E-02 -6.8914443E-01
  0.000E+00  8.510E-01  1.989E+00 3.3714542E+00 1.0663418E-01 -7.0728896E-01
  4.318E-02  8.757E-01  1.992E+00 3.3647238E+00 8.5857703E-02 -6.8577615E-01
  0.000E+00  8.019E-01  1.980E+00 3.3892333E+00 1.4202422E-01 -7.0128825E-01
  4.318E-02  8.264E-01  1.985E+00 3.3802900E+00 1.2019897E-01 -6.8082790E-01
  0.000E+00  7.532E-01  1.969E+00 3.4057706E+00 1.7675531E-01 -6.9330614E-01
  4.318E-02  7.775E-01  1.975E+00 3.3985593E+00 1.5413749E-01 -6.7410730E-01
  0.000E+00  7.052E-01  1.956E+00 3.4128086E+00 2.1071454E-01 -6.8336451E-01
  4.318E-02  7.292E-01  1.963E+00 3.4103974E+00 1.8729041E-01 -6.6540026E-01
  0.000E+00  6.580E-01  1.940E+00 3.4239272E+00 2.4439238E-01 -6.7194985E-01
  4.318E-02  6.815E-01  1.948E+00 3.4135671E+00 2.1990630E-01 -6.5502280E-01
  0.000E+00  6.116E-01  1.921E+00 3.4579655E+00 2.7784194E-01 -6.5913932E-01
  4.318E-02  6.347E-01  1.931E+00 3.4424267E+00 2.5240781E-01 -6.4336863E-01
  0.000E+00  5.661E-01  1.901E+00 3.4660777E+00 3.1038501E-01 -6.4445997E-01
  4.318E-02  5.887E-01  1.912E+00 3.4683758E+00 2.8435244E-01 -6.3011360E-01
  0.000E+00  5.217E-01  1.878E+00 3.4838136E+00 3.4203259E-01 -6.2811522E-01
  4.318E-02  5.438E-01  1.890E+00 3.4656441E+00 3.1532595E-01 -6.1506684E-01
  0.000E+00  4.786E-01  1.853E+00 3.5097509E+00 3.7294887E-01 -6.1032210E-01
  4.318E-02  5.000E-01  1.866E+00 3.5000699E+00 3.4557122E-01 -5.9858157E-01
  0.000E+00  4.367E-01  1.826E+00 3.5062733E+00 4.0290963E-01 -5.9096877E-01
  4.318E-02  4.575E-01  1.840E+00 3.4992234E+00 3.7500989E-01 -5.8063687E-01
  0.000E+00  3.962E-01  1.797E+00 3.5275194E+00 4.3185964E-01 -5.7014456E-01
  4.318E-02  4.163E-01  1.812E+00 3.5308074E+00 4.0347257E-01 -5.6120678E-01
  0.000E+00  3.572E-01  1.766E+00 3.5350415E+00 4.5974714E-01 -5.4791509E-01
  4.318E-02  3.765E-01  1.782E+00 3.5211902E+00 4.3094933E-01 -5.4040254E-01
  0.000E+00  3.198E-01  1.733E+00 3.5364368E+00 4.8648478E-01 -5.2431619E-01
  4.318E-02  3.383E-01  1.750E+00 3.5378734E+00 4.5735000E-01 -5.1825053E-01
  0.000E+00  2.841E-01  1.698E+00 3.5377016E+00 5.1201529E-01 -4.9941477E-01
  4.318E-02  3.018E-01  1.716E+00 3.5377137E+00 4.8261357E-01 -4.9480860E-01
  0.000E+00  2.502E-01  1.662E+00 3.5378615E+00 5.3627308E-01 -4.7327242E-01
  4.318E-02  2.669E-01  1.680E+00 3.5364490E+00 5.0667786E-01 -4.7013667E-01
  0.000E+00  2.182E-01  1.623E+00 3.5211786E+00 5.5919624E-01 -4.4595346E-01
  4.318E-02  2.340E-01  1.643E+00 3.5350540E+00 5.2948360E-01 -4.4429832E-01
  0.000E+00  1.881E-01  1.584E+00 3.5307960E+00 5.8072486E-01 -4.1752106E-01
  4.318E-02  2.029E-01  1.604E+00 3.5275321E+00 5.5096605E-01 -4.1734886E-01
  0.000E+00  1.600E-01  1.543E+00 3.4992122E+00 6.0083126E-01 -3.8806829E-01
  4.318E-02  1.738E-01  1.563E+00 3.5062862E+00 5.7109056E-01 -3.8937266E-01
  0.000E+00  1.340E-01  1.500E+00 3.5000589E+00 6.1940037E-01 -3.5760542E-01
  4.318E-02  1.467E-01  1.521E+00 3.5097638E+00 5.8979312E-01 -3.6041937E-01
  0.000E+00  1.101E-01  1.456E+00 3.4656333E+00 6.3645976E-01 -3.2630798E-01
  4.318E-02  1.218E-01  1.478E+00 3.4838265E+00 6.0698823E-01 -3.3054258E-01
  0.000E+00  8.849E-02  1.411E+00 3.4683654E+00 6.5203068E-01 -2.9425726E-01
  4.318E-02  9.903E-02  1.434E+00 3.4660909E+00 6.2278384E-01 -2.9995908E-01
  0.000E+00  6.913E-02  1.365E+00 3.4424165E+00 6.6574753E-01 -2.6120147E-01
  4.318E-02  7.852E-02  1.388E+00 3.4579789E+00 6.3697009E-01 -2.6851046E-01
  0.000E+00  5.207E-02  1.318E+00 3.4135570E+00 6.7780767E-01 -2.2756908E-01
  4.318E-02  6.031E-02  1.342E+00 3.4239408E+00 6.4935059E-01 -2.3618601E-01
  0.000E+00  3.738E-02  1.271E+00 3.4103874E+00 6.8854632E-01 -1.9381809E-01
  4.318E-02  4.443E-02  1.295E+00 3.4128221E+00 6.6038172E-01 -2.0364097E-01
  0.000E+00  2.507E-02  1.223E+00 3.3985494E+00 6.9755651E-01 -1.5951140E-01
  4.318E-02  3.092E-02  1.247E+00 3.4057838E+00 6.6998924E-01 -1.7082385E-01
  0.000E+00  1.519E-02  1.174E+00 3.3802804E+00 7.0451139E-01 -1.2439197E-01
  4.318E-02  1.983E-02  1.198E+00 3.3892466E+00 6.7770345E-01 -1.3726061E-01
  0.000E+00  7.761E-03  1.124E+00 3.3647143E+00 7.0963235E-01 -8.8855981E-02
  4.318E-02  1.117E-02  1.149E+00 3.3714678E+00 6.8350306E-01 -1.0306034E-01
  0.000E+00  2.796E-03  1.075E+00 3.3558365E+00 7.1311838E-01 -5.3284161E-02
  4.318E-02  4.969E-03  1.100E+00 3.3595389E+00 6.8765059E-01 -6.8673417E-02
  0.000E+00  3.108E-04  1.025E+00 3.3524180E+00 7.1491767E-01 -1.7759525E-02
  4.318E-02  1.243E-03  1.050E+00 3.3540501E+00 6.9022176E-01 -3.4323193E-02
  0.000E+00  3.108E-04  9.751E-01 3.3524180E+00 7.1491787E-01 1.7749928E-02
  4.318E-02  0.000E+00  1.000E+00 3.3526360E+00 6.9110230E-01 -4.7337721E-06
  0.000E+00  2.796E-03  9.253E-01 3.3558367E+00 7.1311896E-01 5.3274578E-02
  4.318E-02  1.243E-03  9.502E-01 3.3540502E+00 6.9022215E-01 3.4313734E-02
  0.000E+00  7.761E-03  8.757E-01 3.3647146E+00 7.0963334E-01 8.8846427E-02
  4.318E-02  4.969E-03  9.004E-01 3.3595391E+00 6.8765137E-01 6.8663985E-02
  0.000E+00  1.519E-02  8.264E-01 3.3802807E+00 7.0451288E-01 1.2438246E-01
  4.318E-02  1.117E-02  8.510E-01 3.3714682E+00 6.8350427E-01 1.0305095E-01
  0.000E+00  2.507E-02  7.775E-01 3.3985499E+00 6.9755855E-01 1.5950196E-01
  4.318E-02  1.983E-02  8.019E-01 3.3892470E+00 6.7770519E-01 1.3725127E-01
  0.000E+00  3.738E-02  7.292E-01 3.4103879E+00 6.8854868E-01 1.9380875E-01
  4.318E-02  3.092E-02  7.532E-01 3.4057843E+00 6.6999143E-01 1.7081459E-01
  0.000E+00  5.207E-02  6.815E-01 3.4135576E+00 6.7781018E-01 2.2755984E-01
  4.318E-02  4.443E-02  7.052E-01 3.4128227E+00 6.6038408E-01 2.0363179E-01
  0.000E+00  6.913E-02  6.347E-01 3.4424172E+00 6.6575072E-01 2.6119234E-01
  4.318E-02  6.031E-02  6.580E-01 3.4239415E+00 6.4935333E-01 2.3617694E-01
  0.000E+00  8.849E-02  5.887E-01 3.4683663E+00 6.5203431E-01 2.9424827E-01
  4.318E-02  7.852E-02  6.116E-01 3.4579797E+00 6.3697355E-01 2.6850152E-01
  0.000E+00  1.101E-01  5.438E-01 3.4656342E+00 6.3646340E-01 3.2629913E-01
  4.318E-02  9.903E-02  5.661E-01 3.4660917E+00 6.2278740E-01 2.9995028E-01
  0.000E+00  1.340E-01  5.000E-01 3.5000598E+00 6.1940470E-01 3.5759674E-01
  4.318E-02  1.218E-01  5.217E-01 3.4838274E+00 6.0699217E-01 3.3053394E-01
  0.000E+00  1.600E-01  4.575E-01 3.4992133E+00 6.0083581E-01 3.8805979E-01
  4.318E-02  1.467E-01  4.786E-01 3.5097648E+00 5.8979761E-01 3.6041091E-01
  0.000E+00  1.881E-01  4.163E-01 3.5307972E+00 5.8072976E-01 4.1751278E-01
  4.318E-02  1.738E-01  4.367E-01 3.5062873E+00 5.7109518E-01 3.8936439E-01
  0.000E+00  2.182E-01  3.765E-01 3.5211798E+00 5.5920149E-01 4.4594539E-01
  4.318E-02  2.029E-01  3.962E-01 3.5275332E+00 5.5097113E-01 4.1734079E-01
  0.000E+00  2.502E-01  3.383E-01 3.5378628E+00 5.3627859E-01 4.7326460E-01
  4.318E-02  2.340E-01  3.572E-01 3.5350552E+00 5.2948890E-01 4.4429048E-01
  0.000E+00  2.841E-01  3.018E-01 3.5377029E+00 5.1202108E-01 4.9940719E-01
  4.318E-02  2.669E-01  3.198E-01 3.5364502E+00 5.0668350E-01 4.7012907E-01
  0.000E+00  3.198E-01  2.669E-01 3.5364381E+00 4.8649078E-01 5.2430888E-01
  4.318E-02  3.018E-01  2.841E-01 3.5377150E+00 4.8261947E-01 4.9480127E-01
  0.000E+00  3.572E-01  2.340E-01 3.5350429E+00 4.5975341E-01 5.4790807E-01
  4.318E-02  3.383E-01  2.502E-01 3.5378748E+00 4.5735618E-01 5.1824348E-01
  0.000E+00  3.962E-01  2.029E-01 3.5275209E+00 4.3186620E-01 5.7013786E-01
  4.318E-02  3.765E-01  2.182E-01 3.5211916E+00 4.3095571E-01 5.4039578E-01
  0.000E+00  4.367E-01  1.738E-01 3.5062749E+00 4.0291649E-01 5.9096241E-01
  4.318E-02  4.163E-01  1.881E-01 3.5308088E+00 4.0347913E-01 5.6120032E-01
  0.000E+00  4.786E-01  1.467E-01 3.5097525E+00 3.7295593E-01 6.1031608E-01
  4.318E-02  4.575E-01  1.600E-01 3.4992248E+00 3.7501660E-01 5.8063071E-01
  0.000E+00  5.217E-01  1.218E-01 3.4838151E+00 3.4203964E-01 6.2810949E-01
  4.318E-02  5.000E-01  1.340E-01 3.5000714E+00 3.4557818E-01 5.9857578E-01
  0.000E+00  5.661E-01  9.903E-02 3.4660792E+00 3.1039185E-01 6.4445447E-01
  4.318E-02  5.438E-01  1.101E-01 3.4656457E+00 3.1533326E-01 6.1506145E-01
  0.000E+00  6.116E-01  7.852E-02 3.4579672E+00 2.7784869E-01 6.5913410E-01
  4.318E-02  5.887E-01  8.849E-02 3.4683775E+00 2.8436015E-01 6.3010866E-01
  0.000E+00  6.580E-01  6.031E-02 3.4239291E+00 2.4439951E-01 6.7194504E-01
  4.318E-02  6.347E-01  6.913E-02 3.4424283E+00 2.5241567E-01 6.4336409E-01
  0.000E+00  7.052E-01  4.443E-02 3.4128105E+00 2.1072259E-01 6.8336028E-01
  4.318E-02  6.815E-01  5.207E-02 3.4135688E+00 2.1991389E-01 6.5501859E-01
  0.000E+00  7.532E-01  3.092E-02 3.4057722E+00 1.7676427E-01 6.9330257E-01
  4.318E-02  7.292E-01  3.738E-02 3.4103992E+00 1.8729750E-01 6.6539630E-01
  0.000E+00  8.019E-01  1.983E-02 3.3892348E+00 1.4203355E-01 7.0128529E-01
  4.318E-02  7.775E-01  2.507E-02 3.3985611E+00 1.5414428E-01 6.7410358E-01
  0.000E+00  8.510E-01  1.117E-02 3.3714558E+00 1.0664326E-01 7.0728653E-01
  4.318E-02  8.264E-01  1.519E-02 3.3802919E+00 1.2020586E-01 6.8082449E-01
  0.000E+00  9.004E-01  4.969E-03 3.3595266E+00 7.1059642E-02 7.1157821E-01
  4.318E-02  8.757E-01  7.761E-03 3.3647255E+00 8.5864956E-02 6.8577311E-01
  4.318E-02  9.253E-01  2.796E-03 3.3558474E+00 5.1489342E-02 6.8914179E-01
  1.000E+01  1.050E+00  1.243E-03 3.3540374E+00 -3.5511407E-02 7.1423910E-01
  1.000E+01  1.000E+00  5.551E-16 3.3526233E+00 1.3056530E-06 7.1514985E-01
  9.957E+00  1.025E+00  3.108E-04 3.3524210E+00 -1.8351837E-02 7.3901316E-01
  1.000E+01  9.502E-01  1.243E-03 3.3540376E+00 3.5514012E-02 7.1423873E-01
  9.957E+00  9.751E-01  3.108E-04 3.3524211E+00 1.8354117E-02 7.3901297E-01
  1.000E+01  9.004E-01  4.969E-03 3.3595266E+00 7.1059642E-02 7.1157821E-01
  9.957E+00  9.253E-01  2.796E-03 3.3558400E+00 5.5075757E-02 7.3715309E-01
  1.000E+01  8.510E-01  1.117E-02 3.3714558E+00 1.0664326E-01 7.0728653E-01
  9.957E+00  8.757E-01  7.761E-03 3.3647180E+00 9.1846185E-02 7.3354967E-01
  1.000E+01  8.019E-01  1.983E-02 3.3892348E+00 1.4203355E-01 7.0128529E-01
  9.957E+00  8.264E-01  1.519E-02 3.3802843E+00 1.2857969E-01 7.2825630E-01
  1.000E+01  7.532E-01  3.092E-02 3.4057722E+00 1.7676427E-01 6.9330257E-01
  9.957E+00  7.775E-01  2.507E-02 3.3985535E+00 1.6488285E-01 7.2106729E-01
  1.000E+01  7.052E-01  4.443E-02 3.4128105E+00 2.1072259E-01 6.8336028E-01
  9.957E+00  7.292E-01  3.738E-02 3.4103915E+00 2.0034609E-01 7.1175352E-01
  1.000E+01  6.580E-01  6.031E-02 3.4239291E+00 2.4439951E-01 6.7194504E-01
  9.957E+00  6.815E-01  5.207E-02 3.4135612E+00 2.3523482E-01 7.0065274E-01
  1.000E+01  6.116E-01  7.852E-02 3.4579672E+00 2.7784869E-01 6.5913410E-01
  9.957E+00  6.347E-01  6.913E-02 3.4424207E+00 2.7000064E-01 6.8818605E-01
  1.000E+01  5.661E-01  9.903E-02 3.4660792E+00 3.1039185E-01 6.4445447E-01
  9.957E+00  5.887E-01  8.849E-02 3.4683699E+00 3.0417033E-01 6.7400696E-01
  1.000E+01  5.217E-01  1.218E-01 3.4838151E+00 3.4203964E-01 6.2810949E-01
  9.957E+00  5.438E-01  1.101E-01 3.4656382E+00 3.3730115E-01 6.5791141E-01
  1.000E+01  4.786E-01  1.467E-01 3.5097525E+00 3.7295593E-01 6.1031608E-01
  9.957E+00  5.000E-01  1.340E-01 3.5000639E+00 3.6965342E-01 6.4027741E-01
  1.000E+01  4.367E-01  1.738E-01 3.5062749E+00 4.0291649E-01 5.9096241E-01
  9.957E+00  4.575E-01  1.600E-01 3.4992174E+00 4.0114290E-01 6.2108238E-01
  1.000E+01  3.962E-01  2.029E-01 3.5275209E+00 4.3186620E-01 5.7013786E-01
  9.957E+00  4.163E-01  1.881E-01 3.5308013E+00 4.3158817E-01 6.0029822E-01
  1.000E+01  3.572E-01  2.340E-01 3.5350429E+00 4.5975341E-01 5.4790807E-01
  9.957E+00  3.765E-01  2.182E-01 3.5211841E+00 4.6097883E-01 5.7804416E-01
  1.000E+01  3.198E-01  2.669E-01 3.5364381E+00 4.8649078E-01 5.2430888E-01
  9.957E+00  3.383E-01  2.502E-01 3.5378672E+00 4.8921859E-01 5.5434854E-01
  1.000E+01  2.841E-01  3.018E-01 3.5377029E+00 5.1202108E-01 4.9940719E-01
  9.957E+00  3.018E-01  2.841E-01 3.5377075E+00 5.1624195E-01 5.2927324E-01
  1.000E+01  2.502E-01  3.383E-01 3.5378628E+00 5.3627859E-01 4.7326460E-01
  9.957E+00  2.669E-01  3.198E-01 3.5364427E+00 5.4198259E-01 5.0288223E-01
  1.000E+01  2.182E-01  3.765E-01 3.5211798E+00 5.5920149E-01 4.4594539E-01
  9.957E+00  2.340E-01  3.572E-01 3.5350476E+00 5.6637687E-01 4.7524352E-01
  1.000E+01  1.881E-01  4.163E-01 3.5307972E+00 5.8072976E-01 4.1751278E-01
  9.957E+00  2.029E-01  3.962E-01 3.5275256E+00 5.8935570E-01 4.4641627E-01
  1.000E+01  1.600E-01  4.575E-01 3.4992133E+00 6.0083581E-01 3.8805979E-01
  9.957E+00  1.738E-01  4.367E-01 3.5062797E+00 6.1088167E-01 4.1649054E-01
  1.000E+01  1.340E-01  5.000E-01 3.5000598E+00 6.1940470E-01 3.5759674E-01
  9.957E+00  1.467E-01  4.786E-01 3.5097572E+00 6.3088720E-01 3.8551997E-01
  1.000E+01  1.101E-01  5.438E-01 3.4656342E+00 6.3646340E-01 3.2629913E-01
  9.957E+00  1.218E-01  5.217E-01 3.4838199E+00 6.4927996E-01 3.5356172E-01
  1.000E+01  8.849E-02  5.887E-01 3.4683663E+00 6.5203431E-01 2.9424827E-01
  9.957E+00  9.903E-02  5.661E-01 3.4660842E+00 6.6617585E-01 3.2084753E-01
  1.000E+01  6.913E-02  6.347E-01 3.4424172E+00 6.6575072E-01 2.6119234E-01
  9.957E+00  7.852E-02  6.116E-01 3.4579721E+00 6.8135021E-01 2.8720750E-01
  1.000E+01  5.207E-02  6.815E-01 3.4135576E+00 6.7781018E-01 2.2755984E-01
  9.957E+00  6.031E-02  6.580E-01 3.4239339E+00 6.9459223E-01 2.5263057E-01
  1.000E+01  3.738E-02  7.292E-01 3.4103879E+00 6.8854868E-01 1.9380875E-01
  9.957E+00  4.443E-02  7.052E-01 3.4128150E+00 7.0639146E-01 2.1781806E-01
  1.000E+01  2.507E-02  7.775E-01 3.3985499E+00 6.9755855E-01 1.5950196E-01
  9.957E+00  3.092E-02  7.532E-01 3.4057767E+00 7.1666826E-01 1.8271482E-01
  1.000E+01  1.519E-02  8.264E-01 3.3802807E+00 7.0451288E-01 1.2438246E-01
  9.957E+00  1.983E-02  8.019E-01 3.3892394E+00 7.2491957E-01 1.4681355E-01
  1.000E+01  7.761E-03  8.757E-01 3.3647146E+00 7.0963334E-01 8.8846427E-02
  9.957E+00  1.117E-02  8.510E-01 3.3714606E+00 7.3112276E-01 1.1023076E-01
  1.000E+01  2.796E-03  9.253E-01 3.3558367E+00 7.1311896E-01 5.3274578E-02
  9.957E+00  4.969E-03  9.004E-01 3.3595315E+00 7.3555881E-01 7.3448145E-02
  1.000E+01  3.108E-04  9.751E-01 3.3524180E+00 7.1491787E-01 1.7749928E-02
  9.957E+00  1.243E-03  9.502E-01 3.3540427E+00 7.3830869E-01 3.6704677E-02
  1.000E+01  3.108E-04  1.025E+00 3.3524180E+00 7.1491767E-01 -1.7759525E-02
  9.957E+00  0.000E+00  1.000E+00 3.3526285E+00 7.3925015E-01 -4.8733123E-06
  1.000E+01  2.796E-03  1.075E+00 3.3558365E+00 7.1311838E-01 -5.3284161E-02
  9.957E+00  1.243E-03  1.050E+00 3.3540426E+00 7.3830830E-01 -3.6714414E-02
  1.000E+01  7.761E-03  1.124E+00 3.3647143E+00 7.0963235E-01 -8.8855981E-02
  9.957E+00  4.969E-03  1.100E+00 3.3595313E+00 7.3555804E-01 -7.3457854E-02
  1.000E+01  1.519E-02  1.174E+00 3.3802804E+00 7.0451139E-01 -1.2439197E-01
  9.957E+00  1.117E-02  1.149E+00 3.3714603E+00 7.3112155E-01 -1.1024042E-01
  1.000E+01  2.507E-02  1.223E+00 3.3985494E+00 6.9755651E-01 -1.5951140E-01
  9.957E+00  1.983E-02  1.198E+00 3.3892390E+00 7.2491782E-01 -1.4682315E-01
  1.000E+01  3.738E-02  1.271E+00 3.4103874E+00 6.8854632E-01 -1.9381809E-01
  9.957E+00  3.092E-02  1.247E+00 3.4057762E+00 7.1666605E-01 -1.8272436E-01
  1.000E+01  5.207E-02  1.318E+00 3.4135570E+00 6.7780767E-01 -2.2756908E-01
  9.957E+00  4.443E-02  1.295E+00 3.4128144E+00 7.0638910E-01 -2.1782751E-01
  1.000E+01  6.913E-02  1.365E+00 3.4424165E+00 6.6574753E-01 -2.6120147E-01
  9.957E+00  6.031E-02  1.342E+00 3.4239332E+00 6.9458950E-01 -2.5263992E-01
  1.000E+01  8.849E-02  1.411E+00 3.4683654E+00 6.5203068E-01 -2.9425726E-01
  9.957E+00  7.852E-02  1.388E+00 3.4579714E+00 6.8134672E-01 -2.8721672E-01
  1.000E+01  1.101E-01  1.456E+00 3.4656333E+00 6.3645976E-01 -3.2630798E-01
  9.957E+00  9.903E-02  1.434E+00 3.4660834E+00 6.6617228E-01 -3.2085661E-01
  1.000E+01  1.340E-01  1.500E+00 3.5000589E+00 6.1940037E-01 -3.5760542E-01
  9.957E+00  1.218E-01  1.478E+00 3.4838190E+00 6.4927601E-01 -3.5357064E-01
  1.000E+01  1.600E-01  1.543E+00 3.4992122E+00 6.0083126E-01 -3.8806829E-01
  9.957E+00  1.467E-01  1.521E+00 3.5097562E+00 6.3088270E-01 -3.8552870E-01
  1.000E+01  1.881E-01  1.584E+00 3.5307960E+00 5.8072486E-01 -4.1752106E-01
  9.957E+00  1.738E-01  1.563E+00 3.5062786E+00 6.1087705E-01 -4.1649909E-01
  1.000E+01  2.182E-01  1.623E+00 3.5211786E+00 5.5919624E-01 -4.4595346E-01
  9.957E+00  2.029E-01  1.604E+00 3.5275245E+00 5.8935061E-01 -4.4642460E-01
  1.000E+01  2.502E-01  1.662E+00 3.5378615E+00 5.3627308E-01 -4.7327242E-01
  9.957E+00  2.340E-01  1.643E+00 3.5350464E+00 5.6637156E-01 -4.7525163E-01
  1.000E+01  2.841E-01  1.698E+00 3.5377016E+00 5.1201529E-01 -4.9941477E-01
  9.957E+00  2.669E-01  1.680E+00 3.5364414E+00 5.4197692E-01 -5.0289010E-01
  1.000E+01  3.198E-01  1.733E+00 3.5364368E+00 4.8648478E-01 -5.2431619E-01
  9.957E+00  3.018E-01  1.716E+00 3.5377061E+00 5.1623604E-01 -5.2928084E-01
  1.000E+01  3.572E-01  1.766E+00 3.5350415E+00 4.5974714E-01 -5.4791509E-01
  9.957E+00  3.383E-01  1.750E+00 3.5378658E+00 4.8921240E-01 -5.5435586E-01
  1.000E+01  3.962E-01  1.797E+00 3.5275194E+00 4.3185964E-01 -5.7014456E-01
  9.957E+00  3.765E-01  1.782E+00 3.5211826E+00 4.6097244E-01 -5.7805119E-01
  1.000E+01  4.367E-01  1.826E+00 3.5062733E+00 4.0290963E-01 -5.9096877E-01
  9.957E+00  4.163E-01  1.812E+00 3.5307998E+00 4.3158161E-01 -6.0030495E-01
  1.000E+01  4.786E-01  1.853E+00 3.5097509E+00 3.7294887E-01 -6.1032210E-01
  9.957E+00  4.575E-01  1.840E+00 3.4992159E+00 4.0113618E-01 -6.2108880E-01
  1.000E+01  5.217E-01  1.878E+00 3.4838136E+00 3.4203259E-01 -6.2811522E-01
  9.957E+00  5.000E-01  1.866E+00 3.5000623E+00 3.6964643E-01 -6.4028348E-01
  1.000E+01  5.661E-01  1.901E+00 3.4660777E+00 3.1038501E-01 -6.4445997E-01
  9.957E+00  5.438E-01  1.890E+00 3.4656364E+00 3.3729382E-01 -6.5791706E-01
  1.000E+01  6.116E-01  1.921E+00 3.4579655E+00 2.7784194E-01 -6.5913932E-01
  9.957E+00  5.887E-01  1.912E+00 3.4683682E+00 3.0416264E-01 -6.7401215E-01
  1.000E+01  6.580E-01  1.940E+00 3.4239272E+00 2.4439238E-01 -6.7194985E-01
  9.957E+00  6.347E-01  1.931E+00 3.4424192E+00 2.6999281E-01 -6.8819084E-01
  1.000E+01  7.052E-01  1.956E+00 3.4128086E+00 2.1071454E-01 -6.8336451E-01
  9.957E+00  6.815E-01  1.948E+00 3.4135598E+00 2.3522722E-01 -7.0065723E-01
  1.000E+01  7.532E-01  1.969E+00 3.4057706E+00 1.7675531E-01 -6.9330614E-01
  9.957E+00  7.292E-01  1.963E+00 3.4103900E+00 2.0033895E-01 -7.1175776E-01
  1.000E+01  8.019E-01  1.980E+00 3.3892333E+00 1.4202422E-01 -7.0128825E-01
  9.957E+00  7.775E-01  1.975E+00 3.3985518E+00 1.6487602E-01 -7.2107127E-01
  1.000E+01  8.510E-01  1.989E+00 3.3714542E+00 1.0663418E-01 -7.0728896E-01
  9.957E+00  8.264E-01  1.985E+00 3.3802824E+00 1.2857279E-01 -7.2825997E-01
  1.000E+01  9.004E-01  1.995E+00 3.3595249E+00 7.1051047E-02 -7.1158016E-01
  9.957E+00  8.757E-01  1.992E+00 3.3647161E+00 9.1838955E-02 -7.3355297E-01
  1.000E+01  9.502E-01  1.999E+00 3.3540358E+00 3.5505823E-02 -7.1424024E-01
  9.957E+00  9.253E-01  1.997E+00 3.3558381E+00 5.5068172E-02 -7.3715599E-01
  1.000E+01  1.000E+00  2.000E+00 3.3526215E+00 -6.6115097E-06 -7.1515093E-01
  9.957E+00  9.751E-01  2.000E+00 3.3524194E+00 1.8346288E-02 -7.3901546E-01
  1.000E+01  1.050E+00  1.999E+00 3.3540356E+00 -3.5519036E-02 -7.1423976E-01
  9.957E+00  1.025E+00  2.000E+00 3.3524193E+00 -1.8359838E-02 -7.3901522E-01
  1.000E+01  1.100E+00  1.995E+00 3.3595245E+00 -7.1064229E-02 -7.1157921E-01
  9.957E+00  1.075E+00  1.997E+00 3.3558378E+00 -5.5081702E-02 -7.3715527E-01
  1.000E+01  1.149E+00  1.989E+00 3.3714536E+00 -1.0664731E-01 -7.0728753E-01
  9.957E+00  1.124E+00  1.992E+00 3.3647156E+00 -9.1852443E-02 -7.3355177E-01
  1.000E+01  1.198E+00  1.980E+00 3.3892325E+00 -1.4203728E-01 -7.0128635E-01
  9.957E+00  1.174E+00  1.985E+00 3.3802817E+00 -1.2858622E-01 -7.2825830E-01