# TIME = 1.000000
VARIABLES = X, Y, Z, FX, FY, FZ
ZONE N=29232 E=58212 F=FEPOINT ET=TRIANGLE
  0.000E+00  9.502E-01  1.243E-03 3.3649893E+00 2.0903084E-02 4.2049577E-01
  0.000E+00  1.000E+00  0.000E+00 3.3635776E+00 -4.0685464E-06 4.2103186E-01
  4.318E-02  9.751E-01  3.108E-04 3.3633773E+00 9.8798808E-03 3.9799463E-01
  0.000E+00  1.050E+00  1.243E-03 3.3649890E+00 -2.0911212E-02 4.2049532E-01
  4.318E-02  1.025E+00  3.108E-04 3.3633771E+00 -9.8881257E-03 3.9799440E-01
  0.000E+00  1.100E+00  4.969E-03 3.3704741E+00 -4.1837652E-02 4.1892884E-01
  4.318E-02  1.075E+00  2.796E-03 3.3667924E+00 -2.9664595E-02 3.9699265E-01
  0.000E+00  1.149E+00  1.117E-02 3.3824068E+00 -6.2786444E-02 4.1640210E-01
  4.318E-02  1.124E+00  7.761E-03 3.3756706E+00 -4.9467364E-02 3.9505192E-01
  0.000E+00  1.198E+00  1.983E-02 3.4001963E+00 -8.3621589E-02 4.1286895E-01
  4.318E-02  1.174E+00  1.519E-02 3.3912461E+00 -6.9250178E-02 3.9220104E-01
  0.000E+00  1.247E+00  3.092E-02 3.4167313E+00 -1.0406870E-01 4.0816921E-01
  4.318E-02  1.223E+00  2.507E-02 3.4095231E+00 -8.8800925E-02 3.8832914E-01
  0.000E+00  1.295E+00  4.443E-02 3.4237293E+00 -1.2406131E-01 4.0231573E-01
  4.318E-02  1.271E+00  3.738E-02 3.4213403E+00 -1.0789893E-01 3.8331278E-01
  0.000E+00  1.342E+00  6.031E-02 3.4348128E+00 -1.4388837E-01 3.9559513E-01
  4.318E-02  1.318E+00  5.207E-02 3.4244529E+00 -1.2668754E-01 3.7733416E-01
  0.000E+00  1.388E+00  7.852E-02 3.4688903E+00 -1.6358120E-01 3.8805287E-01
  4.318E-02  1.365E+00  6.913E-02 3.4533319E+00 -1.4541051E-01 3.7062030E-01
  0.000E+00  1.434E+00  9.903E-02 3.4769618E+00 -1.8274019E-01 3.7941022E-01
  4.318E-02  1.411E+00  8.849E-02 3.4792965E+00 -1.6381272E-01 3.6298418E-01
  0.000E+00  1.478E+00  1.218E-01 3.4946824E+00 -2.0137192E-01 3.6978713E-01
  4.318E-02  1.456E+00  1.101E-01 3.4764883E+00 -1.8165536E-01 3.5431576E-01
  0.000E+00  1.521E+00  1.467E-01 3.5206454E+00 -2.1957316E-01 3.5931139E-01
  4.318E-02  1.500E+00  1.340E-01 3.5109586E+00 -1.9907845E-01 3.4481873E-01
  0.000E+00  1.563E+00  1.738E-01 3.5171044E+00 -2.3721185E-01 3.4791708E-01
  4.318E-02  1.543E+00  1.600E-01 3.5100560E+00 -2.1603692E-01 3.3448096E-01
  0.000E+00  1.604E+00  2.029E-01 3.5383776E+00 -2.5425546E-01 3.3565684E-01
  4.318E-02  1.584E+00  1.881E-01 3.5416877E+00 -2.3243319E-01 3.2328759E-01
  0.000E+00  1.643E+00  2.340E-01 3.5458893E+00 -2.7067355E-01 3.2256932E-01
  4.318E-02  1.623E+00  2.182E-01 3.5320103E+00 -2.4826152E-01 3.1130263E-01
  0.000E+00  1.680E+00  2.669E-01 3.5472777E+00 -2.8641466E-01 3.0867558E-01
  4.318E-02  1.662E+00  2.502E-01 3.5487195E+00 -2.6346992E-01 2.9854127E-01
  0.000E+00  1.716E+00  3.018E-01 3.5485387E+00 -3.0144513E-01 2.9401505E-01
  4.318E-02  1.698E+00  2.841E-01 3.5485478E+00 -2.7802325E-01 2.8503683E-01
  0.000E+00  1.750E+00  3.383E-01 3.5487102E+00 -3.1572629E-01 2.7862396E-01
  4.318E-02  1.733E+00  3.198E-01 3.5472867E+00 -2.9188569E-01 2.7082386E-01
  0.000E+00  1.782E+00  3.765E-01 3.5320010E+00 -3.2922169E-01 2.6254018E-01
  4.318E-02  1.766E+00  3.572E-01 3.5458981E+00 -3.0502314E-01 2.5593901E-01
  0.000E+00  1.812E+00  4.163E-01 3.5416782E+00 -3.4189609E-01 2.4580092E-01
  4.318E-02  1.797E+00  3.962E-01 3.5383863E+00 -3.1739829E-01 2.4041410E-01
  0.000E+00  1.840E+00  4.575E-01 3.5100464E+00 -3.5373316E-01 2.2846097E-01
  4.318E-02  1.826E+00  4.367E-01 3.5171129E+00 -3.2899119E-01 2.2429781E-01
  0.000E+00  1.866E+00  5.000E-01 3.5109487E+00 -3.6466518E-01 2.1052634E-01
  4.318E-02  1.853E+00  4.786E-01 3.5206536E+00 -3.3976492E-01 2.0761861E-01
  0.000E+00  1.890E+00  5.438E-01 3.4764784E+00 -3.7470835E-01 1.9210045E-01
  4.318E-02  1.878E+00  5.217E-01 3.4946902E+00 -3.4967017E-01 1.9040739E-01
  0.000E+00  1.912E+00  5.887E-01 3.4792866E+00 -3.8387529E-01 1.7323115E-01
  4.318E-02  1.901E+00  5.661E-01 3.4769695E+00 -3.5876926E-01 1.7278916E-01
  0.000E+00  1.931E+00  6.347E-01 3.4533218E+00 -3.9195057E-01 1.5377003E-01
  4.318E-02  1.921E+00  6.116E-01 3.4688979E+00 -3.6694133E-01 1.5467265E-01
  0.000E+00  1.948E+00  6.815E-01 3.4244424E+00 -3.9905043E-01 1.3396949E-01
  4.318E-02  1.940E+00  6.580E-01 3.4348203E+00 -3.7407303E-01 1.3605152E-01
  0.000E+00  1.963E+00  7.292E-01 3.4213295E+00 -4.0537244E-01 1.1409933E-01
  4.318E-02  1.956E+00  7.052E-01 3.4237363E+00 -3.8042747E-01 1.1730343E-01
  0.000E+00  1.975E+00  7.775E-01 3.4095122E+00 -4.1067683E-01 9.3901997E-02
  4.318E-02  1.969E+00  7.532E-01 3.4167378E+00 -3.8596187E-01 9.8398672E-02
  0.000E+00  1.985E+00  8.264E-01 3.3912351E+00 -4.1477103E-01 7.3226060E-02
  4.318E-02  1.980E+00  8.019E-01 3.4002025E+00 -3.9040548E-01 7.9063975E-02
  0.000E+00  1.992E+00  8.757E-01 3.3756596E+00 -4.1778554E-01 5.2304906E-02
  4.318E-02  1.989E+00  8.510E-01 3.3824128E+00 -3.9374607E-01 5.9362269E-02
  0.000E+00  1.997E+00  9.253E-01 3.3667813E+00 -4.1983755E-01 3.1362747E-02
  4.318E-02  1.995E+00  9.004E-01 3.3704802E+00 -3.9613498E-01 3.9553139E-02
  0.000E+00  2.000E+00  9.751E-01 3.3633659E+00 -4.2089654E-01 1.0448422E-02
  4.318E-02  1.999E+00  9.502E-01 3.3649951E+00 -3.9761584E-01 1.9765257E-02
  0.000E+00  2.000E+00  1.025E+00 3.3633659E+00 -4.2089631E-01 -1.0456945E-02
  4.318E-02  2.000E+00  1.000E+00 3.3635836E+00 -3.9812276E-01 -4.2724218E-06
  0.000E+00  1.997E+00  1.075E+00 3.3667812E+00 -4.1983685E-01 -3.1371257E-02
  4.318E-02  1.999E+00  1.050E+00 3.3649951E+00 -3.9761536E-01 -1.9773790E-02
  0.000E+00  1.992E+00  1.124E+00 3.3756595E+00 -4.1778437E-01 -5.2313388E-02
  4.318E-02  1.995E+00  1.100E+00 3.3704802E+00 -3.9613403E-01 -3.9561640E-02
  0.000E+00  1.985E+00  1.174E+00 3.3912351E+00 -4.1476945E-01 -7.3234491E-02
  4.318E-02  1.989E+00  1.149E+00 3.3824128E+00 -3.9374468E-01 -5.9370723E-02
  0.000E+00  1.975E+00  1.223E+00 3.4095121E+00 -4.1067487E-01 -9.3910351E-02
  4.318E-02  1.980E+00  1.198E+00 3.4002024E+00 -3.9040373E-01 -7.9072368E-02
  0.000E+00  1.963E+00  1.271E+00 3.4213295E+00 -4.0536999E-01 -1.1410758E-01
  4.318E-02  1.969E+00  1.247E+00 3.4167377E+00 -3.8595971E-01 -9.8406991E-02
  0.000E+00  1.948E+00  1.318E+00 3.4244423E+00 -3.9904740E-01 -1.3397763E-01
  4.318E-02  1.956E+00  1.295E+00 3.4237362E+00 -3.8042475E-01 -1.1731166E-01
  0.000E+00  1.931E+00  1.365E+00 3.4533216E+00 -3.9194731E-01 -1.5377805E-01
  4.318E-02  1.940E+00  1.342E+00 3.4348202E+00 -3.7406987E-01 -1.3605963E-01
  0.000E+00  1.912E+00  1.411E+00 3.4792865E+00 -3.8387168E-01 -1.7323903E-01
  4.318E-02  1.921E+00  1.388E+00 3.4688977E+00 -3.6693796E-01 -1.5468063E-01
  0.000E+00  1.890E+00  1.456E+00 3.4764782E+00 -3.7470414E-01 -1.9210817E-01
  4.318E-02  1.901E+00  1.434E+00 3.4769693E+00 -3.5876532E-01 -1.7279698E-01
  0.000E+00  1.866E+00  1.500E+00 3.5109486E+00 -3.6466078E-01 -2.1053389E-01
  4.318E-02  1.878E+00  1.478E+00 3.4946900E+00 -3.4966586E-01 -1.9041504E-01
  0.000E+00  1.840E+00  1.543E+00 3.5100462E+00 -3.5372832E-01 -2.2846831E-01
  4.318E-02  1.853E+00  1.521E+00 3.5206534E+00 -3.3976035E-01 -2.0762607E-01
  0.000E+00  1.812E+00  1.584E+00 3.5416780E+00 -3.4189090E-01 -2.4580804E-01
  4.318E-02  1.826E+00  1.563E+00 3.5171127E+00 -3.2898616E-01 -2.2430506E-01
  0.000E+00  1.782E+00  1.623E+00 3.5320007E+00 -3.2921618E-01 -2.6254706E-01
  4.318E-02  1.797E+00  1.604E+00 3.5383861E+00 -3.1739300E-01 -2.4042112E-01
  0.000E+00  1.750E+00  1.662E+00 3.5487100E+00 -3.1572044E-01 -2.7863058E-01
  4.318E-02  1.766E+00  1.643E+00 3.5458978E+00 -3.0501748E-01 -2.5594579E-01
  0.000E+00  1.716E+00  1.698E+00 3.5485385E+00 -3.0143900E-01 -2.9402139E-01
  4.318E-02  1.733E+00  1.680E+00 3.5472864E+00 -2.9187975E-01 -2.7083038E-01
  0.000E+00  1.680E+00  1.733E+00 3.5472775E+00 -2.8640824E-01 -3.0868164E-01
  4.318E-02  1.698E+00  1.716E+00 3.5485476E+00 -2.7801699E-01 -2.8504307E-01
  0.000E+00  1.643E+00  1.766E+00 3.5458890E+00 -2.7066687E-01 -3.2257508E-01
  4.318E-02  1.662E+00  1.750E+00 3.5487192E+00 -2.6346340E-01 -2.9854721E-01
  0.000E+00  1.604E+00  1.797E+00 3.5383774E+00 -2.5424855E-01 -3.3566228E-01
  4.318E-02  1.623E+00  1.782E+00 3.5320101E+00 -2.4825474E-01 -3.1130824E-01
  0.000E+00  1.563E+00  1.826E+00 3.5171042E+00 -2.3720475E-01 -3.4792218E-01
  4.318E-02  1.584E+00  1.812E+00 3.5416874E+00 -2.3242616E-01 -3.2329286E-01
  0.000E+00  1.521E+00  1.853E+00 3.5206452E+00 -2.1956586E-01 -3.5931612E-01
  4.318E-02  1.543E+00  1.840E+00 3.5100557E+00 -2.1602963E-01 -3.3448588E-01
  0.000E+00  1.478E+00  1.878E+00 3.4946820E+00 -2.0136430E-01 -3.6979145E-01
  4.318E-02  1.500E+00  1.866E+00 3.5109583E+00 -1.9907099E-01 -3.4482331E-01
  0.000E+00  1.434E+00  1.901E+00 3.4769614E+00 -1.8273218E-01 -3.7941410E-01
  4.318E-02  1.456E+00  1.890E+00 3.4764881E+00 -1.8164783E-01 -3.5431999E-01
  0.000E+00  1.388E+00  1.921E+00 3.4688900E+00 -1.6357295E-01 -3.8805631E-01
  4.318E-02  1.411E+00  1.912E+00 3.4792963E+00 -1.6380518E-01 -3.6298804E-01
  0.000E+00  1.342E+00  1.940E+00 3.4348128E+00 -1.4388023E-01 -3.9559819E-01
  4.318E-02  1.365E+00  1.931E+00 3.4533315E+00 -1.4540279E-01 -3.7062375E-01
  0.000E+00  1.295E+00  1.956E+00 3.4237293E+00 -1.2405362E-01 -4.0231850E-01
  4.318E-02  1.318E+00  1.948E+00 3.4244524E+00 -1.2667939E-01 -3.7733715E-01
  0.000E+00  1.247E+00  1.969E+00 3.4167312E+00 -1.0406143E-01 -4.0817171E-01
  4.318E-02  1.271E+00  1.963E+00 3.4213399E+00 -1.0789025E-01 -3.8331525E-01
  0.000E+00  1.198E+00  1.980E+00 3.4001959E+00 -8.3614348E-02 -4.1287114E-01
  4.318E-02  1.223E+00  1.975E+00 3.4095228E+00 -8.8791934E-02 -3.8833107E-01
  0.000E+00  1.149E+00  1.989E+00 3.3824062E+00 -6.2778880E-02 -4.1640391E-01
  4.318E-02  1.174E+00  1.985E+00 3.3912459E+00 -6.9241192E-02 -3.9220246E-01
  0.000E+00  1.100E+00  1.995E+00 3.3704737E+00 -4.1829667E-02 -4.1893023E-01
  4.318E-02  1.124E+00  1.992E+00 3.3756704E+00 -4.9458563E-02 -3.9505285E-01
  0.000E+00  1.050E+00  1.999E+00 3.3649886E+00 -2.0902918E-02 -4.2049627E-01
  4.318E-02  1.075E+00  1.997E+00 3.3667921E+00 -2.9655978E-02 -3.9699312E-01
  0.000E+00  1.000E+00  2.000E+00 3.3635773E+00 4.4009863E-06 -4.2103236E-01
  4.318E-02  1.025E+00  2.000E+00 3.3633768E+00 -9.8796179E-03 -3.9799442E-01
  0.000E+00  9.502E-01  1.999E+00 3.3649889E+00 2.0911711E-02 -4.2049581E-01
  4.318E-02  9.751E-01  2.000E+00 3.3633769E+00 9.8883073E-03 -3.9799419E-01
  0.000E+00  9.004E-01  1.995E+00 3.3704742E+00 4.1838433E-02 -4.1892932E-01
  4.318E-02  9.253E-01  1.997E+00 3.3667925E+00 2.9664650E-02 -3.9699244E-01
  0.000E+00  8.510E-01  1.989E+00 3.3824071E+00 6.2787602E-02 -4.1640255E-01
  4.318E-02  8.757E-01  1.992E+00 3.3756711E+00 4.9467199E-02 -3.9505171E-01
  0.000E+00  8.019E-01  1.980E+00 3.4001970E+00 8.3623008E-02 -4.1286932E-01
  4.318E-02  8.264E-01  1.985E+00 3.3912469E+00 6.9249773E-02 -3.9220087E-01
  0.000E+00  7.532E-01  1.969E+00 3.4167326E+00 1.0407001E-01 -4.0816945E-01
  4.318E-02  7.775E-01  1.975E+00 3.4095240E+00 8.8800444E-02 -3.8832903E-01
  0.000E+00  7.052E-01  1.956E+00 3.4237310E+00 1.2406211E-01 -4.0231581E-01
  4.318E-02  7.292E-01  1.963E+00 3.4213414E+00 1.0789867E-01 -3.8331277E-01
  0.000E+00  6.580E-01  1.940E+00 3.4348147E+00 1.4388860E-01 -3.9559508E-01
  4.318E-02  6.815E-01  1.948E+00 3.4244542E+00 1.2668770E-01 -3.7733425E-01
  0.000E+00  6.116E-01  1.921E+00 3.4688921E+00 1.6358118E-01 -3.8805279E-01
  4.318E-02  6.347E-01  1.931E+00 3.4533336E+00 1.4541098E-01 -3.7062043E-01
  0.000E+00  5.661E-01  1.901E+00 3.4769638E+00 1.8274026E-01 -3.7941017E-01
  4.318E-02  5.887E-01  1.912E+00 3.4792986E+00 1.6381322E-01 -3.6298431E-01
  0.000E+00  5.217E-01  1.878E+00 3.4946846E+00 2.0137220E-01 -3.6978714E-01
  4.318E-02  5.438E-01  1.890E+00 3.4764906E+00 1.8165571E-01 -3.5431587E-01
  0.000E+00  4.786E-01  1.853E+00 3.5206481E+00 2.1957357E-01 -3.5931143E-01
  4.318E-02  5.000E-01  1.866E+00 3.5109611E+00 1.9907868E-01 -3.4481881E-01
  0.000E+00  4.367E-01  1.826E+00 3.5171073E+00 2.3721226E-01 -3.4791713E-01
  4.318E-02  4.575E-01  1.840E+00 3.5100587E+00 2.1603714E-01 -3.3448102E-01
  0.000E+00  3.962E-01  1.797E+00 3.5383807E+00 2.5425583E-01 -3.3565689E-01
  4.318E-02  4.163E-01  1.812E+00 3.5416906E+00 2.3243344E-01 -3.2328764E-01
  0.000E+00  3.572E-01  1.766E+00 3.5458925E+00 2.7067390E-01 -3.2256936E-01
  4.318E-02  3.765E-01  1.782E+00 3.5320135E+00 2.4826179E-01 -3.1130269E-01
  0.000E+00  3.198E-01  1.733E+00 3.5472812E+00 2.8641501E-01 -3.0867561E-01
  4.318E-02  3.383E-01  1.750E+00 3.5487228E+00 2.6347019E-01 -2.9854134E-01
  0.000E+00  2.841E-01  1.698E+00 3.5485423E+00 3.0144548E-01 -2.9401508E-01
  4.318E-02  3.018E-01  1.716E+00 3.5485514E+00 2.7802352E-01 -2.8503690E-01
  0.000E+00  2.502E-01  1.662E+00 3.5487140E+00 3.1572664E-01 -2.7862399E-01
  4.318E-02  2.669E-01  1.680E+00 3.5472904E+00 2.9188596E-01 -2.7082393E-01
  0.000E+00  2.182E-01  1.623E+00 3.5320049E+00 3.2922203E-01 -2.6254022E-01
  4.318E-02  2.340E-01  1.643E+00 3.5459019E+00 3.0502341E-01 -2.5593908E-01
  0.000E+00  1.881E-01  1.584E+00 3.5416823E+00 3.4189643E-01 -2.4580096E-01
  4.318E-02  2.029E-01  1.604E+00 3.5383903E+00 3.1739856E-01 -2.4041416E-01
  0.000E+00  1.600E-01  1.543E+00 3.5100506E+00 3.5373352E-01 -2.2846101E-01
  4.318E-02  1.738E-01  1.563E+00 3.5171171E+00 3.2899146E-01 -2.2429787E-01
  0.000E+00  1.340E-01  1.500E+00 3.5109531E+00 3.6466554E-01 -2.1052639E-01
  4.318E-02  1.467E-01  1.521E+00 3.5206579E+00 3.3976518E-01 -2.0761867E-01
  0.000E+00  1.101E-01  1.456E+00 3.4764829E+00 3.7470871E-01 -1.9210049E-01
  4.318E-02  1.218E-01  1.478E+00 3.4946946E+00 3.4967043E-01 -1.9040745E-01
  0.000E+00  8.849E-02  1.411E+00 3.4792912E+00 3.8387566E-01 -1.7323119E-01
  4.318E-02  9.903E-02  1.434E+00 3.4769741E+00 3.5876951E-01 -1.7278922E-01
  0.000E+00  6.913E-02  1.365E+00 3.4533265E+00 3.9195092E-01 -1.5377007E-01
  4.318E-02  7.852E-02  1.388E+00 3.4689025E+00 3.6694159E-01 -1.5467272E-01
  0.000E+00  5.207E-02  1.318E+00 3.4244472E+00 3.9905077E-01 -1.3396952E-01
  4.318E-02  6.031E-02  1.342E+00 3.4348250E+00 3.7407329E-01 -1.3605159E-01
  0.000E+00  3.738E-02  1.271E+00 3.4213344E+00 4.0537278E-01 -1.1409938E-01
  4.318E-02  4.443E-02  1.295E+00 3.4237412E+00 3.8042773E-01 -1.1730350E-01
  0.000E+00  2.507E-02  1.223E+00 3.4095172E+00 4.1067716E-01 -9.3902055E-02
  4.318E-02  3.092E-02  1.247E+00 3.4167427E+00 3.8596213E-01 -9.8398738E-02
  0.000E+00  1.519E-02  1.174E+00 3.3912401E+00 4.1477138E-01 -7.3226125E-02
  4.318E-02  1.983E-02  1.198E+00 3.4002074E+00 3.9040573E-01 -7.9064036E-02
  0.000E+00  7.761E-03  1.124E+00 3.3756646E+00 4.1778589E-01 -5.2304970E-02
  4.318E-02  1.117E-02  1.149E+00 3.3824178E+00 3.9374630E-01 -5.9362329E-02
  0.000E+00  2.796E-03  1.075E+00 3.3667863E+00 4.1983791E-01 -3.1362805E-02
  4.318E-02  4.969E-03  1.100E+00 3.3704853E+00 3.9613521E-01 -3.9553204E-02
  0.000E+00  3.108E-04  1.025E+00 3.3633710E+00 4.2089688E-01 -1.0448477E-02
  4.318E-02  1.243E-03  1.050E+00 3.3650002E+00 3.9761607E-01 -1.9765328E-02
  0.000E+00  3.108E-04  9.751E-01 3.3633710E+00 4.2089663E-01 1.0456889E-02
  4.318E-02  0.000E+00  1.000E+00 3.3635887E+00 3.9812299E-01 4.1968944E-06
  0.000E+00  2.796E-03  9.253E-01 3.3667864E+00 4.1983717E-01 3.1371193E-02
  4.318E-02  1.243E-03  9.502E-01 3.3650002E+00 3.9761559E-01 1.9773716E-02
  0.000E+00  7.761E-03  8.757E-01 3.3756647E+00 4.1778469E-01 5.2313314E-02
  4.318E-02  4.969E-03  9.004E-01 3.3704853E+00 3.9613425E-01 3.9561570E-02
  0.000E+00  1.519E-02  8.264E-01 3.3912402E+00 4.1476978E-01 7.3234413E-02
  4.318E-02  1.117E-02  8.510E-01 3.3824179E+00 3.9374490E-01 5.9370654E-02
  0.000E+00  2.507E-02  7.775E-01 3.4095172E+00 4.1067520E-01 9.3910276E-02
  4.318E-02  1.983E-02  8.019E-01 3.4002075E+00 3.9040393E-01 7.9072296E-02
  0.000E+00  3.738E-02  7.292E-01 3.4213345E+00 4.0537032E-01 1.1410752E-01
  4.318E-02  3.092E-02  7.532E-01 3.4167428E+00 3.8595991E-01 9.8406912E-02
  0.000E+00  5.207E-02  6.815E-01 3.4244473E+00 3.9904773E-01 1.3397757E-01
  4.318E-02  4.443E-02  7.052E-01 3.4237413E+00 3.8042494E-01 1.1731157E-01
  0.000E+00  6.913E-02  6.347E-01 3.4533266E+00 3.9194762E-01 1.5377799E-01
  4.318E-02  6.031E-02  6.580E-01 3.4348252E+00 3.7407007E-01 1.3605954E-01
  0.000E+00  8.849E-02  5.887E-01 3.4792914E+00 3.8387199E-01 1.7323896E-01
  4.318E-02  7.852E-02  6.116E-01 3.4689027E+00 3.6693816E-01 1.5468054E-01
  0.000E+00  1.101E-01  5.438E-01 3.4764830E+00 3.7470444E-01 1.9210809E-01
  4.318E-02  9.903E-02  5.661E-01 3.4769742E+00 3.5876552E-01 1.7279690E-01
  0.000E+00  1.340E-01  5.000E-01 3.5109533E+00 3.6466108E-01 2.1053381E-01
  4.318E-02  1.218E-01  5.217E-01 3.4946948E+00 3.4966605E-01 1.9041495E-01
  0.000E+00  1.600E-01  4.575E-01 3.5100508E+00 3.5372863E-01 2.2846823E-01
  4.318E-02  1.467E-01  4.786E-01 3.5206581E+00 3.3976054E-01 2.0762599E-01
  0.000E+00  1.881E-01  4.163E-01 3.5416825E+00 3.4189122E-01 2.4580796E-01
  4.318E-02  1.738E-01  4.367E-01 3.5171173E+00 3.2898634E-01 2.2430498E-01
  0.000E+00  2.182E-01  3.765E-01 3.5320051E+00 3.2921650E-01 2.6254699E-01
  4.318E-02  2.029E-01  3.962E-01 3.5383905E+00 3.1739318E-01 2.4042103E-01
  0.000E+00  2.502E-01  3.383E-01 3.5487142E+00 3.1572076E-01 2.7863051E-01
  4.318E-02  2.340E-01  3.572E-01 3.5459021E+00 3.0501765E-01 2.5594570E-01
  0.000E+00  2.841E-01  3.018E-01 3.5485426E+00 3.0143932E-01 2.9402133E-01
  4.318E-02  2.669E-01  3.198E-01 3.5472906E+00 2.9187992E-01 2.7083029E-01
  0.000E+00  3.198E-01  2.669E-01 3.5472814E+00 2.8640856E-01 3.0868157E-01
  4.318E-02  3.018E-01  2.841E-01 3.5485516E+00 2.7801717E-01 2.8504297E-01
  0.000E+00  3.572E-01  2.340E-01 3.5458928E+00 2.7066718E-01 3.2257500E-01
  4.318E-02  3.383E-01  2.502E-01 3.5487230E+00 2.6346357E-01 2.9854712E-01
  0.000E+00  3.962E-01  2.029E-01 3.5383809E+00 2.5424884E-01 3.3566219E-01
  4.318E-02  3.765E-01  2.182E-01 3.5320137E+00 2.4825492E-01 3.1130816E-01
  0.000E+00  4.367E-01  1.738E-01 3.5171075E+00 2.3720500E-01 3.4792209E-01
  4.318E-02  4.163E-01  1.881E-01 3.5416909E+00 2.3242636E-01 3.2329278E-01
  0.000E+00  4.786E-01  1.467E-01 3.5206483E+00 2.1956611E-01 3.5931604E-01
  4.318E-02  4.575E-01  1.600E-01 3.5100590E+00 2.1602986E-01 3.3448580E-01
  0.000E+00  5.217E-01  1.218E-01 3.4946850E+00 2.0136467E-01 3.6979141E-01
  4.318E-02  5.000E-01  1.340E-01 3.5109614E+00 1.9907120E-01 3.4482321E-01
  0.000E+00  5.661E-01  9.903E-02 3.4769642E+00 1.8273277E-01 3.7941411E-01
  4.318E-02  5.438E-01  1.101E-01 3.4764908E+00 1.8164792E-01 3.5431986E-01
  0.000E+00  6.116E-01  7.852E-02 3.4688924E+00 1.6357364E-01 3.8805636E-01
  4.318E-02  5.887E-01  8.849E-02 3.4792988E+00 1.6380512E-01 3.6298789E-01
  0.000E+00  6.580E-01  6.031E-02 3.4348147E+00 1.4388067E-01 3.9559821E-01
  4.318E-02  6.347E-01  6.913E-02 3.4533339E+00 1.4540277E-01 3.7062360E-01
  0.000E+00  7.052E-01  4.443E-02 3.4237309E+00 1.2405349E-01 4.0231839E-01
  4.318E-02  6.815E-01  5.207E-02 3.4244547E+00 1.2667967E-01 3.7733705E-01
  0.000E+00  7.532E-01  3.092E-02 3.4167327E+00 1.0406079E-01 4.0817144E-01
  4.318E-02  7.292E-01  3.738E-02 3.4213418E+00 1.0789095E-01 3.8331524E-01
  0.000E+00  8.019E-01  1.983E-02 3.4001974E+00 8.3613595E-02 4.1287075E-01
  4.318E-02  7.775E-01  2.507E-02 3.4095243E+00 8.8792859E-02 3.8833116E-01
  0.000E+00  8.510E-01  1.117E-02 3.3824076E+00 6.2778388E-02 4.1640345E-01
  4.318E-02  8.264E-01  1.519E-02 3.3912471E+00 6.9242041E-02 3.9220262E-01
  0.000E+00  9.004E-01  4.969E-03 3.3704747E+00 4.1829551E-02 4.1892974E-01
  4.318E-02  8.757E-01  7.761E-03 3.3756713E+00 4.9459173E-02 3.9505305E-01
  4.318E-02  9.253E-01  2.796E-03 3.3667928E+00 2.9656368E-02 3.9699333E-01
  1.000E+01  1.050E+00  1.243E-03 3.3649890E+00 -2.0911212E-02 4.2049532E-01
  1.000E+01  1.000E+00  5.551E-16 3.3635776E+00 -4.0685464E-06 4.2103186E-01
  9.957E+00  1.025E+00  3.108E-04 3.3633758E+00 -1.1026240E-02 4.4383112E-01
  1.000E+01  9.502E-01  1.243E-03 3.3649893E+00 2.0903084E-02 4.2049577E-01
  9.957E+00  9.751E-01  3.108E-04 3.3633760E+00 1.1018215E-02 4.4383135E-01
  1.000E+01  9.004E-01  4.969E-03 3.3704747E+00 4.1829551E-02 4.1892974E-01
  9.957E+00  9.253E-01  2.796E-03 3.3667915E+00 3.3072154E-02 4.4271464E-01
  1.000E+01  8.510E-01  1.117E-02 3.3824076E+00 6.2778388E-02 4.1640345E-01
  9.957E+00  8.757E-01  7.761E-03 3.3756700E+00 5.5155534E-02 4.4055080E-01
  1.000E+01  8.019E-01  1.983E-02 3.4001974E+00 8.3613595E-02 4.1287075E-01
  9.957E+00  8.264E-01  1.519E-02 3.3912458E+00 7.7216845E-02 4.3737208E-01
  1.000E+01  7.532E-01  3.092E-02 3.4167327E+00 1.0406079E-01 4.0817144E-01
  9.957E+00  7.775E-01  2.507E-02 3.4095231E+00 9.9019591E-02 4.3305485E-01
  1.000E+01  7.052E-01  4.443E-02 3.4237309E+00 1.2405349E-01 4.0231839E-01
  9.957E+00  7.292E-01  3.738E-02 3.4213406E+00 1.2031753E-01 4.2746137E-01
  1.000E+01  6.580E-01  6.031E-02 3.4348147E+00 1.4388067E-01 3.9559821E-01
  9.957E+00  6.815E-01  5.207E-02 3.4244535E+00 1.4127026E-01 4.2079460E-01
  1.000E+01  6.116E-01  7.852E-02 3.4688924E+00 1.6357364E-01 3.8805636E-01
  9.957E+00  6.347E-01  6.913E-02 3.4533327E+00 1.6214944E-01 4.1330766E-01
  1.000E+01  5.661E-01  9.903E-02 3.4769642E+00 1.8273277E-01 3.7941411E-01
  9.957E+00  5.887E-01  8.849E-02 3.4792975E+00 1.8267082E-01 4.0479234E-01
  1.000E+01  5.217E-01  1.218E-01 3.4946850E+00 2.0136467E-01 3.6979141E-01
  9.957E+00  5.438E-01  1.101E-01 3.4764895E+00 2.0256835E-01 3.9512598E-01
  1.000E+01  4.786E-01  1.467E-01 3.5206483E+00 2.1956611E-01 3.5931604E-01
  9.957E+00  5.000E-01  1.340E-01 3.5109601E+00 2.2199846E-01 3.8453580E-01
  1.000E+01  4.367E-01  1.738E-01 3.5171075E+00 2.3720500E-01 3.4792209E-01
  9.957E+00  4.575E-01  1.600E-01 3.5100578E+00 2.4091037E-01 3.7300805E-01
  1.000E+01  3.962E-01  2.029E-01 3.5383809E+00 2.5424884E-01 3.3566219E-01
  9.957E+00  4.163E-01  1.881E-01 3.5416896E+00 2.5919504E-01 3.6052583E-01
  1.000E+01  3.572E-01  2.340E-01 3.5458928E+00 2.7066718E-01 3.2257500E-01
  9.957E+00  3.765E-01  2.182E-01 3.5320125E+00 2.7684637E-01 3.4716082E-01
  1.000E+01  3.198E-01  2.669E-01 3.5472814E+00 2.8640856E-01 3.0868157E-01
  9.957E+00  3.383E-01  2.502E-01 3.5487218E+00 2.9380656E-01 3.3293008E-01
  1.000E+01  2.841E-01  3.018E-01 3.5485426E+00 3.0143932E-01 2.9402133E-01
  9.957E+00  3.018E-01  2.841E-01 3.5485503E+00 3.1003628E-01 3.1787075E-01
  1.000E+01  2.502E-01  3.383E-01 3.5487142E+00 3.1572076E-01 2.7863051E-01
  9.957E+00  2.669E-01  3.198E-01 3.5472893E+00 3.2549566E-01 3.0202124E-01
  1.000E+01  2.182E-01  3.765E-01 3.5320051E+00 3.2921650E-01 2.6254699E-01
  9.957E+00  2.340E-01  3.572E-01 3.5459009E+00 3.4014649E-01 2.8542240E-01
  1.000E+01  1.881E-01  4.163E-01 3.5416825E+00 3.4189122E-01 2.4580796E-01
  9.957E+00  2.029E-01  3.962E-01 3.5383892E+00 3.5394722E-01 2.6810973E-01
  1.000E+01  1.600E-01  4.575E-01 3.5100508E+00 3.5372863E-01 2.2846823E-01
  9.957E+00  1.738E-01  4.367E-01 3.5171160E+00 3.6687543E-01 2.5013732E-01
  1.000E+01  1.340E-01  5.000E-01 3.5109533E+00 3.6466108E-01 2.1053381E-01
  9.957E+00  1.467E-01  4.786E-01 3.5206568E+00 3.7889057E-01 2.3153746E-01
  1.000E+01  1.101E-01  5.438E-01 3.4764830E+00 3.7470444E-01 1.9210809E-01
  9.957E+00  1.218E-01  5.217E-01 3.4946936E+00 3.8993713E-01 2.1234444E-01
  1.000E+01  8.849E-02  5.887E-01 3.4792914E+00 3.8387199E-01 1.7323896E-01
  9.957E+00  9.903E-02  5.661E-01 3.4769730E+00 4.0008477E-01 1.9269748E-01
  1.000E+01  6.913E-02  6.347E-01 3.4533266E+00 3.9194762E-01 1.5377799E-01
  9.957E+00  7.852E-02  6.116E-01 3.4689014E+00 4.0919847E-01 1.7249437E-01
  1.000E+01  5.207E-02  6.815E-01 3.4244473E+00 3.9904773E-01 1.3397757E-01
  9.957E+00  6.031E-02  6.580E-01 3.4348239E+00 4.1715149E-01 1.5172844E-01
  1.000E+01  3.738E-02  7.292E-01 3.4213345E+00 4.0537032E-01 1.1410752E-01
  9.957E+00  4.443E-02  7.052E-01 3.4237400E+00 4.2423817E-01 1.3082126E-01
  1.000E+01  2.507E-02  7.775E-01 3.4095172E+00 4.1067520E-01 9.3910276E-02
  9.957E+00  3.092E-02  7.532E-01 3.4167415E+00 4.3041066E-01 1.0973962E-01
  1.000E+01  1.519E-02  8.264E-01 3.3912402E+00 4.1476978E-01 7.3234413E-02
  9.957E+00  1.983E-02  8.019E-01 3.4002063E+00 4.3536660E-01 8.8178579E-02
  1.000E+01  7.761E-03  8.757E-01 3.3756647E+00 4.1778469E-01 5.2313314E-02
  9.957E+00  1.117E-02  8.510E-01 3.3824167E+00 4.3909241E-01 6.6208128E-02
  1.000E+01  2.796E-03  9.253E-01 3.3667864E+00 4.1983717E-01 3.1371193E-02
  9.957E+00  4.969E-03  9.004E-01 3.3704841E+00 4.4175693E-01 4.4117674E-02
  1.000E+01  3.108E-04  9.751E-01 3.3633710E+00 4.2089663E-01 1.0456889E-02
  9.957E+00  1.243E-03  9.502E-01 3.3649990E+00 4.4340882E-01 2.2050756E-02
  1.000E+01  3.108E-04  1.025E+00 3.3633710E+00 4.2089688E-01 -1.0448477E-02
  9.957E+00  0.000E+00  1.000E+00 3.3635875E+00 4.4397460E-01 4.2005962E-06
  1.000E+01  2.796E-03  1.075E+00 3.3667863E+00 4.1983791E-01 -3.1362805E-02
  9.957E+00  1.243E-03  1.050E+00 3.3649990E+00 4.4340929E-01 -2.2042361E-02
  1.000E+01  7.761E-03  1.124E+00 3.3756646E+00 4.1778589E-01 -5.2304970E-02
  9.957E+00  4.969E-03  1.100E+00 3.3704840E+00 4.4175789E-01 -4.4109302E-02
  1.000E+01  1.519E-02  1.174E+00 3.3912401E+00 4.1477138E-01 -7.3226125E-02
  9.957E+00  1.117E-02  1.149E+00 3.3824166E+00 4.3909382E-01 -6.6199798E-02
  1.000E+01  2.507E-02  1.223E+00 3.4095172E+00 4.1067716E-01 -9.3902055E-02
  9.957E+00  1.983E-02  1.198E+00 3.4002062E+00 4.3536839E-01 -8.8170312E-02
  1.000E+01  3.738E-02  1.271E+00 3.4213344E+00 4.0537278E-01 -1.1409938E-01
  9.957E+00  3.092E-02  1.247E+00 3.4167414E+00 4.3041287E-01 -1.0973144E-01
  1.000E+01  5.207E-02  1.318E+00 3.4244472E+00 3.9905077E-01 -1.3396952E-01
  9.957E+00  4.443E-02  1.295E+00 3.4237399E+00 4.2424097E-01 -1.3081318E-01
  1.000E+01  6.913E-02  1.365E+00 3.4533265E+00 3.9195092E-01 -1.5377007E-01
  9.957E+00  6.031E-02  1.342E+00 3.4348237E+00 4.1715472E-01 -1.5172048E-01
  1.000E+01  8.849E-02  1.411E+00 3.4792912E+00 3.8387566E-01 -1.7323119E-01
  9.957E+00  7.852E-02  1.388E+00 3.4689013E+00 4.0920189E-01 -1.7248654E-01
  1.000E+01  1.101E-01  1.456E+00 3.4764829E+00 3.7470871E-01 -1.9210049E-01
  9.957E+00  9.903E-02  1.434E+00 3.4769728E+00 4.0008877E-01 -1.9268980E-01
  1.000E+01  1.340E-01  1.500E+00 3.5109531E+00 3.6466554E-01 -2.1052639E-01
  9.957E+00  1.218E-01  1.478E+00 3.4946934E+00 3.8994151E-01 -2.1233692E-01
  1.000E+01  1.600E-01  1.543E+00 3.5100506E+00 3.5373352E-01 -2.2846101E-01
  9.957E+00  1.467E-01  1.521E+00 3.5206566E+00 3.7889520E-01 -2.3153013E-01
  1.000E+01  1.881E-01  1.584E+00 3.5416823E+00 3.4189643E-01 -2.4580096E-01
  9.957E+00  1.738E-01  1.563E+00 3.5171158E+00 3.6688055E-01 -2.5013021E-01
  1.000E+01  2.182E-01  1.623E+00 3.5320049E+00 3.2922203E-01 -2.6254022E-01
  9.957E+00  2.029E-01  1.604E+00 3.5383890E+00 3.5395261E-01 -2.6810285E-01
  1.000E+01  2.502E-01  1.662E+00 3.5487140E+00 3.1572664E-01 -2.7862399E-01
  9.957E+00  2.340E-01  1.643E+00 3.5459007E+00 3.4015226E-01 -2.8541577E-01
  1.000E+01  2.841E-01  1.698E+00 3.5485423E+00 3.0144548E-01 -2.9401508E-01
  9.957E+00  2.669E-01  1.680E+00 3.5472891E+00 3.2550170E-01 -3.0201488E-01
  1.000E+01  3.198E-01  1.733E+00 3.5472812E+00 2.8641501E-01 -3.0867561E-01
  9.957E+00  3.018E-01  1.716E+00 3.5485501E+00 3.1004264E-01 -3.1786467E-01
  1.000E+01  3.572E-01  1.766E+00 3.5458925E+00 2.7067390E-01 -3.2256936E-01
  9.957E+00  3.383E-01  1.750E+00 3.5487215E+00 2.9381318E-01 -3.3292430E-01
  1.000E+01  3.962E-01  1.797E+00 3.5383807E+00 2.5425583E-01 -3.3565689E-01
  9.957E+00  3.765E-01  1.782E+00 3.5320122E+00 2.7685323E-01 -3.4715535E-01
  1.000E+01  4.367E-01  1.826E+00 3.5171073E+00 2.3721226E-01 -3.4791713E-01
  9.957E+00  4.163E-01  1.812E+00 3.5416893E+00 2.5920211E-01 -3.6052069E-01
  1.000E+01  4.786E-01  1.853E+00 3.5206481E+00 2.1957357E-01 -3.5931143E-01
  9.957E+00  4.575E-01  1.840E+00 3.5100575E+00 2.4091766E-01 -3.7300326E-01
  1.000E+01  5.217E-01  1.878E+00 3.4946846E+00 2.0137220E-01 -3.6978714E-01
  9.957E+00  5.000E-01  1.866E+00 3.5109598E+00 2.2200598E-01 -3.8453138E-01
  1.000E+01  5.661E-01  1.901E+00 3.4769638E+00 1.8274026E-01 -3.7941017E-01
  9.957E+00  5.438E-01  1.890E+00 3.4764894E+00 2.0257617E-01 -3.9512197E-01
  1.000E+01  6.116E-01  1.921E+00 3.4688921E+00 1.6358118E-01 -3.8805279E-01
  9.957E+00  5.887E-01  1.912E+00 3.4792973E+00 1.8267889E-01 -4.0478877E-01
  1.000E+01  6.580E-01  1.940E+00 3.4348147E+00 1.4388860E-01 -3.9559508E-01
  9.957E+00  6.347E-01  1.931E+00 3.4533323E+00 1.6215759E-01 -4.1330450E-01
  1.000E+01  7.052E-01  1.956E+00 3.4237310E+00 1.2406211E-01 -4.0231581E-01
  9.957E+00  6.815E-01  1.948E+00 3.4244529E+00 1.4127828E-01 -4.2079179E-01
  1.000E+01  7.532E-01  1.969E+00 3.4167326E+00 1.0407001E-01 -4.0816945E-01
  9.957E+00  7.292E-01  1.963E+00 3.4213401E+00 1.2032530E-01 -4.2745888E-01
  1.000E+01  8.019E-01  1.980E+00 3.4001970E+00 8.3623008E-02 -4.1286932E-01
  9.957E+00  7.775E-01  1.975E+00 3.4095227E+00 9.9027234E-02 -4.3305270E-01
  1.000E+01  8.510E-01  1.989E+00 3.3824071E+00 6.2787602E-02 -4.1640255E-01
  9.957E+00  8.264E-01  1.985E+00 3.3912456E+00 7.7224601E-02 -4.3737032E-01
  1.000E+01  9.004E-01  1.995E+00 3.3704742E+00 4.1838433E-02 -4.1892932E-01
  9.957E+00  8.757E-01  1.992E+00 3.3756698E+00 5.5163546E-02 -4.4054947E-01
  1.000E+01  9.502E-01  1.999E+00 3.3649889E+00 2.0911711E-02 -4.2049581E-01
  9.957E+00  9.253E-01  1.997E+00 3.3667913E+00 3.3080412E-02 -4.4271374E-01
  1.000E+01  1.000E+00  2.000E+00 3.3635773E+00 4.4009863E-06 -4.2103236E-01
  9.957E+00  9.751E-01  2.000E+00 3.3633757E+00 1.1026631E-02 -4.4383089E-01
  1.000E+01  1.050E+00  1.999E+00 3.3649886E+00 -2.0902918E-02 -4.2049627E-01
  9.957E+00  1.025E+00  2.000E+00 3.3633756E+00 -1.1017722E-02 -4.4383112E-01
  1.000E+01  1.100E+00  1.995E+00 3.3704737E+00 -4.1829667E-02 -4.1893023E-01
  9.957E+00  1.075E+00  1.997E+00 3.3667909E+00 -3.3071520E-02 -4.4271443E-01
  1.000E+01  1.149E+00  1.989E+00 3.3824062E+00 -6.2778880E-02 -4.1640391E-01
  9.957E+00  1.124E+00  1.992E+00 3.3756691E+00 -5.5154691E-02 -4.4055061E-01
  1.000E+01  1.198E+00  1.980E+00 3.4001959E+00 -8.3614348E-02 -4.1287114E-01
  9.957E+00  1.174E+00  1.985E+00 3.3912446E+00 -7.7215799E-02 -4.3737191E-01