# TIME = 11.000000
VARIABLES = X, Y, Z, FX, FY, FZ
ZONE N=29232 E=58212 F=FEPOINT ET=TRIANGLE
  0.000E+00  9.502E-01  1.243E-03 3.3466117E+00 8.3702329E-02 1.6832605E+00
  0.000E+00  1.000E+00  0.000E+00 3.3451958E+00 1.0593409E-05 1.6854080E+00
  4.318E-02  9.751E-01  3.108E-04 3.3449697E+00 4.1235124E-02 1.6599864E+00
  0.000E+00  1.050E+00  1.243E-03 3.3466119E+00 -8.3681163E-02 1.6832616E+00
  4.318E-02  1.025E+00  3.108E-04 3.3449698E+00 -4.1213921E-02 1.6599870E+00
  0.000E+00  1.100E+00  4.969E-03 3.3521035E+00 -1.6745046E-01 1.6769923E+00
  4.318E-02  1.075E+00  2.796E-03 3.3483908E+00 -1.2369833E-01 1.6558101E+00
  0.000E+00  1.149E+00  1.117E-02 3.3640306E+00 -2.5130973E-01 1.6668792E+00
  4.318E-02  1.124E+00  7.761E-03 3.3572684E+00 -2.0629264E-01 1.6477169E+00
  0.000E+00  1.198E+00  1.983E-02 3.3818023E+00 -3.3471433E-01 1.6527372E+00
  4.318E-02  1.174E+00  1.519E-02 3.3728281E+00 -2.8880422E-01 1.6358278E+00
  0.000E+00  1.247E+00  3.092E-02 3.3983408E+00 -4.1656510E-01 1.6339250E+00
  4.318E-02  1.223E+00  2.507E-02 3.3910917E+00 -3.7034842E-01 1.6196803E+00
  0.000E+00  1.295E+00  4.443E-02 3.4054055E+00 -4.9659556E-01 1.6104939E+00
  4.318E-02  1.271E+00  3.738E-02 3.4029437E+00 -4.5000437E-01 1.5987589E+00
  0.000E+00  1.342E+00  6.031E-02 3.4165478E+00 -5.7596325E-01 1.5835923E+00
  4.318E-02  1.318E+00  5.207E-02 3.4061523E+00 -5.2836991E-01 1.5738241E+00
  0.000E+00  1.388E+00  7.852E-02 3.4505594E+00 -6.5479432E-01 1.5534015E+00
  4.318E-02  1.365E+00  6.913E-02 3.4349986E+00 -6.0646171E-01 1.5458226E+00
  0.000E+00  1.434E+00  9.903E-02 3.4586987E+00 -7.3148885E-01 1.5188054E+00
  4.318E-02  1.411E+00  8.849E-02 3.4609368E+00 -6.8321534E-01 1.5139741E+00
  0.000E+00  1.478E+00  1.218E-01 3.4764452E+00 -8.0607313E-01 1.4802853E+00
  4.318E-02  1.456E+00  1.101E-01 3.4582567E+00 -7.5763474E-01 1.4778201E+00
  0.000E+00  1.521E+00  1.467E-01 3.5023648E+00 -8.7893430E-01 1.4383512E+00
  4.318E-02  1.500E+00  1.340E-01 3.4926521E+00 -8.3030480E-01 1.4382105E+00
  0.000E+00  1.563E+00  1.738E-01 3.4989300E+00 -9.4954345E-01 1.3927406E+00
  4.318E-02  1.543E+00  1.600E-01 3.4918432E+00 -9.0103747E-01 1.3950942E+00
  0.000E+00  1.604E+00  2.029E-01 3.5201574E+00 -1.0177702E+00 1.3436630E+00
  4.318E-02  1.584E+00  1.881E-01 3.5233950E+00 -9.6942475E-01 1.3484090E+00
  0.000E+00  1.643E+00  2.340E-01 3.5276869E+00 -1.0834936E+00 1.2912744E+00
  4.318E-02  1.623E+00  2.182E-01 3.5138182E+00 -1.0354434E+00 1.2984218E+00
  0.000E+00  1.680E+00  2.669E-01 3.5290860E+00 -1.1465065E+00 1.2356576E+00
  4.318E-02  1.662E+00  2.502E-01 3.5304839E+00 -1.0988767E+00 1.2451968E+00
  0.000E+00  1.716E+00  3.018E-01 3.5303538E+00 -1.2066753E+00 1.1769721E+00
  4.318E-02  1.698E+00  2.841E-01 3.5303323E+00 -1.1595781E+00 1.1888724E+00
  0.000E+00  1.750E+00  3.383E-01 3.5305057E+00 -1.2638446E+00 1.1153616E+00
  4.318E-02  1.733E+00  3.198E-01 3.5290647E+00 -1.2173976E+00 1.1295926E+00
  0.000E+00  1.782E+00  3.765E-01 3.5138402E+00 -1.3178682E+00 1.0509784E+00
  4.318E-02  1.766E+00  3.572E-01 3.5276656E+00 -1.2721939E+00 1.0675107E+00
  0.000E+00  1.812E+00  4.163E-01 3.5234176E+00 -1.3686060E+00 9.8397127E-01
  4.318E-02  1.797E+00  3.962E-01 3.5201364E+00 -1.3238101E+00 1.0027587E+00
  0.000E+00  1.840E+00  4.575E-01 3.4918657E+00 -1.4159914E+00 9.1455955E-01
  4.318E-02  1.826E+00  4.367E-01 3.4989094E+00 -1.3721641E+00 9.3554011E-01
  0.000E+00  1.866E+00  5.000E-01 3.4926748E+00 -1.4597543E+00 8.4276702E-01
  4.318E-02  1.853E+00  4.786E-01 3.5023439E+00 -1.4171014E+00 8.6597392E-01
  0.000E+00  1.890E+00  5.438E-01 3.4582794E+00 -1.4999589E+00 7.6900828E-01
  4.318E-02  1.878E+00  5.217E-01 3.4764245E+00 -1.4584171E+00 7.9418902E-01
  0.000E+00  1.912E+00  5.887E-01 3.4609600E+00 -1.5366561E+00 6.9347445E-01
  4.318E-02  1.901E+00  5.661E-01 3.4586782E+00 -1.4963700E+00 7.2070655E-01
  0.000E+00  1.931E+00  6.347E-01 3.4350220E+00 -1.5689835E+00 6.1557123E-01
  4.318E-02  1.921E+00  6.116E-01 3.4505392E+00 -1.5304563E+00 6.4514494E-01
  0.000E+00  1.948E+00  6.815E-01 3.4061756E+00 -1.5974057E+00 5.3630931E-01
  4.318E-02  1.940E+00  6.580E-01 3.4165279E+00 -1.5602028E+00 5.6747826E-01
  0.000E+00  1.963E+00  7.292E-01 3.4029674E+00 -1.6227147E+00 4.5676916E-01
  4.318E-02  1.956E+00  7.052E-01 3.4053853E+00 -1.5867078E+00 4.8928293E-01
  0.000E+00  1.975E+00  7.775E-01 3.3911156E+00 -1.6439503E+00 3.7591917E-01
  4.318E-02  1.969E+00  7.532E-01 3.3983201E+00 -1.6097932E+00 4.1043475E-01
  0.000E+00  1.985E+00  8.264E-01 3.3728520E+00 -1.6603412E+00 2.9315284E-01
  4.318E-02  1.980E+00  8.019E-01 3.3817816E+00 -1.6283289E+00 3.2979303E-01
  0.000E+00  1.992E+00  8.757E-01 3.3572923E+00 -1.6724098E+00 2.0940487E-01
  4.318E-02  1.989E+00  8.510E-01 3.3640102E+00 -1.6422637E+00 2.4762014E-01
  0.000E+00  1.997E+00  9.253E-01 3.3484148E+00 -1.6806256E+00 1.2557303E-01
  4.318E-02  1.995E+00  9.004E-01 3.3520837E+00 -1.6522291E+00 1.6499905E-01
  0.000E+00  2.000E+00  9.751E-01 3.3449940E+00 -1.6848663E+00 4.1852708E-02
  4.318E-02  1.999E+00  9.502E-01 3.3465924E+00 -1.6584072E+00 8.2466544E-02
  0.000E+00  2.000E+00  1.025E+00 3.3449939E+00 -1.6848668E+00 -4.1831783E-02
  4.318E-02  2.000E+00  1.000E+00 3.3451764E+00 -1.6605230E+00 1.0457768E-05
  0.000E+00  1.997E+00  1.075E+00 3.3484147E+00 -1.6806272E+00 -1.2555216E-01
  4.318E-02  1.999E+00  1.050E+00 3.3465923E+00 -1.6584082E+00 -8.2445648E-02
  0.000E+00  1.992E+00  1.124E+00 3.3572921E+00 -1.6724125E+00 -2.0938410E-01
  4.318E-02  1.995E+00  1.100E+00 3.3520835E+00 -1.6522312E+00 -1.6497822E-01
  0.000E+00  1.985E+00  1.174E+00 3.3728517E+00 -1.6603451E+00 -2.9313220E-01
  4.318E-02  1.989E+00  1.149E+00 3.3640100E+00 -1.6422669E+00 -2.4759941E-01
  0.000E+00  1.975E+00  1.223E+00 3.3911153E+00 -1.6439556E+00 -3.7589871E-01
  4.318E-02  1.980E+00  1.198E+00 3.3817813E+00 -1.6283336E+00 -3.2977247E-01
  0.000E+00  1.963E+00  1.271E+00 3.4029670E+00 -1.6227208E+00 -4.5674891E-01
  4.318E-02  1.969E+00  1.247E+00 3.3983197E+00 -1.6097991E+00 -4.1041438E-01
  0.000E+00  1.948E+00  1.318E+00 3.4061751E+00 -1.5974123E+00 -5.3628931E-01
  4.318E-02  1.956E+00  1.295E+00 3.4053849E+00 -1.5867142E+00 -4.8926280E-01
  0.000E+00  1.931E+00  1.365E+00 3.4350215E+00 -1.5689919E+00 -6.1555155E-01
  4.318E-02  1.940E+00  1.342E+00 3.4165274E+00 -1.5602102E+00 -5.6745842E-01
  0.000E+00  1.912E+00  1.411E+00 3.4609594E+00 -1.5366657E+00 -6.9345514E-01
  4.318E-02  1.921E+00  1.388E+00 3.4505386E+00 -1.5304655E+00 -6.4512545E-01
  0.000E+00  1.890E+00  1.456E+00 3.4582787E+00 -1.4999686E+00 -7.6898936E-01
  4.318E-02  1.901E+00  1.434E+00 3.4586776E+00 -1.4963795E+00 -7.2068743E-01
  0.000E+00  1.866E+00  1.500E+00 3.4926741E+00 -1.4597657E+00 -8.4274857E-01
  4.318E-02  1.878E+00  1.478E+00 3.4764238E+00 -1.4584277E+00 -7.9417033E-01
  0.000E+00  1.840E+00  1.543E+00 3.4918649E+00 -1.4160034E+00 -9.1454157E-01
  4.318E-02  1.853E+00  1.521E+00 3.5023431E+00 -1.4171134E+00 -8.6595571E-01
  0.000E+00  1.812E+00  1.584E+00 3.5234167E+00 -1.3686189E+00 -9.8395383E-01
  4.318E-02  1.826E+00  1.563E+00 3.4989085E+00 -1.3721765E+00 -9.3552241E-01
  0.000E+00  1.782E+00  1.623E+00 3.5138393E+00 -1.3178821E+00 -1.0509615E+00
  4.318E-02  1.797E+00  1.604E+00 3.5201355E+00 -1.3238237E+00 -1.0027416E+00
  0.000E+00  1.750E+00  1.662E+00 3.5305048E+00 -1.2638591E+00 -1.1153453E+00
  4.318E-02  1.766E+00  1.643E+00 3.5276646E+00 -1.2722081E+00 -1.0674942E+00
  0.000E+00  1.716E+00  1.698E+00 3.5303529E+00 -1.2066907E+00 -1.1769566E+00
  4.318E-02  1.733E+00  1.680E+00 3.5290637E+00 -1.2174127E+00 -1.1295767E+00
  0.000E+00  1.680E+00  1.733E+00 3.5290850E+00 -1.1465226E+00 -1.2356428E+00
  4.318E-02  1.698E+00  1.716E+00 3.5303312E+00 -1.1595938E+00 -1.1888572E+00
  0.000E+00  1.643E+00  1.766E+00 3.5276858E+00 -1.0835103E+00 -1.2912603E+00
  4.318E-02  1.662E+00  1.750E+00 3.5304828E+00 -1.0988931E+00 -1.2451823E+00
  0.000E+00  1.604E+00  1.797E+00 3.5201563E+00 -1.0177875E+00 -1.3436498E+00
  4.318E-02  1.623E+00  1.782E+00 3.5138171E+00 -1.0354604E+00 -1.2984082E+00
  0.000E+00  1.563E+00  1.826E+00 3.4989288E+00 -9.4956126E-01 -1.3927282E+00
  4.318E-02  1.584E+00  1.812E+00 3.5233939E+00 -9.6944240E-01 -1.3483962E+00
  0.000E+00  1.521E+00  1.853E+00 3.5023635E+00 -8.7895277E-01 -1.4383398E+00
  4.318E-02  1.543E+00  1.840E+00 3.4918421E+00 -9.0105561E-01 -1.3950823E+00
  0.000E+00  1.478E+00  1.878E+00 3.4764439E+00 -8.0609221E-01 -1.4802748E+00
  4.318E-02  1.500E+00  1.866E+00 3.4926509E+00 -8.3032337E-01 -1.4381995E+00
  0.000E+00  1.434E+00  1.901E+00 3.4586975E+00 -7.3150818E-01 -1.5187958E+00
  4.318E-02  1.456E+00  1.890E+00 3.4582555E+00 -7.5765371E-01 -1.4778100E+00
  0.000E+00  1.388E+00  1.921E+00 3.4505584E+00 -6.5481351E-01 -1.5533927E+00
  4.318E-02  1.411E+00  1.912E+00 3.4609353E+00 -6.8323499E-01 -1.5139650E+00
  0.000E+00  1.342E+00  1.940E+00 3.4165469E+00 -5.7598247E-01 -1.5835844E+00
  4.318E-02  1.365E+00  1.931E+00 3.4349971E+00 -6.0648202E-01 -1.5458147E+00
  0.000E+00  1.295E+00  1.956E+00 3.4054043E+00 -4.9661563E-01 -1.6104872E+00
  4.318E-02  1.318E+00  1.948E+00 3.4061509E+00 -5.2839043E-01 -1.5738172E+00
  0.000E+00  1.247E+00  1.969E+00 3.3983391E+00 -4.1658645E-01 -1.6339195E+00
  4.318E-02  1.271E+00  1.963E+00 3.4029427E+00 -4.5002456E-01 -1.5987530E+00
  0.000E+00  1.198E+00  1.980E+00 3.3818004E+00 -3.3473654E-01 -1.6527332E+00
  4.318E-02  1.223E+00  1.975E+00 3.3910908E+00 -3.7036823E-01 -1.6196752E+00
  0.000E+00  1.149E+00  1.989E+00 3.3640289E+00 -2.5133203E-01 -1.6668764E+00
  4.318E-02  1.174E+00  1.985E+00 3.3728270E+00 -2.8882406E-01 -1.6358238E+00
  0.000E+00  1.100E+00  1.995E+00 3.3521022E+00 -1.6747237E-01 -1.6769907E+00
  4.318E-02  1.124E+00  1.992E+00 3.3572670E+00 -2.0631285E-01 -1.6477139E+00
  0.000E+00  1.050E+00  1.999E+00 3.3466108E+00 -8.3702612E-02 -1.6832612E+00
  4.318E-02  1.075E+00  1.997E+00 3.3483892E+00 -1.2371897E-01 -1.6558082E+00
  0.000E+00  1.000E+00  2.000E+00 3.3451948E+00 -1.0476291E-05 -1.6854087E+00
  4.318E-02  1.025E+00  2.000E+00 3.3449681E+00 -4.1234876E-02 -1.6599862E+00
  0.000E+00  9.502E-01  1.999E+00 3.3466106E+00 8.3681680E-02 -1.6832623E+00
  4.318E-02  9.751E-01  2.000E+00 3.3449680E+00 4.1213950E-02 -1.6599867E+00
  0.000E+00  9.004E-01  1.995E+00 3.3521018E+00 1.6745150E-01 -1.6769930E+00
  4.318E-02  9.253E-01  1.997E+00 3.3483889E+00 1.2369809E-01 -1.6558099E+00
  0.000E+00  8.510E-01  1.989E+00 3.3640282E+00 2.5131128E-01 -1.6668797E+00
  4.318E-02  8.757E-01  1.992E+00 3.3572665E+00 2.0629206E-01 -1.6477167E+00
  0.000E+00  8.019E-01  1.980E+00 3.3817996E+00 3.3471595E-01 -1.6527377E+00
  4.318E-02  8.264E-01  1.985E+00 3.3728263E+00 2.8880340E-01 -1.6358277E+00
  0.000E+00  7.532E-01  1.969E+00 3.3983380E+00 4.1656605E-01 -1.6339251E+00
  4.318E-02  7.775E-01  1.975E+00 3.3910898E+00 3.7034775E-01 -1.6196803E+00
  0.000E+00  7.052E-01  1.956E+00 3.4054030E+00 4.9659547E-01 -1.6104938E+00
  4.318E-02  7.292E-01  1.963E+00 3.4029415E+00 4.5000429E-01 -1.5987591E+00
  0.000E+00  6.580E-01  1.940E+00 3.4165454E+00 5.7596260E-01 -1.5835922E+00
  4.318E-02  6.815E-01  1.948E+00 3.4061495E+00 5.2837043E-01 -1.5738244E+00
  0.000E+00  6.116E-01  1.921E+00 3.4505567E+00 6.5479397E-01 -1.5534015E+00
  4.318E-02  6.347E-01  1.931E+00 3.4349955E+00 6.0646233E-01 -1.5458229E+00
  0.000E+00  5.661E-01  1.901E+00 3.4586956E+00 7.3148904E-01 -1.5188055E+00
  4.318E-02  5.887E-01  1.912E+00 3.4609335E+00 6.8321565E-01 -1.5139742E+00
  0.000E+00  5.217E-01  1.878E+00 3.4764419E+00 8.0607348E-01 -1.4802855E+00
  4.318E-02  5.438E-01  1.890E+00 3.4582535E+00 7.5763479E-01 -1.4778202E+00
  0.000E+00  4.786E-01  1.853E+00 3.5023613E+00 8.7893450E-01 -1.4383514E+00
  4.318E-02  5.000E-01  1.866E+00 3.4926488E+00 8.3030487E-01 -1.4382106E+00
  0.000E+00  4.367E-01  1.826E+00 3.4989264E+00 9.4954352E-01 -1.3927407E+00
  4.318E-02  4.575E-01  1.840E+00 3.4918398E+00 9.0103764E-01 -1.3950943E+00
  0.000E+00  3.962E-01  1.797E+00 3.5201537E+00 1.0177703E+00 -1.3436632E+00
  4.318E-02  4.163E-01  1.812E+00 3.5233914E+00 9.6942495E-01 -1.3484091E+00
  0.000E+00  3.572E-01  1.766E+00 3.5276831E+00 1.0834937E+00 -1.2912745E+00
  4.318E-02  3.765E-01  1.782E+00 3.5138145E+00 1.0354436E+00 -1.2984219E+00
  0.000E+00  3.198E-01  1.733E+00 3.5290822E+00 1.1465067E+00 -1.2356578E+00
  4.318E-02  3.383E-01  1.750E+00 3.5304800E+00 1.0988768E+00 -1.2451969E+00
  0.000E+00  2.841E-01  1.698E+00 3.5303499E+00 1.2066755E+00 -1.1769722E+00
  4.318E-02  3.018E-01  1.716E+00 3.5303283E+00 1.1595782E+00 -1.1888725E+00
  0.000E+00  2.502E-01  1.662E+00 3.5305017E+00 1.2638447E+00 -1.1153617E+00
  4.318E-02  2.669E-01  1.680E+00 3.5290606E+00 1.2173978E+00 -1.1295927E+00
  0.000E+00  2.182E-01  1.623E+00 3.5138360E+00 1.3178683E+00 -1.0509785E+00
  4.318E-02  2.340E-01  1.643E+00 3.5276615E+00 1.2721941E+00 -1.0675109E+00
  0.000E+00  1.881E-01  1.584E+00 3.5234134E+00 1.3686061E+00 -9.8397140E-01
  4.318E-02  2.029E-01  1.604E+00 3.5201322E+00 1.3238103E+00 -1.0027589E+00
  0.000E+00  1.600E-01  1.543E+00 3.4918615E+00 1.4159915E+00 -9.1455969E-01
  4.318E-02  1.738E-01  1.563E+00 3.4989052E+00 1.3721643E+00 -9.3554026E-01
  0.000E+00  1.340E-01  1.500E+00 3.4926706E+00 1.4597544E+00 -8.4276717E-01
  4.318E-02  1.467E-01  1.521E+00 3.5023396E+00 1.4171016E+00 -8.6597407E-01
  0.000E+00  1.101E-01  1.456E+00 3.4582751E+00 1.4999590E+00 -7.6900843E-01
  4.318E-02  1.218E-01  1.478E+00 3.4764202E+00 1.4584173E+00 -7.9418916E-01
  0.000E+00  8.849E-02  1.411E+00 3.4609557E+00 1.5366563E+00 -6.9347459E-01
  4.318E-02  9.903E-02  1.434E+00 3.4586739E+00 1.4963701E+00 -7.2070669E-01
  0.000E+00  6.913E-02  1.365E+00 3.4350177E+00 1.5689837E+00 -6.1557137E-01
  4.318E-02  7.852E-02  1.388E+00 3.4505349E+00 1.5304565E+00 -6.4514509E-01
  0.000E+00  5.207E-02  1.318E+00 3.4061713E+00 1.5974058E+00 -5.3630945E-01
  4.318E-02  6.031E-02  1.342E+00 3.4165236E+00 1.5602030E+00 -5.6747841E-01
  0.000E+00  3.738E-02  1.271E+00 3.4029632E+00 1.6227148E+00 -4.5676931E-01
  4.318E-02  4.443E-02  1.295E+00 3.4053810E+00 1.5867080E+00 -4.8928307E-01
  0.000E+00  2.507E-02  1.223E+00 3.3911114E+00 1.6439504E+00 -3.7591933E-01
  4.318E-02  3.092E-02  1.247E+00 3.3983159E+00 1.6097934E+00 -4.1043489E-01
  0.000E+00  1.519E-02  1.174E+00 3.3728478E+00 1.6603413E+00 -2.9315299E-01
  4.318E-02  1.983E-02  1.198E+00 3.3817774E+00 1.6283290E+00 -3.2979318E-01
  0.000E+00  7.761E-03  1.124E+00 3.3572882E+00 1.6724099E+00 -2.0940503E-01
  4.318E-02  1.117E-02  1.149E+00 3.3640060E+00 1.6422638E+00 -2.4762028E-01
  0.000E+00  2.796E-03  1.075E+00 3.3484107E+00 1.6806257E+00 -1.2557318E-01
  4.318E-02  4.969E-03  1.100E+00 3.3520795E+00 1.6522292E+00 -1.6499920E-01
  0.000E+00  3.108E-04  1.025E+00 3.3449900E+00 1.6848664E+00 -4.1852847E-02
  4.318E-02  1.243E-03  1.050E+00 3.3465883E+00 1.6584073E+00 -8.2466695E-02
  0.000E+00  3.108E-04  9.751E-01 3.3449900E+00 1.6848669E+00 4.1831643E-02
  4.318E-02  0.000E+00  1.000E+00 3.3451725E+00 1.6605231E+00 -1.0611674E-05
  0.000E+00  2.796E-03  9.253E-01 3.3484108E+00 1.6806273E+00 1.2555201E-01
  4.318E-02  1.243E-03  9.502E-01 3.3465884E+00 1.6584083E+00 8.2445496E-02
  0.000E+00  7.761E-03  8.757E-01 3.3572883E+00 1.6724125E+00 2.0938394E-01
  4.318E-02  4.969E-03  9.004E-01 3.3520797E+00 1.6522313E+00 1.6497807E-01
  0.000E+00  1.519E-02  8.264E-01 3.3728480E+00 1.6603452E+00 2.9313204E-01
  4.318E-02  1.117E-02  8.510E-01 3.3640063E+00 1.6422671E+00 2.4759927E-01
  0.000E+00  2.507E-02  7.775E-01 3.3911117E+00 1.6439557E+00 3.7589855E-01
  4.318E-02  1.983E-02  8.019E-01 3.3817777E+00 1.6283337E+00 3.2977232E-01
  0.000E+00  3.738E-02  7.292E-01 3.4029636E+00 1.6227209E+00 4.5674876E-01
  4.318E-02  3.092E-02  7.532E-01 3.3983162E+00 1.6097992E+00 4.1041423E-01
  0.000E+00  5.207E-02  6.815E-01 3.4061718E+00 1.5974124E+00 5.3628917E-01
  4.318E-02  4.443E-02  7.052E-01 3.4053815E+00 1.5867143E+00 4.8926265E-01
  0.000E+00  6.913E-02  6.347E-01 3.4350183E+00 1.5689920E+00 6.1555140E-01
  4.318E-02  6.031E-02  6.580E-01 3.4165242E+00 1.5602103E+00 5.6745827E-01
  0.000E+00  8.849E-02  5.887E-01 3.4609563E+00 1.5366658E+00 6.9345499E-01
  4.318E-02  7.852E-02  6.116E-01 3.4505354E+00 1.5304656E+00 6.4512529E-01
  0.000E+00  1.101E-01  5.438E-01 3.4582758E+00 1.4999687E+00 7.6898920E-01
  4.318E-02  9.903E-02  5.661E-01 3.4586746E+00 1.4963796E+00 7.2068728E-01
  0.000E+00  1.340E-01  5.000E-01 3.4926713E+00 1.4597658E+00 8.4274841E-01
  4.318E-02  1.218E-01  5.217E-01 3.4764209E+00 1.4584278E+00 7.9417018E-01
  0.000E+00  1.600E-01  4.575E-01 3.4918623E+00 1.4160035E+00 9.1454142E-01
  4.318E-02  1.467E-01  4.786E-01 3.5023404E+00 1.4171134E+00 8.6595555E-01
  0.000E+00  1.881E-01  4.163E-01 3.5234143E+00 1.3686190E+00 9.8395370E-01
  4.318E-02  1.738E-01  4.367E-01 3.4989060E+00 1.3721765E+00 9.3552225E-01
  0.000E+00  2.182E-01  3.765E-01 3.5138369E+00 1.3178822E+00 1.0509614E+00
  4.318E-02  2.029E-01  3.962E-01 3.5201331E+00 1.3238238E+00 1.0027414E+00
  0.000E+00  2.502E-01  3.383E-01 3.5305026E+00 1.2638592E+00 1.1153452E+00
  4.318E-02  2.340E-01  3.572E-01 3.5276624E+00 1.2722081E+00 1.0674940E+00
  0.000E+00  2.841E-01  3.018E-01 3.5303508E+00 1.2066908E+00 1.1769564E+00
  4.318E-02  2.669E-01  3.198E-01 3.5290616E+00 1.2174127E+00 1.1295766E+00
  0.000E+00  3.198E-01  2.669E-01 3.5290832E+00 1.1465227E+00 1.2356427E+00
  4.318E-02  3.018E-01  2.841E-01 3.5303293E+00 1.1595938E+00 1.1888571E+00
  0.000E+00  3.572E-01  2.340E-01 3.5276842E+00 1.0835103E+00 1.2912602E+00
  4.318E-02  3.383E-01  2.502E-01 3.5304812E+00 1.0988932E+00 1.2451822E+00
  0.000E+00  3.962E-01  2.029E-01 3.5201549E+00 1.0177876E+00 1.3436497E+00
  4.318E-02  3.765E-01  2.182E-01 3.5138156E+00 1.0354605E+00 1.2984080E+00
  0.000E+00  4.367E-01  1.738E-01 3.4989276E+00 9.4956140E-01 1.3927280E+00
  4.318E-02  4.163E-01  1.881E-01 3.5233925E+00 9.6944246E-01 1.3483960E+00
  0.000E+00  4.786E-01  1.467E-01 3.5023625E+00 8.7895278E-01 1.4383396E+00
  4.318E-02  4.575E-01  1.600E-01 3.4918409E+00 9.0105570E-01 1.3950821E+00
  0.000E+00  5.217E-01  1.218E-01 3.4764432E+00 8.0609209E-01 1.4802746E+00
  4.318E-02  5.000E-01  1.340E-01 3.4926499E+00 8.3032357E-01 1.4381993E+00
  0.000E+00  5.661E-01  9.903E-02 3.4586968E+00 7.3150822E-01 1.5187956E+00
  4.318E-02  5.438E-01  1.101E-01 3.4582548E+00 7.5765393E-01 1.4778099E+00
  0.000E+00  6.116E-01  7.852E-02 3.4505577E+00 6.5481409E-01 1.5533927E+00
  4.318E-02  5.887E-01  8.849E-02 3.4609350E+00 6.8323494E-01 1.5139648E+00
  0.000E+00  6.580E-01  6.031E-02 3.4165463E+00 5.7598334E-01 1.5835846E+00
  4.318E-02  6.347E-01  6.913E-02 3.4349971E+00 6.0648167E-01 1.5458144E+00
  0.000E+00  7.052E-01  4.443E-02 3.4054042E+00 4.9661594E-01 1.6104872E+00
  4.318E-02  6.815E-01  5.207E-02 3.4061509E+00 5.2839019E-01 1.5738169E+00
  0.000E+00  7.532E-01  3.092E-02 3.3983397E+00 4.1658573E-01 1.6339194E+00
  4.318E-02  7.292E-01  3.738E-02 3.4029426E+00 4.5002491E-01 1.5987528E+00
  0.000E+00  8.019E-01  1.983E-02 3.3818015E+00 3.3473516E-01 1.6527327E+00
  4.318E-02  7.775E-01  2.507E-02 3.3910907E+00 3.7036918E-01 1.6196752E+00
  0.000E+00  8.510E-01  1.117E-02 3.3640299E+00 2.5133071E-01 1.6668758E+00
  4.318E-02  8.264E-01  1.519E-02 3.3728273E+00 2.8882516E-01 1.6358239E+00
  0.000E+00  9.004E-01  4.969E-03 3.3521031E+00 1.6747156E-01 1.6769901E+00
  4.318E-02  8.757E-01  7.761E-03 3.3572678E+00 2.0631371E-01 1.6477141E+00
  4.318E-02  9.253E-01  2.796E-03 3.3483905E+00 1.2371949E-01 1.6558084E+00
  1.000E+01  1.050E+00  1.243E-03 3.3466119E+00 -8.3681163E-02 1.6832616E+00
  1.000E+01  1.000E+00  5.551E-16 3.3451958E+00 1.0593409E-05 1.6854080E+00
  9.957E+00  1.025E+00  3.108E-04 3.3450436E+00 -4.2453168E-02 1.7098912E+00
  1.000E+01  9.502E-01  1.243E-03 3.3466117E+00 8.3702329E-02 1.6832605E+00
  9.957E+00  9.751E-01  3.108E-04 3.3450435E+00 4.2474328E-02 1.7098907E+00
  1.000E+01  9.004E-01  4.969E-03 3.3521031E+00 1.6747156E-01 1.6769901E+00
  9.957E+00  9.253E-01  2.796E-03 3.3484641E+00 1.2743824E-01 1.7055871E+00
  1.000E+01  8.510E-01  1.117E-02 3.3640299E+00 2.5133071E-01 1.6668758E+00
  9.957E+00  8.757E-01  7.761E-03 3.3573415E+00 2.1251541E-01 1.6972494E+00
  1.000E+01  8.019E-01  1.983E-02 3.3818015E+00 3.3473516E-01 1.6527327E+00
  9.957E+00  8.264E-01  1.519E-02 3.3729012E+00 2.9750750E-01 1.6850017E+00
  1.000E+01  7.532E-01  3.092E-02 3.3983397E+00 4.1658573E-01 1.6339194E+00
  9.957E+00  7.775E-01  2.507E-02 3.3911650E+00 3.8150329E-01 1.6683677E+00
  1.000E+01  7.052E-01  4.443E-02 3.4054042E+00 4.9661594E-01 1.6104872E+00
  9.957E+00  7.292E-01  3.738E-02 3.4030168E+00 4.6355407E-01 1.6468163E+00
  1.000E+01  6.580E-01  6.031E-02 3.4165463E+00 5.7598334E-01 1.5835846E+00
  9.957E+00  6.815E-01  5.207E-02 3.4062247E+00 5.4427539E-01 1.6211308E+00
  1.000E+01  6.116E-01  7.852E-02 3.4505577E+00 6.5481409E-01 1.5533927E+00
  9.957E+00  6.347E-01  6.913E-02 3.4350711E+00 6.2471431E-01 1.5922863E+00
  1.000E+01  5.661E-01  9.903E-02 3.4586968E+00 7.3150822E-01 1.5187956E+00
  9.957E+00  5.887E-01  8.849E-02 3.4610090E+00 7.0377472E-01 1.5594789E+00
  1.000E+01  5.217E-01  1.218E-01 3.4764432E+00 8.0609209E-01 1.4802746E+00
  9.957E+00  5.438E-01  1.101E-01 3.4583282E+00 7.8043085E-01 1.5222371E+00
  1.000E+01  4.786E-01  1.467E-01 3.5023625E+00 8.7895278E-01 1.4383396E+00
  9.957E+00  5.000E-01  1.340E-01 3.4927241E+00 8.5528533E-01 1.4814360E+00
  1.000E+01  4.367E-01  1.738E-01 3.4989276E+00 9.4956140E-01 1.3927280E+00
  9.957E+00  4.575E-01  1.600E-01 3.4919148E+00 9.2814406E-01 1.4370226E+00
  1.000E+01  3.962E-01  2.029E-01 3.5201549E+00 1.0177876E+00 1.3436497E+00
  9.957E+00  4.163E-01  1.881E-01 3.5234670E+00 9.9858660E-01 1.3889332E+00
  1.000E+01  3.572E-01  2.340E-01 3.5276842E+00 1.0835103E+00 1.2912602E+00
  9.957E+00  3.765E-01  2.182E-01 3.5138894E+00 1.0665891E+00 1.3374420E+00
  1.000E+01  3.198E-01  2.669E-01 3.5290832E+00 1.1465227E+00 1.2356427E+00
  9.957E+00  3.383E-01  2.502E-01 3.5305553E+00 1.1319288E+00 1.2826162E+00
  1.000E+01  2.841E-01  3.018E-01 3.5303508E+00 1.2066908E+00 1.1769564E+00
  9.957E+00  3.018E-01  2.841E-01 3.5304035E+00 1.1944544E+00 1.2245978E+00
  1.000E+01  2.502E-01  3.383E-01 3.5305026E+00 1.2638592E+00 1.1153452E+00
  9.957E+00  2.669E-01  3.198E-01 3.5291357E+00 1.2540114E+00 1.1635352E+00
  1.000E+01  2.182E-01  3.765E-01 3.5138369E+00 1.3178822E+00 1.0509614E+00
  9.957E+00  2.340E-01  3.572E-01 3.5277368E+00 1.3104544E+00 1.0995864E+00
  1.000E+01  1.881E-01  4.163E-01 3.5234143E+00 1.3686190E+00 9.8395370E-01
  9.957E+00  2.029E-01  3.962E-01 3.5202074E+00 1.3636216E+00 1.0328870E+00
  1.000E+01  1.600E-01  4.575E-01 3.4918623E+00 1.4160035E+00 9.1454142E-01
  9.957E+00  1.738E-01  4.367E-01 3.4989799E+00 1.4134280E+00 9.6364684E-01
  1.000E+01  1.340E-01  5.000E-01 3.4926713E+00 1.4597658E+00 8.4274841E-01
  9.957E+00  1.467E-01  4.786E-01 3.5024148E+00 1.4597158E+00 8.9198879E-01
  1.000E+01  1.101E-01  5.438E-01 3.4582758E+00 1.4999687E+00 7.6898920E-01
  9.957E+00  1.218E-01  5.217E-01 3.4764953E+00 1.5022727E+00 8.1804559E-01
  1.000E+01  8.849E-02  5.887E-01 3.4609563E+00 1.5366658E+00 6.9345499E-01
  9.957E+00  9.903E-02  5.661E-01 3.4587489E+00 1.5413654E+00 7.4235370E-01
  1.000E+01  6.913E-02  6.347E-01 3.4350183E+00 1.5689920E+00 6.1555140E-01
  9.957E+00  7.852E-02  6.116E-01 3.4506100E+00 1.5764762E+00 6.6451978E-01
  1.000E+01  5.207E-02  6.815E-01 3.4061718E+00 1.5974124E+00 5.3628917E-01
  9.957E+00  6.031E-02  6.580E-01 3.4165981E+00 1.6071149E+00 5.8451756E-01
  1.000E+01  3.738E-02  7.292E-01 3.4029636E+00 1.6227209E+00 4.5674876E-01
  9.957E+00  4.443E-02  7.052E-01 3.4054556E+00 1.6344155E+00 5.0397115E-01
  1.000E+01  2.507E-02  7.775E-01 3.3911117E+00 1.6439557E+00 3.7589855E-01
  9.957E+00  3.092E-02  7.532E-01 3.3983907E+00 1.6581946E+00 4.2275252E-01
  1.000E+01  1.519E-02  8.264E-01 3.3728480E+00 1.6603452E+00 2.9313204E-01
  9.957E+00  1.983E-02  8.019E-01 3.3818522E+00 1.6772865E+00 3.3968655E-01
  1.000E+01  7.761E-03  8.757E-01 3.3572883E+00 1.6724125E+00 2.0938394E-01
  9.957E+00  1.117E-02  8.510E-01 3.3640807E+00 1.6916388E+00 2.5504332E-01
  1.000E+01  2.796E-03  9.253E-01 3.3484108E+00 1.6806273E+00 1.2555201E-01
  9.957E+00  4.969E-03  9.004E-01 3.3521541E+00 1.7019026E+00 1.6993833E-01
  1.000E+01  3.108E-04  9.751E-01 3.3449900E+00 1.6848669E+00 4.1831643E-02
  9.957E+00  1.243E-03  9.502E-01 3.3466628E+00 1.7082653E+00 8.4924511E-02
  1.000E+01  3.108E-04  1.025E+00 3.3449900E+00 1.6848664E+00 -4.1852847E-02
  9.957E+00  0.000E+00  1.000E+00 3.3452468E+00 1.7104437E+00 -1.0618116E-05
  1.000E+01  2.796E-03  1.075E+00 3.3484107E+00 1.6806257E+00 -1.2557318E-01
  9.957E+00  1.243E-03  1.050E+00 3.3466627E+00 1.7082643E+00 -8.4945721E-02
  1.000E+01  7.761E-03  1.124E+00 3.3572882E+00 1.6724099E+00 -2.0940503E-01
  9.957E+00  4.969E-03  1.100E+00 3.3521539E+00 1.7019006E+00 -1.6995946E-01
  1.000E+01  1.519E-02  1.174E+00 3.3728478E+00 1.6603413E+00 -2.9315299E-01
  9.957E+00  1.117E-02  1.149E+00 3.3640805E+00 1.6916356E+00 -2.5506433E-01
  1.000E+01  2.507E-02  1.223E+00 3.3911114E+00 1.6439504E+00 -3.7591933E-01
  9.957E+00  1.983E-02  1.198E+00 3.3818519E+00 1.6772818E+00 -3.3970741E-01
  1.000E+01  3.738E-02  1.271E+00 3.4029632E+00 1.6227148E+00 -4.5676931E-01
  9.957E+00  3.092E-02  1.247E+00 3.3983903E+00 1.6581887E+00 -4.2277319E-01
  1.000E+01  5.207E-02  1.318E+00 3.4061713E+00 1.5974058E+00 -5.3630945E-01
  9.957E+00  4.443E-02  1.295E+00 3.4054551E+00 1.6344092E+00 -5.0399158E-01
  1.000E+01  6.913E-02  1.365E+00 3.4350177E+00 1.5689837E+00 -6.1557137E-01
  9.957E+00  6.031E-02  1.342E+00 3.4165976E+00 1.6071076E+00 -5.8453770E-01
  1.000E+01  8.849E-02  1.411E+00 3.4609557E+00 1.5366563E+00 -6.9347459E-01
  9.957E+00  7.852E-02  1.388E+00 3.4506094E+00 1.5764670E+00 -6.6453958E-01
  1.000E+01  1.101E-01  1.456E+00 3.4582751E+00 1.4999590E+00 -7.6900843E-01
  9.957E+00  9.903E-02  1.434E+00 3.4587483E+00 1.5413559E+00 -7.4237312E-01
  1.000E+01  1.340E-01  1.500E+00 3.4926706E+00 1.4597544E+00 -8.4276717E-01
  9.957E+00  1.218E-01  1.478E+00 3.4764946E+00 1.5022622E+00 -8.1806458E-01
  1.000E+01  1.600E-01  1.543E+00 3.4918615E+00 1.4159915E+00 -9.1455969E-01
  9.957E+00  1.467E-01  1.521E+00 3.5024140E+00 1.4597040E+00 -8.9200731E-01
  1.000E+01  1.881E-01  1.584E+00 3.5234134E+00 1.3686061E+00 -9.8397140E-01
  9.957E+00  1.738E-01  1.563E+00 3.4989790E+00 1.4134157E+00 -9.6366486E-01
  1.000E+01  2.182E-01  1.623E+00 3.5138360E+00 1.3178683E+00 -1.0509785E+00
  9.957E+00  2.029E-01  1.604E+00 3.5202065E+00 1.3636081E+00 -1.0329045E+00
  1.000E+01  2.502E-01  1.662E+00 3.5305017E+00 1.2638447E+00 -1.1153617E+00
  9.957E+00  2.340E-01  1.643E+00 3.5277358E+00 1.3104404E+00 -1.0996033E+00
  1.000E+01  2.841E-01  1.698E+00 3.5303499E+00 1.2066755E+00 -1.1769722E+00
  9.957E+00  2.669E-01  1.680E+00 3.5291347E+00 1.2539965E+00 -1.1635514E+00
  1.000E+01  3.198E-01  1.733E+00 3.5290822E+00 1.1465067E+00 -1.2356578E+00
  9.957E+00  3.018E-01  1.716E+00 3.5304024E+00 1.1944388E+00 -1.2246133E+00
  1.000E+01  3.572E-01  1.766E+00 3.5276831E+00 1.0834937E+00 -1.2912745E+00
  9.957E+00  3.383E-01  1.750E+00 3.5305542E+00 1.1319124E+00 -1.2826309E+00
  1.000E+01  3.962E-01  1.797E+00 3.5201537E+00 1.0177703E+00 -1.3436632E+00
  9.957E+00  3.765E-01  1.782E+00 3.5138882E+00 1.0665722E+00 -1.3374559E+00
  1.000E+01  4.367E-01  1.826E+00 3.4989264E+00 9.4954352E-01 -1.3927407E+00
  9.957E+00  4.163E-01  1.812E+00 3.5234659E+00 9.9856909E-01 -1.3889463E+00
  1.000E+01  4.786E-01  1.853E+00 3.5023613E+00 8.7893450E-01 -1.4383514E+00
  9.957E+00  4.575E-01  1.840E+00 3.4919136E+00 9.2812600E-01 -1.4370348E+00
  1.000E+01  5.217E-01  1.878E+00 3.4764419E+00 8.0607348E-01 -1.4802855E+00
  9.957E+00  5.000E-01  1.866E+00 3.4927229E+00 8.5526662E-01 -1.4814473E+00
  1.000E+01  5.661E-01  1.901E+00 3.4586956E+00 7.3148904E-01 -1.5188055E+00
  9.957E+00  5.438E-01  1.890E+00 3.4583270E+00 7.8041169E-01 -1.5222474E+00
  1.000E+01  6.116E-01  1.921E+00 3.4505567E+00 6.5479397E-01 -1.5534015E+00
  9.957E+00  5.887E-01  1.912E+00 3.4610077E+00 7.0375538E-01 -1.5594883E+00
  1.000E+01  6.580E-01  1.940E+00 3.4165454E+00 5.7596260E-01 -1.5835922E+00
  9.957E+00  6.347E-01  1.931E+00 3.4350696E+00 6.2469495E-01 -1.5922948E+00
  1.000E+01  7.052E-01  1.956E+00 3.4054030E+00 4.9659547E-01 -1.6104938E+00
  9.957E+00  6.815E-01  1.948E+00 3.4062231E+00 5.4425568E-01 -1.6211383E+00
  1.000E+01  7.532E-01  1.969E+00 3.3983380E+00 4.1656605E-01 -1.6339251E+00
  9.957E+00  7.292E-01  1.963E+00 3.4030154E+00 4.6353355E-01 -1.6468226E+00
  1.000E+01  8.019E-01  1.980E+00 3.3817996E+00 3.3471595E-01 -1.6527377E+00
  9.957E+00  7.775E-01  1.975E+00 3.3911638E+00 3.8148190E-01 -1.6683727E+00
  1.000E+01  8.510E-01  1.989E+00 3.3640282E+00 2.5131128E-01 -1.6668797E+00
  9.957E+00  8.264E-01  1.985E+00 3.3729001E+00 2.9748570E-01 -1.6850056E+00
  1.000E+01  9.004E-01  1.995E+00 3.3521018E+00 1.6745150E-01 -1.6769930E+00
  9.957E+00  8.757E-01  1.992E+00 3.3573403E+00 2.1249368E-01 -1.6972520E+00
  1.000E+01  9.502E-01  1.999E+00 3.3466106E+00 8.3681680E-02 -1.6832623E+00
  9.957E+00  9.253E-01  1.997E+00 3.3484628E+00 1.2741678E-01 -1.7055886E+00
  1.000E+01  1.000E+00  2.000E+00 3.3451948E+00 -1.0476291E-05 -1.6854087E+00
  9.957E+00  9.751E-01  2.000E+00 3.3450420E+00 4.2453132E-02 -1.7098910E+00
  1.000E+01  1.050E+00  1.999E+00 3.3466108E+00 -8.3702612E-02 -1.6832612E+00
  9.957E+00  1.025E+00  2.000E+00 3.3450421E+00 -4.2474101E-02 -1.7098904E+00
  1.000E+01  1.100E+00  1.995E+00 3.3521022E+00 -1.6747237E-01 -1.6769907E+00
  9.957E+00  1.075E+00  1.997E+00 3.3484631E+00 -1.2743770E-01 -1.7055869E+00
  1.000E+01  1.149E+00  1.989E+00 3.3640289E+00 -2.5133203E-01 -1.6668764E+00
  9.957E+00  1.124E+00  1.992E+00 3.3573409E+00 -2.1251452E-01 -1.6972492E+00
  1.000E+01  1.198E+00  1.980E+00 3.3818004E+00 -3.3473654E-01 -1.6527332E+00
  9.957E+00  1.174E+00  1.985E+00 3.3729009E+00 -2.9750640E-01 -1.6850017E+00