# TIME = 6.000000
VARIABLES = X, Y, Z, FX, FY, FZ
ZONE N=29232 E=58212 F=FEPOINT ET=TRIANGLE
  0.000E+00  9.502E-01  1.243E-03 3.3489303E+00 5.2093016E-02 1.0477421E+00
  0.000E+00  1.000E+00  0.000E+00 3.3475149E+00 -8.8015900E-07 1.0490782E+00
  4.318E-02  9.751E-01  3.108E-04 3.3473221E+00 2.5433938E-02 1.0241759E+00
  0.000E+00  1.050E+00  1.243E-03 3.3489303E+00 -5.2094767E-02 1.0477416E+00
  4.318E-02  1.025E+00  3.108E-04 3.3473221E+00 -2.5435557E-02 1.0241757E+00
  0.000E+00  1.100E+00  4.969E-03 3.3544209E+00 -1.0423702E-01 1.0438388E+00
  4.318E-02  1.075E+00  2.796E-03 3.3507423E+00 -7.6326783E-02 1.0215981E+00
  0.000E+00  1.149E+00  1.117E-02 3.3663483E+00 -1.5643533E-01 1.0375433E+00
  4.318E-02  1.124E+00  7.761E-03 3.3596200E+00 -1.2728560E-01 1.0166042E+00
  0.000E+00  1.198E+00  1.983E-02 3.3841220E+00 -2.0835048E-01 1.0287400E+00
  4.318E-02  1.174E+00  1.519E-02 3.3751818E+00 -1.7819312E-01 1.0092683E+00
  0.000E+00  1.247E+00  3.092E-02 3.4006600E+00 -2.5929814E-01 1.0170299E+00
  4.318E-02  1.223E+00  2.507E-02 3.3934473E+00 -2.2850381E-01 9.9930514E-01
  0.000E+00  1.295E+00  4.443E-02 3.4077166E+00 -3.0911243E-01 1.0024448E+00
  4.318E-02  1.271E+00  3.738E-02 3.4052949E+00 -2.7764993E-01 9.8639686E-01
  0.000E+00  1.342E+00  6.031E-02 3.4188515E+00 -3.5851405E-01 9.8569916E-01
  4.318E-02  1.318E+00  5.207E-02 3.4084910E+00 -3.2600018E-01 9.7101222E-01
  0.000E+00  1.388E+00  7.852E-02 3.4528712E+00 -4.0758188E-01 9.6690646E-01
  4.318E-02  1.365E+00  6.913E-02 3.4373410E+00 -3.7418126E-01 9.5373534E-01
  0.000E+00  1.434E+00  9.903E-02 3.4610021E+00 -4.5532024E-01 9.4537205E-01
  4.318E-02  1.411E+00  8.849E-02 3.4632825E+00 -4.2153638E-01 9.3408514E-01
  0.000E+00  1.478E+00  1.218E-01 3.4787448E+00 -5.0174507E-01 9.2139466E-01
  4.318E-02  1.456E+00  1.101E-01 3.4605864E+00 -4.6745123E-01 9.1177845E-01
  0.000E+00  1.521E+00  1.467E-01 3.5046698E+00 -5.4709715E-01 8.9529274E-01
  4.318E-02  1.500E+00  1.340E-01 3.4949910E+00 -5.1228683E-01 8.8733965E-01
  0.000E+00  1.563E+00  1.738E-01 3.5012217E+00 -5.9104725E-01 8.6690193E-01
  4.318E-02  1.543E+00  1.600E-01 3.4941705E+00 -5.5592702E-01 8.6073742E-01
  0.000E+00  1.604E+00  2.029E-01 3.5224548E+00 -6.3351458E-01 8.3635348E-01
  4.318E-02  1.584E+00  1.881E-01 3.5257319E+00 -5.9812031E-01 8.3193317E-01
  0.000E+00  1.643E+00  2.340E-01 3.5299816E+00 -6.7442341E-01 8.0374370E-01
  4.318E-02  1.623E+00  2.182E-01 3.5161427E+00 -6.3885215E-01 8.0109191E-01
  0.000E+00  1.680E+00  2.669E-01 3.5313797E+00 -7.1364551E-01 7.6912509E-01
  4.318E-02  1.662E+00  2.502E-01 3.5328136E+00 -6.7798876E-01 7.6825275E-01
  0.000E+00  1.716E+00  3.018E-01 3.5326463E+00 -7.5109690E-01 7.3259585E-01
  4.318E-02  1.698E+00  2.841E-01 3.5326592E+00 -7.1543973E-01 7.3350145E-01
  0.000E+00  1.750E+00  3.383E-01 3.5328006E+00 -7.8668129E-01 6.9424631E-01
  4.318E-02  1.733E+00  3.198E-01 3.5313927E+00 -7.5111288E-01 6.9692683E-01
  0.000E+00  1.782E+00  3.765E-01 3.5161298E+00 -8.2030784E-01 6.5417082E-01
  4.318E-02  1.766E+00  3.572E-01 3.5299945E+00 -7.8492039E-01 6.5862317E-01
  0.000E+00  1.812E+00  4.163E-01 3.5257191E+00 -8.5188871E-01 6.1246204E-01
  4.318E-02  1.797E+00  3.962E-01 3.5224677E+00 -8.1676618E-01 6.1867240E-01
  0.000E+00  1.840E+00  4.575E-01 3.4941577E+00 -8.8138333E-01 5.6925658E-01
  4.318E-02  1.826E+00  4.367E-01 3.5012347E+00 -8.4659895E-01 5.7719965E-01
  0.000E+00  1.866E+00  5.000E-01 3.4949781E+00 -9.0862276E-01 5.2456933E-01
  4.318E-02  1.853E+00  4.786E-01 3.5046826E+00 -8.7432387E-01 5.3427854E-01
  0.000E+00  1.890E+00  5.438E-01 3.4605736E+00 -9.3364754E-01 4.7865800E-01
  4.318E-02  1.878E+00  5.217E-01 3.4787574E+00 -8.9981402E-01 4.8998846E-01
  0.000E+00  1.912E+00  5.887E-01 3.4632700E+00 -9.5648906E-01 4.3164190E-01
  4.318E-02  1.901E+00  5.661E-01 3.4610147E+00 -9.2322968E-01 4.4465103E-01
  0.000E+00  1.931E+00  6.347E-01 3.4373284E+00 -9.7661040E-01 3.8315106E-01
  4.318E-02  1.921E+00  6.116E-01 3.4528839E+00 -9.4425951E-01 3.9803098E-01
  0.000E+00  1.948E+00  6.815E-01 3.4084782E+00 -9.9430134E-01 3.3381450E-01
  4.318E-02  1.940E+00  6.580E-01 3.4188642E+00 -9.6261198E-01 3.5011223E-01
  0.000E+00  1.963E+00  7.292E-01 3.4052819E+00 -1.0100542E+00 2.8430461E-01
  4.318E-02  1.956E+00  7.052E-01 3.4077291E+00 -9.7896451E-01 3.0186712E-01
  0.000E+00  1.975E+00  7.775E-01 3.3934343E+00 -1.0232715E+00 2.3397949E-01
  4.318E-02  1.969E+00  7.532E-01 3.4006722E+00 -9.9320694E-01 2.5321912E-01
  0.000E+00  1.985E+00  8.264E-01 3.3751690E+00 -1.0334733E+00 1.8246172E-01
  4.318E-02  1.980E+00  8.019E-01 3.3841340E+00 -1.0046423E+00 2.0346470E-01
  0.000E+00  1.992E+00  8.757E-01 3.3596073E+00 -1.0409849E+00 1.3033293E-01
  4.318E-02  1.989E+00  8.510E-01 3.3663603E+00 -1.0132392E+00 1.5276570E-01
  0.000E+00  1.997E+00  9.253E-01 3.3507297E+00 -1.0460982E+00 7.8151824E-02
  4.318E-02  1.995E+00  9.004E-01 3.3544330E+00 -1.0193871E+00 1.0179014E-01
  0.000E+00  2.000E+00  9.751E-01 3.3473095E+00 -1.0487372E+00 2.6040097E-02
  4.318E-02  1.999E+00  9.502E-01 3.3489425E+00 -1.0231982E+00 5.0869182E-02
  0.000E+00  2.000E+00  1.025E+00 3.3473095E+00 -1.0487369E+00 -2.6049311E-02
  4.318E-02  2.000E+00  1.000E+00 3.3475271E+00 -1.0245031E+00 -4.6115161E-06
  0.000E+00  1.997E+00  1.075E+00 3.3507297E+00 -1.0460974E+00 -7.8161018E-02
  4.318E-02  1.999E+00  1.050E+00 3.3489425E+00 -1.0231977E+00 -5.0878397E-02
  0.000E+00  1.992E+00  1.124E+00 3.3596073E+00 -1.0409836E+00 -1.3034208E-01
  4.318E-02  1.995E+00  1.100E+00 3.3544330E+00 -1.0193861E+00 -1.0179933E-01
  0.000E+00  1.985E+00  1.174E+00 3.3751689E+00 -1.0334717E+00 -1.8247081E-01
  4.318E-02  1.989E+00  1.149E+00 3.3663604E+00 -1.0132378E+00 -1.5277484E-01
  0.000E+00  1.975E+00  1.223E+00 3.3934343E+00 -1.0232696E+00 -2.3398850E-01
  4.318E-02  1.980E+00  1.198E+00 3.3841341E+00 -1.0046406E+00 -2.0347378E-01
  0.000E+00  1.963E+00  1.271E+00 3.4052819E+00 -1.0100517E+00 -2.8431353E-01
  4.318E-02  1.969E+00  1.247E+00 3.4006723E+00 -9.9320480E-01 -2.5322812E-01
  0.000E+00  1.948E+00  1.318E+00 3.4084782E+00 -9.9429802E-01 -3.3382331E-01
  4.318E-02  1.956E+00  1.295E+00 3.4077291E+00 -9.7896157E-01 -3.0187602E-01
  0.000E+00  1.931E+00  1.365E+00 3.4373284E+00 -9.7660708E-01 -3.8315976E-01
  4.318E-02  1.940E+00  1.342E+00 3.4188642E+00 -9.6260857E-01 -3.5012100E-01
  0.000E+00  1.912E+00  1.411E+00 3.4632700E+00 -9.5648542E-01 -4.3165044E-01
  4.318E-02  1.921E+00  1.388E+00 3.4528839E+00 -9.4425620E-01 -3.9803961E-01
  0.000E+00  1.890E+00  1.456E+00 3.4605736E+00 -9.3364297E-01 -4.7866636E-01
  4.318E-02  1.901E+00  1.434E+00 3.4610147E+00 -9.2322554E-01 -4.4465951E-01
  0.000E+00  1.866E+00  1.500E+00 3.4949782E+00 -9.0861829E-01 -5.2457750E-01
  4.318E-02  1.878E+00  1.478E+00 3.4787574E+00 -8.9980950E-01 -4.8999675E-01
  0.000E+00  1.840E+00  1.543E+00 3.4941578E+00 -8.8137830E-01 -5.6926454E-01
  4.318E-02  1.853E+00  1.521E+00 3.5046826E+00 -8.7431926E-01 -5.3428664E-01
  0.000E+00  1.812E+00  1.584E+00 3.5257192E+00 -8.5188335E-01 -6.1246978E-01
  4.318E-02  1.826E+00  1.563E+00 3.5012347E+00 -8.4659367E-01 -5.7720753E-01
  0.000E+00  1.782E+00  1.623E+00 3.5161299E+00 -8.2030217E-01 -6.5417832E-01
  4.318E-02  1.797E+00  1.604E+00 3.5224677E+00 -8.1676076E-01 -6.1868005E-01
  0.000E+00  1.750E+00  1.662E+00 3.5328007E+00 -7.8667523E-01 -6.9425354E-01
  4.318E-02  1.766E+00  1.643E+00 3.5299945E+00 -7.8491450E-01 -6.5863056E-01
  0.000E+00  1.716E+00  1.698E+00 3.5326463E+00 -7.5109056E-01 -7.3260280E-01
  4.318E-02  1.733E+00  1.680E+00 3.5313926E+00 -7.5110676E-01 -6.9693395E-01
  0.000E+00  1.680E+00  1.733E+00 3.5313798E+00 -7.1363886E-01 -7.6913173E-01
  4.318E-02  1.698E+00  1.716E+00 3.5326592E+00 -7.1543325E-01 -7.3350828E-01
  0.000E+00  1.643E+00  1.766E+00 3.5299816E+00 -6.7441651E-01 -8.0375002E-01
  4.318E-02  1.662E+00  1.750E+00 3.5328136E+00 -6.7798201E-01 -7.6825927E-01
  0.000E+00  1.604E+00  1.797E+00 3.5224548E+00 -6.3350741E-01 -8.3635946E-01
  4.318E-02  1.623E+00  1.782E+00 3.5161427E+00 -6.3884510E-01 -8.0109810E-01
  0.000E+00  1.563E+00  1.826E+00 3.5012217E+00 -5.9103976E-01 -8.6690752E-01
  4.318E-02  1.584E+00  1.812E+00 3.5257319E+00 -5.9811306E-01 -8.3193902E-01
  0.000E+00  1.521E+00  1.853E+00 3.5046698E+00 -5.4708936E-01 -8.9529794E-01
  4.318E-02  1.543E+00  1.840E+00 3.4941705E+00 -5.5591959E-01 -8.6074293E-01
  0.000E+00  1.478E+00  1.878E+00 3.4787448E+00 -5.0173723E-01 -9.2139951E-01
  4.318E-02  1.500E+00  1.866E+00 3.4949910E+00 -5.1227921E-01 -8.8734478E-01
  0.000E+00  1.434E+00  1.901E+00 3.4610020E+00 -4.5531256E-01 -9.4537660E-01
  4.318E-02  1.456E+00  1.890E+00 3.4605865E+00 -4.6744321E-01 -9.1178314E-01
  0.000E+00  1.388E+00  1.921E+00 3.4528711E+00 -4.0757423E-01 -9.6691067E-01
  4.318E-02  1.411E+00  1.912E+00 3.4632827E+00 -4.2152800E-01 -9.3408935E-01
  0.000E+00  1.342E+00  1.940E+00 3.4188516E+00 -3.5850579E-01 -9.8570286E-01
  4.318E-02  1.365E+00  1.931E+00 3.4373410E+00 -3.7417283E-01 -9.5373911E-01
  0.000E+00  1.295E+00  1.956E+00 3.4077170E+00 -3.0910329E-01 -1.0024478E+00
  4.318E-02  1.318E+00  1.948E+00 3.4084908E+00 -3.2599205E-01 -9.7101566E-01
  0.000E+00  1.247E+00  1.969E+00 3.4006604E+00 -2.5928855E-01 -1.0170323E+00
  4.318E-02  1.271E+00  1.963E+00 3.4052946E+00 -2.7764208E-01 -9.8640000E-01
  0.000E+00  1.198E+00  1.980E+00 3.3841222E+00 -2.0834112E-01 -1.0287420E+00
  4.318E-02  1.223E+00  1.975E+00 3.3934471E+00 -2.2849584E-01 -9.9930791E-01
  0.000E+00  1.149E+00  1.989E+00 3.3663483E+00 -1.5642649E-01 -1.0375447E+00
  4.318E-02  1.174E+00  1.985E+00 3.3751819E+00 -1.7818471E-01 -1.0092707E+00
  0.000E+00  1.100E+00  1.995E+00 3.3544207E+00 -1.0422850E-01 -1.0438398E+00
  4.318E-02  1.124E+00  1.992E+00 3.3596202E+00 -1.2727681E-01 -1.0166061E+00
  0.000E+00  1.050E+00  1.999E+00 3.3489301E+00 -5.2086215E-02 -1.0477422E+00
  4.318E-02  1.075E+00  1.997E+00 3.3507425E+00 -7.6317852E-02 -1.0215994E+00
  0.000E+00  1.000E+00  2.000E+00 3.3475147E+00 7.9096286E-06 -1.0490783E+00
  4.318E-02  1.025E+00  2.000E+00 3.3473222E+00 -2.5426693E-02 -1.0241765E+00
  0.000E+00  9.502E-01  1.999E+00 3.3489301E+00 5.2102024E-02 -1.0477417E+00
  4.318E-02  9.751E-01  2.000E+00 3.3473222E+00 2.5442647E-02 -1.0241763E+00
  0.000E+00  9.004E-01  1.995E+00 3.3544208E+00 1.0424428E-01 -1.0438388E+00
  4.318E-02  9.253E-01  1.997E+00 3.3507425E+00 7.6333786E-02 -1.0215987E+00
  0.000E+00  8.510E-01  1.989E+00 3.3663484E+00 1.5644222E-01 -1.0375432E+00
  4.318E-02  8.757E-01  1.992E+00 3.3596203E+00 1.2729270E-01 -1.0166048E+00
  0.000E+00  8.019E-01  1.980E+00 3.3841224E+00 2.0835678E-01 -1.0287399E+00
  4.318E-02  8.264E-01  1.985E+00 3.3751820E+00 1.7820055E-01 -1.0092689E+00
  0.000E+00  7.532E-01  1.969E+00 3.4006606E+00 2.5930412E-01 -1.0170298E+00
  4.318E-02  7.775E-01  1.975E+00 3.3934473E+00 2.2851159E-01 -9.9930563E-01
  0.000E+00  7.052E-01  1.956E+00 3.4077172E+00 3.0911875E-01 -1.0024448E+00
  4.318E-02  7.292E-01  1.963E+00 3.4052948E+00 2.7765774E-01 -9.8639723E-01
  0.000E+00  6.580E-01  1.940E+00 3.4188518E+00 3.5852112E-01 -9.8569939E-01
  4.318E-02  6.815E-01  1.948E+00 3.4084910E+00 3.2600759E-01 -9.7101242E-01
  0.000E+00  6.116E-01  1.921E+00 3.4528713E+00 4.0758940E-01 -9.6690675E-01
  4.318E-02  6.347E-01  1.931E+00 3.4373413E+00 3.7418822E-01 -9.5373541E-01
  0.000E+00  5.661E-01  1.901E+00 3.4610023E+00 4.5532758E-01 -9.4537224E-01
  4.318E-02  5.887E-01  1.912E+00 3.4632829E+00 4.2154323E-01 -9.3408520E-01
  0.000E+00  5.217E-01  1.878E+00 3.4787451E+00 5.0175205E-01 -9.2139472E-01
  4.318E-02  5.438E-01  1.890E+00 3.4605868E+00 4.6745828E-01 -9.1177855E-01
  0.000E+00  4.786E-01  1.853E+00 3.5046702E+00 5.4710398E-01 -8.9529275E-01
  4.318E-02  5.000E-01  1.866E+00 3.4949914E+00 5.1229405E-01 -8.8733978E-01
  0.000E+00  4.367E-01  1.826E+00 3.5012221E+00 5.9105415E-01 -8.6690194E-01
  4.318E-02  4.575E-01  1.840E+00 3.4941709E+00 5.5593424E-01 -8.6073753E-01
  0.000E+00  3.962E-01  1.797E+00 3.5224552E+00 6.3352155E-01 -8.3635351E-01
  4.318E-02  4.163E-01  1.812E+00 3.5257323E+00 5.9812745E-01 -8.3193325E-01
  0.000E+00  3.572E-01  1.766E+00 3.5299820E+00 6.7443038E-01 -8.0374373E-01
  4.318E-02  3.765E-01  1.782E+00 3.5161431E+00 6.3885925E-01 -8.0109197E-01
  0.000E+00  3.198E-01  1.733E+00 3.5313802E+00 7.1365245E-01 -7.6912512E-01
  4.318E-02  3.383E-01  1.750E+00 3.5328140E+00 6.7799586E-01 -7.6825280E-01
  0.000E+00  2.841E-01  1.698E+00 3.5326468E+00 7.5110381E-01 -7.3259588E-01
  4.318E-02  3.018E-01  1.716E+00 3.5326597E+00 7.1544683E-01 -7.3350150E-01
  0.000E+00  2.502E-01  1.662E+00 3.5328012E+00 7.8668820E-01 -6.9424634E-01
  4.318E-02  2.669E-01  1.680E+00 3.5313931E+00 7.5111997E-01 -6.9692688E-01
  0.000E+00  2.182E-01  1.623E+00 3.5161304E+00 8.2031475E-01 -6.5417086E-01
  4.318E-02  2.340E-01  1.643E+00 3.5299950E+00 7.8492746E-01 -6.5862323E-01
  0.000E+00  1.881E-01  1.584E+00 3.5257197E+00 8.5189561E-01 -6.1246209E-01
  4.318E-02  2.029E-01  1.604E+00 3.5224682E+00 8.1677324E-01 -6.1867246E-01
  0.000E+00  1.600E-01  1.543E+00 3.4941583E+00 8.8139021E-01 -5.6925664E-01
  4.318E-02  1.738E-01  1.563E+00 3.5012352E+00 8.4660601E-01 -5.7719972E-01
  0.000E+00  1.340E-01  1.500E+00 3.4949788E+00 9.0862963E-01 -5.2456940E-01
  4.318E-02  1.467E-01  1.521E+00 3.5046831E+00 8.7433091E-01 -5.3427863E-01
  0.000E+00  1.101E-01  1.456E+00 3.4605742E+00 9.3365440E-01 -4.7865811E-01
  4.318E-02  1.218E-01  1.478E+00 3.4787580E+00 8.9982105E-01 -4.8998856E-01
  0.000E+00  8.849E-02  1.411E+00 3.4632706E+00 9.5649592E-01 -4.3164203E-01
  4.318E-02  9.903E-02  1.434E+00 3.4610153E+00 9.2323671E-01 -4.4465116E-01
  0.000E+00  6.913E-02  1.365E+00 3.4373290E+00 9.7661726E-01 -3.8315122E-01
  4.318E-02  7.852E-02  1.388E+00 3.4528845E+00 9.4426652E-01 -3.9803113E-01
  0.000E+00  5.207E-02  1.318E+00 3.4084788E+00 9.9430819E-01 -3.3381468E-01
  4.318E-02  6.031E-02  1.342E+00 3.4188648E+00 9.6261897E-01 -3.5011241E-01
  0.000E+00  3.738E-02  1.271E+00 3.4052825E+00 1.0100611E+00 -2.8430482E-01
  4.318E-02  4.443E-02  1.295E+00 3.4077297E+00 9.7897150E-01 -3.0186734E-01
  0.000E+00  2.507E-02  1.223E+00 3.3934349E+00 1.0232783E+00 -2.3397973E-01
  4.318E-02  3.092E-02  1.247E+00 3.4006729E+00 9.9321392E-01 -2.5321937E-01
  0.000E+00  1.519E-02  1.174E+00 3.3751696E+00 1.0334801E+00 -1.8246200E-01
  4.318E-02  1.983E-02  1.198E+00 3.3841347E+00 1.0046493E+00 -2.0346499E-01
  0.000E+00  7.761E-03  1.124E+00 3.3596079E+00 1.0409917E+00 -1.3033325E-01
  4.318E-02  1.117E-02  1.149E+00 3.3663610E+00 1.0132462E+00 -1.5276602E-01
  0.000E+00  2.796E-03  1.075E+00 3.3507303E+00 1.0461050E+00 -7.8152191E-02
  4.318E-02  4.969E-03  1.100E+00 3.3544337E+00 1.0193941E+00 -1.0179049E-01
  0.000E+00  3.108E-04  1.025E+00 3.3473102E+00 1.0487440E+00 -2.6040504E-02
  4.318E-02  1.243E-03  1.050E+00 3.3489431E+00 1.0232052E+00 -5.0869577E-02
  0.000E+00  3.108E-04  9.751E-01 3.3473102E+00 1.0487437E+00 2.6048865E-02
  4.318E-02  0.000E+00  1.000E+00 3.3475278E+00 1.0245100E+00 4.1785563E-06
  0.000E+00  2.796E-03  9.253E-01 3.3507303E+00 1.0461042E+00 7.8160536E-02
  4.318E-02  1.243E-03  9.502E-01 3.3489431E+00 1.0232046E+00 5.0877924E-02
  0.000E+00  7.761E-03  8.757E-01 3.3596079E+00 1.0409904E+00 1.3034156E-01
  4.318E-02  4.969E-03  9.004E-01 3.3544336E+00 1.0193930E+00 1.0179881E-01
  0.000E+00  1.519E-02  8.264E-01 3.3751696E+00 1.0334785E+00 1.8247026E-01
  4.318E-02  1.117E-02  8.510E-01 3.3663610E+00 1.0132447E+00 1.5277429E-01
  0.000E+00  2.507E-02  7.775E-01 3.3934349E+00 1.0232764E+00 2.3398792E-01
  4.318E-02  1.983E-02  8.019E-01 3.3841347E+00 1.0046475E+00 2.0347319E-01
  0.000E+00  3.738E-02  7.292E-01 3.4052826E+00 1.0100585E+00 2.8431292E-01
  4.318E-02  3.092E-02  7.532E-01 3.4006728E+00 9.9321171E-01 2.5322749E-01
  0.000E+00  5.207E-02  6.815E-01 3.4084788E+00 9.9430481E-01 3.3382267E-01
  4.318E-02  4.443E-02  7.052E-01 3.4077297E+00 9.7896849E-01 3.0187536E-01
  0.000E+00  6.913E-02  6.347E-01 3.4373290E+00 9.7661388E-01 3.8315907E-01
  4.318E-02  6.031E-02  6.580E-01 3.4188648E+00 9.6261549E-01 3.5012032E-01
  0.000E+00  8.849E-02  5.887E-01 3.4632706E+00 9.5649222E-01 4.3164973E-01
  4.318E-02  7.852E-02  6.116E-01 3.4528845E+00 9.4426311E-01 3.9803890E-01
  0.000E+00  1.101E-01  5.438E-01 3.4605742E+00 9.3364978E-01 4.7866564E-01
  4.318E-02  9.903E-02  5.661E-01 3.4610153E+00 9.2323246E-01 4.4465877E-01
  0.000E+00  1.340E-01  5.000E-01 3.4949787E+00 9.0862510E-01 5.2457676E-01
  4.318E-02  1.218E-01  5.217E-01 3.4787580E+00 8.9981641E-01 4.8999599E-01
  0.000E+00  1.600E-01  4.575E-01 3.4941583E+00 8.8138511E-01 5.6926378E-01
  4.318E-02  1.467E-01  4.786E-01 3.5046832E+00 8.7432618E-01 5.3428586E-01
  0.000E+00  1.881E-01  4.163E-01 3.5257197E+00 8.5189017E-01 6.1246901E-01
  4.318E-02  1.738E-01  4.367E-01 3.5012352E+00 8.4660061E-01 5.7720673E-01
  0.000E+00  2.182E-01  3.765E-01 3.5161303E+00 8.2030901E-01 6.5417753E-01
  4.318E-02  2.029E-01  3.962E-01 3.5224683E+00 8.1676770E-01 6.1867924E-01
  0.000E+00  2.502E-01  3.383E-01 3.5328011E+00 7.8668208E-01 6.9425274E-01
  4.318E-02  2.340E-01  3.572E-01 3.5299950E+00 7.8492145E-01 6.5862974E-01
  0.000E+00  2.841E-01  3.018E-01 3.5326468E+00 7.5109743E-01 7.3260200E-01
  4.318E-02  2.669E-01  3.198E-01 3.5313932E+00 7.5111371E-01 6.9693313E-01
  0.000E+00  3.198E-01  2.669E-01 3.5313802E+00 7.1364573E-01 7.6913094E-01
  4.318E-02  3.018E-01  2.841E-01 3.5326597E+00 7.1544022E-01 7.3350745E-01
  0.000E+00  3.572E-01  2.340E-01 3.5299820E+00 6.7442337E-01 8.0374924E-01
  4.318E-02  3.383E-01  2.502E-01 3.5328140E+00 6.7798900E-01 7.6825844E-01
  0.000E+00  3.962E-01  2.029E-01 3.5224552E+00 6.3351429E-01 8.3635869E-01
  4.318E-02  3.765E-01  2.182E-01 3.5161431E+00 6.3885211E-01 8.0109728E-01
  0.000E+00  4.367E-01  1.738E-01 3.5012221E+00 5.9104674E-01 8.6690679E-01
  4.318E-02  4.163E-01  1.881E-01 3.5257323E+00 5.9812006E-01 8.3193820E-01
  0.000E+00  4.786E-01  1.467E-01 3.5046701E+00 5.4709644E-01 8.9529724E-01
  4.318E-02  4.575E-01  1.600E-01 3.4941709E+00 5.5592654E-01 8.6074211E-01
  0.000E+00  5.217E-01  1.218E-01 3.4787451E+00 5.0174418E-01 9.2139879E-01
  4.318E-02  5.000E-01  1.340E-01 3.4949914E+00 5.1228617E-01 8.8734397E-01
  0.000E+00  5.661E-01  9.903E-02 3.4610024E+00 4.5531917E-01 9.4537580E-01
  4.318E-02  5.438E-01  1.101E-01 3.4605867E+00 4.6745038E-01 9.1178240E-01
  0.000E+00  6.116E-01  7.852E-02 3.4528715E+00 4.0758067E-01 9.6690982E-01
  4.318E-02  5.887E-01  8.849E-02 3.4632828E+00 4.2153539E-01 9.3408871E-01
  0.000E+00  6.580E-01  6.031E-02 3.4188518E+00 3.5851270E-01 9.8570212E-01
  4.318E-02  6.347E-01  6.913E-02 3.4373413E+00 3.7418012E-01 9.5373851E-01
  0.000E+00  7.052E-01  4.443E-02 3.4077168E+00 3.0911097E-01 1.0024473E+00
  4.318E-02  6.815E-01  5.207E-02 3.4084913E+00 3.2599892E-01 9.7101499E-01
  0.000E+00  7.532E-01  3.092E-02 3.4006602E+00 2.5929659E-01 1.0170320E+00
  4.318E-02  7.292E-01  3.738E-02 3.4052951E+00 2.7764857E-01 9.8639921E-01
  0.000E+00  8.019E-01  1.983E-02 3.3841221E+00 2.0834886E-01 1.0287418E+00
  4.318E-02  7.775E-01  2.507E-02 3.3934475E+00 2.2850236E-01 9.9930707E-01
  0.000E+00  8.510E-01  1.117E-02 3.3663484E+00 1.5643365E-01 1.0375446E+00
  4.318E-02  8.264E-01  1.519E-02 3.3751819E+00 1.7819160E-01 1.0092699E+00
  0.000E+00  9.004E-01  4.969E-03 3.3544210E+00 1.0423530E-01 1.0438396E+00
  4.318E-02  8.757E-01  7.761E-03 3.3596201E+00 1.2728403E-01 1.0166053E+00
  4.318E-02  9.253E-01  2.796E-03 3.3507424E+00 7.6325180E-02 1.0215988E+00
  1.000E+01  1.050E+00  1.243E-03 3.3489303E+00 -5.2094767E-02 1.0477416E+00
  1.000E+01  1.000E+00  5.551E-16 3.3475149E+00 -8.8015900E-07 1.0490782E+00
  9.957E+00  1.025E+00  3.108E-04 3.3473128E+00 -2.6657712E-02 1.0733867E+00
  1.000E+01  9.502E-01  1.243E-03 3.3489303E+00 5.2093016E-02 1.0477421E+00
  9.957E+00  9.751E-01  3.108E-04 3.3473128E+00 2.6655811E-02 1.0733869E+00
  1.000E+01  9.004E-01  4.969E-03 3.3544210E+00 1.0423530E-01 1.0438396E+00
  9.957E+00  9.253E-01  2.796E-03 3.3507331E+00 7.9992156E-02 1.0706859E+00
  1.000E+01  8.510E-01  1.117E-02 3.3663484E+00 1.5643365E-01 1.0375446E+00
  9.957E+00  8.757E-01  7.761E-03 3.3596108E+00 1.3339945E-01 1.0654524E+00
  1.000E+01  8.019E-01  1.983E-02 3.3841221E+00 2.0834886E-01 1.0287418E+00
  9.957E+00  8.264E-01  1.519E-02 3.3751727E+00 1.8675320E-01 1.0577645E+00
  1.000E+01  7.532E-01  3.092E-02 3.4006602E+00 2.5929659E-01 1.0170320E+00
  9.957E+00  7.775E-01  2.507E-02 3.3934382E+00 2.3948167E-01 1.0473231E+00
  1.000E+01  7.052E-01  4.443E-02 3.4077168E+00 3.0911097E-01 1.0024473E+00
  9.957E+00  7.292E-01  3.738E-02 3.4052858E+00 2.9098966E-01 1.0337952E+00
  1.000E+01  6.580E-01  6.031E-02 3.4188518E+00 3.5851270E-01 9.8570212E-01
  9.957E+00  6.815E-01  5.207E-02 3.4084820E+00 3.4166329E-01 1.0176717E+00
  1.000E+01  6.116E-01  7.852E-02 3.4528715E+00 4.0758067E-01 9.6690982E-01
  9.957E+00  6.347E-01  6.913E-02 3.4373319E+00 3.9215928E-01 9.9956478E-01
  1.000E+01  5.661E-01  9.903E-02 3.4610024E+00 4.5531917E-01 9.4537580E-01
  9.957E+00  5.887E-01  8.849E-02 3.4632734E+00 4.4178958E-01 9.7897064E-01
  1.000E+01  5.217E-01  1.218E-01 3.4787451E+00 5.0174418E-01 9.2139879E-01
  9.957E+00  5.438E-01  1.101E-01 3.4605774E+00 4.8991060E-01 9.5559251E-01
  1.000E+01  4.786E-01  1.467E-01 3.5046701E+00 5.4709644E-01 8.9529724E-01
  9.957E+00  5.000E-01  1.340E-01 3.4949821E+00 5.3690096E-01 9.2998002E-01
  1.000E+01  4.367E-01  1.738E-01 3.5012221E+00 5.9104674E-01 8.6690679E-01
  9.957E+00  4.575E-01  1.600E-01 3.4941616E+00 5.8263834E-01 9.0210017E-01
  1.000E+01  3.962E-01  2.029E-01 3.5224552E+00 6.3351429E-01 8.3635869E-01
  9.957E+00  4.163E-01  1.881E-01 3.5257230E+00 6.2685903E-01 8.7191216E-01
  1.000E+01  3.572E-01  2.340E-01 3.5299820E+00 6.7442337E-01 8.0374924E-01
  9.957E+00  3.765E-01  2.182E-01 3.5161338E+00 6.6954805E-01 8.3958925E-01
  1.000E+01  3.198E-01  2.669E-01 3.5313802E+00 7.1364573E-01 7.6913094E-01
  9.957E+00  3.383E-01  2.502E-01 3.5328047E+00 7.1056543E-01 8.0517251E-01
  1.000E+01  2.841E-01  3.018E-01 3.5326468E+00 7.5109743E-01 7.3260200E-01
  9.957E+00  3.018E-01  2.841E-01 3.5326504E+00 7.4981616E-01 7.6875184E-01
  1.000E+01  2.502E-01  3.383E-01 3.5328011E+00 7.8668208E-01 6.9425274E-01
  9.957E+00  2.669E-01  3.198E-01 3.5313839E+00 7.8720382E-01 7.3042020E-01
  1.000E+01  2.182E-01  3.765E-01 3.5161303E+00 8.2030901E-01 6.5417753E-01
  9.957E+00  2.340E-01  3.572E-01 3.5299857E+00 8.2263604E-01 6.9027636E-01
  1.000E+01  1.881E-01  4.163E-01 3.5257197E+00 8.5189017E-01 6.1246901E-01
  9.957E+00  2.029E-01  3.962E-01 3.5224589E+00 8.5601242E-01 6.4840623E-01
  1.000E+01  1.600E-01  4.575E-01 3.4941583E+00 8.8138511E-01 5.6926378E-01
  9.957E+00  1.738E-01  4.367E-01 3.5012259E+00 8.8727866E-01 6.0494073E-01
  1.000E+01  1.340E-01  5.000E-01 3.4949787E+00 9.0862510E-01 5.2457676E-01
  9.957E+00  1.467E-01  4.786E-01 3.5046738E+00 9.1633653E-01 5.5995757E-01
  1.000E+01  1.101E-01  5.438E-01 3.4605742E+00 9.3364978E-01 4.7866564E-01
  9.957E+00  1.218E-01  5.217E-01 3.4787488E+00 9.4305180E-01 5.1353980E-01
  1.000E+01  8.849E-02  5.887E-01 3.4632706E+00 9.5649222E-01 4.3164973E-01
  9.957E+00  9.903E-02  5.661E-01 3.4610061E+00 9.6759316E-01 4.6602431E-01
  1.000E+01  6.913E-02  6.347E-01 3.4373290E+00 9.7661388E-01 3.8315907E-01
  9.957E+00  7.852E-02  6.116E-01 3.4528751E+00 9.8963417E-01 4.1716409E-01
  1.000E+01  5.207E-02  6.815E-01 3.4084788E+00 9.9430481E-01 3.3382267E-01
  9.957E+00  6.031E-02  6.580E-01 3.4188554E+00 1.0088681E+00 3.6694270E-01
  1.000E+01  3.738E-02  7.292E-01 3.4052826E+00 1.0100585E+00 2.8431292E-01
  9.957E+00  4.443E-02  7.052E-01 3.4077203E+00 1.0260068E+00 3.1637959E-01
  1.000E+01  2.507E-02  7.775E-01 3.3934349E+00 1.0232764E+00 2.3398792E-01
  9.957E+00  3.092E-02  7.532E-01 3.4006635E+00 1.0409345E+00 2.6539447E-01
  1.000E+01  1.519E-02  8.264E-01 3.3751696E+00 1.0334785E+00 1.8247026E-01
  9.957E+00  1.983E-02  8.019E-01 3.3841254E+00 1.0529199E+00 2.1324983E-01
  1.000E+01  7.761E-03  8.757E-01 3.3596079E+00 1.0409904E+00 1.3034156E-01
  9.957E+00  1.117E-02  8.510E-01 3.3663517E+00 1.0619302E+00 1.6011508E-01
  1.000E+01  2.796E-03  9.253E-01 3.3507303E+00 1.0461042E+00 7.8160536E-02
  9.957E+00  4.969E-03  9.004E-01 3.3544244E+00 1.0683739E+00 1.0669029E-01
  1.000E+01  3.108E-04  9.751E-01 3.3473102E+00 1.0487437E+00 2.6048865E-02
  9.957E+00  1.243E-03  9.502E-01 3.3489338E+00 1.0723687E+00 5.3322577E-02
  1.000E+01  3.108E-04  1.025E+00 3.3473102E+00 1.0487440E+00 -2.6040504E-02
  9.957E+00  0.000E+00  1.000E+00 3.3475185E+00 1.0737368E+00 4.1898237E-06
  1.000E+01  2.796E-03  1.075E+00 3.3507303E+00 1.0461050E+00 -7.8152191E-02
  9.957E+00  1.243E-03  1.050E+00 3.3489338E+00 1.0723692E+00 -5.3314207E-02
  1.000E+01  7.761E-03  1.124E+00 3.3596079E+00 1.0409917E+00 -1.3033325E-01
  9.957E+00  4.969E-03  1.100E+00 3.3544244E+00 1.0683750E+00 -1.0668195E-01
  1.000E+01  1.519E-02  1.174E+00 3.3751696E+00 1.0334801E+00 -1.8246200E-01
  9.957E+00  1.117E-02  1.149E+00 3.3663517E+00 1.0619317E+00 -1.6010679E-01
  1.000E+01  2.507E-02  1.223E+00 3.3934349E+00 1.0232783E+00 -2.3397973E-01
  9.957E+00  1.983E-02  1.198E+00 3.3841254E+00 1.0529217E+00 -2.1324161E-01
  1.000E+01  3.738E-02  1.271E+00 3.4052825E+00 1.0100611E+00 -2.8430482E-01
  9.957E+00  3.092E-02  1.247E+00 3.4006635E+00 1.0409367E+00 -2.6538633E-01
  1.000E+01  5.207E-02  1.318E+00 3.4084788E+00 9.9430819E-01 -3.3381468E-01
  9.957E+00  4.443E-02  1.295E+00 3.4077203E+00 1.0260098E+00 -3.1637155E-01
  1.000E+01  6.913E-02  1.365E+00 3.4373290E+00 9.7661726E-01 -3.8315122E-01
  9.957E+00  6.031E-02  1.342E+00 3.4188554E+00 1.0088716E+00 -3.6693478E-01
  1.000E+01  8.849E-02  1.411E+00 3.4632706E+00 9.5649592E-01 -4.3164203E-01
  9.957E+00  7.852E-02  1.388E+00 3.4528751E+00 9.8963757E-01 -4.1715631E-01
  1.000E+01  1.101E-01  1.456E+00 3.4605742E+00 9.3365440E-01 -4.7865811E-01
  9.957E+00  9.903E-02  1.434E+00 3.4610061E+00 9.6759742E-01 -4.6601669E-01
  1.000E+01  1.340E-01  1.500E+00 3.4949788E+00 9.0862963E-01 -5.2456940E-01
  9.957E+00  1.218E-01  1.478E+00 3.4787487E+00 9.4305644E-01 -5.1353236E-01
  1.000E+01  1.600E-01  1.543E+00 3.4941583E+00 8.8139021E-01 -5.6925664E-01
  9.957E+00  1.467E-01  1.521E+00 3.5046737E+00 9.1634125E-01 -5.5995033E-01
  1.000E+01  1.881E-01  1.584E+00 3.5257197E+00 8.5189561E-01 -6.1246209E-01
  9.957E+00  1.738E-01  1.563E+00 3.5012258E+00 8.8728406E-01 -6.0493371E-01
  1.000E+01  2.182E-01  1.623E+00 3.5161304E+00 8.2031475E-01 -6.5417086E-01
  9.957E+00  2.029E-01  1.604E+00 3.5224589E+00 8.5601796E-01 -6.4839943E-01
  1.000E+01  2.502E-01  1.662E+00 3.5328012E+00 7.8668820E-01 -6.9424634E-01
  9.957E+00  2.340E-01  1.643E+00 3.5299857E+00 8.2264206E-01 -6.9026983E-01
  1.000E+01  2.841E-01  1.698E+00 3.5326468E+00 7.5110381E-01 -7.3259588E-01
  9.957E+00  2.669E-01  1.680E+00 3.5313838E+00 7.8721008E-01 -7.3041393E-01
  1.000E+01  3.198E-01  1.733E+00 3.5313802E+00 7.1365245E-01 -7.6912512E-01
  9.957E+00  3.018E-01  1.716E+00 3.5326504E+00 7.4982278E-01 -7.6874587E-01
  1.000E+01  3.572E-01  1.766E+00 3.5299820E+00 6.7443038E-01 -8.0374373E-01
  9.957E+00  3.383E-01  1.750E+00 3.5328047E+00 7.1057229E-01 -8.0516685E-01
  1.000E+01  3.962E-01  1.797E+00 3.5224552E+00 6.3352155E-01 -8.3635351E-01
  9.957E+00  3.765E-01  1.782E+00 3.5161338E+00 6.6955519E-01 -8.3958392E-01
  1.000E+01  4.367E-01  1.826E+00 3.5012221E+00 5.9105415E-01 -8.6690194E-01
  9.957E+00  4.163E-01  1.812E+00 3.5257230E+00 6.2686643E-01 -8.7190719E-01
  1.000E+01  4.786E-01  1.853E+00 3.5046702E+00 5.4710398E-01 -8.9529275E-01
  9.957E+00  4.575E-01  1.840E+00 3.4941616E+00 5.8264604E-01 -9.0209558E-01
  1.000E+01  5.217E-01  1.878E+00 3.4787451E+00 5.0175205E-01 -9.2139472E-01
  9.957E+00  5.000E-01  1.866E+00 3.4949820E+00 5.3690884E-01 -9.2997580E-01
  1.000E+01  5.661E-01  1.901E+00 3.4610023E+00 4.5532758E-01 -9.4537224E-01
  9.957E+00  5.438E-01  1.890E+00 3.4605774E+00 4.8991852E-01 -9.5558863E-01
  1.000E+01  6.116E-01  1.921E+00 3.4528713E+00 4.0758940E-01 -9.6690675E-01
  9.957E+00  5.887E-01  1.912E+00 3.4632735E+00 4.4179743E-01 -9.7896710E-01
  1.000E+01  6.580E-01  1.940E+00 3.4188518E+00 3.5852112E-01 -9.8569939E-01
  9.957E+00  6.347E-01  1.931E+00 3.4373321E+00 3.9216734E-01 -9.9956168E-01
  1.000E+01  7.052E-01  1.956E+00 3.4077172E+00 3.0911875E-01 -1.0024448E+00
  9.957E+00  6.815E-01  1.948E+00 3.4084820E+00 3.4167190E-01 -1.0176691E+00
  1.000E+01  7.532E-01  1.969E+00 3.4006606E+00 2.5930412E-01 -1.0170298E+00
  9.957E+00  7.292E-01  1.963E+00 3.4052856E+00 2.9099881E-01 -1.0337932E+00
  1.000E+01  8.019E-01  1.980E+00 3.3841224E+00 2.0835678E-01 -1.0287399E+00
  9.957E+00  7.775E-01  1.975E+00 3.3934379E+00 2.3949093E-01 -1.0473216E+00
  1.000E+01  8.510E-01  1.989E+00 3.3663484E+00 1.5644222E-01 -1.0375432E+00
  9.957E+00  8.264E-01  1.985E+00 3.3751725E+00 1.8676221E-01 -1.0577635E+00
  1.000E+01  9.004E-01  1.995E+00 3.3544208E+00 1.0424428E-01 -1.0438388E+00
  9.957E+00  8.757E-01  1.992E+00 3.3596109E+00 1.3340817E-01 -1.0654519E+00
  1.000E+01  9.502E-01  1.999E+00 3.3489301E+00 5.2102024E-02 -1.0477417E+00
  9.957E+00  9.253E-01  1.997E+00 3.3507332E+00 8.0000769E-02 -1.0706858E+00
  1.000E+01  1.000E+00  2.000E+00 3.3475147E+00 7.9096286E-06 -1.0490783E+00
  9.957E+00  9.751E-01  2.000E+00 3.3473130E+00 2.6664520E-02 -1.0733872E+00
  1.000E+01  1.050E+00  1.999E+00 3.3489301E+00 -5.2086215E-02 -1.0477422E+00
  9.957E+00  1.025E+00  2.000E+00 3.3473130E+00 -2.6648846E-02 -1.0733875E+00
  1.000E+01  1.100E+00  1.995E+00 3.3544207E+00 -1.0422850E-01 -1.0438398E+00
  9.957E+00  1.075E+00  1.997E+00 3.3507331E+00 -7.9985116E-02 -1.0706865E+00
  1.000E+01  1.149E+00  1.989E+00 3.3663483E+00 -1.5642649E-01 -1.0375447E+00
  9.957E+00  1.124E+00  1.992E+00 3.3596108E+00 -1.3339256E-01 -1.0654531E+00
  1.000E+01  1.198E+00  1.980E+00 3.3841222E+00 -2.0834112E-01 -1.0287420E+00
  9.957E+00  1.174E+00  1.985E+00 3.3751724E+00 -1.8674665E-01 -1.0577653E+00