# TIME = 2.200000
variables = x, y, z
zone N=5762 E=11520 F=FEPOINT ET=TRIANGLE
 5.2817066E+00 1.4612858E+00 1.7460720E+00
 5.2817066E+00 1.4612859E+00 2.5392801E-01
 5.2817066E+00 5.3871428E-01 1.7460719E+00
 5.2817066E+00 5.3871435E-01 2.5392828E-01
 3.6673316E+00 1.0000000E+00 1.7276511E+00
 6.8925497E+00 1.0000000E+00 1.7215557E+00
 3.6673319E+00 1.0000000E+00 2.7234958E-01
 6.8925500E+00 1.0000000E+00 2.7844384E-01
 4.3861197E+00 1.9064219E+00 1.0000000E+00
 4.3861197E+00 9.3578100E-02 1.0000000E+00
 6.1760810E+00 1.8985637E+00 1.0000000E+00
 6.1760810E+00 1.0143632E-01 1.0000000E+00
 5.2260256E+00 1.4527808E+00 1.7508523E+00
 5.1645926E+00 1.4435344E+00 1.7565594E+00
 5.1001459E+00 1.4340572E+00 1.7630147E+00
 5.0330273E+00 1.4243302E+00 1.7703062E+00
 4.9634764E+00 1.4143234E+00 1.7784522E+00
 4.8917480E+00 1.4039389E+00 1.7874331E+00
 4.8180821E+00 1.3930351E+00 1.7971566E+00
 4.7427807E+00 1.3814312E+00 1.8074369E+00
 4.6661843E+00 1.3689092E+00 1.8179857E+00
 4.5886693E+00 1.3552258E+00 1.8284101E+00
 4.5106382E+00 1.3401291E+00 1.8382240E+00
 4.4325191E+00 1.3233811E+00 1.8468713E+00
 4.3547676E+00 1.3047829E+00 1.8537622E+00
 4.2778697E+00 1.2841992E+00 1.8583181E+00
 4.2023429E+00 1.2615790E+00 1.8600207E+00
 4.1287294E+00 1.2369667E+00 1.8584572E+00
 4.0575785E+00 1.2105031E+00 1.8533550E+00
 3.9894204E+00 1.1824150E+00 1.8445985E+00
 3.9247337E+00 1.1529946E+00 1.8322293E+00
 3.8639184E+00 1.1225755E+00 1.8164282E+00
 3.8073075E+00 1.0915206E+00 1.7975022E+00
 3.7551965E+00 1.0602249E+00 1.7758693E+00
 3.7078956E+00 1.0291587E+00 1.7520800E+00
 5.2199635E+00 5.7866491E-01 1.7689077E+00
 5.1567560E+00 5.8946282E-01 1.7750069E+00
 5.0908944E+00 6.0022750E-01 1.7817022E+00
 5.0227111E+00 6.1122812E-01 1.7891762E+00
 4.9522676E+00 6.2262724E-01 1.7975020E+00
 4.8797690E+00 6.3452727E-01 1.8066339E+00
 4.8054846E+00 6.4707693E-01 1.8164492E+00
 4.7297384E+00 6.6045808E-01 1.8267258E+00
 4.6528987E+00 6.7488180E-01 1.8371360E+00
 4.5753628E+00 6.9057303E-01 1.8472496E+00
 4.4975511E+00 7.0775109E-01 1.8565493E+00
 4.4199048E+00 7.2660682E-01 1.8644601E+00
 4.3428884E+00 7.4727922E-01 1.8703891E+00
 4.2669914E+00 7.6983507E-01 1.8737739E+00
 4.1927270E+00 7.9425504E-01 1.8741305E+00
 4.1206227E+00 8.2042943E-01 1.8710958E+00
 4.0512016E+00 8.4816470E-01 1.8644560E+00
 3.9849532E+00 8.7720250E-01 1.8541566E+00
 3.9223051E+00 9.0724530E-01 1.8402951E+00
 3.8635827E+00 9.3798691E-01 1.8230905E+00
 3.8089111E+00 9.6909251E-01 1.8028056E+00
 3.7579090E+00 1.0000000E+00 1.7795407E+00
 5.2181446E+00 6.1106231E-01 1.7857757E+00
 5.1528896E+00 6.2345122E-01 1.7921124E+00
 5.0856794E+00 6.3554818E-01 1.7988909E+00
 5.0162290E+00 6.4796625E-01 1.8064522E+00
 4.9446566E+00 6.6086755E-01 1.8148375E+00
 4.8711365E+00 6.7438936E-01 1.8239936E+00
 4.7959669E+00 6.8868211E-01 1.8337655E+00
 4.7195027E+00 7.0392902E-01 1.8438950E+00
 4.6421413E+00 7.2033077E-01 1.8540141E+00
 4.5643063E+00 7.3808970E-01 1.8636536E+00
 4.4864402E+00 7.5738841E-01 1.8722644E+00
 4.4090020E+00 7.7836740E-01 1.8792523E+00
 4.3324692E+00 8.0110437E-01 1.8840233E+00
 4.2573378E+00 8.2559867E-01 1.8860336E+00
 4.1841186E+00 8.5176400E-01 1.8848376E+00
 4.1133252E+00 8.7943183E-01 1.8801255E+00
 4.0454511E+00 9.0836746E-01 1.8717456E+00
 3.9809363E+00 9.3829723E-01 1.8597036E+00
 3.9201064E+00 9.6894312E-01 1.8441341E+00
 3.8630253E+00 1.0000000E+00 1.8252087E+00
 3.8089110E+00 1.0309075E+00 1.8028056E+00
 5.2167657E+00 6.4522360E-01 1.8017813E+00
 5.1501631E+00 6.5893214E-01 1.8080567E+00
 5.0816349E+00 6.7244606E-01 1.8148115E+00
 5.0110087E+00 6.8633871E-01 1.8223220E+00
 4.9383364E+00 7.0082348E-01 1.8306302E+00
 4.8638409E+00 7.1603570E-01 1.8396531E+00
 4.7878432E+00 7.3213248E-01 1.8492069E+00
 4.7107321E+00 7.4928930E-01 1.8589960E+00
 4.6329347E+00 7.6769010E-01 1.8686138E+00
 4.5549004E+00 7.8750704E-01 1.8775565E+00
 4.4770924E+00 8.0887955E-01 1.8852496E+00
 4.3999856E+00 8.3189327E-01 1.8910897E+00
 4.3240665E+00 8.5656310E-01 1.8944920E+00
 4.2498323E+00 8.8282335E-01 1.8949425E+00
 4.1777848E+00 9.1052784E-01 1.8920428E+00
 4.1084125E+00 9.3946306E-01 1.8855426E+00
 4.0421619E+00 9.6937406E-01 1.8753504E+00
 3.9793755E+00 1.0000000E+00 1.8615149E+00
 3.9201064E+00 1.0310569E+00 1.8441341E+00
 3.8635826E+00 1.0620131E+00 1.8230906E+00
 5.2155251E+00 6.8126113E-01 1.8167850E+00
 5.1477029E+00 6.9628415E-01 1.8228583E+00
 5.0780241E+00 7.1121307E-01 1.8294352E+00
 5.0063340E+00 7.2662335E-01 1.8367484E+00
 4.9327136E+00 7.4272059E-01 1.8448099E+00
 4.8574079E+00 7.5964808E-01 1.8535131E+00
 4.7807737E+00 7.7755692E-01 1.8626416E+00
 4.7032300E+00 7.9661047E-01 1.8718650E+00
 4.6252312E+00 8.1696736E-01 1.8807432E+00
 4.5472485E+00 8.3876248E-01 1.8887455E+00
 4.4697609E+00 8.6208587E-01 1.8952840E+00
 4.3932526E+00 8.8696494E-01 1.8997587E+00
 4.3182115E+00 9.1335230E-01 1.9016082E+00
 4.2451262E+00 9.4112297E-01 1.9003598E+00
 4.1744752E+00 9.7008432E-01 1.8956707E+00
 4.1067033E+00 1.0000000E+00 1.8873497E+00
 4.0421619E+00 1.0306260E+00 1.8753504E+00
 3.9809363E+00 1.0617028E+00 1.8597037E+00
 3.9223051E+00 1.0927547E+00 1.8402951E+00
 5.2143587E+00 7.1918857E-01 1.8305960E+00
 5.1454374E+00 7.3551238E-01 1.8363262E+00
 5.0747518E+00 7.5186946E-01 1.8425762E+00
 5.0021679E+00 7.6880391E-01 1.8495252E+00
 4.9277893E+00 7.8651609E-01 1.8571568E+00
 4.8518925E+00 8.0514467E-01 1.8653371E+00
 4.7748644E+00 8.2483182E-01 1.8738194E+00
 4.6971522E+00 8.4572017E-01 1.8822425E+00
 4.6192329E+00 8.6793665E-01 1.8901405E+00
 4.5415933E+00 8.9157225E-01 1.8969667E+00
 4.4647216E+00 9.1666377E-01 1.9021328E+00
 4.3891028E+00 9.4317990E-01 1.9050565E+00
 4.3152160E+00 9.7101586E-01 1.9052125E+00
 4.2435282E+00 1.0000000E+00 1.9021792E+00
 4.1744752E+00 1.0299157E+00 1.8956707E+00
 4.1084125E+00 1.0605370E+00 1.8855426E+00
 4.0454511E+00 1.0916326E+00 1.8717456E+00
 3.9849532E+00 1.1227976E+00 1.8541566E+00
 5.2133040E+00 7.5891869E-01 1.8429929E+00
 5.1434196E+00 7.7652257E-01 1.8482367E+00
 5.0718931E+00 7.9429342E-01 1.8540004E+00
 4.9986056E+00 8.1273008E-01 1.8604090E+00
 4.9236861E+00 8.3202031E-01 1.8674169E+00
 4.8474394E+00 8.5229436E-01 1.8748641E+00
 4.7702803E+00 8.7367815E-01 1.8824768E+00
 4.6926790E+00 8.9628809E-01 1.8898697E+00
 4.6151288E+00 9.2021301E-01 1.8965602E+00
 4.5381254E+00 9.4549631E-01 1.9019981E+00
 4.4621577E+00 9.7212055E-01 1.9056084E+00
 4.3877019E+00 1.0000000E+00 1.9068395E+00
 4.3152160E+00 1.0289842E+00 1.9052125E+00
 4.2451262E+00 1.0588771E+00 1.9003599E+00
 4.1777848E+00 1.0894722E+00 1.8920429E+00
 4.1133252E+00 1.1205682E+00 1.8801256E+00
 4.0512016E+00 1.1518354E+00 1.8644561E+00
 5.2123813E+00 8.0028728E-01 1.8537470E+00
 5.1416968E+00 8.1912824E-01 1.8583585E+00
 5.0695151E+00 8.3826876E-01 1.8634722E+00
 4.9957358E+00 8.5815036E-01 1.8691604E+00
 4.9205101E+00 8.7894274E-01 1.8753501E+00
 4.8441695E+00 9.0076209E-01 1.8818573E+00
 4.7671511E+00 9.2371313E-01 1.8883867E+00
 4.6899423E+00 9.4788030E-01 1.8945365E+00
 4.6130454E+00 9.7331108E-01 1.8998187E+00
 4.5369571E+00 1.0000000E+00 1.9036924E+00
 4.4621577E+00 1.0278795E+00 1.9056084E+00
 4.3891028E+00 1.0568202E+00 1.9050565E+00
 4.3182115E+00 1.0866478E+00 1.9016082E+00
 4.2498323E+00 1.1171767E+00 1.8949426E+00
 4.1841186E+00 1.1482361E+00 1.8848377E+00
 4.1206227E+00 1.1795706E+00 1.8710959E+00
 5.2116164E+00 8.4308269E-01 1.8626451E+00
 5.1403117E+00 8.6308922E-01 1.8664801E+00
 5.0676783E+00 8.8352030E-01 1.8707811E+00
 4.9936320E+00 9.0475100E-01 1.8755730E+00
 4.9183455E+00 9.2692711E-01 1.8807577E+00
 4.8421716E+00 9.5014633E-01 1.8861318E+00
 4.7655646E+00 9.7448745E-01 1.8913845E+00
 4.6890213E+00 1.0000000E+00 1.8961076E+00
 4.6130454E+00 1.0266890E+00 1.8998187E+00
 4.5381254E+00 1.0545038E+00 1.9019982E+00
 4.4647216E+00 1.0833363E+00 1.9021329E+00
 4.3932526E+00 1.1130351E+00 1.8997588E+00
 4.3240665E+00 1.1434370E+00 1.8944921E+00
 4.2573378E+00 1.1744014E+00 1.8860338E+00
 4.1927270E+00 1.2057450E+00 1.8741306E+00
 5.2110256E+00 8.8704431E-01 1.8694993E+00
 5.1392970E+00 9.0811324E-01 1.8724206E+00
 5.0664272E+00 9.2972126E-01 1.8757554E+00
 4.9923475E+00 9.5216714E-01 1.8794875E+00
 4.9172487E+00 9.7556828E-01 1.8834982E+00
 4.8414996E+00 1.0000000E+00 1.8875700E+00
 4.7655646E+00 1.0255126E+00 1.8913845E+00
 4.6899423E+00 1.0521198E+00 1.8945365E+00
 4.6151288E+00 1.0797871E+00 1.8965603E+00
 4.5415933E+00 1.1084278E+00 1.8969668E+00
 4.4697610E+00 1.1379142E+00 1.8952842E+00
 4.3999856E+00 1.1681068E+00 1.8910898E+00
 4.3324693E+00 1.1988957E+00 1.8840235E+00
 4.2669914E+00 1.2301650E+00 1.8737740E+00
 5.2106237E+00 9.3187116E-01 1.8741582E+00
 5.1386780E+00 9.5386987E-01 1.8760426E+00
 5.0657936E+00 9.7650781E-01 1.8782739E+00
 4.9919157E+00 1.0000000E+00 1.8808037E+00
 4.9172487E+00 1.0244318E+00 1.8834983E+00
 4.8421716E+00 1.0498537E+00 1.8861318E+00
 4.7671511E+00 1.0762869E+00 1.8883867E+00
 4.6926790E+00 1.1037120E+00 1.8898698E+00
 4.6192329E+00 1.1320634E+00 1.8901406E+00
 4.5472485E+00 1.1612376E+00 1.8887457E+00
 4.4770925E+00 1.1911205E+00 1.8852498E+00
 4.4090020E+00 1.2216327E+00 1.8792525E+00
 4.3428884E+00 1.2527209E+00 1.8703893E+00
 5.2104202E+00 9.7723048E-01 1.8765151E+00
 5.1384699E+00 1.0000000E+00 1.8772598E+00
 5.0657936E+00 1.0234923E+00 1.8782739E+00
 4.9923475E+00 1.0478329E+00 1.8794875E+00
 4.9183455E+00 1.0730730E+00 1.8807578E+00
 4.8441695E+00 1.0992380E+00 1.8818574E+00
 4.7702803E+00 1.1263219E+00 1.8824770E+00
 4.6971522E+00 1.1542799E+00 1.8822427E+00
 4.6252312E+00 1.1830327E+00 1.8807434E+00
 4.5549004E+00 1.2124931E+00 1.8775567E+00
 4.4864402E+00 1.2426117E+00 1.8722646E+00
 4.4199048E+00 1.2733933E+00 1.8644603E+00
 5.2104202E+00 1.0227696E+00 1.8765151E+00
 5.1386780E+00 1.0461302E+00 1.8760426E+00
 5.0664272E+00 1.0702788E+00 1.8757554E+00
 4.9936320E+00 1.0952491E+00 1.8755731E+00
 4.9205101E+00 1.1210573E+00 1.8753502E+00
 4.8474394E+00 1.1477057E+00 1.8748642E+00
 4.7748644E+00 1.1751683E+00 1.8738196E+00
 4.7032300E+00 1.2033896E+00 1.8718652E+00
 4.6329348E+00 1.2323100E+00 1.8686141E+00
 4.5643063E+00 1.2619104E+00 1.8636539E+00
 4.4975512E+00 1.2922490E+00 1.8565496E+00
 5.2106237E+00 1.0681289E+00 1.8741582E+00
 5.1392970E+00 1.0918868E+00 1.8724207E+00
 5.0676783E+00 1.1164798E+00 1.8707812E+00
 4.9957358E+00 1.1418497E+00 1.8691605E+00
 4.9236861E+00 1.1679798E+00 1.8674171E+00
 4.8518925E+00 1.1948554E+00 1.8653373E+00
 4.7807737E+00 1.2224432E+00 1.8626418E+00
 4.7107321E+00 1.2507108E+00 1.8589962E+00
 4.6421413E+00 1.2796694E+00 1.8540144E+00
 4.5753629E+00 1.3094271E+00 1.8472499E+00
 5.2110256E+00 1.1129558E+00 1.8694994E+00
 5.1403117E+00 1.1369108E+00 1.8664801E+00
 5.0695151E+00 1.1617313E+00 1.8634723E+00
 4.9986056E+00 1.1872700E+00 1.8604091E+00
 4.9277893E+00 1.2134840E+00 1.8571570E+00
 4.8574079E+00 1.2403520E+00 1.8535134E+00
 4.7878432E+00 1.2678677E+00 1.8492072E+00
 4.7195027E+00 1.2960711E+00 1.8438952E+00
 4.6528988E+00 1.3251184E+00 1.8371363E+00
 5.2116164E+00 1.1569174E+00 1.8626452E+00
 5.1416968E+00 1.1808718E+00 1.8583586E+00
 5.0718931E+00 1.2057067E+00 1.8540006E+00
 5.0021679E+00 1.2311962E+00 1.8495254E+00
 4.9327136E+00 1.2572795E+00 1.8448101E+00
 4.8638409E+00 1.2839644E+00 1.8396533E+00
 4.7959670E+00 1.3113180E+00 1.8337658E+00
 4.7297384E+00 1.3395421E+00 1.8267261E+00
 5.2123813E+00 1.1997128E+00 1.8537471E+00
 5.1434196E+00 1.2234775E+00 1.8482369E+00
 5.0747518E+00 1.2481306E+00 1.8425764E+00
 5.0063340E+00 1.2733768E+00 1.8367486E+00
 4.9383363E+00 1.2991767E+00 1.8306304E+00
 4.8711365E+00 1.3256108E+00 1.8239939E+00
 4.8054846E+00 1.3529232E+00 1.8164495E+00
 5.2133039E+00 1.2410814E+00 1.8429930E+00
 5.1454374E+00 1.2644877E+00 1.8363264E+00
 5.0780240E+00 1.2887870E+00 1.8294354E+00
 5.0110086E+00 1.3136614E+00 1.8223222E+00
 4.9446566E+00 1.3391326E+00 1.8148377E+00
 4.8797690E+00 1.3654729E+00 1.8066342E+00
 5.2143587E+00 1.2808115E+00 1.8305961E+00
 5.1477029E+00 1.3037160E+00 1.8228585E+00
 5.0816348E+00 1.3275541E+00 1.8148117E+00
 5.0162290E+00 1.3520339E+00 1.8064524E+00
 4.9522676E+00 1.3773729E+00 1.7975023E+00
 5.2155251E+00 1.3187390E+00 1.8167851E+00
 5.1501631E+00 1.3410680E+00 1.8080568E+00
 5.0856793E+00 1.3644520E+00 1.7988911E+00
 5.0227110E+00 1.3887720E+00 1.7891765E+00
 5.2167657E+00 1.3547765E+00 1.8017814E+00
 5.1528896E+00 1.3765489E+00 1.7921126E+00
 5.0908944E+00 1.3997726E+00 1.7817024E+00
 5.2181446E+00 1.3889378E+00 1.7857758E+00
 5.1567560E+00 1.4105373E+00 1.7750071E+00
 5.2199635E+00 1.4213352E+00 1.7689079E+00
 5.2817634E+00 1.4341058E+00 1.7621771E+00
 5.2818113E+00 1.4031097E+00 1.7790247E+00
 5.2818291E+00 1.3702671E+00 1.7951769E+00
 5.2818435E+00 1.3353685E+00 1.8105226E+00
 5.2818564E+00 1.2985165E+00 1.8248158E+00
 5.2818692E+00 1.2598190E+00 1.8378197E+00
 5.2818807E+00 1.2194227E+00 1.8493027E+00
 5.2818908E+00 1.1775098E+00 1.8590482E+00
 5.2818989E+00 1.1343171E+00 1.8668579E+00
 5.2819049E+00 1.0901215E+00 1.8725649E+00
 5.2819086E+00 1.0452365E+00 1.8760422E+00
 5.2819098E+00 1.0000000E+00 1.8772103E+00
 5.2819086E+00 9.5476357E-01 1.8760421E+00
 5.2819049E+00 9.0987852E-01 1.8725649E+00
 5.2818989E+00 8.6568297E-01 1.8668579E+00
 5.2818908E+00 8.2249028E-01 1.8590481E+00
 5.2818807E+00 7.8057735E-01 1.8493026E+00
 5.2818693E+00 7.4018108E-01 1.8378196E+00
 5.2818564E+00 7.0148354E-01 1.8248157E+00
 5.2818435E+00 6.6463159E-01 1.8105225E+00
 5.2818292E+00 6.2973305E-01 1.7951768E+00
 5.2818113E+00 5.9689042E-01 1.7790246E+00
 5.2817634E+00 5.6589432E-01 1.7621769E+00
 5.3374143E+00 5.4657980E-01 1.7519089E+00
 5.3988215E+00 5.5519470E-01 1.7587360E+00
 5.4631803E+00 5.6412889E-01 1.7662238E+00
 5.5301478E+00 5.7346020E-01 1.7743460E+00
 5.5995062E+00 5.8327259E-01 1.7830037E+00
 5.6710192E+00 5.9370248E-01 1.7920649E+00
 5.7444735E+00 6.0491174E-01 1.8013473E+00
 5.8195894E+00 6.1707508E-01 1.8106121E+00
 5.8960383E+00 6.3037504E-01 1.8195701E+00
 5.9734383E+00 6.4499002E-01 1.8278888E+00
 6.0513608E+00 6.6108391E-01 1.8352056E+00
 6.1293363E+00 6.7879398E-01 1.8411423E+00
 6.2068628E+00 6.9821965E-01 1.8453227E+00
 6.2834181E+00 7.1941267E-01 1.8473913E+00
 6.3584733E+00 7.4236950E-01 1.8470340E+00
 6.4315100E+00 7.6702712E-01 1.8439961E+00
 6.5020370E+00 7.9326295E-01 1.8380995E+00
 6.5696061E+00 8.2089975E-01 1.8292530E+00
 6.6338284E+00 8.4971552E-01 1.8174576E+00
 6.6943830E+00 8.7945676E-01 1.8028020E+00
 6.7509917E+00 9.0983836E-01 1.7854678E+00
 6.8033833E+00 9.4053819E-01 1.7657300E+00
 6.8512281E+00 9.7114245E-01 1.7439967E+00
 5.3435725E+00 1.4220129E+00 1.7701014E+00
 5.4067209E+00 1.4118133E+00 1.7773638E+00
 5.4724647E+00 1.4015365E+00 1.7851127E+00
 5.5404734E+00 1.3908651E+00 1.7934072E+00
 5.6107005E+00 1.3795965E+00 1.8021999E+00
 5.6829662E+00 1.3675978E+00 1.8113339E+00
 5.7570284E+00 1.3547120E+00 1.8206005E+00
 5.8325867E+00 1.3407743E+00 1.8297342E+00
 5.9092828E+00 1.3256188E+00 1.8384209E+00
 5.9867100E+00 1.3090904E+00 1.8463079E+00
 6.0644177E+00 1.2910567E+00 1.8530183E+00
 6.1419204E+00 1.2714189E+00 1.8581678E+00
 6.2187064E+00 1.2501222E+00 1.8613836E+00
 6.2942527E+00 1.2271631E+00 1.8623244E+00
 6.3680392E+00 1.2025942E+00 1.8607001E+00
 6.4395662E+00 1.1765247E+00 1.8562896E+00
 6.5083702E+00 1.1491163E+00 1.8489550E+00
 6.5740414E+00 1.1205714E+00 1.8386492E+00
 6.6362362E+00 1.0911173E+00 1.8254161E+00
 6.6946997E+00 1.0609877E+00 1.8093764E+00
 6.7493566E+00 1.0304459E+00 1.7906709E+00
 6.8006146E+00 1.0000000E+00 1.7692866E+00
 5.3454605E+00 1.3895996E+00 1.7870269E+00
 5.4106410E+00 1.3777763E+00 1.7945843E+00
 5.4777150E+00 1.3661179E+00 1.8024450E+00
 5.5469705E+00 1.3539765E+00 1.8108302E+00
 5.6183078E+00 1.3411564E+00 1.8196547E+00
 5.6915789E+00 1.3275004E+00 1.8287523E+00
 5.7665161E+00 1.3128595E+00 1.8378848E+00
 5.8427885E+00 1.2970782E+00 1.8467595E+00
 5.9200073E+00 1.2800088E+00 1.8550360E+00
 5.9977360E+00 1.2615218E+00 1.8623396E+00
 6.0754985E+00 1.2415186E+00 1.8682786E+00
 6.1527890E+00 1.2199410E+00 1.8724628E+00
 6.2290833E+00 1.1967797E+00 1.8745244E+00
 6.3038546E+00 1.1720795E+00 1.8741384E+00
 6.3765897E+00 1.1459406E+00 1.8710425E+00
 6.4468069E+00 1.1185144E+00 1.8650529E+00
 6.5140734E+00 1.0899927E+00 1.8560754E+00
 6.5780269E+00 1.0605884E+00 1.8441065E+00
 6.6384186E+00 1.0305121E+00 1.8292157E+00
 6.6952515E+00 1.0000000E+00 1.8114747E+00
 6.7493566E+00 9.6955414E-01 1.7906709E+00
 5.3468742E+00 1.3553959E+00 1.8030889E+00
 5.4133931E+00 1.3422059E+00 1.8106313E+00
 5.4817728E+00 1.3290789E+00 1.8184979E+00
 5.5521904E+00 1.3154126E+00 1.8268360E+00
 5.6246142E+00 1.3009679E+00 1.8355572E+00
 5.6988502E+00 1.2855986E+00 1.8444639E+00
 5.7746098E+00 1.2691589E+00 1.8532935E+00
 5.8515279E+00 1.2515095E+00 1.8617254E+00
 5.9291844E+00 1.2325248E+00 1.8693955E+00
 6.0071142E+00 1.2121060E+00 1.8759111E+00
 6.0848177E+00 1.1901918E+00 1.8808706E+00
 6.1617720E+00 1.1667675E+00 1.8838848E+00
 6.2374450E+00 1.1418703E+00 1.8845983E+00
 6.3113120E+00 1.1155919E+00 1.8827104E+00
 6.3828735E+00 1.0880748E+00 1.8779933E+00
 6.4516752E+00 1.0595020E+00 1.8703056E+00
 6.5173316E+00 1.0300773E+00 1.8595962E+00
 6.5795731E+00 1.0000000E+00 1.8458902E+00
 6.6384186E+00 9.6948790E-01 1.8292157E+00
 6.6946997E+00 9.3901234E-01 1.8093764E+00
 5.3481404E+00 1.3193072E+00 1.8181461E+00
 5.4158723E+00 1.3047472E+00 1.8255301E+00
 5.4853920E+00 1.2901495E+00 1.8332441E+00
 5.5568618E+00 1.2749152E+00 1.8413858E+00
 5.6302224E+00 1.2588210E+00 1.8498329E+00
 5.7052603E+00 1.2417221E+00 1.8583644E+00
 5.7816521E+00 1.2234880E+00 1.8666906E+00
 5.8590026E+00 1.2039987E+00 1.8744678E+00
 5.9368625E+00 1.1831569E+00 1.8813125E+00
 6.0147424E+00 1.1608993E+00 1.8868210E+00
 6.0921249E+00 1.1372058E+00 1.8905903E+00
 6.1684776E+00 1.1121065E+00 1.8922413E+00
 6.2432688E+00 1.0856845E+00 1.8914403E+00
 6.3159860E+00 1.0580731E+00 1.8879193E+00
 6.3861555E+00 1.0294466E+00 1.8814913E+00
 6.4533687E+00 1.0000000E+00 1.8720573E+00
 6.5173316E+00 9.6992278E-01 1.8595962E+00
 6.5780269E+00 9.3941166E-01 1.8441065E+00
 6.6362362E+00 9.0888279E-01 1.8254161E+00
 5.3493302E+00 1.2813208E+00 1.8320084E+00
 5.4181543E+00 1.2653991E+00 1.8390885E+00
 5.4886713E+00 1.2493143E+00 1.8464967E+00
 5.5610241E+00 1.2325053E+00 1.8542717E+00
 5.6351331E+00 1.2147629E+00 1.8622608E+00
 5.7107551E+00 1.1959563E+00 1.8702176E+00
 5.7875380E+00 1.1759724E+00 1.8778300E+00
 5.8650576E+00 1.1547175E+00 1.8847351E+00
 5.9428405E+00 1.1321274E+00 1.8905375E+00
 6.0203795E+00 1.1081779E+00 1.8948306E+00
 6.0971468E+00 1.0828922E+00 1.8972197E+00
 6.1726098E+00 1.0563446E+00 1.8973453E+00
 6.2462477E+00 1.0286590E+00 1.8949046E+00
 6.3175726E+00 1.0000000E+00 1.8896684E+00
 6.3861555E+00 9.7055340E-01 1.8814913E+00
 6.4516752E+00 9.4049802E-01 1.8703056E+00
 6.5140734E+00 9.1000730E-01 1.8560754E+00
 6.5740414E+00 8.7942867E-01 1.8386492E+00
 5.3504074E+00 1.2415260E+00 1.8444520E+00
 5.4201881E+00 1.2242582E+00 1.8510801E+00
 5.4915369E+00 1.2066978E+00 1.8580183E+00
 5.5645835E+00 1.1883364E+00 1.8652477E+00
 5.6392249E+00 1.1689862E+00 1.8725859E+00
 5.7151915E+00 1.1485342E+00 1.8797647E+00
 5.7921036E+00 1.1268912E+00 1.8864534E+00
 5.8695138E+00 1.1039940E+00 1.8922769E+00
 5.9469305E+00 1.0798150E+00 1.8968358E+00
 6.0238360E+00 1.0543712E+00 1.8997300E+00
 6.0997017E+00 1.0277282E+00 1.9005826E+00
 6.1740046E+00 1.0000000E+00 1.8990627E+00
 6.2462477E+00 9.7134107E-01 1.8949046E+00
 6.3159860E+00 9.4192693E-01 1.8879193E+00
 6.3828735E+00 9.1192526E-01 1.8779933E+00
 6.4468069E+00 8.8148565E-01 1.8650529E+00
 6.5083702E+00 8.5088379E-01 1.8489550E+00
 5.3513501E+00 1.2000863E+00 1.8552474E+00
 5.4219246E+00 1.1815110E+00 1.8612717E+00
 5.4939206E+00 1.1625171E+00 1.8675713E+00
 5.5674508E+00 1.1426611E+00 1.8740729E+00
 5.6423918E+00 1.1217826E+00 1.8805681E+00
 5.7184489E+00 1.0997915E+00 1.8867707E+00
 5.7952201E+00 1.0766263E+00 1.8923378E+00
 5.8722400E+00 1.0522577E+00 1.8968896E+00
 5.9490066E+00 1.0266965E+00 1.9000316E+00
 6.0250004E+00 1.0000000E+00 1.9013794E+00
 6.0997017E+00 9.7227183E-01 1.9005826E+00
 6.1726098E+00 9.4365545E-01 1.8973453E+00
 6.2432688E+00 9.1431557E-01 1.8914403E+00
 6.3113120E+00 8.8440814E-01 1.8827104E+00
 6.3765897E+00 8.5405944E-01 1.8710425E+00
 6.4395662E+00 8.2347531E-01 1.8562896E+00
 5.3521318E+00 1.1572144E+00 1.8641801E+00
 5.4233210E+00 1.1373992E+00 1.8694499E+00
 5.4957618E+00 1.1170493E+00 1.8749431E+00
 5.5695527E+00 1.0957957E+00 1.8805392E+00
 5.6445501E+00 1.0735107E+00 1.8860085E+00
 5.7204390E+00 1.0501309E+00 1.8910521E+00
 5.7968001E+00 1.0256254E+00 1.8953221E+00
 5.8731575E+00 1.0000000E+00 1.8984421E+00
 5.9490066E+00 9.7330353E-01 1.9000316E+00
 6.0238360E+00 9.4562884E-01 1.8997300E+00
 6.0971468E+00 9.1710783E-01 1.8972197E+00
 6.1684776E+00 8.8789354E-01 1.8922413E+00
 6.2374450E+00 8.5812971E-01 1.8845983E+00
 6.3038546E+00 8.2792053E-01 1.8741384E+00
 6.3680392E+00 7.9740586E-01 1.8607001E+00
 5.3527357E+00 1.1131715E+00 1.8710614E+00
 5.4243439E+00 1.0922168E+00 1.8754321E+00
 5.4970158E+00 1.0706239E+00 1.8799603E+00
 5.5708359E+00 1.0481080E+00 1.8844865E+00
 5.6456437E+00 1.0245781E+00 1.8887654E+00
 5.7211083E+00 1.0000000E+00 1.8924926E+00
 5.7968001E+00 9.7437469E-01 1.8953221E+00
 5.8722400E+00 9.4774236E-01 1.8968895E+00
 5.9469305E+00 9.2018501E-01 1.8968358E+00
 6.0203795E+00 8.9182210E-01 1.8948306E+00
 6.0921249E+00 8.6279428E-01 1.8905903E+00
 6.1617720E+00 8.3323254E-01 1.8838848E+00
 6.2290833E+00 8.0322036E-01 1.8745244E+00
 6.2942527E+00 7.7283694E-01 1.8623244E+00
 5.3531466E+00 1.0682599E+00 1.8757388E+00
 5.4249679E+00 1.0462965E+00 1.8790797E+00
 5.4976508E+00 1.0236079E+00 1.8825006E+00
 5.5712673E+00 1.0000000E+00 1.8858137E+00
 5.6456437E+00 9.7542192E-01 1.8887654E+00
 5.7204390E+00 9.4986919E-01 1.8910521E+00
 5.7952201E+00 9.2337371E-01 1.8923378E+00
 5.8695138E+00 8.9600609E-01 1.8922769E+00
 5.9428405E+00 8.6787261E-01 1.8905375E+00
 6.0147424E+00 8.3910078E-01 1.8868210E+00
 6.0848177E+00 8.0980821E-01 1.8808706E+00
 6.1527890E+00 7.8005906E-01 1.8724628E+00
 6.2187064E+00 7.4987783E-01 1.8613836E+00
 5.3533547E+00 1.0228135E+00 1.8781051E+00
 5.4251777E+00 1.0000000E+00 1.8803054E+00
 5.4976508E+00 9.7639217E-01 1.8825006E+00
 5.5708359E+00 9.5189209E-01 1.8844865E+00
 5.6445501E+00 9.2648933E-01 1.8860085E+00
 5.7184489E+00 9.0020853E-01 1.8867707E+00
 5.7921036E+00 8.7310881E-01 1.8864534E+00
 5.8650576E+00 8.4528253E-01 1.8847351E+00
 5.9368625E+00 8.1684314E-01 1.8813125E+00
 6.0071142E+00 7.8789407E-01 1.8759111E+00
 6.0754985E+00 7.5848142E-01 1.8682786E+00
 6.1419204E+00 7.2858113E-01 1.8581678E+00
 5.3533547E+00 9.7718658E-01 1.8781051E+00
 5.4249679E+00 9.5370351E-01 1.8790797E+00
 5.4970158E+00 9.2937610E-01 1.8799603E+00
 5.5695527E+00 9.0420437E-01 1.8805392E+00
 5.6423918E+00 8.7821747E-01 1.8805681E+00
 5.7151915E+00 8.5146589E-01 1.8797647E+00
 5.7875380E+00 8.2402769E-01 1.8778300E+00
 5.8590026E+00 7.9600139E-01 1.8744678E+00
 5.9291844E+00 7.6747527E-01 1.8693955E+00
 5.9977360E+00 7.3847822E-01 1.8623396E+00
 6.0644177E+00 7.0894337E-01 1.8530183E+00
 5.3531466E+00 9.3174020E-01 1.8757388E+00
 5.4243439E+00 9.0778323E-01 1.8754321E+00
 5.4957618E+00 8.8295072E-01 1.8749431E+00
 5.5674509E+00 8.5733898E-01 1.8740728E+00
 5.6392249E+00 8.3101389E-01 1.8725859E+00
 5.7107552E+00 8.0404378E-01 1.8702176E+00
 5.7816521E+00 7.7651201E-01 1.8666906E+00
 5.8515279E+00 7.4849051E-01 1.8617254E+00
 5.9200073E+00 7.1999129E-01 1.8550360E+00
 5.9867100E+00 6.9090961E-01 1.8463079E+00
 5.3527357E+00 8.8682854E-01 1.8710614E+00
 5.4233210E+00 8.6260085E-01 1.8694498E+00
 5.4939206E+00 8.3748299E-01 1.8675712E+00
 5.5645836E+00 8.1166367E-01 1.8652476E+00
 5.6351331E+00 7.8523714E-01 1.8622607E+00
 5.7052603E+00 7.5827793E-01 1.8583644E+00
 5.7746098E+00 7.3084112E-01 1.8532934E+00
 5.8427885E+00 7.0292183E-01 1.8467595E+00
 5.9092828E+00 6.7438122E-01 1.8384209E+00
 5.3521318E+00 8.4278565E-01 1.8641801E+00
 5.4219246E+00 8.1848906E-01 1.8612717E+00
 5.4915369E+00 7.9330221E-01 1.8580182E+00
 5.5610241E+00 7.6749472E-01 1.8542716E+00
 5.6302224E+00 7.4117907E-01 1.8498328E+00
 5.6988502E+00 7.1440147E-01 1.8444639E+00
 5.7665161E+00 6.8714054E-01 1.8378848E+00
 5.8325867E+00 6.5922571E-01 1.8297342E+00
 5.3513501E+00 7.9991375E-01 1.8552473E+00
 5.4201881E+00 7.7574188E-01 1.8510800E+00
 5.4886713E+00 7.5068579E-01 1.8464966E+00
 5.5568618E+00 7.2508489E-01 1.8413858E+00
 5.6246142E+00 6.9903218E-01 1.8355572E+00
 5.6915789E+00 6.7249968E-01 1.8287523E+00
 5.7570284E+00 6.4528802E-01 1.8206005E+00
 5.3504074E+00 7.5847409E-01 1.8444519E+00
 5.4181543E+00 7.3460093E-01 1.8390884E+00
 5.4853920E+00 7.0985053E-01 1.8332441E+00
 5.5521904E+00 6.8458747E-01 1.8268359E+00
 5.6183078E+00 6.5884364E-01 1.8196547E+00
 5.6829662E+00 6.3240224E-01 1.8113339E+00
 5.3493302E+00 7.1867927E-01 1.8320083E+00
 5.4158723E+00 6.9525290E-01 1.8255300E+00
 5.4817728E+00 6.7092118E-01 1.8184978E+00
 5.5469705E+00 6.4602352E-01 1.8108301E+00
 5.6107005E+00 6.2040359E-01 1.8021998E+00
 5.3481404E+00 6.8069287E-01 1.8181460E+00
 5.4133931E+00 6.5779421E-01 1.8106312E+00
 5.4777150E+00 6.3388220E-01 1.8024449E+00
 5.5404734E+00 6.0913496E-01 1.7934071E+00
 5.3468742E+00 6.4460419E-01 1.8030888E+00
 5.4106410E+00 6.2222380E-01 1.7945842E+00
 5.4724647E+00 5.9846354E-01 1.7851126E+00
 5.3454605E+00 6.1040049E-01 1.7870267E+00
 5.4067209E+00 5.8818676E-01 1.7773637E+00
 5.3435725E+00 5.7798720E-01 1.7701013E+00
 5.2473453E+00 1.4824485E+00 1.7322123E+00
 5.2091863E+00 1.5058174E+00 1.7161565E+00
 5.1694669E+00 1.5299075E+00 1.6987209E+00
 5.1282417E+00 1.5546140E+00 1.6798449E+00
 5.0856843E+00 1.5798284E+00 1.6594730E+00
 5.0420084E+00 1.6054400E+00 1.6375288E+00
 4.9974437E+00 1.6313325E+00 1.6139184E+00
 4.9522538E+00 1.6573488E+00 1.5885594E+00
 4.9067414E+00 1.6832983E+00 1.5613805E+00
 4.8612368E+00 1.7089536E+00 1.5323322E+00
 4.8160881E+00 1.7340573E+00 1.5013947E+00
 4.7716480E+00 1.7583286E+00 1.4685874E+00
 4.7282619E+00 1.7814760E+00 1.4339773E+00
 4.6862553E+00 1.8032102E+00 1.3976840E+00
 4.6459224E+00 1.8232608E+00 1.3598821E+00
 4.6075173E+00 1.8413910E+00 1.3207973E+00
 4.5712469E+00 1.8574111E+00 1.2806990E+00
 4.5372667E+00 1.8711875E+00 1.2398874E+00
 4.5056792E+00 1.8826480E+00 1.1986780E+00
 4.4765415E+00 1.8917809E+00 1.1573861E+00
 4.4498922E+00 1.8986261E+00 1.1163376E+00
 4.4257711E+00 1.9032668E+00 1.0758627E+00
 4.4043007E+00 1.9058291E+00 1.0364282E+00
 3.6983073E+00 1.0843849E+00 1.7424155E+00
 3.6893006E+00 1.1393872E+00 1.7287069E+00
 3.6833883E+00 1.1959535E+00 1.7119326E+00
 3.6814746E+00 1.2540108E+00 1.6921766E+00
 3.6840511E+00 1.3131205E+00 1.6693516E+00
 3.6915074E+00 1.3726742E+00 1.6434150E+00
 3.7041559E+00 1.4319571E+00 1.6144138E+00
 3.7222040E+00 1.4901821E+00 1.5824988E+00
 3.7457237E+00 1.5465282E+00 1.5479251E+00
 3.7746314E+00 1.6001840E+00 1.5110489E+00
 3.8086810E+00 1.6503954E+00 1.4723152E+00
 3.8474694E+00 1.6965113E+00 1.4322390E+00
 3.8904556E+00 1.7380240E+00 1.3913798E+00
 3.9369915E+00 1.7745981E+00 1.3503106E+00
 3.9863607E+00 1.8060845E+00 1.3095869E+00
 4.0378215E+00 1.8325195E+00 1.2697173E+00
 4.0906482E+00 1.8541061E+00 1.2311393E+00
 4.1441708E+00 1.8711857E+00 1.1942037E+00
 4.1978012E+00 1.8841989E+00 1.1591679E+00
 4.2510652E+00 1.8936460E+00 1.1261915E+00
 4.3035745E+00 1.9000503E+00 1.0952856E+00
 4.3548952E+00 1.9039376E+00 1.0661065E+00
 3.7484187E+00 1.1173979E+00 1.7658806E+00
 3.7422426E+00 1.1738347E+00 1.7518690E+00
 3.7391173E+00 1.2311317E+00 1.7346328E+00
 3.7400873E+00 1.2894912E+00 1.7142812E+00
 3.7456314E+00 1.3485133E+00 1.6907316E+00
 3.7560844E+00 1.4075672E+00 1.6639530E+00
 3.7716883E+00 1.4659066E+00 1.6340184E+00
 3.7925697E+00 1.5227237E+00 1.6011154E+00
 3.8187126E+00 1.5771992E+00 1.5655431E+00
 3.8499450E+00 1.6285514E+00 1.5277038E+00
 3.8859386E+00 1.6760849E+00 1.4880873E+00
 3.9262227E+00 1.7192336E+00 1.4472466E+00
 3.9702096E+00 1.7575961E+00 1.4057690E+00
 4.0172307E+00 1.7909543E+00 1.3642418E+00
 4.0665770E+00 1.8192788E+00 1.3232212E+00
 4.1175409E+00 1.8427152E+00 1.2832025E+00
 4.1694571E+00 1.8615590E+00 1.2445994E+00
 4.2217381E+00 1.8762185E+00 1.2077294E+00
 4.2739145E+00 1.8871775E+00 1.1727911E+00
 4.3256130E+00 1.8949605E+00 1.1397974E+00
 4.3764840E+00 1.9001285E+00 1.1081567E+00
 3.8031587E+00 1.1494241E+00 1.7869145E+00
 3.7997018E+00 1.2065113E+00 1.7723759E+00
 3.7993839E+00 1.2641619E+00 1.7545254E+00
 3.8032361E+00 1.3225119E+00 1.7334272E+00
 3.8117015E+00 1.3811395E+00 1.7090048E+00
 3.8250529E+00 1.4393794E+00 1.6812515E+00
 3.8434585E+00 1.4964599E+00 1.6502768E+00
 3.8669623E+00 1.5515674E+00 1.6163131E+00
 3.8954628E+00 1.6039030E+00 1.5797091E+00
 3.9287065E+00 1.6527340E+00 1.5409168E+00
 3.9662948E+00 1.6974413E+00 1.5004705E+00
 4.0077053E+00 1.7375586E+00 1.4589580E+00
 4.0523225E+00 1.7727984E+00 1.4169875E+00
 4.0994768E+00 1.8030622E+00 1.3751525E+00
 4.1484845E+00 1.8284327E+00 1.3339992E+00
 4.1986908E+00 1.8491529E+00 1.2939996E+00
 4.2495074E+00 1.8655914E+00 1.2555302E+00
 4.3004571E+00 1.8782064E+00 1.2188475E+00
 4.3511695E+00 1.8875162E+00 1.1839902E+00
 4.4012610E+00 1.8941031E+00 1.1504332E+00
 3.8622939E+00 1.1807040E+00 1.8049967E+00
 3.8615726E+00 1.2379988E+00 1.7897366E+00
 3.8641015E+00 1.2955921E+00 1.7711048E+00
 3.8708477E+00 1.3535336E+00 1.7491179E+00
 3.8821857E+00 1.4113518E+00 1.7237106E+00
 3.8983175E+00 1.4683562E+00 1.6949096E+00
 3.9193324E+00 1.5237665E+00 1.6628695E+00
 3.9451922E+00 1.5767858E+00 1.6278729E+00
 3.9757155E+00 1.6266589E+00 1.5903202E+00
 4.0105790E+00 1.6727244E+00 1.5507106E+00
 4.0493311E+00 1.7144589E+00 1.5096168E+00
 4.0914188E+00 1.7515071E+00 1.4676513E+00
 4.1362218E+00 1.7836998E+00 1.4254308E+00
 4.1830913E+00 1.8110510E+00 1.3835406E+00
 4.2313923E+00 1.8337428E+00 1.3425027E+00
 4.2805429E+00 1.8520937E+00 1.3027505E+00
 4.3300648E+00 1.8665258E+00 1.2645949E+00
 4.3795812E+00 1.8775365E+00 1.2281402E+00
 4.4286989E+00 1.8857178E+00 1.1929461E+00
 3.9256053E+00 1.2109894E+00 1.8197735E+00
 3.9276419E+00 1.2680957E+00 1.8036240E+00
 3.9330331E+00 1.3252245E+00 1.7840691E+00