# TIME = 5.700000
variables = x, y, z
zone N=5762 E=11520 F=FEPOINT ET=TRIANGLE
 5.7102078E+00 1.4616337E+00 1.7465689E+00
 5.7102078E+00 1.4616339E+00 2.5343015E-01
 5.7102079E+00 5.3836659E-01 1.7465687E+00
 5.7102079E+00 5.3836646E-01 2.5343036E-01
 4.0958612E+00 1.0000001E+00 1.7256171E+00
 7.3205547E+00 1.0000001E+00 1.7181790E+00
 4.0958614E+00 1.0000001E+00 2.7438258E-01
 7.3205547E+00 1.0000001E+00 2.8182028E-01
 4.8092765E+00 1.9113699E+00 9.9999966E-01
 4.8092765E+00 8.8630380E-02 9.9999966E-01
 6.6070694E+00 1.8990093E+00 9.9999966E-01
 6.6070694E+00 1.0099064E-01 9.9999966E-01
 5.6534813E+00 1.4530622E+00 1.7515422E+00
 5.5908033E+00 1.4437867E+00 1.7575179E+00
 5.5252371E+00 1.4343810E+00 1.7642785E+00
 5.4570050E+00 1.4247786E+00 1.7719434E+00
 5.3863889E+00 1.4149441E+00 1.7805270E+00
 5.3136972E+00 1.4047637E+00 1.7899978E+00
 5.2392387E+00 1.3940843E+00 1.8002336E+00
 5.1633573E+00 1.3827043E+00 1.8110124E+00
 5.0864229E+00 1.3703865E+00 1.8220040E+00
 5.0088266E+00 1.3568711E+00 1.8327733E+00
 4.9309718E+00 1.3418963E+00 1.8427988E+00
 4.8532704E+00 1.3252218E+00 1.8515023E+00
 4.7761446E+00 1.3066537E+00 1.8582887E+00
 4.7000317E+00 1.2860659E+00 1.8625910E+00
 4.6253898E+00 1.2634170E+00 1.8639153E+00
 4.5526960E+00 1.2387567E+00 1.8618779E+00
 4.4824369E+00 1.2122240E+00 1.8562329E+00
 4.4150914E+00 1.1840357E+00 1.8468831E+00
 4.3511095E+00 1.1544700E+00 1.8338796E+00
 4.2908921E+00 1.1238463E+00 1.8174083E+00
 4.2347973E+00 1.0925236E+00 1.7977832E+00
 4.1831075E+00 1.0608841E+00 1.7754075E+00
 4.1361531E+00 1.0294595E+00 1.7508343E+00
 5.6468438E+00 5.7895258E-01 1.7699221E+00
 5.5822018E+00 5.9004530E-01 1.7764400E+00
 5.5150546E+00 6.0089383E-01 1.7835338E+00
 5.4457386E+00 6.1179847E-01 1.7914036E+00
 5.3743132E+00 6.2302026E-01 1.8001648E+00
 5.3010352E+00 6.3471465E-01 1.8097722E+00
 5.2261999E+00 6.4705688E-01 1.8200785E+00
 5.1501527E+00 6.6024235E-01 1.8308223E+00
 5.0732731E+00 6.7449258E-01 1.8416338E+00
 4.9959607E+00 6.9003845E-01 1.8520437E+00
 4.9186245E+00 7.0710015E-01 1.8615062E+00
 4.8416783E+00 7.2586409E-01 1.8694333E+00
 4.7655420E+00 7.4646180E-01 1.8752366E+00
 4.6906475E+00 7.6895319E-01 1.8783730E+00
 4.6174410E+00 7.9331774E-01 1.8783871E+00
 4.5463816E+00 8.1945491E-01 1.8749452E+00
 4.4779289E+00 8.4719355E-01 1.8678558E+00
 4.4125203E+00 8.7630611E-01 1.8570734E+00
 4.3505393E+00 9.0651805E-01 1.8426849E+00
 4.2922454E+00 9.3750287E-01 1.8248647E+00
 4.2376556E+00 9.6886391E-01 1.8037857E+00
 4.1863733E+00 1.0000001E+00 1.7794720E+00
 5.6445335E+00 6.1190583E-01 1.7870309E+00
 5.5773265E+00 6.2486427E-01 1.7939079E+00
 5.5085616E+00 6.3717698E-01 1.8011495E+00
 5.4379247E+00 6.4953484E-01 1.8091313E+00
 5.3655061E+00 6.6226129E-01 1.8179531E+00
 5.2914575E+00 6.7557969E-01 1.8275709E+00
 5.2160620E+00 6.8967077E-01 1.8378042E+00
 5.1396641E+00 7.0472745E-01 1.8483568E+00
 5.0626533E+00 7.2095236E-01 1.8588218E+00
 4.9854390E+00 7.3854580E-01 1.8686980E+00
 4.9084368E+00 7.5768431E-01 1.8774183E+00
 4.8320633E+00 7.7850056E-01 1.8843875E+00
 4.7567376E+00 8.0106604E-01 1.8890271E+00
 4.6828850E+00 8.2538114E-01 1.8908209E+00
 4.6109383E+00 8.5137390E-01 1.8893541E+00
 4.5413305E+00 8.7890852E-01 1.8843416E+00
 4.4744737E+00 9.0779912E-01 1.8756387E+00
 4.4107092E+00 9.3781890E-01 1.8632256E+00
 4.3502057E+00 9.6868422E-01 1.8471532E+00
 4.2927924E+00 1.0000001E+00 1.8274291E+00
 4.2376556E+00 1.0311364E+00 1.8037858E+00
 5.6429751E+00 6.4650785E-01 1.8031682E+00
 5.5741695E+00 6.6095162E-01 1.8100201E+00
 5.5039375E+00 6.7475907E-01 1.8172565E+00
 5.4321123E+00 6.8861398E-01 1.8251951E+00
 5.3586973E+00 7.0292420E-01 1.8339368E+00
 5.2838584E+00 7.1792775E-01 1.8434071E+00
 5.2078695E+00 7.3381507E-01 1.8533968E+00
 5.1310887E+00 7.5076819E-01 1.8635736E+00
 5.0539177E+00 7.6896846E-01 1.8734969E+00
 4.9767766E+00 7.8858125E-01 1.8826377E+00
 4.9000875E+00 8.0973754E-01 1.8904130E+00
 4.8242689E+00 8.3251645E-01 1.8962272E+00
 4.7497365E+00 8.5693399E-01 1.8995183E+00
 4.6769040E+00 8.8294023E-01 1.8998018E+00
 4.6061805E+00 9.1042617E-01 1.8967055E+00
 4.5379507E+00 9.3923686E-01 1.8899871E+00
 4.4725248E+00 9.6917911E-01 1.8795267E+00
 4.4100285E+00 1.0000001E+00 1.8652779E+00
 4.3502056E+00 1.0313161E+00 1.8471532E+00
 4.2922454E+00 1.0624974E+00 1.8248648E+00
 5.6417288E+00 6.8281108E-01 1.8181926E+00
 5.5716494E+00 6.9860300E-01 1.8248105E+00
 5.5002157E+00 7.1384121E-01 1.8318552E+00
 5.4273387E+00 7.2921178E-01 1.8395927E+00
 5.3530486E+00 7.4512754E-01 1.8480856E+00
 5.2775184E+00 7.6183543E-01 1.8572288E+00
 5.2010404E+00 7.7951925E-01 1.8667790E+00
 5.1239869E+00 7.9834634E-01 1.8763715E+00
 5.0467735E+00 8.1847018E-01 1.8855361E+00
 4.9698289E+00 8.4001790E-01 1.8937236E+00
 4.8935790E+00 8.6307330E-01 1.9003441E+00
 4.8184394E+00 8.8766485E-01 1.9048108E+00
 4.7448149E+00 9.1376086E-01 1.9065866E+00
 4.6730964E+00 9.4127473E-01 1.9052235E+00
 4.6036462E+00 9.7007651E-01 1.9003889E+00
 4.5367534E+00 1.0000001E+00 1.8918677E+00
 4.4725248E+00 1.0308212E+00 1.8795267E+00
 4.4107092E+00 1.0621814E+00 1.8632257E+00
 4.3505393E+00 1.0934822E+00 1.8426850E+00
 5.6406190E+00 7.2085116E-01 1.8319476E+00
 5.5694277E+00 7.3789078E-01 1.8381626E+00
 5.4969763E+00 7.5451315E-01 1.8448498E+00
 5.4232224E+00 7.7138040E-01 1.8522165E+00
 5.3482276E+00 7.8888944E-01 1.8602804E+00
 5.2721859E+00 8.0727663E-01 1.8689006E+00
 5.1954076E+00 8.2671246E-01 1.8778019E+00
 5.1182807E+00 8.4734154E-01 1.8865908E+00
 5.0412309E+00 8.6928548E-01 1.8947751E+00
 4.9646914E+00 8.9263025E-01 1.9017953E+00
 4.8890852E+00 9.1741418E-01 1.9070650E+00
 4.8148173E+00 9.4362158E-01 1.9100164E+00
 4.7422691E+00 9.7118595E-01 1.9101438E+00
 4.6717877E+00 1.0000001E+00 1.9070360E+00
 4.6036462E+00 1.0299238E+00 1.9003889E+00
 4.5379507E+00 1.0607634E+00 1.8899872E+00
 4.4744737E+00 1.0922012E+00 1.8756388E+00
 4.4125203E+00 1.1236942E+00 1.8570736E+00
 5.6396004E+00 7.6056037E-01 1.8442408E+00
 5.5674395E+00 7.7876730E-01 1.8499032E+00
 5.4941427E+00 7.9672475E-01 1.8560744E+00
 5.4197037E+00 8.1504715E-01 1.8628981E+00
 5.3442105E+00 8.3410201E-01 1.8703458E+00
 5.2678769E+00 8.5410448E-01 1.8782418E+00
 5.1910300E+00 8.7520380E-01 1.8862826E+00
 5.1140687E+00 8.9751742E-01 1.8940527E+00
 5.0374238E+00 9.2113161E-01 1.9010470E+00
 4.9615259E+00 9.4609227E-01 1.9067062E+00
 4.8867867E+00 9.7239771E-01 1.9104579E+00
 4.8135879E+00 1.0000002E+00 1.9117613E+00
 4.7422692E+00 1.0288144E+00 1.9101439E+00
 4.6730964E+00 1.0587256E+00 1.9052236E+00
 4.6061805E+00 1.0895741E+00 1.8967056E+00
 4.5413305E+00 1.1210918E+00 1.8843418E+00
 4.4779289E+00 1.1528068E+00 1.8678560E+00
 5.6386922E+00 8.0179446E-01 1.8548690E+00
 5.5657175E+00 8.2109418E-01 1.8598415E+00
 5.4917623E+00 8.4032128E-01 1.8653413E+00
 5.4168478E+00 8.6003138E-01 1.8714499E+00
 5.3410818E+00 8.8055056E-01 1.8780949E+00
 5.2646955E+00 9.0206546E-01 1.8850696E+00
 5.1880267E+00 9.2469912E-01 1.8920480E+00
 5.1114801E+00 9.4853855E-01 1.8986004E+00
 5.0354835E+00 9.7363538E-01 1.9042193E+00
 4.9604561E+00 1.0000002E+00 1.9083551E+00
 4.8867867E+00 1.0276026E+00 1.9104580E+00
 4.8148173E+00 1.0563787E+00 1.9100165E+00
 4.7448150E+00 1.0862395E+00 1.9065868E+00
 4.6769040E+00 1.1170601E+00 1.8998020E+00
 4.6109383E+00 1.1486264E+00 1.8893544E+00
 4.5463816E+00 1.1805454E+00 1.8749455E+00
 5.6379256E+00 8.4435873E-01 1.8636395E+00
 5.5643156E+00 8.6466232E-01 1.8677930E+00
 5.4899066E+00 8.8507124E-01 1.8724713E+00
 5.4147392E+00 9.0607132E-01 1.8776984E+00
 5.3389373E+00 9.2793872E-01 1.8833629E+00
 5.2627426E+00 9.5082622E-01 1.8892325E+00
 5.1864983E+00 9.7482769E-01 1.8949660E+00
 5.1106064E+00 1.0000002E+00 1.9001287E+00
 5.0354835E+00 1.0263649E+00 1.9042194E+00
 4.9615259E+00 1.0539080E+00 1.9067063E+00
 4.8890853E+00 1.0825861E+00 1.9070651E+00
 4.8184395E+00 1.1123355E+00 1.9048110E+00
 4.7497365E+00 1.1430663E+00 1.8995185E+00
 4.6828850E+00 1.1746192E+00 1.8908212E+00
 4.6174410E+00 1.2066826E+00 1.8783874E+00
 5.6373277E+00 8.8801244E-01 1.8703821E+00
 5.5632810E+00 9.0920932E-01 1.8735976E+00
 5.4886355E+00 9.3068564E-01 1.8773147E+00
 5.4134462E+00 9.5284701E-01 1.8815063E+00
 5.3378470E+00 9.7591326E-01 1.8860287E+00
 5.2620842E+00 1.0000002E+00 1.8906316E+00
 5.1864983E+00 1.0251726E+00 1.8949661E+00
 5.1114801E+00 1.0514618E+00 1.8986005E+00
 5.0374238E+00 1.0788687E+00 1.9010472E+00
 4.9646914E+00 1.1073701E+00 1.9017955E+00
 4.8935790E+00 1.1369270E+00 1.9003444E+00
 4.8242690E+00 1.1674839E+00 1.8962275E+00
 4.7567376E+00 1.1989343E+00 1.8890275E+00
 4.6906475E+00 1.2310472E+00 1.8783733E+00
 5.6369183E+00 9.3247506E-01 1.8749588E+00
 5.5626470E+00 9.5443221E-01 1.8771322E+00
 5.4879898E+00 9.7683495E-01 1.8797642E+00
 5.4130106E+00 1.0000001E+00 1.8827856E+00
 5.3378470E+00 1.0240870E+00 1.8860288E+00
 5.2627426E+00 1.0491741E+00 1.8892326E+00
 5.1880267E+00 1.0753012E+00 1.8920481E+00
 5.1140687E+00 1.1024829E+00 1.8940528E+00
 5.0412309E+00 1.1307149E+00 1.8947754E+00
 4.9698290E+00 1.1599824E+00 1.8937239E+00
 4.9000875E+00 1.1902628E+00 1.8904133E+00
 4.8320633E+00 1.2214998E+00 1.8843878E+00
 4.7655421E+00 1.2535386E+00 1.8752370E+00
 5.6367105E+00 9.7743572E-01 1.8772723E+00
 5.5624335E+00 1.0000001E+00 1.8783192E+00
 5.4879898E+00 1.0231653E+00 1.8797642E+00
 5.4134462E+00 1.0471533E+00 1.8815063E+00
 5.3389373E+00 1.0720616E+00 1.8833630E+00
 5.2646955E+00 1.0979349E+00 1.8850698E+00
 5.1910300E+00 1.1247965E+00 1.8862828E+00
 5.1182807E+00 1.1526588E+00 1.8865910E+00
 5.0467735E+00 1.1815302E+00 1.8855364E+00
 4.9767766E+00 1.2114191E+00 1.8826380E+00
 4.9084368E+00 1.2423161E+00 1.8774187E+00
 4.8416783E+00 1.2741363E+00 1.8694338E+00
 5.6367105E+00 1.0225646E+00 1.8772723E+00
 5.5626470E+00 1.0455681E+00 1.8771322E+00
 5.4886355E+00 1.0693147E+00 1.8773147E+00
 5.4147392E+00 1.0939290E+00 1.8776985E+00
 5.3410818E+00 1.1194498E+00 1.8780951E+00
 5.2678769E+00 1.1458958E+00 1.8782420E+00
 5.1954076E+00 1.1732879E+00 1.8778021E+00
 5.1239869E+00 1.2016540E+00 1.8763718E+00
 5.0539177E+00 1.2310319E+00 1.8734972E+00
 4.9854390E+00 1.2614546E+00 1.8686984E+00
 4.9186246E+00 1.2929003E+00 1.8615067E+00
 5.6369183E+00 1.0675252E+00 1.8749588E+00
 5.5632810E+00 1.0907910E+00 1.8735977E+00
 5.4899066E+00 1.1149291E+00 1.8724714E+00
 5.4168477E+00 1.1399689E+00 1.8714500E+00
 5.3442104E+00 1.1658983E+00 1.8703460E+00
 5.2721859E+00 1.1927237E+00 1.8689008E+00
 5.2010404E+00 1.2204811E+00 1.8667793E+00
 5.1310887E+00 1.2492322E+00 1.8635740E+00
 5.0626533E+00 1.2790480E+00 1.8588222E+00
 4.9959607E+00 1.3099620E+00 1.8520441E+00
 5.6373277E+00 1.1119878E+00 1.8703822E+00
 5.5643156E+00 1.1353380E+00 1.8677931E+00
 5.4917623E+00 1.1596790E+00 1.8653414E+00
 5.4197037E+00 1.1849532E+00 1.8628983E+00
 5.3482275E+00 1.2111109E+00 1.8602806E+00
 5.2775183E+00 1.2381649E+00 1.8572290E+00
 5.2078695E+00 1.2661853E+00 1.8533971E+00
 5.1396641E+00 1.2952730E+00 1.8483572E+00
 5.0732731E+00 1.3255078E+00 1.8416342E+00
 5.6379256E+00 1.1556416E+00 1.8636396E+00
 5.5657174E+00 1.1789061E+00 1.8598417E+00
 5.4941427E+00 1.2032756E+00 1.8560746E+00
 5.4232223E+00 1.2286199E+00 1.8522167E+00
 5.3530485E+00 1.2548728E+00 1.8480858E+00
 5.2838584E+00 1.2820726E+00 1.8434074E+00
 5.2160620E+00 1.3103296E+00 1.8378045E+00
 5.1501527E+00 1.3397581E+00 1.8308227E+00
 5.6386922E+00 1.1982058E+00 1.8548691E+00
 5.5674395E+00 1.2212330E+00 1.8499034E+00
 5.4969763E+00 1.2454872E+00 1.8448499E+00
 5.4273386E+00 1.2707886E+00 1.8395929E+00
 5.3586973E+00 1.2970762E+00 1.8339371E+00
 5.2914575E+00 1.3244207E+00 1.8275712E+00
 5.2261999E+00 1.3529435E+00 1.8200789E+00
 5.6396004E+00 1.2394399E+00 1.8442410E+00
 5.5694277E+00 1.2621095E+00 1.8381627E+00
 5.5002157E+00 1.2861591E+00 1.8318554E+00
 5.4321122E+00 1.3113864E+00 1.8251953E+00
 5.3655061E+00 1.3377391E+00 1.8179534E+00
 5.3010352E+00 1.3652858E+00 1.8097726E+00
 5.6406190E+00 1.2791492E+00 1.8319477E+00
 5.5716493E+00 1.3013973E+00 1.8248107E+00
 5.5039375E+00 1.3252413E+00 1.8172567E+00
 5.4379247E+00 1.3504655E+00 1.8091315E+00
 5.3743132E+00 1.3769801E+00 1.8001651E+00
 5.6417288E+00 1.3171892E+00 1.8181927E+00
 5.5741694E+00 1.3390487E+00 1.8100203E+00
 5.5085616E+00 1.3628234E+00 1.8011497E+00
 5.4457385E+00 1.3882019E+00 1.7914038E+00
 5.6429751E+00 1.3534925E+00 1.8031683E+00
 5.5773265E+00 1.3751361E+00 1.7939080E+00
 5.5150546E+00 1.3991065E+00 1.7835340E+00
 5.6445334E+00 1.3880945E+00 1.7870310E+00
 5.5822018E+00 1.4099550E+00 1.7764402E+00
 5.6468438E+00 1.4210478E+00 1.7699223E+00
 5.7103032E+00 1.4341444E+00 1.7628445E+00
 5.7104215E+00 1.4027931E+00 1.7798571E+00
 5.7104996E+00 1.3696112E+00 1.7961341E+00
 5.7105565E+00 1.3344750E+00 1.8115284E+00
 5.7106011E+00 1.2974576E+00 1.8258213E+00
 5.7106388E+00 1.2586917E+00 1.8387792E+00
 5.7106715E+00 1.2183173E+00 1.8501875E+00
 5.7106995E+00 1.1765133E+00 1.8598445E+00
 5.7107222E+00 1.1335021E+00 1.8675676E+00
 5.7107390E+00 1.0895455E+00 1.8732029E+00
 5.7107493E+00 1.0449385E+00 1.8766330E+00
 5.7107527E+00 1.0000001E+00 1.8777847E+00
 5.7107493E+00 9.5506176E-01 1.8766330E+00
 5.7107390E+00 9.1045478E-01 1.8732028E+00
 5.7107222E+00 8.6649817E-01 1.8675676E+00
 5.7106995E+00 8.2348700E-01 1.8598444E+00
 5.7106716E+00 7.8168304E-01 1.8501874E+00
 5.7106389E+00 7.4130863E-01 1.8387791E+00
 5.7106012E+00 7.0254273E-01 1.8258212E+00
 5.7105566E+00 6.6552528E-01 1.8115283E+00
 5.7104996E+00 6.3038915E-01 1.7961340E+00
 5.7104215E+00 5.9720727E-01 1.7798570E+00
 5.7103032E+00 5.6585595E-01 1.7628444E+00
 5.7669679E+00 5.4640003E-01 1.7524185E+00
 5.8295511E+00 5.5514894E-01 1.7593006E+00
 5.8948675E+00 5.6413684E-01 1.7668462E+00
 5.9626708E+00 5.7349246E-01 1.7750499E+00
 6.0327087E+00 5.8330465E-01 1.7837985E+00
 6.1047143E+00 5.9371983E-01 1.7929450E+00
 6.1784470E+00 6.0490138E-01 1.8022868E+00
 6.2536333E+00 6.1702952E-01 1.8115701E+00
 6.3299650E+00 6.3028932E-01 1.8204949E+00
 6.4070880E+00 6.4485979E-01 1.8287228E+00
 6.4846022E+00 6.6090254E-01 1.8358901E+00
 6.5620653E+00 6.7855097E-01 1.8416226E+00
 6.6390018E+00 6.9790019E-01 1.8455532E+00
 6.7149170E+00 7.1899912E-01 1.8473394E+00
 6.7893130E+00 7.4184473E-01 1.8466814E+00
 6.8617066E+00 7.6638011E-01 1.8433377E+00
 6.9316447E+00 7.9249589E-01 1.8371389E+00
 6.9987137E+00 8.2003530E-01 1.8279955E+00
 7.0625429E+00 8.4880075E-01 1.8159036E+00
 7.1228052E+00 8.7856458E-01 1.8009454E+00
 7.1791930E+00 9.0906079E-01 1.7832980E+00
 7.2314467E+00 9.3999351E-01 1.7632113E+00
 7.2792229E+00 9.7089018E-01 1.7410773E+00
 5.7737804E+00 1.4216359E+00 1.7709151E+00
 5.8382644E+00 1.4110426E+00 1.7783714E+00
 5.9050908E+00 1.4005586E+00 1.7862571E+00
 5.9739147E+00 1.3898347E+00 1.7946362E+00
 6.0447035E+00 1.3785760E+00 1.8034944E+00
 6.1172558E+00 1.3666062E+00 1.8126762E+00
 6.1913451E+00 1.3537546E+00 1.8219619E+00
 6.2666991E+00 1.3398573E+00 1.8310727E+00
 6.3429962E+00 1.3247522E+00 1.8396860E+00
 6.4198666E+00 1.3082900E+00 1.8474462E+00
 6.4968954E+00 1.2903444E+00 1.8539796E+00
 6.5736305E+00 1.2708223E+00 1.8589108E+00
 6.6495938E+00 1.2496721E+00 1.8618803E+00
 6.7242962E+00 1.2268892E+00 1.8625629E+00
 6.7972545E+00 1.2025177E+00 1.8606846E+00
 6.8680083E+00 1.1766478E+00 1.8560371E+00
 6.9361341E+00 1.1494095E+00 1.8484887E+00
 7.0012580E+00 1.1209656E+00 1.8379867E+00
 7.0630713E+00 1.0915107E+00 1.8245538E+00
 7.1213832E+00 1.0612860E+00 1.8082584E+00
 7.1762306E+00 1.0306038E+00 1.7891489E+00
 7.2280568E+00 1.0000001E+00 1.7671295E+00
 5.7762808E+00 1.3886817E+00 1.7880796E+00
 5.8432735E+00 1.3761980E+00 1.7959467E+00
 5.9116475E+00 1.3642042E+00 1.8039952E+00
 5.9817252E+00 1.3519774E+00 1.8124676E+00
 6.0534518E+00 1.3391725E+00 1.8213319E+00
 6.1267341E+00 1.3255599E+00 1.8304373E+00
 6.2013631E+00 1.3109743E+00 1.8395399E+00
 6.2770672E+00 1.2952637E+00 1.8483392E+00
 6.3535116E+00 1.2782895E+00 1.8564914E+00
 6.4303099E+00 1.2599316E+00 1.8636255E+00
 6.5070321E+00 1.2400992E+00 1.8693597E+00
 6.5832161E+00 1.2187390E+00 1.8733188E+00
 6.6583812E+00 1.1958409E+00 1.8751538E+00
 6.7320451E+00 1.1714402E+00 1.8745589E+00
 6.8037417E+00 1.1456139E+00 1.8712881E+00
 6.8730406E+00 1.1184730E+00 1.8651657E+00
 6.9395678E+00 1.0901532E+00 1.8560907E+00
 7.0030452E+00 1.0608129E+00 1.8440238E+00
 7.0633770E+00 1.0306574E+00 1.8289474E+00
 7.1208080E+00 1.0000001E+00 1.8107738E+00
 7.1762306E+00 9.6939648E-01 1.7891489E+00
 5.7779786E+00 1.3540508E+00 1.8042684E+00
 5.8465320E+00 1.3400468E+00 1.8121497E+00
 5.9163211E+00 1.3265160E+00 1.8202094E+00
 5.9875339E+00 1.3127520E+00 1.8286233E+00
 6.0602099E+00 1.2983366E+00 1.8373597E+00
 6.1342484E+00 1.2830375E+00 1.8462406E+00
 6.2094534E+00 1.2666896E+00 1.8550020E+00
 6.2855403E+00 1.2491591E+00 1.8633203E+00
 6.3621586E+00 1.2303308E+00 1.8708336E+00
 6.4389048E+00 1.2101163E+00 1.8771584E+00
 6.5153352E+00 1.1884607E+00 1.8819083E+00
 6.5909803E+00 1.1653496E+00 1.8847135E+00
 6.6653608E+00 1.1408111E+00 1.8852396E+00
 6.7380070E+00 1.1149126E+00 1.8832041E+00
 6.8084805E+00 1.0877522E+00 1.8783897E+00
 6.8764023E+00 1.0594484E+00 1.8706482E+00
 6.9415017E+00 1.0301371E+00 1.8598892E+00
 7.0037161E+00 1.0000001E+00 1.8460389E+00
 7.0633770E+00 9.6934287E-01 1.8289474E+00
 7.1213832E+00 9.3871427E-01 1.8082584E+00
 5.7793229E+00 1.3177041E+00 1.8193411E+00
 5.8491227E+00 1.3023065E+00 1.8270242E+00
 5.9200745E+00 1.2873013E+00 1.8349057E+00
 5.9922973E+00 1.2719866E+00 1.8431036E+00
 6.0658110E+00 1.2559496E+00 1.8515465E+00
 6.1405141E+00 1.2389586E+00 1.8600304E+00
 6.2161955E+00 1.2208641E+00 1.8682665E+00
 6.2925568E+00 1.2015514E+00 1.8759119E+00
 6.3692300E+00 1.1809338E+00 1.8825901E+00
 6.4457971E+00 1.1589553E+00 1.8879104E+00
 6.5218051E+00 1.1355976E+00 1.8914885E+00
 6.5967832E+00 1.1108822E+00 1.8929657E+00
 6.6702625E+00 1.0848681E+00 1.8920279E+00
 6.7417983E+00 1.0576435E+00 1.8884186E+00
 6.8110018E+00 1.0293142E+00 1.8819459E+00
 6.8775921E+00 1.0000001E+00 1.8724742E+00
 6.9415017E+00 9.6986320E-01 1.8598892E+00
 7.0030452E+00 9.3918735E-01 1.8440238E+00
 7.0630713E+00 9.0848956E-01 1.8245538E+00
 5.7805087E+00 1.2796113E+00 1.8331417E+00
 5.8513967E+00 1.2629137E+00 1.8404542E+00
 5.9233343E+00 1.2464783E+00 1.8479887E+00
 5.9963996E+00 1.2296355E+00 1.8557996E+00
 6.0705879E+00 1.2119968E+00 1.8637716E+00
 6.1457821E+00 1.1933501E+00 1.8716703E+00
 6.2217560E+00 1.1735657E+00 1.8791855E+00
 6.2981945E+00 1.1525549E+00 1.8859584E+00
 6.3747162E+00 1.1302606E+00 1.8916041E+00
 6.4508932E+00 1.1066610E+00 1.8957318E+00
 6.5262708E+00 1.0817714E+00 1.8979662E+00
 6.6003872E+00 1.0556429E+00 1.8979664E+00
 6.6727965E+00 1.0283542E+00 1.8954420E+00
 6.7431007E+00 1.0000001E+00 1.8901610E+00
 6.8110018E+00 9.7068610E-01 1.8819459E+00
 6.8764023E+00 9.4055188E-01 1.8706483E+00
 6.9395678E+00 9.0984706E-01 1.8560907E+00
 7.0012580E+00 8.7903465E-01 1.8379868E+00
 5.7815914E+00 1.2398428E+00 1.8454771E+00
 5.8534276E+00 1.2219205E+00 1.8522653E+00
 5.9261826E+00 1.2041030E+00 1.8592906E+00
 5.9999039E+00 1.1857761E+00 1.8665416E+00
 6.0745667E+00 1.1665896E+00 1.8738592E+00
 6.1500381E+00 1.1463598E+00 1.8809817E+00
 6.2260771E+00 1.1249835E+00 1.8875811E+00
 6.3023559E+00 1.1024002E+00 1.8932890E+00
 6.3784844E+00 1.0785845E+00 1.8977189E+00
 6.4540328E+00 1.0535460E+00 1.9004873E+00
 6.5285547E+00 1.0273281E+00 1.9012346E+00
 6.6016101E+00 1.0000001E+00 1.8996420E+00
 6.6727965E+00 9.7164605E-01 1.8954420E+00
 6.7417983E+00 9.4235676E-01 1.8884186E+00
 6.8084805E+00 9.1224802E-01 1.8783897E+00
 6.8730406E+00 8.8152723E-01 1.8651658E+00
 6.9361341E+00 8.5059070E-01 1.8484887E+00
 5.7825546E+00 1.1985438E+00 1.8561427E+00
 5.8551851E+00 1.1794678E+00 1.8622644E+00
 5.9285740E+00 1.1603330E+00 1.8686216E+00
 6.0027471E+00 1.1405923E+00 1.8751408E+00
 6.0776646E+00 1.1199445E+00 1.8816234E+00
 6.1531799E+00 1.0982411E+00 1.8877850E+00
 6.2290413E+00 1.0754085E+00 1.8932858E+00
 6.3049134E+00 1.0514162E+00 1.8977545E+00
 6.3804048E+00 1.0262682E+00 1.9008103E+00
 6.4550939E+00 1.0000001E+00 1.9020836E+00
 6.5285547E+00 9.7267216E-01 1.9012346E+00
 6.6003872E+00 9.4435739E-01 1.8979664E+00
 6.6702625E+00 9.1513214E-01 1.8920279E+00
 6.7380070E+00 8.8508767E-01 1.8832041E+00
 6.8037417E+00 8.5438632E-01 1.8712881E+00
 6.8680083E+00 8.2335242E-01 1.8560372E+00
 5.7833673E+00 1.1559100E+00 1.8649449E+00
 5.8566154E+00 1.1357664E+00 1.8702651E+00
 5.9304378E+00 1.1154019E+00 1.8758012E+00
 6.0048457E+00 1.0943475E+00 1.8814235E+00
 6.0797876E+00 1.0723588E+00 1.8869006E+00
 6.1551082E+00 1.0493263E+00 1.8919318E+00
 6.2305497E+00 1.0252076E+00 1.8961723E+00
 6.3057765E+00 1.0000001E+00 1.8992547E+00
 6.3804048E+00 9.7373206E-01 1.9008103E+00
 6.4540328E+00 9.4645423E-01 1.9004873E+00
 6.5262708E+00 9.1822890E-01 1.8979662E+00
 6.5967833E+00 8.8911808E-01 1.8929658E+00
 6.6653608E+00 8.5918914E-01 1.8852396E+00
 6.7320451E+00 8.2856003E-01 1.8745589E+00
 6.7972545E+00 7.9748253E-01 1.8606846E+00
 5.7840010E+00 1.1121826E+00 1.8717123E+00
 5.8576709E+00 1.0910801E+00 1.8761061E+00
 5.9317142E+00 1.0696008E+00 1.8806782E+00
 6.0061324E+00 1.0473635E+00 1.8852519E+00
 6.0808669E+00 1.0241862E+00 1.8895708E+00
 6.1557583E+00 1.0000001E+00 1.8933253E+00
 6.2305497E+00 9.7479271E-01 1.8961723E+00
 6.3049134E+00 9.4858402E-01 1.8977545E+00
 6.3784844E+00 9.2141577E-01 1.8977189E+00
 6.4508932E+00 8.9333928E-01 1.8957318E+00
 6.5218051E+00 8.6440264E-01 1.8914885E+00
 6.5909803E+00 8.3465064E-01 1.8847136E+00
 6.6583813E+00 8.0415931E-01 1.8751538E+00
 6.7242962E+00 7.7311104E-01 1.8625629E+00
 5.7844348E+00 1.0676434E+00 1.8763060E+00
 5.8583176E+00 1.0457138E+00 1.8796629E+00
 5.9323625E+00 1.0232611E+00 1.8831449E+00
 6.0065658E+00 1.0000001E+00 1.8865381E+00
 6.0808669E+00 9.7581410E-01 1.8895708E+00
 6.1551082E+00 9.5067400E-01 1.8919318E+00
 6.2290413E+00 9.2459171E-01 1.8932858E+00
 6.3023559E+00 8.9760007E-01 1.8932890E+00
 6.3747162E+00 8.6973964E-01 1.8916041E+00
 6.4457971E+00 8.4104492E-01 1.8879104E+00
 6.5153352E+00 8.1153958E-01 1.8819084E+00
 6.5832161E+00 7.8126128E-01 1.8733188E+00
 6.6495938E+00 7.5032817E-01 1.8618804E+00
 5.7846551E+00 1.0226042E+00 1.8786281E+00
 5.8585354E+00 1.0000001E+00 1.8808574E+00
 5.9323625E+00 9.7673916E-01 1.8831448E+00
 6.0061324E+00 9.5263680E-01 1.8852519E+00
 6.0797876E+00 9.2764143E-01 1.8869006E+00
 6.1531799E+00 9.0175912E-01 1.8877850E+00
 6.2260771E+00 8.7501676E-01 1.8875811E+00
 6.2981945E+00 8.4744538E-01 1.8859584E+00
 6.3692300E+00 8.1906645E-01 1.8825901E+00
 6.4389048E+00 7.8988396E-01 1.8771584E+00
 6.5070321E+00 7.5990101E-01 1.8693597E+00
 6.5736305E+00 7.2917796E-01 1.8589109E+00
 5.7846551E+00 9.7739611E-01 1.8786281E+00
 5.8583176E+00 9.5428650E-01 1.8796629E+00
 5.9317142E+00 9.3039950E-01 1.8806782E+00
 6.0048457E+00 9.0565275E-01 1.8814235E+00
 6.0776646E+00 8.8005572E-01 1.8816234E+00
 6.1500381E+00 8.5364044E-01 1.8809817E+00
 6.2217560E+00 8.2643454E-01 1.8791855E+00
 6.2925568E+00 7.9844884E-01 1.8759119E+00
 6.3621586E+00 7.6966942E-01 1.8708336E+00
 6.4303099E+00 7.4006862E-01 1.8636256E+00
 6.4968954E+00 7.0965583E-01 1.8539797E+00
 5.7844348E+00 9.3235688E-01 1.8763060E+00
 5.8576710E+00 9.0892012E-01 1.8761061E+00
 5.9304378E+00 8.8459834E-01 1.8758012E+00
 6.0027471E+00 8.5940799E-01 1.8751408E+00
 6.0745667E+00 8.3341065E-01 1.8738592E+00
 6.1457821E+00 8.0665014E-01 1.8716703E+00
 6.2161955E+00 7.7913620E-01 1.8682665E+00
 6.2855403E+00 7.5084120E-01 1.8633203E+00
 6.3535116E+00 7.2171073E-01 1.8564914E+00
 6.4198666E+00 6.9171022E-01 1.8474462E+00
 5.7840010E+00 8.8781763E-01 1.8717123E+00
 5.8566154E+00 8.6423386E-01 1.8702651E+00
 5.9285740E+00 8.3966731E-01 1.8686216E+00
 5.9999039E+00 8.1422414E-01 1.8665415E+00
 6.0705880E+00 7.8800345E-01 1.8637716E+00
 6.1405141E+00 7.6104163E-01 1.8600304E+00
 6.2094534E+00 7.3331063E-01 1.8550020E+00
 6.2770672E+00 7.0473652E-01 1.8483392E+00
 6.3429962E+00 6.7524806E-01 1.8396860E+00
 5.7833673E+00 8.4409031E-01 1.8649449E+00
 5.8551851E+00 8.2053245E-01 1.8622643E+00
 5.9261826E+00 7.9589731E-01 1.8592906E+00
 5.9963996E+00 7.7036481E-01 1.8557996E+00
 6.0658110E+00 7.4405065E-01 1.8515465E+00
 6.1342484E+00 7.1696280E-01 1.8462406E+00
 6.2013631E+00 6.8902595E-01 1.8395399E+00
 6.2666991E+00 6.6014298E-01 1.8310728E+00
 5.7825547E+00 8.0145644E-01 1.8561427E+00
 5.8534276E+00 7.7807980E-01 1.8522652E+00
 5.9233344E+00 7.5352193E-01 1.8479886E+00
 5.9922973E+00 7.2801366E-01 1.8431035E+00
 6.0602099E+00 7.0166362E-01 1.8373597E+00
 6.1267341E+00 6.7444036E-01 1.8304373E+00
 6.1913451E+00 6.4624564E-01 1.8219619E+00
 5.7815914E+00 7.6015750E-01 1.8454770E+00
 5.8513967E+00 7.3708660E-01 1.8404542E+00
 5.9200745E+00 7.1269894E-01 1.8349057E+00
 5.9875339E+00 6.8724825E-01 1.8286232E+00
 6.0534518E+00 6.6082775E-01 1.8213319E+00
 6.1172558E+00 6.3339403E-01 1.8126762E+00
 5.7805087E+00 7.2038901E-01 1.8331416E+00
 5.8491228E+00 6.9769376E-01 1.8270241E+00
 5.9163211E+00 6.7348423E-01 1.8202093E+00
 5.9817252E+00 6.4802289E-01 1.8124676E+00
 6.0447035E+00 6.2142427E-01 1.8034944E+00
 5.7793229E+00 6.8229622E-01 1.8193410E+00
 5.8465320E+00 6.5995352E-01 1.8121497E+00
 5.9116475E+00 6.3579609E-01 1.8039951E+00
 5.9739147E+00 6.1016552E-01 1.7946362E+00
 5.7779787E+00 6.4594948E-01 1.8042683E+00
 5.8432736E+00 6.2380233E-01 1.7959466E+00
 5.9050908E+00 5.9944163E-01 1.7862571E+00
 5.7762808E+00 6.1131858E-01 1.7880795E+00
 5.8382644E+00 5.8895771E-01 1.7783713E+00
 5.7737804E+00 5.7836437E-01 1.7709150E+00
 5.6753129E+00 1.4830887E+00 1.7326027E+00
 5.6364646E+00 1.5067780E+00 1.7164390E+00
 5.5960055E+00 1.5311463E+00 1.6989462E+00
 5.5541061E+00 1.5560884E+00 1.6800715E+00
 5.5108778E+00 1.5815179E+00 1.6597508E+00
 5.4665804E+00 1.6073276E+00 1.6379101E+00
 5.4214643E+00 1.6334003E+00 1.6144594E+00
 5.3758027E+00 1.6595865E+00 1.5893101E+00
 5.3299001E+00 1.6857016E+00 1.5623823E+00
 5.2840865E+00 1.7115240E+00 1.5336143E+00
 5.2387077E+00 1.7367992E+00 1.5029738E+00
 5.1941120E+00 1.7612483E+00 1.4704668E+00
 5.1506364E+00 1.7845804E+00 1.4361463E+00
 5.1085938E+00 1.8065070E+00 1.4001168E+00
 5.0682630E+00 1.8267587E+00 1.3625358E+00
 5.0298807E+00 1.8450991E+00 1.3236095E+00
 4.9936375E+00 1.8613379E+00 1.2835849E+00
 4.9596802E+00 1.8753380E+00 1.2427386E+00
 4.9281183E+00 1.8870189E+00 1.2013661E+00
 4.8990424E+00 1.8963558E+00 1.1597718E+00
 4.8725416E+00 1.9033733E+00 1.1182819E+00
 4.8486589E+00 1.9081433E+00 1.0772103E+00
 4.8274346E+00 1.9107768E+00 1.0371033E+00
 4.1267313E+00 1.0856311E+00 1.7409206E+00
 4.1180742E+00 1.1414349E+00 1.7269616E+00
 4.1124144E+00 1.1983947E+00 1.7099072E+00
 4.1106427E+00 1.2565194E+00 1.6899116E+00
 4.1132973E+00 1.3154599E+00 1.6669758E+00
 4.1207571E+00 1.3746721E+00 1.6411031E+00
 4.1332843E+00 1.4334982E+00 1.6123471E+00
 4.1510387E+00 1.4912188E+00 1.5808419E+00
 4.1740656E+00 1.5470835E+00 1.5468144E+00
 4.2022804E+00 1.6003470E+00 1.5105840E+00
 4.2354596E+00 1.6503100E+00 1.4725526E+00
 4.2732432E+00 1.6963599E+00 1.4331877E+00
 4.3151495E+00 1.7380070E+00 1.3930004E+00
 4.3606003E+00 1.7749115E+00 1.3525186E+00
 4.4089540E+00 1.8068991E+00 1.3122603E+00
 4.4595437E+00 1.8339628E+00 1.2727076E+00
 4.5117149E+00 1.8562506E+00 1.2342860E+00
 4.5648575E+00 1.8740430E+00 1.1973485E+00
 4.6184201E+00 1.8877212E+00 1.1621633E+00
 4.6719200E+00 1.8977367E+00 1.1288837E+00
 4.7249370E+00 1.9045822E+00 1.0974702E+00
 4.7770159E+00 1.9087628E+00 1.0675439E+00
 4.1765887E+00 1.1195829E+00 1.7651260E+00
 4.1710710E+00 1.1773590E+00 1.7508585E+00
 4.1683852E+00 1.2353044E+00 1.7332997E+00
 4.1695674E+00 1.2937413E+00 1.7126741E+00
 4.1752076E+00 1.3524609E+00 1.6890263E+00
 4.1856484E+00 1.4109723E+00 1.6623734E+00
 4.2010824E+00 1.4686371E+00 1.6327846E+00
 4.2215868E+00 1.5247430E+00 1.6004181E+00
 4.2471223E+00 1.5785573E+00 1.5655331E+00
 4.2775232E+00 1.6293718E+00 1.5284841E+00
 4.3124939E+00 1.6765478E+00 1.4897077E+00
 4.3516186E+00 1.7195545E+00 1.4497005E+00
 4.3943807E+00 1.7580013E+00 1.4089942E+00
 4.4401932E+00 1.7916566E+00 1.3681268E+00
 4.4884351E+00 1.8204558E+00 1.3276149E+00
 4.5384899E+00 1.8444933E+00 1.2879275E+00
 4.5897816E+00 1.8640036E+00 1.2494635E+00
 4.6417999E+00 1.8793338E+00 1.2125222E+00
 4.6941072E+00 1.8909154E+00 1.1772464E+00
 4.7463081E+00 1.8992362E+00 1.1435154E+00
 4.7980320E+00 1.9048134E+00 1.1106759E+00
 4.2309705E+00 1.1521877E+00 1.7868511E+00
 4.2283810E+00 1.2108383E+00 1.7720253E+00
 4.2286064E+00 1.2692385E+00 1.7538210E+00
 4.2326884E+00 1.3276494E+00 1.7324467E+00
 4.2412205E+00 1.3858839E+00 1.7079614E+00
 4.2544988E+00 1.4434616E+00 1.6804002E+00
 4.2726472E+00 1.4997497E+00 1.6498582E+00
 4.2956663E+00 1.5540491E+00 1.6165285E+00
 4.3234400E+00 1.6056563E+00 1.5807098E+00
 4.3557312E+00 1.6539136E+00 1.5427970E+00
 4.3921861E+00 1.6982545E+00 1.5032627E+00
 4.4323486E+00 1.7382392E+00 1.4626321E+00
 4.4756857E+00 1.7735803E+00 1.4214540E+00
 4.5216219E+00 1.8041547E+00 1.3802708E+00
 4.5695774E+00 1.8300008E+00 1.3395887E+00
 4.6190062E+00 1.8513045E+00 1.2998485E+00
 4.6694239E+00 1.8683748E+00 1.2613878E+00
 4.7204100E+00 1.8816188E+00 1.2243778E+00
 4.7715748E+00 1.8915193E+00 1.1886860E+00
 4.8224896E+00 1.8986019E+00 1.1537134E+00
 4.2896210E+00 1.1837223E+00 1.8056055E+00
 4.2898119E+00 1.2425696E+00 1.7900112E+00
 4.2928598E+00 1.3009051E+00 1.7710010E+00
 4.2997686E+00 1.3588853E+00 1.7487498E+00
 4.3110832E+00 1.4162771E+00 1.7233176E+00
 4.3270375E+00 1.4725894E+00 1.6947612E+00
 4.3476841E+00 1.5271952E+00 1.6632108E+00
 4.3729509E+00 1.5794193E+00 1.6289011E+00
 4.4026533E+00 1.6286024E+00 1.5921743E+00
 4.4364960E+00 1.6741527E+00 1.5534656E+00
 4.4740831E+00 1.7155891E+00 1.5132806E+00
 4.5149382E+00 1.7525708E+00 1.4721662E+00
 4.5585346E+00 1.7849165E+00 1.4306792E+00
 4.6043321E+00 1.8126060E+00 1.3893535E+00
 4.6518147E+00 1.8357715E+00 1.3486670E+00
 4.7005199E+00 1.8546768E+00 1.3090005E+00
 4.7500402E+00 1.8696972E+00 1.2705673E+00
 4.7999763E+00 1.8812994E+00 1.2332939E+00
 4.8498512E+00 1.8900137E+00 1.1966753E+00
 4.3522771E+00 1.2140940E+00 1.8210237E+00
 4.3551180E+00 1.2726506E+00 1.8044799E+00
 4.3608957E+00 1.3304733E+00 1.7845234E+00