# TIME = 2.400000
variables = x, y, z
zone N=5762 E=11520 F=FEPOINT ET=TRIANGLE
 5.3064768E+00 1.4612958E+00 1.7460823E+00
 5.3064768E+00 1.4612958E+00 2.5391773E-01
 5.3064768E+00 5.3870435E-01 1.7460822E+00
 5.3064769E+00 5.3870442E-01 2.5391801E-01
 3.6921037E+00 1.0000000E+00 1.7275296E+00
 6.9172595E+00 1.0000000E+00 1.7213128E+00
 3.6921041E+00 1.0000000E+00 2.7247104E-01
 6.9172598E+00 1.0000000E+00 2.7868674E-01
 4.4106059E+00 1.9068166E+00 1.0000000E+00
 4.4106059E+00 9.3183365E-02 1.0000000E+00
 6.2009830E+00 1.8986036E+00 1.0000000E+00
 6.2009830E+00 1.0139637E-01 1.0000000E+00
 5.2507805E+00 1.4527880E+00 1.7508675E+00
 5.1893043E+00 1.4435416E+00 1.7565840E+00
 5.1248138E+00 1.4340713E+00 1.7630522E+00
 5.0576324E+00 1.4243517E+00 1.7703654E+00
 4.9880158E+00 1.4143563E+00 1.7785404E+00
 4.9162248E+00 1.4039865E+00 1.7875575E+00
 4.8425038E+00 1.3931003E+00 1.7973229E+00
 4.7671564E+00 1.3815150E+00 1.8076488E+00
 4.6905255E+00 1.3690110E+00 1.8182438E+00
 4.6129887E+00 1.3553433E+00 1.8287113E+00
 4.5349495E+00 1.3402585E+00 1.8385613E+00
 4.4568357E+00 1.3235176E+00 1.8472343E+00
 4.3791012E+00 1.3049214E+00 1.8541380E+00
 4.3022302E+00 1.2843349E+00 1.8586923E+00
 4.2267372E+00 1.2617075E+00 1.8603792E+00
 4.1531617E+00 1.2370845E+00 1.8587867E+00
 4.0820503E+00 1.2106075E+00 1.8536439E+00
 4.0139310E+00 1.1825038E+00 1.8448374E+00
 3.9492805E+00 1.1530655E+00 1.8324104E+00
 3.8884991E+00 1.1226263E+00 1.8165456E+00
 3.8319254E+00 1.0915511E+00 1.7975535E+00
 3.7798589E+00 1.0602364E+00 1.7758559E+00
 3.7326144E+00 1.0291602E+00 1.7520094E+00
 5.2446351E+00 5.7869544E-01 1.7689438E+00
 5.1813552E+00 5.8952478E-01 1.7750707E+00
 5.1154249E+00 6.0029512E-01 1.7817874E+00
 5.0471811E+00 6.1128794E-01 1.7892843E+00
 4.9766856E+00 6.2267535E-01 1.7976397E+00
 4.9041460E+00 6.3456146E-01 1.8068077E+00
 4.8298315E+00 6.4709608E-01 1.8166644E+00
 4.7540672E+00 6.6046186E-01 1.8269850E+00
 4.6772228E+00 6.7487101E-01 1.8374386E+00
 4.5996960E+00 6.9054940E-01 1.8475915E+00
 4.5219074E+00 7.0771704E-01 1.8569231E+00
 4.4442968E+00 7.2656499E-01 1.8648555E+00
 4.3673264E+00 7.4723212E-01 1.8707945E+00
 4.2914825E+00 7.6978474E-01 1.8741769E+00
 4.2172749E+00 7.9420300E-01 1.8745197E+00
 4.1452277E+00 8.2037694E-01 1.8714610E+00
 4.0758608E+00 8.4811343E-01 1.8647886E+00
 4.0096610E+00 8.7715566E-01 1.8544498E+00
 3.9470536E+00 9.0720882E-01 1.8405429E+00
 3.8883612E+00 9.3796741E-01 1.8232862E+00
 3.8336980E+00 9.6909023E-01 1.8029359E+00
 3.7826651E+00 1.0000000E+00 1.7795798E+00
 5.2427633E+00 6.1112842E-01 1.7858269E+00
 5.1773848E+00 6.2357649E-01 1.7922034E+00
 5.1100879E+00 6.3568771E-01 1.7990078E+00
 5.0405791E+00 6.4809971E-01 1.8065937E+00
 4.9689703E+00 6.6098936E-01 1.8150088E+00
 4.8954310E+00 6.7449794E-01 1.8242008E+00
 4.8202570E+00 6.8877663E-01 1.8340126E+00
 4.7438029E+00 7.0400931E-01 1.8441836E+00
 4.6664667E+00 7.2039716E-01 1.8543428E+00
 4.5886717E+00 7.3814295E-01 1.8640176E+00
 4.5108593E+00 7.5742932E-01 1.8726563E+00
 4.4334863E+00 7.7839656E-01 1.8796628E+00
 4.3570266E+00 8.0112190E-01 1.8844423E+00
 4.2819723E+00 8.2560428E-01 1.8864515E+00
 4.2088299E+00 8.5175739E-01 1.8852457E+00
 4.1381087E+00 8.7941361E-01 1.8805167E+00
 4.0702979E+00 9.0834074E-01 1.8721139E+00
 4.0058326E+00 9.3826981E-01 1.8600432E+00
 3.9450284E+00 9.6892650E-01 1.8444353E+00
 3.8879231E+00 1.0000000E+00 1.8254485E+00
 3.8336980E+00 1.0309098E+00 1.8029359E+00
 5.2413782E+00 6.4531607E-01 1.8018399E+00
 5.1746340E+00 6.5909624E-01 1.8081569E+00
 5.1060110E+00 6.7262793E-01 1.8149382E+00
 5.0353281E+00 6.8651488E-01 1.8224735E+00
 4.9626269E+00 7.0098764E-01 1.8308115E+00
 4.8881233E+00 7.1618618E-01 1.8398696E+00
 4.8121343E+00 7.3226865E-01 1.8494624E+00
 4.7350480E+00 7.4941089E-01 1.8592916E+00
 4.6572912E+00 7.6779717E-01 1.8689476E+00
 4.5793123E+00 7.8759968E-01 1.8779235E+00
 4.5015726E+00 8.0895761E-01 1.8856428E+00
 4.4245439E+00 8.3195615E-01 1.8915005E+00
 4.3487086E+00 8.5660980E-01 1.8949118E+00
 4.2745593E+00 8.8285286E-01 1.8953631E+00
 4.2025926E+00 9.1054019E-01 1.8924574E+00
 4.1332917E+00 9.3946117E-01 1.8859452E+00
 4.0670961E+00 9.6936631E-01 1.8757347E+00
 4.0043351E+00 1.0000000E+00 1.8618703E+00
 3.9450284E+00 1.0310735E+00 1.8444353E+00
 3.8883612E+00 1.0620326E+00 1.8232862E+00
 5.2401383E+00 6.8136552E-01 1.8168429E+00
 5.1721715E+00 6.9645903E-01 1.8229534E+00
 5.1023951E+00 7.1140525E-01 1.8295557E+00
 5.0306498E+00 7.2680912E-01 1.8368937E+00
 4.9570049E+00 7.4289378E-01 1.8449853E+00
 4.8816973E+00 7.5980706E-01 1.8537240E+00
 4.8050792E+00 7.7770101E-01 1.8628913E+00
 4.7275682E+00 7.9673923E-01 1.8721544E+00
 4.6496177E+00 8.1708045E-01 1.8810702E+00
 4.5716974E+00 8.3885942E-01 1.8891052E+00
 4.4942839E+00 8.6216585E-01 1.8956698E+00
 4.4178575E+00 8.8702684E-01 1.9001627E+00
 4.3429015E+00 9.1339501E-01 1.9020226E+00
 4.2698993E+00 9.4114650E-01 1.9007777E+00
 4.1993232E+00 9.7009166E-01 1.8960856E+00
 4.1316100E+00 1.0000000E+00 1.8877548E+00
 4.0670961E+00 1.0306337E+00 1.8757347E+00
 4.0058326E+00 1.0617302E+00 1.8600432E+00
 3.9470536E+00 1.0927912E+00 1.8405429E+00
 5.2389733E+00 7.1929553E-01 1.8306490E+00
 5.1699044E+00 7.3568311E-01 1.8364106E+00
 5.0991200E+00 7.5205352E-01 1.8426840E+00
 5.0264820E+00 7.6897960E-01 1.8496580E+00
 4.9520822E+00 7.8667767E-01 1.8573203E+00
 4.8761878E+00 8.0529065E-01 1.8655365E+00
 4.7991807E+00 8.2496143E-01 1.8740581E+00
 4.7215061E+00 8.4583277E-01 1.8825213E+00
 4.6436394E+00 8.6803163E-01 1.8904571E+00
 4.5660656E+00 8.9164878E-01 1.8973166E+00
 4.4892696E+00 9.1672086E-01 1.9025098E+00
 4.4137321E+00 9.4321669E-01 1.9054534E+00
 4.3399272E+00 9.7103260E-01 1.9056224E+00
 4.2683152E+00 1.0000000E+00 1.9025954E+00
 4.1993232E+00 1.0299084E+00 1.8960856E+00
 4.1332917E+00 1.0605389E+00 1.8859452E+00
 4.0702979E+00 1.0916593E+00 1.8721139E+00
 4.0096610E+00 1.1228444E+00 1.8544498E+00
 5.2379169E+00 7.5902088E-01 1.8430386E+00
 5.1678824E+00 7.7667824E-01 1.8483080E+00
 5.0962561E+00 7.9445720E-01 1.8540937E+00
 5.0229157E+00 8.1288276E-01 1.8605277E+00
 4.9479776E+00 8.3215691E-01 1.8675673E+00
 4.8717368E+00 8.5241349E-01 1.8750514E+00
 4.7946024E+00 8.7377901E-01 1.8827043E+00
 4.7170420E+00 8.9636993E-01 1.8901382E+00
 4.6395467E+00 9.2027510E-01 1.8968677E+00
 4.5626100E+00 9.4553785E-01 1.9023405E+00
 4.4867170E+00 9.7214101E-01 1.9059799E+00
 4.4123388E+00 1.0000000E+00 1.9072336E+00
 4.3399272E+00 1.0289675E+00 1.9056225E+00
 4.2698993E+00 1.0588536E+00 1.9007778E+00
 4.2025926E+00 1.0894599E+00 1.8924575E+00
 4.1381087E+00 1.1205864E+00 1.8805168E+00
 4.0758608E+00 1.1518866E+00 1.8647887E+00
 5.2369920E+00 8.0037915E-01 1.8537846E+00
 5.1661548E+00 8.1926170E-01 1.8584168E+00
 5.0938725E+00 8.3840427E-01 1.8635516E+00
 5.0200413E+00 8.5827176E-01 1.8692662E+00
 4.9447994E+00 8.7904591E-01 1.8754889E+00
 4.8684673E+00 9.0084585E-01 1.8820344E+00
 4.7914761E+00 9.2377673E-01 1.8886055E+00
 4.7143100E+00 9.4792311E-01 1.8947980E+00
 4.6374686E+00 9.7333258E-01 1.9001211E+00
 4.5614456E+00 1.0000000E+00 1.9040320E+00
 4.4867170E+00 1.0278591E+00 1.9059799E+00
 4.4137321E+00 1.0567834E+00 1.9054535E+00
 4.3429015E+00 1.0866051E+00 1.9020227E+00
 4.2745593E+00 1.1171472E+00 1.8953632E+00
 4.2088299E+00 1.1482427E+00 1.8852458E+00
 4.1452277E+00 1.1796231E+00 1.8714611E+00
 5.2362248E+00 8.4315947E-01 1.8626750E+00
 5.1647652E+00 8.6319461E-01 1.8665268E+00
 5.0920307E+00 8.8362147E-01 1.8708488E+00
 5.0179337E+00 9.0483518E-01 1.8756684E+00
 4.9426329E+00 9.2699120E-01 1.8808879E+00
 4.8664693E+00 9.5018946E-01 1.8863022E+00
 4.7898908E+00 9.7450914E-01 1.8915987E+00
 4.7133904E+00 1.0000000E+00 1.8963666E+00
 4.6374686E+00 1.0266675E+00 1.9001211E+00
 4.5626100E+00 1.0544622E+00 1.9023406E+00
 4.4892696E+00 1.0832792E+00 1.9025099E+00
 4.4178575E+00 1.1129732E+00 1.9001628E+00
 4.3487086E+00 1.1433903E+00 1.8949119E+00
 4.2819723E+00 1.1743958E+00 1.8864516E+00
 4.2172749E+00 1.2057971E+00 1.8745198E+00
 5.2356322E+00 8.8710215E-01 1.8695226E+00
 5.1637472E+00 9.0818613E-01 1.8724584E+00
 5.0907762E+00 9.2978376E-01 1.8758147E+00
 5.0166469E+00 9.5221022E-01 1.8795763E+00
 4.9415350E+00 9.7559001E-01 1.8836240E+00
 4.8657973E+00 1.0000000E+00 1.8877381E+00
 4.7898909E+00 1.0254909E+00 1.8915987E+00
 4.7143100E+00 1.0520770E+00 1.8947980E+00
 4.6395467E+00 1.0797250E+00 1.8968678E+00
 4.5660656E+00 1.1083513E+00 1.8973167E+00
 4.4942839E+00 1.1378342E+00 1.8956700E+00
 4.4245439E+00 1.1680439E+00 1.8915007E+00
 4.3570266E+00 1.1988782E+00 1.8844425E+00
 4.2914825E+00 1.2302154E+00 1.8741771E+00
 5.2352289E+00 9.3190711E-01 1.8741766E+00
 5.1631260E+00 9.5390712E-01 1.8760747E+00
 5.0901409E+00 9.7652894E-01 1.8783288E+00
 5.0162142E+00 1.0000000E+00 1.8808903E+00
 4.9415350E+00 1.0244101E+00 1.8836240E+00
 4.8664694E+00 1.0498106E+00 1.8863022E+00
 4.7914761E+00 1.0762234E+00 1.8886056E+00
 4.7170420E+00 1.1036301E+00 1.8901384E+00
 4.6436394E+00 1.1319685E+00 1.8904572E+00
 4.5716974E+00 1.1611407E+00 1.8891054E+00
 4.5015727E+00 1.1910425E+00 1.8856430E+00
 4.4334863E+00 1.2216035E+00 1.8796630E+00
 4.3673264E+00 1.2527680E+00 1.8707947E+00
 5.2350247E+00 9.7724268E-01 1.8765310E+00
 5.1629172E+00 1.0000000E+00 1.8772898E+00
 5.0901409E+00 1.0234711E+00 1.8783288E+00
 5.0166469E+00 1.0477898E+00 1.8795764E+00
 4.9426329E+00 1.0730089E+00 1.8808880E+00
 4.8684673E+00 1.0991542E+00 1.8820345E+00
 4.7946024E+00 1.1262211E+00 1.8827045E+00
 4.7215061E+00 1.1541673E+00 1.8825215E+00
 4.6496177E+00 1.1829197E+00 1.8810704E+00
 4.5793123E+00 1.2124004E+00 1.8779237E+00
 4.5108593E+00 1.2425708E+00 1.8726565E+00
 4.4442969E+00 1.2734351E+00 1.8648558E+00
 5.2350247E+00 1.0227574E+00 1.8765310E+00
 5.1631260E+00 1.0460929E+00 1.8760747E+00
 5.0907762E+00 1.0702163E+00 1.8758147E+00
 5.0179337E+00 1.0951649E+00 1.8756685E+00
 4.9447994E+00 1.1209542E+00 1.8754890E+00
 4.8717368E+00 1.1475866E+00 1.8750515E+00
 4.7991807E+00 1.1750387E+00 1.8740583E+00
 4.7275682E+00 1.2032609E+00 1.8721546E+00
 4.6572913E+00 1.2322030E+00 1.8689478E+00
 4.5886717E+00 1.2618572E+00 1.8640179E+00
 4.5219075E+00 1.2922831E+00 1.8569234E+00
 5.2352289E+00 1.0680929E+00 1.8741767E+00
 5.1637472E+00 1.0918139E+00 1.8724584E+00
 5.0920307E+00 1.1163786E+00 1.8708489E+00
 5.0200413E+00 1.1417283E+00 1.8692663E+00
 4.9479776E+00 1.1678432E+00 1.8675674E+00
 4.8761878E+00 1.1947095E+00 1.8655367E+00
 4.8050793E+00 1.2222991E+00 1.8628915E+00
 4.7350481E+00 1.2505892E+00 1.8592918E+00
 4.6664667E+00 1.2796030E+00 1.8543430E+00
 4.5996961E+00 1.3094508E+00 1.8475918E+00
 5.2356321E+00 1.1128979E+00 1.8695227E+00
 5.1647652E+00 1.1368055E+00 1.8665269E+00
 5.0938724E+00 1.1615958E+00 1.8635517E+00
 5.0229156E+00 1.1871173E+00 1.8605278E+00
 4.9520821E+00 1.2133224E+00 1.8573205E+00
 4.8816973E+00 1.2401931E+00 1.8537242E+00
 4.8121343E+00 1.2677315E+00 1.8494627E+00
 4.7438030E+00 1.2959908E+00 1.8441839E+00
 4.6772228E+00 1.3251292E+00 1.8374389E+00
 5.2362248E+00 1.1568406E+00 1.8626751E+00
 5.1661547E+00 1.1807384E+00 1.8584169E+00
 5.0962561E+00 1.2055429E+00 1.8540938E+00
 5.0264820E+00 1.2310205E+00 1.8496581E+00
 4.9570049E+00 1.2571063E+00 1.8449855E+00
 4.8881233E+00 1.2838140E+00 1.8398699E+00
 4.8202570E+00 1.3112235E+00 1.8340129E+00
 4.7540673E+00 1.3395383E+00 1.8269853E+00
 5.2369920E+00 1.1996209E+00 1.8537847E+00
 5.1678824E+00 1.2233219E+00 1.8483081E+00
 5.0991200E+00 1.2479466E+00 1.8426842E+00
 5.0306498E+00 1.2731910E+00 1.8368939E+00
 4.9626269E+00 1.2990125E+00 1.8308117E+00
 4.8954310E+00 1.3255022E+00 1.8242010E+00
 4.8298315E+00 1.3529041E+00 1.8166647E+00
 5.2379169E+00 1.2409792E+00 1.8430387E+00
 5.1699044E+00 1.2643170E+00 1.8364107E+00
 5.1023951E+00 1.2885949E+00 1.8295558E+00
 5.0353280E+00 1.3134853E+00 1.8224737E+00
 4.9689703E+00 1.3390108E+00 1.8150091E+00
 4.9041460E+00 1.3654387E+00 1.8068080E+00
 5.2389733E+00 1.2807046E+00 1.8306491E+00
 5.1721715E+00 1.3035411E+00 1.8229536E+00
 5.1060110E+00 1.3273722E+00 1.8149384E+00
 5.0405790E+00 1.3519004E+00 1.8065939E+00
 4.9766856E+00 1.3773248E+00 1.7976399E+00
 5.2401383E+00 1.3186346E+00 1.8168430E+00
 5.1746340E+00 1.3409039E+00 1.8081571E+00
 5.1100879E+00 1.3643124E+00 1.7990080E+00
 5.0471810E+00 1.3887122E+00 1.7892845E+00
 5.2413781E+00 1.3546840E+00 1.8018400E+00
 5.1773847E+00 1.3764236E+00 1.7922036E+00
 5.1154248E+00 1.3997050E+00 1.7817876E+00
 5.2427632E+00 1.3888717E+00 1.7858270E+00
 5.1813551E+00 1.4104754E+00 1.7750709E+00
 5.2446351E+00 1.4213047E+00 1.7689440E+00
 5.3065382E+00 1.4341194E+00 1.7621851E+00
 5.3065919E+00 1.4031179E+00 1.7790353E+00
 5.3066134E+00 1.3702592E+00 1.7951951E+00
 5.3066300E+00 1.3353504E+00 1.8105441E+00
 5.3066447E+00 1.2984883E+00 1.8248396E+00
 5.3066591E+00 1.2597856E+00 1.8378433E+00
 5.3066720E+00 1.2193878E+00 1.8493245E+00
 5.3066834E+00 1.1774771E+00 1.8590675E+00
 5.3066925E+00 1.1342896E+00 1.8668744E+00
 5.3066993E+00 1.0901017E+00 1.8725790E+00
 5.3067034E+00 1.0452261E+00 1.8760547E+00
 5.3067048E+00 1.0000000E+00 1.8772222E+00
 5.3067034E+00 9.5477394E-01 1.8760546E+00
 5.3066993E+00 9.0989833E-01 1.8725790E+00
 5.3066925E+00 8.6571047E-01 1.8668744E+00
 5.3066834E+00 8.2252298E-01 1.8590674E+00
 5.3066720E+00 7.8061228E-01 1.8493244E+00
 5.3066591E+00 7.4021449E-01 1.8378432E+00
 5.3066447E+00 7.0151181E-01 1.8248395E+00
 5.3066300E+00 6.6464972E-01 1.8105440E+00
 5.3066134E+00 6.2974095E-01 1.7951949E+00
 5.3065919E+00 5.9688219E-01 1.7790351E+00
 5.3065382E+00 5.6588076E-01 1.7621850E+00
 5.3622027E+00 5.4657295E-01 1.7519224E+00
 5.4236518E+00 5.5518835E-01 1.7587563E+00
 5.4880477E+00 5.6411838E-01 1.7662519E+00
 5.5550639E+00 5.7344750E-01 1.7743863E+00
 5.6244672E+00 5.8325690E-01 1.7830571E+00
 5.6960165E+00 5.9368391E-01 1.7921306E+00
 5.7694964E+00 6.0489054E-01 1.8014227E+00
 5.8446281E+00 6.1705230E-01 1.8106931E+00
 5.9210840E+00 6.3035202E-01 1.8196516E+00
 5.9984832E+00 6.4496812E-01 1.8279652E+00
 6.0763980E+00 6.6106419E-01 1.8352709E+00
 6.1543598E+00 6.7877697E-01 1.8411910E+00
 6.2318674E+00 6.9820526E-01 1.8453499E+00
 6.3083991E+00 7.1940028E-01 1.8473936E+00
 6.3834273E+00 7.4235807E-01 1.8470090E+00
 6.4564349E+00 7.6701546E-01 1.8439427E+00
 6.5269323E+00 7.9325018E-01 1.8380176E+00
 6.5944739E+00 8.2088580E-01 1.8291432E+00
 6.6586725E+00 8.4970160E-01 1.8173202E+00
 6.7192079E+00 8.7944555E-01 1.8026373E+00
 6.7757963E+00 9.0983181E-01 1.7852774E+00
 6.8281619E+00 9.4053841E-01 1.7655169E+00
 6.8759702E+00 9.7114539E-01 1.7437677E+00
 5.3684524E+00 1.4219839E+00 1.7701369E+00
 5.4316688E+00 1.4117523E+00 1.7774244E+00
 5.4974712E+00 1.4014666E+00 1.7851890E+00
 5.5655234E+00 1.3907966E+00 1.7934953E+00
 5.6357793E+00 1.3795305E+00 1.8022994E+00
 5.7080579E+00 1.3675338E+00 1.8114430E+00
 5.7821196E+00 1.3546491E+00 1.8207161E+00
 5.8576658E+00 1.3407118E+00 1.8298516E+00
 5.9343399E+00 1.3255563E+00 1.8385348E+00
 6.0117369E+00 1.3090280E+00 1.8464126E+00
 6.0894078E+00 1.2909950E+00 1.8531085E+00
 6.1668681E+00 1.2713595E+00 1.8582391E+00
 6.2436079E+00 1.2500672E+00 1.8614329E+00
 6.3191055E+00 1.2271150E+00 1.8623500E+00
 6.3928425E+00 1.2025557E+00 1.8607020E+00
 6.4643210E+00 1.1764980E+00 1.8562690E+00
 6.5330802E+00 1.1491021E+00 1.8489141E+00
 6.5987128E+00 1.1205681E+00 1.8385903E+00
 6.6608776E+00 1.0911191E+00 1.8253410E+00
 6.7193236E+00 1.0609870E+00 1.8092842E+00
 6.7739868E+00 1.0304403E+00 1.7905530E+00
 6.8252940E+00 1.0000000E+00 1.7691210E+00
 5.3704025E+00 1.3895362E+00 1.7870783E+00
 5.4356992E+00 1.3776537E+00 1.7946736E+00
 5.5028465E+00 1.3659773E+00 1.8025540E+00
 5.5721405E+00 1.3538352E+00 1.8109512E+00
 5.6434883E+00 1.3410173E+00 1.8197851E+00
 5.7167486E+00 1.3273630E+00 1.8288895E+00
 5.7916584E+00 1.3127237E+00 1.8380246E+00
 5.8678902E+00 1.2969440E+00 1.8468970E+00
 5.9450577E+00 1.2798771E+00 1.8551657E+00
 6.0227268E+00 1.2613944E+00 1.8624563E+00
 6.1004235E+00 1.2413980E+00 1.8683779E+00
 6.1776441E+00 1.2198304E+00 1.8725419E+00
 6.2538666E+00 1.1966830E+00 1.8745821E+00
 6.3285663E+00 1.1720008E+00 1.8741755E+00
 6.4012324E+00 1.1458832E+00 1.8710614E+00
 6.4713860E+00 1.1184802E+00 1.8650571E+00
 6.5385979E+00 1.0899802E+00 1.8560690E+00
 6.6025108E+00 1.0605904E+00 1.8440922E+00
 6.6628865E+00 1.0305168E+00 1.8291913E+00
 6.7197548E+00 1.0000000E+00 1.8114240E+00
 6.7739868E+00 9.6955978E-01 1.7905530E+00
 5.3718289E+00 1.3553069E+00 1.8031479E+00
 5.4384807E+00 1.3420456E+00 1.8107300E+00
 5.5069397E+00 1.3288973E+00 1.8186163E+00
 5.5773920E+00 1.3152300E+00 1.8269655E+00
 5.6498166E+00 1.3007883E+00 1.8356945E+00
 5.7240290E+00 1.2854223E+00 1.8446057E+00
 5.7997467E+00 1.2689861E+00 1.8534353E+00
 5.8766092E+00 1.2513411E+00 1.8618622E+00
 5.9541994E+00 1.2323626E+00 1.8695220E+00
 6.0320552E+00 1.2119528E+00 1.8760227E+00
 6.1096796E+00 1.1900512E+00 1.8809641E+00
 6.1865525E+00 1.1666436E+00 1.8839586E+00
 6.2621441E+00 1.1417676E+00 1.8846527E+00
 6.3359325E+00 1.1155143E+00 1.8827477E+00
 6.4074213E+00 1.0880247E+00 1.8780172E+00
 6.4761601E+00 1.0594781E+00 1.8703205E+00
 6.5417699E+00 1.0300721E+00 1.8596052E+00
 6.6039945E+00 1.0000000E+00 1.8458912E+00
 6.6628865E+00 9.6948325E-01 1.8291913E+00
 6.7193236E+00 9.3901302E-01 1.8092842E+00
 5.3730982E+00 1.3192061E+00 1.8182047E+00
 5.4409651E+00 1.3045759E+00 1.8256239E+00
 5.5105655E+00 1.2899576E+00 1.8333561E+00
 5.5820668E+00 1.2747234E+00 1.8415079E+00
 5.6554223E+00 1.2586338E+00 1.8499617E+00
 5.7304289E+00 1.2415403E+00 1.8584963E+00
 5.8067708E+00 1.2233125E+00 1.8668211E+00
 5.8840576E+00 1.2038311E+00 1.8745919E+00
 5.9618439E+00 1.1829999E+00 1.8814255E+00
 6.0396437E+00 1.1607563E+00 1.8869189E+00
 6.1169425E+00 1.1370808E+00 1.8906708E+00
 6.1932108E+00 1.1120040E+00 1.8923039E+00
 6.2679201E+00 1.0856083E+00 1.8914865E+00
 6.3405607E+00 1.0580257E+00 1.8879522E+00
 6.4106636E+00 1.0294268E+00 1.8815147E+00
 6.4778264E+00 1.0000000E+00 1.8720745E+00
 6.5417699E+00 9.6992791E-01 1.8596052E+00
 6.6025108E+00 9.3940961E-01 1.8440922E+00
 6.6608776E+00 9.0888094E-01 1.8253410E+00
 5.3742897E+00 1.2812168E+00 1.8320622E+00
 5.4432509E+00 1.2652316E+00 1.8391718E+00
 5.5138486E+00 1.2491302E+00 1.8465957E+00
 5.5862303E+00 1.2323241E+00 1.8543801E+00
 5.6603297E+00 1.2145891E+00 1.8623752E+00
 5.7359151E+00 1.1957911E+00 1.8703344E+00
 5.8126425E+00 1.1758173E+00 1.8779448E+00
 5.8900936E+00 1.1545750E+00 1.8848432E+00
 5.9677990E+00 1.1320005E+00 1.8906347E+00
 6.0452554E+00 1.1080704E+00 1.8949138E+00
 6.1219382E+00 1.0828080E+00 1.8972875E+00
 6.1973181E+00 1.0562875E+00 1.8973982E+00
 6.2708778E+00 1.0286311E+00 1.8949446E+00
 6.3421336E+00 1.0000000E+00 1.8896988E+00
 6.4106636E+00 9.7057325E-01 1.8815147E+00
 6.4761601E+00 9.4052192E-01 1.8703205E+00
 6.5385979E+00 9.1001981E-01 1.8560690E+00
 6.5987128E+00 8.7943199E-01 1.8385903E+00
 5.3753713E+00 1.2414263E+00 1.8444989E+00
 5.4452908E+00 1.2241051E+00 1.8511506E+00
 5.5167202E+00 1.2065338E+00 1.8581026E+00
 5.5897934E+00 1.1881789E+00 1.8653409E+00
 5.6644213E+00 1.1688394E+00 1.8726851E+00
 5.7403470E+00 1.1484000E+00 1.8798663E+00
 5.8171997E+00 1.1267717E+00 1.8865532E+00
 5.8945382E+00 1.1038917E+00 1.8923707E+00
 5.9718756E+00 1.0797335E+00 1.8969201E+00
 6.0486983E+00 1.0543141E+00 1.8998027E+00
 6.1244811E+00 1.0276987E+00 1.9006429E+00
 6.1987052E+00 1.0000000E+00 1.8991118E+00
 6.2708778E+00 9.7136891E-01 1.8949446E+00
 6.3405607E+00 9.4197430E-01 1.8879522E+00
 6.4074213E+00 9.1197539E-01 1.8780172E+00
 6.4713860E+00 8.8151982E-01 1.8650571E+00
 6.5330802E+00 8.5089791E-01 1.8489141E+00
 5.3763187E+00 1.1999965E+00 1.8552866E+00
 5.4470339E+00 1.1813796E+00 1.8613296E+00
 5.5191102E+00 1.1623813E+00 1.8676415E+00
 5.5926648E+00 1.1425358E+00 1.8741523E+00
 5.6675892E+00 1.1216719E+00 1.8806540E+00
 5.7436021E+00 1.0996974E+00 1.8868597E+00
 5.8203114E+00 1.0765513E+00 1.8924263E+00
 5.8972582E+00 1.0522046E+00 1.8969739E+00
 5.9739455E+00 1.0266685E+00 1.9001089E+00
 6.0498584E+00 1.0000000E+00 1.9014483E+00
 6.1244811E+00 9.7230133E-01 1.9006429E+00
 6.1973181E+00 9.4371254E-01 1.8973981E+00
 6.2679201E+00 9.1439171E-01 1.8914865E+00
 6.3359325E+00 8.8448574E-01 1.8827477E+00
 6.4012324E+00 8.5411680E-01 1.8710614E+00
 6.4643210E+00 8.2350205E-01 1.8562690E+00
 5.3771050E+00 1.1571393E+00 1.8642118E+00
 5.4484361E+00 1.1372954E+00 1.8694964E+00
 5.5209568E+00 1.1169479E+00 1.8750015E+00
 5.5947702E+00 1.0957088E+00 1.8806077E+00
 5.6697485E+00 1.0734420E+00 1.8860846E+00
 5.7455912E+00 1.0500825E+00 1.8911330E+00
 5.8218892E+00 1.0255998E+00 1.8954045E+00
 5.8981737E+00 1.0000000E+00 1.8985231E+00
 5.9739455E+00 9.7333154E-01 1.9001089E+00
 6.0486983E+00 9.4568599E-01 1.8998027E+00
 6.1219382E+00 9.1719200E-01 1.8972875E+00
 6.1932108E+00 8.8799607E-01 1.8923039E+00
 6.2621441E+00 8.5823245E-01 1.8846527E+00
 6.3285663E+00 8.2799927E-01 1.8741755E+00
 6.3928425E+00 7.9744438E-01 1.8607020E+00
 5.3777124E+00 1.1131149E+00 1.8710867E+00
 5.4494633E+00 1.0921450E+00 1.8754699E+00
 5.5222145E+00 1.0705613E+00 1.8800103E+00
 5.5960556E+00 1.0480635E+00 1.8845479E+00
 5.6708427E+00 1.0245548E+00 1.8888365E+00
 5.7462602E+00 1.0000000E+00 1.8925706E+00
 5.8218892E+00 9.7440024E-01 1.8954045E+00
 5.8972582E+00 9.4779548E-01 1.8969739E+00
 5.9718756E+00 9.2026651E-01 1.8969201E+00
 6.0452554E+00 8.9192966E-01 1.8949138E+00
 6.1169425E+00 8.6291922E-01 1.8906708E+00
 6.1865525E+00 8.3335645E-01 1.8839586E+00
 6.2538666E+00 8.0331702E-01 1.8745821E+00
 6.3191055E+00 7.7288506E-01 1.8623500E+00
 5.3781257E+00 1.0682246E+00 1.8757594E+00
 5.4500901E+00 1.0462598E+00 1.8791118E+00
 5.5228515E+00 1.0235867E+00 1.8825461E+00
 5.5964877E+00 1.0000000E+00 1.8858727E+00
 5.6708427E+00 9.7544521E-01 1.8888365E+00
 5.7455912E+00 9.4991757E-01 1.8911330E+00
 5.8203114E+00 9.2344877E-01 1.8924263E+00
 5.8945382E+00 8.9610831E-01 1.8923707E+00
 5.9677990E+00 8.6799954E-01 1.8906347E+00
 6.0396437E+00 8.3924379E-01 1.8869189E+00
 6.1096796E+00 8.0994885E-01 1.8809641E+00
 6.1776441E+00 7.8016963E-01 1.8725419E+00
 6.2436079E+00 7.4993289E-01 1.8614329E+00
 5.3783350E+00 1.0228015E+00 1.8781232E+00
 5.4503008E+00 1.0000000E+00 1.8803356E+00
 5.5228515E+00 9.7641337E-01 1.8825461E+00
 5.5960556E+00 9.5193654E-01 1.8845479E+00
 5.6697485E+00 9.2655806E-01 1.8860846E+00
 5.7436021E+00 9.0030261E-01 1.8868597E+00
 5.8171997E+00 8.7322840E-01 1.8865531E+00
 5.8900936E+00 8.4542507E-01 1.8848432E+00
 5.9618439E+00 8.1700012E-01 1.8814255E+00
 6.0320552E+00 7.8804725E-01 1.8760227E+00
 6.1004235E+00 7.5860206E-01 1.8683779E+00
 6.1668681E+00 7.2864055E-01 1.8582391E+00
 5.3783350E+00 9.7719853E-01 1.8781232E+00
 5.4500901E+00 9.5374023E-01 1.8791118E+00
 5.5222145E+00 9.2943878E-01 1.8800102E+00
 5.5947702E+00 9.0429125E-01 1.8806076E+00
 5.6675892E+00 8.7832817E-01 1.8806540E+00
 5.7403470E+00 8.5160008E-01 1.8798662E+00
 5.8126425E+00 8.2418273E-01 1.8779448E+00
 5.8840576E+00 7.9616894E-01 1.8745919E+00
 5.9541994E+00 7.6763742E-01 1.8695220E+00
 6.0227268E+00 7.3860562E-01 1.8624563E+00
 6.0894078E+00 7.0900503E-01 1.8531085E+00
 5.3781257E+00 9.3177541E-01 1.8757594E+00
 5.4494634E+00 9.0785507E-01 1.8754698E+00
 5.5209568E+00 8.8305216E-01 1.8750015E+00
 5.5926648E+00 8.5746425E-01 1.8741522E+00
 5.6644213E+00 8.3116062E-01 1.8726851E+00
 5.7359151E+00 8.0420900E-01 1.8703344E+00
 5.8067708E+00 7.7668755E-01 1.8668211E+00
 5.8766092E+00 7.4865892E-01 1.8618622E+00
 5.9450577E+00 7.2012292E-01 1.8551657E+00
 6.0117369E+00 6.9097207E-01 1.8464126E+00
 5.3777124E+00 8.8688516E-01 1.8710867E+00
 5.4484361E+00 8.6270467E-01 1.8694964E+00
 5.5191102E+00 8.3761880E-01 1.8676415E+00
 5.5897934E+00 8.1182120E-01 1.8653409E+00
 5.6603297E+00 7.8541100E-01 1.8623752E+00
 5.7304289E+00 7.5845975E-01 1.8584963E+00
 5.7997468E+00 7.3101397E-01 1.8534353E+00
 5.8678902E+00 7.0305601E-01 1.8468970E+00
 5.9343399E+00 6.7444374E-01 1.8385348E+00
 5.3771050E+00 8.4286076E-01 1.8642118E+00
 5.4470339E+00 8.1862045E-01 1.8613295E+00
 5.5167202E+00 7.9346623E-01 1.8581025E+00
 5.5862303E+00 7.6767594E-01 1.8543800E+00
 5.6554223E+00 7.4136625E-01 1.8499616E+00
 5.7240290E+00 7.1457779E-01 1.8446057E+00
 5.7916584E+00 6.8727639E-01 1.8380246E+00
 5.8576658E+00 6.5928822E-01 1.8298516E+00
 5.3763187E+00 8.0000352E-01 1.8552865E+00
 5.4452908E+00 7.7589496E-01 1.8511506E+00
 5.5138486E+00 7.5086986E-01 1.8465956E+00
 5.5820668E+00 7.2527665E-01 1.8415079E+00
 5.6498166E+00 6.9921175E-01 1.8356945E+00
 5.7167486E+00 6.7263703E-01 1.8288894E+00
 5.7821196E+00 6.4535094E-01 1.8207160E+00
 5.3753713E+00 7.5857378E-01 1.8444988E+00
 5.4432509E+00 7.3476850E-01 1.8391718E+00
 5.5105655E+00 7.1004245E-01 1.8333560E+00
 5.5773920E+00 6.8477007E-01 1.8269654E+00
 5.6434883E+00 6.5898279E-01 1.8197851E+00
 5.7080579E+00 6.3246625E-01 1.8114430E+00
 5.3742897E+00 7.1878332E-01 1.8320621E+00
 5.4409651E+00 6.9542414E-01 1.8256238E+00
 5.5069397E+00 6.7110276E-01 1.8186162E+00
 5.5721405E+00 6.4616488E-01 1.8109511E+00
 5.6357793E+00 6.2046961E-01 1.8022993E+00
 5.3730982E+00 6.8079404E-01 1.8182046E+00
 5.4384807E+00 6.5795445E-01 1.8107300E+00
 5.5028465E+00 6.3402275E-01 1.8025539E+00
 5.5655234E+00 6.0920346E-01 1.7934953E+00
 5.3718289E+00 6.4469323E-01 1.8031478E+00
 5.4356992E+00 6.2234641E-01 1.7946735E+00
 5.4974713E+00 5.9853353E-01 1.7851890E+00
 5.3704025E+00 6.1046386E-01 1.7870782E+00
 5.4316688E+00 5.8824776E-01 1.7774243E+00
 5.3684524E+00 5.7801623E-01 1.7701368E+00
 5.2721203E+00 1.4824593E+00 1.7322235E+00
 5.2339404E+00 1.5058330E+00 1.7161675E+00
 5.1941822E+00 1.5299320E+00 1.6987320E+00
 5.1529213E+00 1.5546504E+00 1.6798567E+00
 5.1103231E+00 1.5798784E+00 1.6594874E+00
 5.0666084E+00 1.6055043E+00 1.6375491E+00
 5.0220078E+00 1.6314114E+00 1.6139484E+00
 4.9767851E+00 1.6574437E+00 1.5886021E+00
 4.9312434E+00 1.6834109E+00 1.5614380E+00
 4.8857132E+00 1.7090857E+00 1.5324061E+00
 4.8405431E+00 1.7342107E+00 1.5014855E+00
 4.7960859E+00 1.7585049E+00 1.4686947E+00
 4.7526870E+00 1.7816761E+00 1.4340995E+00
 4.7106712E+00 1.8034349E+00 1.3978186E+00
 4.6703324E+00 1.8235104E+00 1.3600257E+00
 4.6319237E+00 1.8416650E+00 1.3209456E+00
 4.5956511E+00 1.8577088E+00 1.2808466E+00
 4.5616693E+00 1.8715078E+00 1.2400280E+00
 4.5300804E+00 1.8829892E+00 1.1988042E+00
 4.5009428E+00 1.8921406E+00 1.1574899E+00
 4.4743006E+00 1.8990008E+00 1.1164140E+00
 4.4501989E+00 1.9036522E+00 1.0759084E+00
 4.4287632E+00 1.9062210E+00 1.0364498E+00
 3.7230635E+00 1.0844675E+00 1.7423393E+00
 3.7140989E+00 1.1395280E+00 1.7286214E+00
 3.7082051E+00 1.1961152E+00 1.7118287E+00
 3.7063010E+00 1.2541732E+00 1.6920583E+00
 3.7088852E+00 1.3132703E+00 1.6692309E+00
 3.7163439E+00 1.3728027E+00 1.6433049E+00
 3.7289852E+00 1.4320599E+00 1.6143262E+00
 3.7470139E+00 1.4902597E+00 1.5824435E+00
 3.7705011E+00 1.5465851E+00 1.5479101E+00
 3.7993637E+00 1.6002285E+00 1.5110793E+00
 3.8333578E+00 1.6504384E+00 1.4723931E+00
 3.8720833E+00 1.6965654E+00 1.4323633E+00
 3.9150034E+00 1.7381017E+00 1.3915459E+00
 3.9614743E+00 1.7747106E+00 1.3505112E+00
 4.0107839E+00 1.8062403E+00 1.3098124E+00
 4.0621944E+00 1.8327232E+00 1.2699568E+00
 4.1149837E+00 1.8543584E+00 1.2313819E+00
 4.1684851E+00 1.8714836E+00 1.1944389E+00
 4.2221137E+00 1.8845358E+00 1.1593870E+00
 4.2753961E+00 1.8940127E+00 1.1263866E+00
 4.3279398E+00 1.9004362E+00 1.0954438E+00
 4.3793000E+00 1.9043324E+00 1.0662016E+00
 3.7731429E+00 1.1175632E+00 1.7658625E+00
 3.7670422E+00 1.1741145E+00 1.7518412E+00
 3.7639510E+00 1.2314516E+00 1.7345830E+00
 3.7649388E+00 1.2898088E+00 1.7142160E+00
 3.7704962E+00 1.3488055E+00 1.6906670E+00
 3.7809548E+00 1.4078217E+00 1.6639048E+00
 3.7965518E+00 1.4661184E+00 1.6340005E+00
 3.8174110E+00 1.5228938E+00 1.6011390E+00
 3.8435155E+00 1.5773335E+00 1.5656167E+00
 3.8746945E+00 1.6286600E+00 1.5278326E+00
 3.9106223E+00 1.6761806E+00 1.4882728E+00
 3.9508320E+00 1.7193308E+00 1.4474865E+00
 3.9947407E+00 1.7577087E+00 1.4060571E+00
 4.0416845E+00 1.7910944E+00 1.3645691E+00
 4.0909595E+00 1.8194553E+00 1.3235761E+00
 4.1418630E+00 1.8429331E+00 1.2835725E+00
 4.1937346E+00 1.8618191E+00 1.2449719E+00
 4.2459933E+00 1.8765179E+00 1.2080916E+00
 4.2981748E+00 1.8875107E+00 1.1731279E+00
 4.3499059E+00 1.8953207E+00 1.1400799E+00
 4.4008267E+00 1.9005088E+00 1.1083297E+00
 3.8278533E+00 1.1496263E+00 1.7869584E+00
 3.8244874E+00 1.2068443E+00 1.7724066E+00
 3.8242089E+00 1.2645417E+00 1.7545324E+00
 3.8280796E+00 1.3228881E+00 1.7334199E+00
 3.8365569E+00 1.3814854E+00 1.7090009E+00
 3.8499110E+00 1.4396819E+00 1.6812679E+00
 3.8683054E+00 1.4967145E+00 1.6503277E+00
 3.8917815E+00 1.5517764E+00 1.6164096E+00
 3.9202378E+00 1.6040737E+00 1.5798591E+00
 3.9534222E+00 1.6528776E+00 1.5411245E+00
 3.9909396E+00 1.6975713E+00 1.5007358E+00
 4.0322717E+00 1.7376895E+00 1.4592769E+00
 4.0768082E+00 1.7729435E+00 1.4173524E+00
 4.1238846E+00 1.8032324E+00 1.3755528E+00
 4.1728229E+00 1.8286354E+00 1.3344223E+00
 4.2229744E+00 1.8493914E+00 1.2944319E+00
 4.2737587E+00 1.8658656E+00 1.2559570E+00
 4.3247056E+00 1.8785135E+00 1.2192505E+00
 4.3754472E+00 1.8878529E+00 1.1843335E+00
 4.4255863E+00 1.8944665E+00 1.1506518E+00
 3.8869545E+00 1.1809218E+00 1.8051017E+00
 3.8863223E+00 1.2383451E+00 1.7898220E+00
 3.8888855E+00 1.2959854E+00 1.7711644E+00
 3.8956444E+00 1.3539235E+00 1.7491640E+00
 3.9069881E+00 1.4117113E+00 1.7237616E+00
 3.9231161E+00 1.4686727E+00 1.6949826E+00
 3.9441133E+00 1.5240370E+00 1.6629781E+00
 3.9699397E+00 1.5770134E+00 1.6280274E+00
 4.0004143E+00 1.6268519E+00 1.5905272E+00
 4.0352162E+00 1.6728943E+00 1.5509727E+00
 4.0738974E+00 1.7146187E+00 1.5099325E+00
 4.1159094E+00 1.7516700E+00 1.4680149E+00
 4.1606372E+00 1.7838770E+00 1.4258335E+00
 4.2074378E+00 1.8112512E+00 1.3839709E+00
 4.2556826E+00 1.8339710E+00 1.3429472E+00
 4.3047987E+00 1.8523516E+00 1.3031942E+00
 4.3543160E+00 1.8668127E+00 1.2650180E+00
 4.4038613E+00 1.8778520E+00 1.2285058E+00
 4.4530249E+00 1.8860626E+00 1.1931899E+00
 3.9502225E+00 1.2112169E+00 1.8199345E+00
 3.9523349E+00 1.2684443E+00 1.8037577E+00
 3.9577496E+00 1.3256187E+00 1.7841748E+00