# TIME = 2.900000
variables = x, y, z
zone N=5762 E=11520 F=FEPOINT ET=TRIANGLE
 5.3681900E+00 1.4613287E+00 1.7461226E+00
 5.3681900E+00 1.4613287E+00 2.5387724E-01
 5.3681900E+00 5.3867145E-01 1.7461225E+00
 5.3681900E+00 5.3867150E-01 2.5387753E-01
 3.7538254E+00 1.0000000E+00 1.7272225E+00
 6.9788463E+00 1.0000000E+00 1.7207461E+00
 3.7538258E+00 1.0000000E+00 2.7277813E-01
 6.9788466E+00 1.0000000E+00 2.7925329E-01
 4.4715922E+00 1.9077159E+00 9.9999998E-01
 4.4715922E+00 9.2284075E-02 9.9999998E-01
 6.2630311E+00 1.8987023E+00 9.9999998E-01
 6.2630311E+00 1.0129765E-01 9.9999998E-01
 5.3124074E+00 1.4528129E+00 1.7509289E+00
 5.2507985E+00 1.4435659E+00 1.7566776E+00
 5.1861856E+00 1.4341124E+00 1.7631845E+00
 5.1188507E+00 1.4244133E+00 1.7705539E+00
 5.0490754E+00 1.4144465E+00 1.7788005E+00
 4.9771343E+00 1.4041118E+00 1.7879033E+00
 4.9032833E+00 1.3932658E+00 1.7977640E+00
 4.8278312E+00 1.3817221E+00 1.8081897E+00
 4.7511254E+00 1.3692571E+00 1.8188819E+00
 4.6735472E+00 1.3556223E+00 1.8294357E+00
 4.5955017E+00 1.3405617E+00 1.8393531E+00
 4.5174158E+00 1.3238347E+00 1.8480680E+00
 4.4397400E+00 1.3052418E+00 1.8549837E+00
 4.3629521E+00 1.2846489E+00 1.8595193E+00
 4.2875598E+00 1.2620074E+00 1.8611579E+00
 4.2140942E+00 1.2373641E+00 1.8594913E+00
 4.1430945E+00 1.2108620E+00 1.8542529E+00
 4.0750815E+00 1.1827284E+00 1.8453334E+00
 4.0105275E+00 1.1532547E+00 1.8327796E+00
 3.9498337E+00 1.1227737E+00 1.8167772E+00
 3.8933502E+00 1.0916544E+00 1.7976439E+00
 3.8413809E+00 1.0602935E+00 1.7758060E+00
 3.7942436E+00 1.0291822E+00 1.7518277E+00
 5.3061094E+00 5.7875768E-01 1.7690543E+00
 5.2426410E+00 5.8965316E-01 1.7752512E+00
 5.1765374E+00 6.0043643E-01 1.7820260E+00
 5.1081392E+00 6.1141003E-01 1.7895826E+00
 5.0375095E+00 6.2276812E-01 1.7980103E+00
 4.9648636E+00 6.3462082E-01 1.8072632E+00
 4.8904716E+00 6.4712071E-01 1.8172134E+00
 4.8146612E+00 6.6045232E-01 1.8276296E+00
 4.7378046E+00 6.7483011E-01 1.8381738E+00
 4.6603014E+00 6.9048173E-01 1.8484044E+00
 4.5825717E+00 7.0762819E-01 1.8577939E+00
 4.5050523E+00 7.2646058E-01 1.8657595E+00
 4.4281997E+00 7.4711692E-01 1.8717048E+00
 4.3524922E+00 7.6966221E-01 1.8750673E+00
 4.2784308E+00 7.9407551E-01 1.8753666E+00
 4.2065302E+00 8.2024673E-01 1.8722451E+00
 4.1373017E+00 8.4798472E-01 1.8654947E+00
 4.0712247E+00 8.7703731E-01 1.8550656E+00
 4.0087191E+00 9.0711609E-01 1.8410575E+00
 3.9500988E+00 9.3791505E-01 1.8236847E+00
 3.8954531E+00 9.6907689E-01 1.8031877E+00
 3.8443549E+00 1.0000000E+00 1.7796297E+00
 5.3041234E+00 6.1127603E-01 1.7859739E+00
 5.2384437E+00 6.2385137E-01 1.7924473E+00
 5.1709262E+00 6.3599788E-01 1.7993216E+00
 5.1012627E+00 6.4839546E-01 1.8069714E+00
 5.0295535E+00 6.6125630E-01 1.8154595E+00
 4.9559577E+00 6.7473305E-01 1.8247349E+00
 4.8807664E+00 6.8897932E-01 1.8346362E+00
 4.8043327E+00 7.0418025E-01 1.8448965E+00
 4.7270549E+00 7.2053786E-01 1.8551375E+00
 4.6493559E+00 7.3825535E-01 1.8648800E+00
 4.5716742E+00 7.5751498E-01 1.8735670E+00
 4.4944610E+00 7.7845604E-01 1.8805994E+00
 4.4181822E+00 8.0115444E-01 1.8853826E+00
 4.3433195E+00 8.2560826E-01 1.8873753E+00
 4.2703687E+00 8.5173167E-01 1.8861368E+00
 4.1998276E+00 8.7936034E-01 1.8813627E+00
 4.1321741E+00 9.0826932E-01 1.8729050E+00
 4.0678296E+00 9.3820103E-01 1.8607685E+00
 4.0070842E+00 9.6888716E-01 1.8450729E+00
 3.9499174E+00 1.0000000E+00 1.8259442E+00
 3.8954531E+00 1.0309232E+00 1.8031877E+00
 5.3027173E+00 6.4552861E-01 1.8020057E+00
 5.2356279E+00 6.5946727E-01 1.8084255E+00
 5.1667626E+00 6.7304469E-01 1.8152786E+00
 5.0959272E+00 6.8691929E-01 1.8228788E+00
 5.0231439E+00 7.0136282E-01 1.8312894E+00
 4.9486124E+00 7.1652876E-01 1.8404294E+00
 4.8726405E+00 7.3257814E-01 1.8501086E+00
 4.7956128E+00 7.4968753E-01 1.8600225E+00
 4.7179544E+00 7.6804136E-01 1.8697549E+00
 4.6401113E+00 7.8781140E-01 1.8787929E+00
 4.5625402E+00 8.0913575E-01 1.8865559E+00
 4.4857051E+00 8.3209829E-01 1.8924375E+00
 4.4100784E+00 8.5671257E-01 1.8958539E+00
 4.3361409E+00 8.8291342E-01 1.8962948E+00
 4.2643760E+00 9.1055931E-01 1.8933665E+00
 4.1952528E+00 9.3944799E-01 1.8868221E+00
 4.1291917E+00 9.6934353E-01 1.8765679E+00
 4.0664874E+00 1.0000000E+00 1.8626356E+00
 4.0070842E+00 1.0311129E+00 1.8450729E+00
 3.9500988E+00 1.0620850E+00 1.8236847E+00
 5.3014803E+00 6.8161123E-01 1.8170090E+00
 5.2331605E+00 6.9686386E-01 1.8232133E+00
 5.1631341E+00 7.1185591E-01 1.8298848E+00
 5.0912395E+00 7.2724620E-01 1.8372876E+00
 5.0175235E+00 7.4330049E-01 1.8454523E+00
 4.9422041E+00 7.6017984E-01 1.8542725E+00
 4.8656224E+00 7.7803903E-01 1.8635252E+00
 4.7881906E+00 7.9704201E-01 1.8728714E+00
 4.7103590E+00 8.1734717E-01 1.8818614E+00
 4.6325933E+00 8.3908845E-01 1.8899569E+00
 4.5553638E+00 8.6235439E-01 1.8965647E+00
 4.4791415E+00 8.8717128E-01 1.9010832E+00
 4.4043982E+00 9.1349228E-01 1.9029528E+00
 4.3316034E+00 9.4119717E-01 1.9017043E+00
 4.2612135E+00 9.7010502E-01 1.8969977E+00
 4.1936438E+00 1.0000000E+00 1.8886396E+00
 4.1291917E+00 1.0306565E+00 1.8765679E+00
 4.0678296E+00 1.0617990E+00 1.8607685E+00
 4.0087190E+00 1.0928840E+00 1.8410575E+00
 5.3003215E+00 7.1955112E-01 1.8308043E+00
 5.2308938E+00 7.3608381E-01 1.8366468E+00
 5.1598565E+00 7.5249094E-01 1.8429847E+00
 5.0870716E+00 7.6939889E-01 1.8500234E+00
 5.0126084E+00 7.8706315E-01 1.8577598E+00
 4.9367133E+00 8.0563886E-01 1.8660584E+00
 4.8597550E+00 8.2527114E-01 1.8746658E+00
 4.7821723E+00 8.4610273E-01 1.8832122E+00
 4.7044358E+00 8.6826007E-01 1.8912226E+00
 4.6270250E+00 8.9183311E-01 1.8981437E+00
 4.5504172E+00 9.1685792E-01 1.9033829E+00
 4.4750823E+00 9.4330397E-01 1.9063568E+00
 4.4014809E+00 9.7107125E-01 1.9065420E+00
 4.3300564E+00 1.0000000E+00 1.9035184E+00
 4.2612135E+00 1.0298950E+00 1.8969977E+00
 4.1952528E+00 1.0605521E+00 1.8868221E+00
 4.1321741E+00 1.0917307E+00 1.8729051E+00
 4.0712247E+00 1.1229628E+00 1.8550656E+00
 5.2992640E+00 7.5926748E-01 1.8431770E+00
 5.2288655E+00 7.7704671E-01 1.8485140E+00
 5.1569839E+00 7.9484953E-01 1.8543601E+00
 5.0834993E+00 8.1325021E-01 1.8608595E+00
 5.0085044E+00 8.3248584E-01 1.8679752E+00
 4.9322714E+00 8.5270059E-01 1.8755437E+00
 4.8551950E+00 8.7402268E-01 1.8832844E+00
 4.7777346E+00 8.9656841E-01 1.8908036E+00
 4.7003753E+00 9.2042614E-01 1.8976103E+00
 4.6236038E+00 9.4563897E-01 1.9031485E+00
 4.5478957E+00 9.7219055E-01 1.9068393E+00
 4.4737097E+00 1.0000000E+00 1.9081301E+00
 4.4014809E+00 1.0289288E+00 1.9065420E+00
 4.3316034E+00 1.0588029E+00 1.9017044E+00
 4.2643760E+00 1.0894408E+00 1.8933666E+00
 4.1998276E+00 1.1206397E+00 1.8813628E+00
 4.1373017E+00 1.1520154E+00 1.8654948E+00
 5.2983356E+00 8.0060205E-01 1.8539037E+00
 5.2271287E+00 8.1957906E-01 1.8585923E+00
 5.1545893E+00 8.3873023E-01 1.8637848E+00
 5.0806164E+00 8.5856521E-01 1.8695667E+00
 5.0053230E+00 8.7929555E-01 1.8758685E+00
 4.9290053E+00 9.0104878E-01 1.8825017E+00
 4.8520782E+00 9.2393129E-01 1.8891640E+00
 4.7750163E+00 9.4802753E-01 1.8954456E+00
 4.6983118E+00 9.7338513E-01 1.9008508E+00
 4.6224501E+00 1.0000000E+00 1.9048330E+00
 4.5478957E+00 1.0278095E+00 1.9068393E+00
 4.4750823E+00 1.0566961E+00 1.9063569E+00
 4.4043982E+00 1.0865078E+00 1.9029529E+00
 4.3361409E+00 1.1170867E+00 1.8962949E+00
 4.2703687E+00 1.1482684E+00 1.8861369E+00
 4.2065302E+00 1.1797534E+00 1.8722452E+00
 5.2975639E+00 8.4334629E-01 1.8627752E+00
 5.2257300E+00 8.6344587E-01 1.8666749E+00
 5.1527374E+00 8.8386537E-01 1.8710538E+00
 5.0785009E+00 9.0503913E-01 1.8759438E+00
 5.0031530E+00 9.2714667E-01 1.8812465E+00
 4.9270083E+00 9.5029424E-01 1.8867529E+00
 4.8504970E+00 9.7456200E-01 1.8921454E+00
 4.7741009E+00 1.0000000E+00 1.8970079E+00
 4.6983118E+00 1.0266149E+00 1.9008508E+00
 4.6236038E+00 1.0543611E+00 1.9031486E+00
 4.5504172E+00 1.0831422E+00 1.9033830E+00
 4.4791415E+00 1.1128288E+00 1.9010833E+00
 4.4100784E+00 1.1432875E+00 1.8958541E+00
 4.3433195E+00 1.1743918E+00 1.8873755E+00
 4.2784308E+00 1.2059246E+00 1.8753668E+00
 5.2969675E+00 8.8724309E-01 1.8696066E+00
 5.2247048E+00 9.0836013E-01 1.8725849E+00
 5.1514754E+00 9.2993459E-01 1.8759993E+00
 5.0772089E+00 9.5231470E-01 1.8798356E+00
 5.0020530E+00 9.7564278E-01 1.8839715E+00
 4.9263365E+00 1.0000000E+00 1.8881831E+00
 4.8504970E+00 1.0254381E+00 1.8921455E+00
 4.7750163E+00 1.0519726E+00 1.8954456E+00
 4.7003753E+00 1.0795739E+00 1.8976105E+00
 4.6270250E+00 1.1081670E+00 1.8981438E+00
 4.5553638E+00 1.1376457E+00 1.8965649E+00
 4.4857051E+00 1.1679018E+00 1.8924377E+00
 4.4181822E+00 1.1988457E+00 1.8853828E+00
 4.3524922E+00 1.2303379E+00 1.8750675E+00
 5.2965615E+00 9.3199476E-01 1.8742488E+00
 5.2240792E+00 9.5399610E-01 1.8761874E+00
 5.1508362E+00 9.7657998E-01 1.8785028E+00
 5.0767744E+00 1.0000000E+00 1.8811440E+00
 5.0020530E+00 1.0243573E+00 1.8839715E+00
 4.9270083E+00 1.0497058E+00 1.8867530E+00
 4.8520782E+00 1.0760688E+00 1.8891640E+00
 4.7777346E+00 1.1034317E+00 1.8908037E+00
 4.7044358E+00 1.1317400E+00 1.8912228E+00
 4.6325934E+00 1.1609117E+00 1.8899571E+00
 4.5625403E+00 1.1908644E+00 1.8865561E+00
 4.4944611E+00 1.2215441E+00 1.8805997E+00
 4.4281997E+00 1.2528832E+00 1.8717050E+00
 5.2963559E+00 9.7727242E-01 1.8765969E+00
 5.2238688E+00 1.0000000E+00 1.8773979E+00
 5.1508362E+00 1.0234201E+00 1.8785028E+00
 5.0772089E+00 1.0476854E+00 1.8798356E+00
 5.0031530E+00 1.0728534E+00 1.8812466E+00
 4.9290053E+00 1.0989513E+00 1.8825018E+00
 4.8551950E+00 1.1259774E+00 1.8832846E+00
 4.7821723E+00 1.1538974E+00 1.8832124E+00
 4.7103591E+00 1.1826530E+00 1.8818617E+00
 4.6401114E+00 1.2121887E+00 1.8787931E+00
 4.5716742E+00 1.2424852E+00 1.8735672E+00
 4.5050524E+00 1.2735396E+00 1.8657598E+00
 5.2963559E+00 1.0227276E+00 1.8765970E+00
 5.2240792E+00 1.0460040E+00 1.8761874E+00
 5.1514754E+00 1.0700655E+00 1.8759994E+00
 5.0785009E+00 1.0949610E+00 1.8759439E+00
 5.0053230E+00 1.1207045E+00 1.8758686E+00
 4.9322714E+00 1.1472995E+00 1.8755439E+00
 4.8597550E+00 1.1747290E+00 1.8746660E+00
 4.7881906E+00 1.2029581E+00 1.8728716E+00
 4.7179544E+00 1.2319588E+00 1.8697552E+00
 4.6493559E+00 1.2617448E+00 1.8648803E+00
 4.5825717E+00 1.2923720E+00 1.8577942E+00
 5.2965615E+00 1.0680053E+00 1.8742488E+00
 5.2247048E+00 1.0916399E+00 1.8725849E+00
 5.1527373E+00 1.1161347E+00 1.8710539E+00
 5.0806164E+00 1.1414349E+00 1.8695668E+00
 5.0085044E+00 1.1675143E+00 1.8679754E+00
 4.9367132E+00 1.1943613E+00 1.8660586E+00
 4.8656224E+00 1.2219611E+00 1.8635255E+00
 4.7956128E+00 1.2503126E+00 1.8600228E+00
 4.7270550E+00 1.2794623E+00 1.8551378E+00
 4.6603014E+00 1.3095185E+00 1.8484047E+00
 5.2969675E+00 1.1127570E+00 1.8696067E+00
 5.2257300E+00 1.1365542E+00 1.8666749E+00
 5.1545893E+00 1.1612699E+00 1.8637849E+00
 5.0834992E+00 1.1867499E+00 1.8608597E+00
 5.0126084E+00 1.2129370E+00 1.8577600E+00
 4.9422041E+00 1.2398203E+00 1.8542728E+00
 4.8726405E+00 1.2674220E+00 1.8501089E+00
 4.8043328E+00 1.2958199E+00 1.8448968E+00
 4.7378046E+00 1.3251701E+00 1.8381742E+00
 5.2975639E+00 1.1566538E+00 1.8627753E+00
 5.2271287E+00 1.1804210E+00 1.8585924E+00
 5.1569839E+00 1.2051506E+00 1.8543602E+00
 5.0870716E+00 1.2306012E+00 1.8500236E+00
 5.0175234E+00 1.2566996E+00 1.8454525E+00
 4.9486124E+00 1.2834714E+00 1.8404296E+00
 4.8807664E+00 1.3110209E+00 1.8346365E+00
 4.8146613E+00 1.3395479E+00 1.8276299E+00
 5.2983356E+00 1.1993980E+00 1.8539039E+00
 5.2288655E+00 1.2229534E+00 1.8485141E+00
 5.1598565E+00 1.2475092E+00 1.8429848E+00
 5.0912394E+00 1.2727539E+00 1.8372878E+00
 5.0231439E+00 1.2986373E+00 1.8312897E+00
 4.9559577E+00 1.3252671E+00 1.8247352E+00
 4.8904716E+00 1.3528795E+00 1.8172137E+00
 5.2992639E+00 1.2407326E+00 1.8431771E+00
 5.2308937E+00 1.2639163E+00 1.8366470E+00
 5.1631341E+00 1.2881442E+00 1.8298849E+00
 5.0959272E+00 1.3130809E+00 1.8228790E+00
 5.0295534E+00 1.3387439E+00 1.8154598E+00
 4.9648636E+00 1.3653794E+00 1.8072635E+00
 5.3003215E+00 1.2804490E+00 1.8308044E+00
 5.2331605E+00 1.3031363E+00 1.8232135E+00
 5.1667625E+00 1.3269555E+00 1.8152788E+00
 5.1012626E+00 1.3516047E+00 1.8069716E+00
 5.0375094E+00 1.3772321E+00 1.7980106E+00
 5.3014802E+00 1.3183889E+00 1.8170091E+00
 5.2356279E+00 1.3405329E+00 1.8084257E+00
 5.1709262E+00 1.3640023E+00 1.7993218E+00
 5.1081392E+00 1.3885901E+00 1.7895828E+00
 5.3027173E+00 1.3544715E+00 1.8020058E+00
 5.2384437E+00 1.3761488E+00 1.7924475E+00
 5.1765374E+00 1.3995637E+00 1.7820262E+00
 5.3041234E+00 1.3887241E+00 1.7859740E+00
 5.2426410E+00 1.4103470E+00 1.7752514E+00
 5.3061094E+00 1.4212425E+00 1.7690545E+00
 5.3682610E+00 1.4341376E+00 1.7622331E+00
 5.3683286E+00 1.4031093E+00 1.7790957E+00
 5.3683595E+00 1.3702095E+00 1.7952728E+00
 5.3683819E+00 1.3352733E+00 1.8106291E+00
 5.3684012E+00 1.2983872E+00 1.8249280E+00
 5.3684195E+00 1.2596733E+00 1.8379286E+00
 5.3684360E+00 1.2192747E+00 1.8494031E+00
 5.3684504E+00 1.1773736E+00 1.8591373E+00
 5.3684621E+00 1.1342040E+00 1.8669354E+00
 5.3684708E+00 1.0900407E+00 1.8726325E+00
 5.3684761E+00 1.0451944E+00 1.8761031E+00
 5.3684778E+00 1.0000000E+00 1.8772689E+00
 5.3684761E+00 9.5480568E-01 1.8761031E+00
 5.3684708E+00 9.0995935E-01 1.8726325E+00
 5.3684622E+00 8.6579610E-01 1.8669353E+00
 5.3684505E+00 8.2262647E-01 1.8591372E+00
 5.3684360E+00 7.8072539E-01 1.8494030E+00
 5.3684195E+00 7.4032684E-01 1.8379285E+00
 5.3684012E+00 7.0161294E-01 1.8249278E+00
 5.3683819E+00 6.6472686E-01 1.8106290E+00
 5.3683595E+00 6.2979066E-01 1.7952726E+00
 5.3683286E+00 5.9689079E-01 1.7790956E+00
 5.3682610E+00 5.6586256E-01 1.7622330E+00
 5.4240078E+00 5.4655639E-01 1.7519673E+00
 5.4855845E+00 5.5518112E-01 1.7588133E+00
 5.5500851E+00 5.6410762E-01 1.7663221E+00
 5.6172185E+00 5.7343431E-01 1.7744785E+00
 5.6867275E+00 5.8323887E-01 1.7831743E+00
 5.7583600E+00 5.9366015E-01 1.7922724E+00
 5.8318950E+00 6.0486031E-01 1.8015843E+00
 5.9070554E+00 6.1701654E-01 1.8108671E+00
 5.9835166E+00 6.3031240E-01 1.8198279E+00
 6.0609007E+00 6.4492655E-01 1.8281322E+00
 6.1387832E+00 6.6102211E-01 1.8354164E+00
 6.2166979E+00 6.7873496E-01 1.8413031E+00
 6.2941460E+00 6.9816281E-01 1.8454181E+00
 6.3706083E+00 7.1935582E-01 1.8474095E+00
 6.4455601E+00 7.4230935E-01 1.8469669E+00
 6.5184880E+00 7.6696022E-01 1.8438397E+00
 6.5889074E+00 7.9318712E-01 1.8378527E+00
 6.6563781E+00 8.2081595E-01 1.8289165E+00
 6.7205178E+00 8.4962927E-01 1.8170318E+00
 6.7810053E+00 8.7937831E-01 1.8022870E+00
 6.8375454E+00 9.0977653E-01 1.7848677E+00
 6.8898574E+00 9.4050474E-01 1.7650515E+00
 6.9376029E+00 9.7113255E-01 1.7432531E+00
 5.4304279E+00 1.4219168E+00 1.7702308E+00
 5.4938211E+00 1.4116106E+00 1.7775676E+00
 5.5597711E+00 1.4012980E+00 1.7853631E+00
 5.6279346E+00 1.3906277E+00 1.7936913E+00
 5.6982659E+00 1.3793663E+00 1.8025164E+00
 5.7705799E+00 1.3673745E+00 1.8116786E+00
 5.8446417E+00 1.3544937E+00 1.8209646E+00
 5.9201580E+00 1.3405598E+00 1.8301047E+00
 5.9967769E+00 1.3254077E+00 1.8387819E+00
 6.0740979E+00 1.3088838E+00 1.8466424E+00
 6.1516759E+00 1.2908575E+00 1.8533100E+00
 6.2290306E+00 1.2712321E+00 1.8584027E+00
 6.3056557E+00 1.2499546E+00 1.8615516E+00
 6.3810331E+00 1.2270228E+00 1.8624197E+00
 6.4546491E+00 1.2024891E+00 1.8607215E+00
 6.5260108E+00 1.1764609E+00 1.8562403E+00
 6.5946632E+00 1.1490944E+00 1.8488407E+00
 6.6602055E+00 1.1205828E+00 1.8384763E+00
 6.7223017E+00 1.0911411E+00 1.8251885E+00
 6.7807103E+00 1.0609989E+00 1.8090885E+00
 6.8353930E+00 1.0304380E+00 1.7902918E+00
 6.8868092E+00 1.0000000E+00 1.7687462E+00
 5.4325143E+00 1.3893866E+00 1.7872102E+00
 5.4980935E+00 1.3773696E+00 1.7948821E+00
 5.5654271E+00 1.3656438E+00 1.8028032E+00
 5.6348254E+00 1.3534958E+00 1.8112230E+00
 5.7062085E+00 1.3406824E+00 1.8200736E+00
 5.7794496E+00 1.3270332E+00 1.8291898E+00
 5.8542968E+00 1.3123992E+00 1.8383294E+00
 5.9304318E+00 1.2966264E+00 1.8471968E+00
 6.0074754E+00 1.2795692E+00 1.8554498E+00
 6.0849995E+00 1.2611007E+00 1.8627146E+00
 6.1625363E+00 1.2411248E+00 1.8686018E+00
 6.2395871E+00 1.2195854E+00 1.8727253E+00
 6.3156355E+00 1.1964748E+00 1.8747226E+00
 6.3901624E+00 1.1718378E+00 1.8742744E+00
 6.4626632E+00 1.1457721E+00 1.8711232E+00
 6.5326661E+00 1.1184228E+00 1.8650891E+00
 6.5997508E+00 1.0899696E+00 1.8560786E+00
 6.6635726E+00 1.0606067E+00 1.8440835E+00
 6.7239194E+00 1.0305317E+00 1.8291554E+00
 6.7808812E+00 1.0000000E+00 1.8113194E+00
 6.8353930E+00 9.6956201E-01 1.7902918E+00
 5.4339783E+00 1.3550944E+00 1.8032982E+00
 5.5009528E+00 1.3416693E+00 1.8109624E+00
 5.5696145E+00 1.3284620E+00 1.8188898E+00
 5.6401630E+00 1.3147877E+00 1.8272596E+00
 5.7125992E+00 1.3003525E+00 1.8360014E+00
 5.7867594E+00 1.2849952E+00 1.8449189E+00
 5.8623774E+00 1.2685693E+00 1.8537468E+00
 5.9391042E+00 1.2509379E+00 1.8621623E+00
 6.0165316E+00 1.2319781E+00 1.8698009E+00
 6.0942054E+00 1.2115939E+00 1.8762717E+00
 6.1716354E+00 1.1897267E+00 1.8811770E+00
 6.2483082E+00 1.1663631E+00 1.8841326E+00
 6.3237008E+00 1.1415410E+00 1.8847890E+00
 6.3972982E+00 1.1153495E+00 1.8828511E+00
 6.4686121E+00 1.0879249E+00 1.8780957E+00
 6.5372024E+00 1.0594368E+00 1.8703826E+00
 6.6027065E+00 1.0300679E+00 1.8596558E+00
 6.6649024E+00 1.0000000E+00 1.8459209E+00
 6.7239194E+00 9.6946837E-01 1.8291554E+00
 6.7807103E+00 9.3900119E-01 1.8090885E+00
 5.4352550E+00 1.3189607E+00 1.8183552E+00
 5.5034497E+00 1.3041669E+00 1.8258470E+00
 5.5732566E+00 1.2894906E+00 1.8336161E+00
 5.6448468E+00 1.2742525E+00 1.8417859E+00
 5.7181989E+00 1.2581734E+00 1.8502497E+00
 5.7931339E+00 1.2410940E+00 1.8587875E+00
 5.8693549E+00 1.2228835E+00 1.8671072E+00
 5.9464851E+00 1.2034242E+00 1.8748636E+00
 6.0240894E+00 1.1826220E+00 1.8816741E+00
 6.1016907E+00 1.1604159E+00 1.8871375E+00
 6.1787824E+00 1.1367877E+00 1.8908554E+00
 6.2548427E+00 1.1117679E+00 1.8924543E+00
 6.3293508E+00 1.0854375E+00 1.8916064E+00
 6.4018057E+00 1.0579236E+00 1.8880484E+00
 6.4717494E+00 1.0293868E+00 1.8815954E+00
 6.5387972E+00 1.0000000E+00 1.8721443E+00
 6.6027065E+00 9.6993214E-01 1.8596558E+00
 6.6635726E+00 9.3939338E-01 1.8440835E+00
 6.7223018E+00 9.0885895E-01 1.8251885E+00
 5.4364482E+00 1.2809616E+00 1.8322019E+00
 5.5057408E+00 1.2648271E+00 1.8393707E+00
 5.5765446E+00 1.2486782E+00 1.8468253E+00
 5.6490093E+00 1.2318751E+00 1.8546253E+00
 5.7230941E+00 1.2141575E+00 1.8626288E+00
 5.7985945E+00 1.1953816E+00 1.8705895E+00
 5.8751873E+00 1.1754346E+00 1.8781934E+00
 5.9524693E+00 1.1542252E+00 1.8850770E+00
 6.0299828E+00 1.1316916E+00 1.8908464E+00
 6.1072341E+00 1.1078114E+00 1.8950984E+00
 6.1837078E+00 1.0826083E+00 1.8974432E+00
 6.2588829E+00 1.0561546E+00 1.8975270E+00
 6.3322517E+00 1.0285681E+00 1.8950516E+00
 6.4033420E+00 1.0000000E+00 1.8897907E+00
 6.4717494E+00 9.7061329E-01 1.8815954E+00
 6.5372024E+00 9.4056326E-01 1.8703826E+00
 6.5997508E+00 9.1003045E-01 1.8560786E+00
 6.6602055E+00 8.7941725E-01 1.8384763E+00
 5.4375377E+00 1.2411800E+00 1.8446217E+00
 5.5077915E+00 1.2237331E+00 1.8513189E+00
 5.5794266E+00 1.2061287E+00 1.8582962E+00
 5.6525770E+00 1.1877863E+00 1.8655488E+00
 5.7271811E+00 1.1684731E+00 1.8729011E+00
 5.8030114E+00 1.1480654E+00 1.8800839E+00
 5.8797198E+00 1.1264745E+00 1.8867652E+00
 5.9568815E+00 1.1036392E+00 1.8925701E+00
 6.0340225E+00 1.0795338E+00 1.8971012E+00
 6.1106398E+00 1.0541755E+00 1.8999624E+00
 6.1862182E+00 1.0276283E+00 1.9007814E+00
 6.2602490E+00 1.0000000E+00 1.8992322E+00
 6.3322517E+00 9.7143192E-01 1.8950516E+00
 6.4018057E+00 9.4207648E-01 1.8880484E+00
 6.4686121E+00 9.1207516E-01 1.8780957E+00
 6.5326661E+00 8.8157723E-01 1.8650891E+00
 6.5946632E+00 8.5090570E-01 1.8488407E+00
 5.4384946E+00 1.1997738E+00 1.8553903E+00
 5.5095477E+00 1.1810592E+00 1.8614670E+00
 5.5818290E+00 1.1620448E+00 1.8678004E+00
 5.6554558E+00 1.1422228E+00 1.8743256E+00
 5.7303489E+00 1.1213947E+00 1.8808369E+00
 5.8062587E+00 1.0994621E+00 1.8870464E+00
 5.8828174E+00 1.0763641E+00 1.8926105E+00
 5.9595840E+00 1.0520728E+00 1.8971500E+00
 6.0360754E+00 1.0265996E+00 1.9002730E+00
 6.1117881E+00 1.0000000E+00 1.9015990E+00
 6.1862182E+00 9.7237179E-01 1.9007814E+00
 6.2588829E+00 9.4384544E-01 1.8975270E+00
 6.3293508E+00 9.1456253E-01 1.8916064E+00
 6.3972982E+00 8.8465051E-01 1.8828511E+00
 6.4626632E+00 8.5422796E-01 1.8711233E+00
 6.5260108E+00 8.2353916E-01 1.8562403E+00
 5.4392904E+00 1.1569526E+00 1.8642968E+00
 5.5109623E+00 1.1370417E+00 1.8696062E+00
 5.5836869E+00 1.1166963E+00 1.8751311E+00
 5.6575681E+00 1.0954915E+00 1.8807535E+00
 5.7325095E+00 1.0732697E+00 1.8862431E+00
 5.8082441E+00 1.0499613E+00 1.8912994E+00
 5.8843889E+00 1.0255360E+00 1.8955738E+00
 5.9604941E+00 1.0000000E+00 1.8986911E+00
 6.0360754E+00 9.7340042E-01 1.9002730E+00
 6.1106398E+00 9.4582458E-01 1.8999624E+00
 6.1837078E+00 9.1739181E-01 1.8974432E+00
 6.2548427E+00 8.8823216E-01 1.8924543E+00
 6.3237008E+00 8.5845910E-01 1.8847890E+00
 6.3901624E+00 8.2816229E-01 1.8742744E+00
 6.4546491E+00 7.9751091E-01 1.8607215E+00
 5.4399056E+00 1.1129741E+00 1.8711556E+00
 5.5119991E+00 1.0919694E+00 1.8755579E+00
 5.5849528E+00 1.0704057E+00 1.8801186E+00
 5.6588580E+00 1.0479522E+00 1.8846761E+00
 5.7336046E+00 1.0244964E+00 1.8889821E+00
 5.8089120E+00 1.0000000E+00 1.8927301E+00
 5.8843889E+00 9.7446404E-01 1.8955738E+00
 5.9595840E+00 9.4792721E-01 1.8971500E+00
 6.0340225E+00 9.2046629E-01 1.8971012E+00
 6.1072341E+00 8.9218866E-01 1.8950984E+00
 6.1787824E+00 8.6321237E-01 1.8908554E+00
 6.2483082E+00 8.3363694E-01 1.8841326E+00
 6.3156355E+00 8.0352526E-01 1.8747226E+00
 6.3810331E+00 7.7297725E-01 1.8624197E+00
 5.4403244E+00 1.0681371E+00 1.8758165E+00
 5.5126319E+00 1.0461700E+00 1.8791860E+00
 5.5855940E+00 1.0235341E+00 1.8826434E+00
 5.6592918E+00 1.0000000E+00 1.8859949E+00
 5.7336046E+00 9.7550365E-01 1.8889821E+00
 5.8082441E+00 9.5003876E-01 1.8912994E+00
 5.8828174E+00 9.2363591E-01 1.8926105E+00
 5.9568815E+00 8.9636087E-01 1.8925701E+00
 6.0299828E+00 8.6830847E-01 1.8908464E+00
 6.1016907E+00 8.3958415E-01 1.8871375E+00
 6.1716354E+00 8.1027340E-01 1.8811770E+00
 6.2395871E+00 7.8041464E-01 1.8727253E+00
 6.3056557E+00 7.5004541E-01 1.8615516E+00
 5.4405365E+00 1.0227718E+00 1.8781742E+00
 5.5128446E+00 1.0000000E+00 1.8804050E+00
 5.5855940E+00 9.7646600E-01 1.8826434E+00
 5.6588580E+00 9.5204782E-01 1.8846761E+00
 5.7325095E+00 9.2673038E-01 1.8862431E+00
 5.8062587E+00 9.0053792E-01 1.8870463E+00
 5.8797198E+00 8.7352551E-01 1.8867652E+00
 5.9524693E+00 8.4577486E-01 1.8850770E+00
 6.0240894E+00 8.1737801E-01 1.8816741E+00
 6.0942054E+00 7.8840612E-01 1.8762717E+00
 6.1625363E+00 7.5887525E-01 1.8686018E+00
 6.2290306E+00 7.2876794E-01 1.8584028E+00
 5.4405365E+00 9.7722825E-01 1.8781742E+00
 5.5126319E+00 9.5383004E-01 1.8791860E+00
 5.5849528E+00 9.2959436E-01 1.8801186E+00
 5.6575681E+00 9.0450859E-01 1.8807535E+00
 5.7303489E+00 8.7860536E-01 1.8808368E+00
 5.8030114E+00 8.5193463E-01 1.8800839E+00
 5.8751873E+00 8.2456547E-01 1.8781934E+00
 5.9464851E+00 7.9657583E-01 1.8748636E+00
 6.0165316E+00 7.6802197E-01 1.8698009E+00
 6.0849995E+00 7.3889932E-01 1.8627146E+00
 6.1516759E+00 7.0914257E-01 1.8533100E+00
 5.4403244E+00 9.3186300E-01 1.8758165E+00
 5.5119991E+00 9.0803071E-01 1.8755579E+00
 5.5836869E+00 8.8330379E-01 1.8751310E+00
 5.6554558E+00 8.5777727E-01 1.8743256E+00
 5.7271812E+00 8.3152695E-01 1.8729011E+00
 5.7985945E+00 8.0461843E-01 1.8705895E+00
 5.8693549E+00 7.7711661E-01 1.8671071E+00
 5.9391042E+00 7.4906215E-01 1.8621623E+00
 6.0074754E+00 7.2043089E-01 1.8554498E+00
 6.0740979E+00 6.9111622E-01 1.8466424E+00
 5.4399056E+00 8.8702601E-01 1.8711555E+00
 5.5109623E+00 8.6295832E-01 1.8696061E+00
 5.5818290E+00 8.3795523E-01 1.8678004E+00
 5.6525770E+00 8.1221373E-01 1.8655488E+00
 5.7230941E+00 7.8584257E-01 1.8626288E+00
 5.7931339E+00 7.5890607E-01 1.8587875E+00
 5.8623774E+00 7.3143076E-01 1.8537468E+00
 5.9304318E+00 7.0337369E-01 1.8471967E+00
 5.9967769E+00 6.7459231E-01 1.8387819E+00
 5.4392904E+00 8.4304746E-01 1.8642968E+00
 5.5095477E+00 8.1894085E-01 1.8614669E+00
 5.5794266E+00 7.9387137E-01 1.8582961E+00
 5.6490093E+00 7.6812497E-01 1.8546252E+00
 5.7181989E+00 7.4182666E-01 1.8502497E+00
 5.7867594E+00 7.1500491E-01 1.8449189E+00
 5.8542968E+00 6.8760084E-01 1.8383294E+00
 5.9201580E+00 6.5944024E-01 1.8301047E+00
 5.4384946E+00 8.0022624E-01 1.8553902E+00
 5.5077915E+00 7.7626697E-01 1.8513188E+00
 5.5765446E+00 7.5132192E-01 1.8468252E+00
 5.6448468E+00 7.2574753E-01 1.8417859E+00
 5.7125992E+00 6.9964756E-01 1.8360013E+00
 5.7794496E+00 6.7296685E-01 1.8291897E+00
 5.8446417E+00 6.4550639E-01 1.8209646E+00
 5.4375377E+00 7.5882013E-01 1.8446216E+00
 5.5057408E+00 7.3517298E-01 1.8393706E+00
 5.5732566E+00 7.1050944E-01 1.8336160E+00
 5.6401630E+00 6.8521233E-01 1.8272595E+00
 5.7062085E+00 6.5931772E-01 1.8200735E+00
 5.7705799E+00 6.3262559E-01 1.8116785E+00
 5.4364482E+00 7.1903849E-01 1.8322018E+00
 5.5034497E+00 6.9583318E-01 1.8258469E+00
 5.5696145E+00 6.7153807E-01 1.8188898E+00
 5.6348254E+00 6.4650426E-01 1.8112229E+00
 5.6982659E+00 6.2063381E-01 1.8025163E+00
 5.4352550E+00 6.8103936E-01 1.8183551E+00
 5.5009528E+00 6.5833079E-01 1.8109623E+00
 5.5654271E+00 6.3435629E-01 1.8028032E+00
 5.6279347E+00 6.0937243E-01 1.7936912E+00
 5.4339783E+00 6.4490570E-01 1.8032981E+00
 5.4980935E+00 6.2263048E-01 1.7948820E+00
 5.5597711E+00 5.9870214E-01 1.7853630E+00
 5.4325143E+00 6.1061352E-01 1.7872101E+00
 5.4938211E+00 5.8838950E-01 1.7775675E+00
 5.4304279E+00 5.7808336E-01 1.7702307E+00
 5.3338095E+00 1.4825131E+00 1.7322587E+00
 5.2955626E+00 1.5059127E+00 1.7161981E+00
 5.2557076E+00 1.5300400E+00 1.6987623E+00
 5.2143572E+00 1.5547895E+00 1.6798908E+00
 5.1716601E+00 1.5800515E+00 1.6595302E+00
 5.1278516E+00 1.6057119E+00 1.6376081E+00
 5.0831652E+00 1.6316533E+00 1.6140322E+00
 5.0378657E+00 1.6577215E+00 1.5887179E+00
 4.9922562E+00 1.6837272E+00 1.5615913E+00
 4.9466684E+00 1.7094437E+00 1.5326002E+00
 4.9014511E+00 1.7346132E+00 1.5017217E+00
 4.8569574E+00 1.7589544E+00 1.4689720E+00
 4.8135322E+00 1.7821745E+00 1.4344147E+00
 4.7714992E+00 1.8039831E+00 1.3981664E+00
 4.7311504E+00 1.8241087E+00 1.3603983E+00
 4.6927369E+00 1.8423131E+00 1.3213330E+00
 4.6564623E+00 1.8584056E+00 1.2812362E+00
 4.6224792E+00 1.8722514E+00 1.2404043E+00
 4.5908890E+00 1.8837768E+00 1.1991487E+00
 4.5617547E+00 1.8929674E+00 1.1577835E+00
 4.5351330E+00 1.8998592E+00 1.1166426E+00
 4.5110784E+00 1.9045336E+00 1.0760589E+00
 4.4897130E+00 1.9071161E+00 1.0365256E+00
 3.7847534E+00 1.0846613E+00 1.7421319E+00
 3.7758764E+00 1.1398573E+00 1.7283877E+00
 3.7700269E+00 1.1964976E+00 1.7115523E+00
 3.7681448E+00 1.2545592E+00 1.6917464E+00
 3.7707446E+00 1.3136266E+00 1.6689094E+00
 3.7782078E+00 1.3731063E+00 1.6430046E+00
 3.7908318E+00 1.4322980E+00 1.6140757E+00
 3.8088145E+00 1.4904305E+00 1.5822672E+00
 3.8322239E+00 1.5466976E+00 1.5478272E+00
 3.8609782E+00 1.6003007E+00 1.5111031E+00
 3.8948379E+00 1.6504957E+00 1.4725298E+00
 3.9334102E+00 1.6966374E+00 1.4326114E+00
 3.9761680E+00 1.7382193E+00 1.3918960E+00
 4.0224779E+00 1.7749021E+00 1.3509472E+00
 4.0716386E+00 1.8065281E+00 1.3103126E+00
 4.1229226E+00 1.8331219E+00 1.2704961E+00
 4.1756172E+00 1.8548731E+00 1.2319342E+00
 4.2290649E+00 1.8721101E+00 1.1949793E+00
 4.2826883E+00 1.8852613E+00 1.1598938E+00
 4.3360136E+00 1.8948174E+00 1.1268397E+00
 4.3886378E+00 1.9012967E+00 1.0958110E+00
 4.4401006E+00 1.9052243E+00 1.0664273E+00
 3.8347669E+00 1.1179411E+00 1.7657852E+00
 3.8288263E+00 1.1747511E+00 1.7517367E+00
 3.8258162E+00 1.2321896E+00 1.7344269E+00
 3.8268434E+00 1.2905465E+00 1.7140203E+00
 3.8324275E+00 1.3494847E+00 1.6904675E+00
 3.8428959E+00 1.4084095E+00 1.6637398E+00
 3.8584744E+00 1.4666001E+00 1.6339040E+00
 3.8792788E+00 1.5232691E+00 1.6011388E+00
 3.9052901E+00 1.5776153E+00 1.5657341E+00
 3.9363395E+00 1.6288711E+00 1.5280811E+00
 3.9721073E+00 1.6763516E+00 1.4886573E+00
 4.0121359E+00 1.7194962E+00 1.4480029E+00
 4.0558533E+00 1.7579032E+00 1.4066922E+00
 4.1026081E+00 1.7913490E+00 1.3653023E+00
 4.1517086E+00 1.8197940E+00 1.3243811E+00
 4.2024650E+00 1.8433708E+00 1.2844198E+00
 4.2542305E+00 1.8623611E+00 1.2458309E+00
 4.3064389E+00 1.8771604E+00 1.2089310E+00
 4.3586365E+00 1.8882423E+00 1.1739089E+00
 4.4104469E+00 1.8961265E+00 1.1407322E+00
 4.4614926E+00 1.9013710E+00 1.1087386E+00
 3.8894088E+00 1.1500950E+00 1.7870155E+00
 3.8862429E+00 1.2076124E+00 1.7724296E+00
 3.8860608E+00 1.2654277E+00 1.7544990E+00
 3.8899736E+00 1.3237704E+00 1.7333485E+00
 3.8984747E+00 1.3822954E+00 1.7089325E+00
 3.9118310E+00 1.4403841E+00 1.6812442E+00
 3.9301954E+00 1.4972951E+00 1.6503843E+00
 3.9536024E+00 1.5522388E+00 1.6165749E+00
 3.9819494E+00 1.6044343E+00 1.5801532E+00
 4.0149880E+00 1.6531632E+00 1.5415587E+00
 4.0523307E+00 1.6978151E+00 1.5013120E+00
 4.0934696E+00 1.7379273E+00 1.4599869E+00
 4.1378068E+00 1.7732096E+00 1.4181790E+00
 4.1846913E+00 1.8035556E+00 1.3764715E+00
 4.2334595E+00 1.8290368E+00 1.3354033E+00
 4.2834789E+00 1.8498828E+00 1.2954422E+00
 4.3341883E+00 1.8664496E+00 1.2569601E+00
 4.3851331E+00 1.8791857E+00 1.2201980E+00
 4.4359459E+00 1.8886069E+00 1.1851375E+00
 4.4862041E+00 1.8952929E+00 1.1511739E+00
 3.9484297E+00 1.1814272E+00 1.8052925E+00
 3.9479978E+00 1.2391454E+00 1.7899654E+00
 3.9506476E+00 1.2969036E+00 1.7712465E+00
 3.9574358E+00 1.3548367E+00 1.7492101E+00
 3.9687883E+00 1.4125504E+00 1.7238156E+00
 3.9849024E+00 1.4694033E+00 1.6950868E+00
 4.0058533E+00 1.5246483E+00 1.6631675E+00
 4.0315956E+00 1.5775121E+00 1.6283286E+00
 4.0619488E+00 1.6272574E+00 1.5909577E+00
 4.0965973E+00 1.6732349E+00 1.5515406E+00
 4.1351019E+00 1.7149273E+00 1.5106354E+00
 4.1769256E+00 1.7519802E+00 1.4688409E+00
 4.2214664E+00 1.7842191E+00 1.4267619E+00
 4.2680965E+00 1.8116491E+00 1.3849742E+00
 4.3162050E+00 1.8344404E+00 1.3439929E+00
 4.3652401E+00 1.8529000E+00 1.3042441E+00
 4.4147506E+00 1.8674410E+00 1.2660203E+00
 4.4643650E+00 1.8785605E+00 1.2293692E+00
 4.5136409E+00 1.8868499E+00 1.1937753E+00
 4.0115932E+00 1.2117409E+00 1.8202497E+00
 4.0138782E+00 1.2692453E+00 1.8040091E+00
 4.0193539E+00 1.3265327E+00 1.7843595E+00