# TIME = 3.300000
variables = x, y, z
zone N=5762 E=11520 F=FEPOINT ET=TRIANGLE
 5.4173812E+00 1.4613621E+00 1.7461677E+00
 5.4173812E+00 1.4613621E+00 2.5383214E-01
 5.4173812E+00 5.3863809E-01 1.7461675E+00
 5.4173812E+00 5.3863813E-01 2.5383244E-01
 3.8030244E+00 1.0000000E+00 1.7269780E+00
 7.0279569E+00 1.0000000E+00 1.7203255E+00
 3.8030247E+00 1.0000000E+00 2.7302255E-01
 7.0279572E+00 1.0000000E+00 2.7967394E-01
 4.5201874E+00 1.9083623E+00 9.9999996E-01
 4.5201874E+00 9.1637722E-02 9.9999996E-01
 6.3124959E+00 1.8987741E+00 9.9999996E-01
 6.3124959E+00 1.0122583E-01 9.9999996E-01
 5.3614966E+00 1.4528391E+00 1.7509957E+00
 5.2997611E+00 1.4435905E+00 1.7567750E+00
 5.2350369E+00 1.4341488E+00 1.7633168E+00
 5.1675803E+00 1.4244665E+00 1.7707315E+00
 5.0976819E+00 1.4145218E+00 1.7790331E+00
 5.0256259E+00 1.4042133E+00 1.7881993E+00
 4.9516775E+00 1.3933964E+00 1.7981280E+00
 4.8761500E+00 1.3818820E+00 1.8086222E+00
 4.7993943E+00 1.3694438E+00 1.8193779E+00
 4.7217942E+00 1.3558311E+00 1.8299846E+00
 4.6437557E+00 1.3407862E+00 1.8399391E+00
 4.5657047E+00 1.3240678E+00 1.8486715E+00
 4.4880885E+00 1.3054770E+00 1.8555834E+00
 4.4113800E+00 1.2848807E+00 1.8600941E+00
 4.3360803E+00 1.2622314E+00 1.8616892E+00
 4.2627137E+00 1.2375774E+00 1.8599638E+00
 4.1918122E+00 1.2110618E+00 1.8546547E+00
 4.1238905E+00 1.1829113E+00 1.8456554E+00
 4.0594173E+00 1.1534162E+00 1.8330144E+00
 3.9987948E+00 1.1229081E+00 1.8169195E+00
 3.9423796E+00 1.0917575E+00 1.7976913E+00
 3.8904745E+00 1.0603594E+00 1.7757567E+00
 3.8433964E+00 1.0292117E+00 1.7516807E+00
 5.3551139E+00 5.7879749E-01 1.7691587E+00
 5.2914881E+00 5.8973576E-01 1.7754097E+00
 5.2252434E+00 6.0052893E-01 1.7822330E+00
 5.1567191E+00 6.1148841E-01 1.7898377E+00
 5.0859789E+00 6.2282370E-01 1.7983207E+00
 5.0132452E+00 6.3465096E-01 1.8076358E+00
 4.9387898E+00 6.4712528E-01 1.8176521E+00
 4.8629426E+00 6.6043255E-01 1.8281333E+00
 4.7860773E+00 6.7478868E-01 1.8387361E+00
 4.7085946E+00 6.9042230E-01 1.8490133E+00
 4.6309142E+00 7.0755478E-01 1.8584332E+00
 4.5534703E+00 7.2637681E-01 1.8664106E+00
 4.4767146E+00 7.4702553E-01 1.8723484E+00
 4.4011194E+00 7.6956485E-01 1.8756859E+00
 4.3271779E+00 7.9397320E-01 1.8759457E+00
 4.2553971E+00 8.2014093E-01 1.8727736E+00
 4.1862809E+00 8.4787920E-01 1.8659646E+00
 4.1203025E+00 8.7693995E-01 1.8554709E+00
 4.0578770E+00 9.0703902E-01 1.8413920E+00
 3.9993114E+00 9.3786821E-01 1.8239378E+00
 3.9446771E+00 9.6905876E-01 1.8033365E+00
 3.8935368E+00 1.0000000E+00 1.7796381E+00
 5.3530535E+00 6.1138151E-01 1.7861066E+00
 5.2871402E+00 6.2404070E-01 1.7926525E+00
 5.2194440E+00 6.3621485E-01 1.7995843E+00
 5.1496498E+00 6.4860247E-01 1.8072856E+00
 5.0778518E+00 6.6144104E-01 1.8158293E+00
 5.0042036E+00 6.7489333E-01 1.8251656E+00
 4.9289929E+00 6.8911554E-01 1.8351296E+00
 4.8525712E+00 7.0429362E-01 1.8454496E+00
 4.7753366E+00 7.2062995E-01 1.8557422E+00
 4.6977111E+00 7.3832766E-01 1.8655236E+00
 4.6201311E+00 7.5756836E-01 1.8742338E+00
 4.5430431E+00 7.7849035E-01 1.8812729E+00
 4.4669066E+00 8.0116847E-01 1.8860471E+00
 4.3921954E+00 8.2560035E-01 1.8880181E+00
 4.3193961E+00 8.5170112E-01 1.8867486E+00
 4.2489971E+00 8.7930983E-01 1.8819376E+00
 4.1814669E+00 9.0820794E-01 1.8734386E+00
 4.1172152E+00 9.3814595E-01 1.8612543E+00
 4.0565120E+00 9.6885729E-01 1.8454949E+00
 3.9992975E+00 1.0000000E+00 1.8262625E+00
 3.9446771E+00 1.0309413E+00 1.8033365E+00
 5.3516266E+00 6.4568520E-01 1.8021535E+00
 5.2842703E+00 6.5973135E-01 1.8086509E+00
 5.2152079E+00 6.7334580E-01 1.8155636E+00
 5.1442420E+00 6.8721288E-01 1.8232162E+00
 5.0713839E+00 7.0163415E-01 1.8316822E+00
 4.9968230E+00 7.1677522E-01 1.8408815E+00
 4.9208599E+00 7.3279996E-01 1.8506205E+00
 4.8438756E+00 7.4988537E-01 1.8605901E+00
 4.7662933E+00 7.6821566E-01 1.8703693E+00
 4.6885565E+00 7.8796186E-01 1.8794414E+00
 4.6111179E+00 8.0926103E-01 1.8872241E+00
 4.5344355E+00 8.3219590E-01 1.8931109E+00
 4.4589737E+00 8.5677951E-01 1.8965201E+00
 4.3852038E+00 8.8294770E-01 1.8969446E+00
 4.3135983E+00 9.1056270E-01 1.8939941E+00
 4.2446143E+00 9.3942964E-01 1.8874233E+00
 4.1786566E+00 9.6932261E-01 1.8771360E+00
 4.1159912E+00 1.0000000E+00 1.8631528E+00
 4.0565120E+00 1.0311428E+00 1.8454949E+00
 3.9993113E+00 1.0621319E+00 1.8239378E+00
 5.3503915E+00 6.8179670E-01 1.8171584E+00
 5.2817986E+00 6.9715995E-01 1.8234351E+00
 5.2115688E+00 7.1219016E-01 1.8301642E+00
 5.1395455E+00 7.2757237E-01 1.8376192E+00
 5.0657634E+00 7.4360364E-01 1.8458392E+00
 4.9904281E+00 7.6045702E-01 1.8547182E+00
 4.9138714E+00 7.7829003E-01 1.8640294E+00
 4.8365005E+00 7.9726673E-01 1.8734292E+00
 4.7587625E+00 8.1754493E-01 1.8824640E+00
 4.6811191E+00 8.3925759E-01 1.8905920E+00
 4.6040352E+00 8.6249223E-01 1.8972192E+00
 4.5279747E+00 8.8727462E-01 1.9017445E+00
 4.4534000E+00 9.1355890E-01 1.9036109E+00
 4.3807692E+00 9.4122863E-01 1.9023521E+00
 4.3105254E+00 9.7011062E-01 1.8976297E+00
 4.2430659E+00 1.0000000E+00 1.8892485E+00
 4.1786566E+00 1.0306775E+00 1.8771360E+00
 4.1172152E+00 1.0618541E+00 1.8612544E+00
 4.0578770E+00 1.0929611E+00 1.8413920E+00
 5.3492395E+00 7.1974723E-01 1.8309464E+00
 5.2795355E+00 7.3638185E-01 1.8368525E+00
 5.2082928E+00 7.5282075E-01 1.8432441E+00
 5.1353809E+00 7.6971722E-01 1.8503346E+00
 5.0608577E+00 7.8735591E-01 1.8581269E+00
 4.9849555E+00 8.0590311E-01 1.8664844E+00
 4.9080326E+00 8.2550616E-01 1.8751502E+00
 4.8305213E+00 8.4630769E-01 1.8837500E+00
 4.7528876E+00 8.6843338E-01 1.8918052E+00
 4.6756060E+00 8.9197235E-01 1.8987597E+00
 4.5991473E+00 9.1696031E-01 1.9040205E+00
 4.5239728E+00 9.4336769E-01 1.9070053E+00
 4.4505318E+00 9.7109823E-01 1.9071927E+00
 4.3792542E+00 1.0000000E+00 1.9041641E+00
 4.3105254E+00 1.0298895E+00 1.8976298E+00
 4.2446143E+00 1.0605704E+00 1.8874233E+00
 4.1814669E+00 1.0917921E+00 1.8734387E+00
 4.1203025E+00 1.1230601E+00 1.8554710E+00
 5.3481837E+00 7.5945883E-01 1.8433064E+00
 5.2775062E+00 7.7732385E-01 1.8486977E+00
 5.2054176E+00 7.9514841E-01 1.8545940E+00
 5.1318079E+00 8.1353219E-01 1.8611455E+00
 5.0567581E+00 8.3273859E-01 1.8683182E+00
 4.9805248E+00 8.5292124E-01 1.8759469E+00
 4.9034910E+00 8.7421010E-01 1.8837473E+00
 4.8261084E+00 8.9672120E-01 1.8913213E+00
 4.7488564E+00 9.2054231E-01 1.8981747E+00
 4.6722155E+00 9.4571633E-01 1.9037494E+00
 4.5966534E+00 9.7222796E-01 1.9074662E+00
 4.5226183E+00 1.0000000E+00 1.9087733E+00
 4.4505318E+00 1.0289019E+00 1.9071927E+00
 4.3807692E+00 1.0587715E+00 1.9023522E+00
 4.3135983E+00 1.0894374E+00 1.8939942E+00
 4.2489971E+00 1.1206903E+00 1.8819377E+00
 4.1862809E+00 1.1521209E+00 1.8659647E+00
 5.3472545E+00 8.0077615E-01 1.8540183E+00
 5.2757651E+00 8.1981928E-01 1.8587531E+00
 5.2030174E+00 8.3897999E-01 1.8639934E+00
 5.1289213E+00 8.5879177E-01 1.8698284E+00
 5.0535770E+00 8.7948866E-01 1.8761894E+00
 4.9772640E+00 9.0120589E-01 1.8828852E+00
 4.9003842E+00 9.2405108E-01 1.8896096E+00
 4.8234033E+00 9.4810852E-01 1.8959490E+00
 4.7468065E+00 9.7342582E-01 1.9014047E+00
 4.6710716E+00 1.0000000E+00 1.9054283E+00
 4.5966534E+00 1.0277721E+00 1.9074662E+00
 4.5239728E+00 1.0566324E+00 1.9070054E+00
 4.4534000E+00 1.0864412E+00 1.9036110E+00
 4.3852038E+00 1.1170524E+00 1.8969447E+00
 4.3193961E+00 1.1482990E+00 1.8867487E+00
 4.2553971E+00 1.1798592E+00 1.8727737E+00
 5.3464806E+00 8.4349276E-01 1.8628750E+00
 5.2743611E+00 8.6363674E-01 1.8668148E+00
 5.2011594E+00 8.8405284E-01 1.8712408E+00
 5.1268014E+00 9.0519710E-01 1.8761860E+00
 5.0514057E+00 9.2726735E-01 1.8815510E+00
 4.9752691E+00 9.5037566E-01 1.8871233E+00
 4.8988073E+00 9.7460310E-01 1.8925817E+00
 4.8224920E+00 1.0000001E+00 1.8975063E+00
 4.7468065E+00 1.0265743E+00 1.9014048E+00
 4.6722155E+00 1.0542838E+00 1.9037495E+00
 4.5991473E+00 1.0830398E+00 1.9040206E+00
 4.5279747E+00 1.1127255E+00 1.9017447E+00
 4.4589737E+00 1.1432206E+00 1.8965203E+00
 4.3921954E+00 1.1743998E+00 1.8880183E+00
 4.3271778E+00 1.2060269E+00 1.8759459E+00
 5.3458820E+00 8.8735379E-01 1.8696936E+00
 5.2733314E+00 9.0849257E-01 1.8727084E+00
 5.1998927E+00 9.3005072E-01 1.8761706E+00
 5.1255061E+00 9.5239575E-01 1.8800652E+00
 5.0503048E+00 9.7568380E-01 1.8842672E+00
 4.9745978E+00 1.0000000E+00 1.8885489E+00
 4.8988073E+00 1.0253970E+00 1.8925817E+00
 4.8234033E+00 1.0518916E+00 1.8959491E+00
 4.7488565E+00 1.0794578E+00 1.8981749E+00
 4.6756061E+00 1.1080278E+00 1.8987599E+00
 4.6040353E+00 1.1375079E+00 1.8972193E+00
 4.5344355E+00 1.1678042E+00 1.8931111E+00
 4.4669066E+00 1.1988317E+00 1.8860473E+00
 4.4011194E+00 1.2304353E+00 1.8756862E+00
 5.3454744E+00 9.3206367E-01 1.8743265E+00
 5.2727028E+00 9.5406390E-01 1.8763005E+00
 5.1992509E+00 9.7661930E-01 1.8786658E+00
 5.1250705E+00 1.0000000E+00 1.8813693E+00
 5.0503048E+00 1.0243163E+00 1.8842672E+00
 4.9752691E+00 1.0496244E+00 1.8871234E+00
 4.9003842E+00 1.0759490E+00 1.8896097E+00
 4.8261084E+00 1.1032789E+00 1.8913215E+00
 4.7528876E+00 1.1315667E+00 1.8918054E+00
 4.6811191E+00 1.1607425E+00 1.8905922E+00
 4.6111179E+00 1.1907391E+00 1.8872244E+00
 4.5430431E+00 1.2215098E+00 1.8812731E+00
 4.4767147E+00 1.2529746E+00 1.8723487E+00
 5.3452679E+00 9.7729582E-01 1.8766697E+00
 5.2724915E+00 1.0000000E+00 1.8775073E+00
 5.1992509E+00 1.0233808E+00 1.8786659E+00
 5.1255061E+00 1.0476043E+00 1.8800652E+00
 5.0514057E+00 1.0727327E+00 1.8815510E+00
 4.9772640E+00 1.0987942E+00 1.8828853E+00
 4.9034910E+00 1.1257900E+00 1.8837475E+00
 4.8305213E+00 1.1536924E+00 1.8837502E+00
 4.7587625E+00 1.1824552E+00 1.8824642E+00
 4.6885565E+00 1.2120383E+00 1.8794417E+00
 4.6201311E+00 1.2424318E+00 1.8742341E+00
 4.5534703E+00 1.2736234E+00 1.8664109E+00
 5.3452679E+00 1.0227043E+00 1.8766697E+00
 5.2727028E+00 1.0459362E+00 1.8763005E+00
 5.1998927E+00 1.0699494E+00 1.8761707E+00
 5.1268013E+00 1.0948030E+00 1.8761861E+00
 5.0535770E+00 1.1205114E+00 1.8761895E+00
 4.9805248E+00 1.1470789E+00 1.8759471E+00
 4.9080326E+00 1.1744940E+00 1.8751504E+00
 4.8365006E+00 1.2027334E+00 1.8734295E+00
 4.7662933E+00 1.2317845E+00 1.8703696E+00
 4.6977112E+00 1.2616725E+00 1.8655239E+00
 4.6309142E+00 1.2924454E+00 1.8584336E+00
 5.3454743E+00 1.0679364E+00 1.8743265E+00
 5.2733314E+00 1.0915075E+00 1.8727085E+00
 5.2011593E+00 1.1159473E+00 1.8712409E+00
 5.1289213E+00 1.1412083E+00 1.8698285E+00
 5.0567581E+00 1.1672615E+00 1.8683184E+00
 4.9849555E+00 1.1940970E+00 1.8664846E+00
 4.9138714E+00 1.2217101E+00 1.8640296E+00
 4.8438756E+00 1.2501148E+00 1.8605904E+00
 4.7753366E+00 1.2793702E+00 1.8557425E+00
 4.7085947E+00 1.3095779E+00 1.8490136E+00
 5.3458819E+00 1.1126463E+00 1.8696937E+00
 5.2743611E+00 1.1363634E+00 1.8668149E+00
 5.2030174E+00 1.1610201E+00 1.8639935E+00
 5.1318079E+00 1.1864679E+00 1.8611457E+00
 5.0608577E+00 1.2126442E+00 1.8581271E+00
 4.9904281E+00 1.2395431E+00 1.8547184E+00
 4.9208599E+00 1.2672002E+00 1.8506208E+00
 4.8525712E+00 1.2957066E+00 1.8454499E+00
 4.7860773E+00 1.3252115E+00 1.8387364E+00
 5.3464805E+00 1.1565073E+00 1.8628751E+00
 5.2757651E+00 1.1801808E+00 1.8587532E+00
 5.2054175E+00 1.2048517E+00 1.8545942E+00
 5.1353809E+00 1.2302829E+00 1.8503348E+00
 5.0657634E+00 1.2563965E+00 1.8458395E+00
 4.9968230E+00 1.2832250E+00 1.8408817E+00
 4.9289929E+00 1.3108847E+00 1.8351299E+00
 4.8629426E+00 1.3395677E+00 1.8281337E+00
 5.3472545E+00 1.1992239E+00 1.8540184E+00
 5.2775062E+00 1.2226763E+00 1.8486978E+00
 5.2082928E+00 1.2471794E+00 1.8432443E+00
 5.1395454E+00 1.2724278E+00 1.8376194E+00
 5.0713839E+00 1.2983660E+00 1.8316825E+00
 5.0042036E+00 1.3251069E+00 1.8251659E+00
 4.9387898E+00 1.3528749E+00 1.8176524E+00
 5.3481837E+00 1.2405413E+00 1.8433066E+00
 5.2795354E+00 1.2636183E+00 1.8368527E+00
 5.2115688E+00 1.2878100E+00 1.8301644E+00
 5.1442420E+00 1.3127873E+00 1.8232165E+00
 5.0778517E+00 1.3385592E+00 1.8158296E+00
 5.0132451E+00 1.3653492E+00 1.8076361E+00
 5.3492395E+00 1.2802529E+00 1.8309465E+00
 5.2817986E+00 1.3028402E+00 1.8234353E+00
 5.2152079E+00 1.3266544E+00 1.8155638E+00
 5.1496497E+00 1.3513977E+00 1.8072858E+00
 5.0859788E+00 1.3771765E+00 1.7983210E+00
 5.3503915E+00 1.3182034E+00 1.8171586E+00
 5.2842703E+00 1.3402688E+00 1.8086511E+00
 5.2194440E+00 1.3637853E+00 1.7995845E+00
 5.1567191E+00 1.3885118E+00 1.7898380E+00
 5.3516265E+00 1.3543149E+00 1.8021537E+00
 5.2871402E+00 1.3759595E+00 1.7926527E+00
 5.2252434E+00 1.3994712E+00 1.7822332E+00
 5.3530535E+00 1.3886186E+00 1.7861068E+00
 5.2914881E+00 1.4102644E+00 1.7754099E+00
 5.3551139E+00 1.4212027E+00 1.7691589E+00
 5.4174583E+00 1.4341431E+00 1.7622933E+00
 5.4175359E+00 1.4030823E+00 1.7791709E+00
 5.4175744E+00 1.3701477E+00 1.7953612E+00
 5.4176018E+00 1.3351875E+00 1.8107228E+00
 5.4176248E+00 1.2982830E+00 1.8250225E+00
 5.4176462E+00 1.2595612E+00 1.8380190E+00
 5.4176654E+00 1.2191641E+00 1.8494863E+00
 5.4176822E+00 1.1772737E+00 1.8592116E+00
 5.4176958E+00 1.1341221E+00 1.8670010E+00
 5.4177059E+00 1.0899828E+00 1.8726909E+00
 5.4177120E+00 1.0451644E+00 1.8761568E+00
 5.4177141E+00 1.0000000E+00 1.8773209E+00
 5.4177120E+00 9.5483569E-01 1.8761568E+00
 5.4177059E+00 9.1001730E-01 1.8726909E+00
 5.4176958E+00 8.6587796E-01 1.8670010E+00
 5.4176822E+00 8.2272637E-01 1.8592115E+00
 5.4176654E+00 7.8083597E-01 1.8494862E+00
 5.4176462E+00 7.4043891E-01 1.8380189E+00
 5.4176249E+00 7.0171707E-01 1.8250224E+00
 5.4176018E+00 6.6481258E-01 1.8107227E+00
 5.4175744E+00 6.2985243E-01 1.7953610E+00
 5.4175359E+00 5.9691783E-01 1.7791708E+00
 5.4174583E+00 5.6585702E-01 1.7622932E+00
 5.4733039E+00 5.4654121E-01 1.7520141E+00
 5.5350015E+00 5.5517886E-01 1.7588668E+00
 5.5995977E+00 5.6410774E-01 1.7663828E+00
 5.6668228E+00 5.7343484E-01 1.7745511E+00
 5.7364116E+00 5.8323757E-01 1.7832614E+00
 5.8081049E+00 5.9365560E-01 1.7923741E+00
 5.8816771E+00 6.0485117E-01 1.8016979E+00
 5.9568521E+00 6.1700244E-01 1.8109878E+00
 6.0333078E+00 6.3029350E-01 1.8199494E+00
 6.1106696E+00 6.4490327E-01 1.8282470E+00
 6.1885154E+00 6.6099464E-01 1.8355165E+00
 6.2663818E+00 6.7870304E-01 1.8413805E+00
 6.3437723E+00 6.9812553E-01 1.8454659E+00
 6.4201701E+00 7.1931174E-01 1.8474220E+00
 6.4950532E+00 7.4225673E-01 1.8469402E+00
 6.5679117E+00 7.6689760E-01 1.8437717E+00
 6.6382653E+00 7.9311415E-01 1.8377426E+00
 6.7056782E+00 8.2073438E-01 1.8287643E+00
 6.7697709E+00 8.4954351E-01 1.8168371E+00
 6.8302210E+00 8.7929526E-01 1.8020491E+00
 6.8867264E+00 9.0970387E-01 1.7845873E+00
 6.9390071E+00 9.4045387E-01 1.7647280E+00
 6.9867259E+00 9.7110910E-01 1.7428843E+00
 5.4798206E+00 1.4218679E+00 1.7703133E+00
 5.5433614E+00 1.4115081E+00 1.7776794E+00
 5.6094309E+00 1.4011714E+00 1.7854940E+00
 5.6776855E+00 1.3904976E+00 1.7938347E+00
 5.7480795E+00 1.3792389E+00 1.8026713E+00
 5.8204242E+00 1.3672508E+00 1.8118436E+00
 5.8944876E+00 1.3543738E+00 1.8211368E+00
 5.9699801E+00 1.3404440E+00 1.8302788E+00
 6.0465543E+00 1.3252969E+00 1.8389515E+00
 6.1238134E+00 1.3087792E+00 1.8468003E+00
 6.2013162E+00 1.2907612E+00 1.8534491E+00
 6.2785856E+00 1.2711470E+00 1.8585167E+00
 6.3551185E+00 1.2498843E+00 1.8616356E+00
 6.4304004E+00 1.2269710E+00 1.8624709E+00
 6.5039211E+00 1.2024592E+00 1.8607391E+00
 6.5751920E+00 1.1764544E+00 1.8562253E+00
 6.6437630E+00 1.1491096E+00 1.8487953E+00
 6.7092377E+00 1.1206125E+00 1.8384027E+00
 6.7712844E+00 1.0911727E+00 1.8250869E+00
 6.8296686E+00 1.0610202E+00 1.8089534E+00
 6.8843702E+00 1.0304465E+00 1.7901050E+00
 6.9358618E+00 1.0000000E+00 1.7684755E+00
 5.4819980E+00 1.3892741E+00 1.7873214E+00
 5.5477955E+00 1.3771635E+00 1.7950407E+00
 5.6152795E+00 1.3653961E+00 1.8029884E+00
 5.6847674E+00 1.3532405E+00 1.8114211E+00
 5.7561870E+00 1.3404297E+00 1.8202800E+00
 5.8294199E+00 1.3267852E+00 1.8294014E+00
 5.9042231E+00 1.3121566E+00 1.8385419E+00
 5.9802856E+00 1.2963908E+00 1.8474044E+00
 6.0572342E+00 1.2793435E+00 1.8556462E+00
 6.1346464E+00 1.2608887E+00 1.8628934E+00
 6.2120590E+00 1.2409315E+00 1.8687576E+00
 6.2889782E+00 1.2194165E+00 1.8728545E+00
 6.3648920E+00 1.1963363E+00 1.8748238E+00
 6.4392859E+00 1.1717354E+00 1.8743485E+00
 6.5116605E+00 1.1457094E+00 1.8711737E+00
 6.5815500E+00 1.1183990E+00 1.8651205E+00
 6.6485408E+00 1.0899766E+00 1.8560956E+00
 6.7122985E+00 1.0606274E+00 1.8440872E+00
 6.7726311E+00 1.0305459E+00 1.8291365E+00
 6.8296689E+00 1.0000000E+00 1.8112453E+00
 6.8843702E+00 9.6955352E-01 1.7901050E+00
 5.4834960E+00 1.3549326E+00 1.8034240E+00
 5.5507187E+00 1.3413918E+00 1.8111400E+00
 5.6195446E+00 1.3281346E+00 1.8190946E+00
 5.6901779E+00 1.3144514E+00 1.8274760E+00
 5.7626322E+00 1.3000204E+00 1.8362231E+00
 5.8367580E+00 1.2846705E+00 1.8451418E+00
 5.9123020E+00 1.2682541E+00 1.8539658E+00
 5.9889245E+00 1.2506351E+00 1.8623717E+00
 6.0662253E+00 1.2316922E+00 1.8699949E+00
 6.1437567E+00 1.2113306E+00 1.8764452E+00
 6.2210345E+00 1.1894926E+00 1.8813266E+00
 6.2975510E+00 1.1661655E+00 1.8842571E+00
 6.3727886E+00 1.1413866E+00 1.8848897E+00
 6.4462383E+00 1.1152431E+00 1.8829319E+00
 6.5174185E+00 1.0878665E+00 1.8781622E+00
 6.5858977E+00 1.0594184E+00 1.8704404E+00
 6.6513267E+00 1.0300709E+00 1.8597067E+00
 6.7135110E+00 1.0000000E+00 1.8459548E+00
 6.7726311E+00 9.6945418E-01 1.8291365E+00
 6.8296686E+00 9.3897990E-01 1.8089534E+00
 5.4847793E+00 1.3187708E+00 1.8184821E+00
 5.5532262E+00 1.3038593E+00 1.8260195E+00
 5.6232005E+00 1.2891333E+00 1.8338126E+00
 5.6948701E+00 1.2738886E+00 1.8419918E+00
 5.7682283E+00 1.2578170E+00 1.8504587E+00
 5.8431131E+00 1.2407493E+00 1.8589951E+00
 5.9192424E+00 1.2225537E+00 1.8673083E+00
 5.9962508E+00 1.2031137E+00 1.8750530E+00
 6.0737122E+00 1.1823363E+00 1.8818467E+00
 6.1511570E+00 1.1601618E+00 1.8872897E+00
 6.2280854E+00 1.1365725E+00 1.8909857E+00
 6.3039823E+00 1.1115986E+00 1.8925633E+00
 6.3783332E+00 1.0853192E+00 1.8916975E+00
 6.4506446E+00 1.0578566E+00 1.8881268E+00
 6.5204678E+00 1.0293630E+00 1.8816664E+00
 6.5874329E+00 1.0000000E+00 1.8722098E+00
 6.6513267E+00 9.6992921E-01 1.8597067E+00
 6.7122985E+00 9.3937268E-01 1.8440872E+00
 6.7712844E+00 9.0882737E-01 1.8250869E+00
 5.4859720E+00 1.2807616E+00 1.8323209E+00
 5.5555181E+00 1.2645189E+00 1.8395259E+00
 5.6264887E+00 1.2483280E+00 1.8469993E+00
 5.6990283E+00 1.2315240E+00 1.8548066E+00
 5.7731106E+00 1.2138195E+00 1.8628118E+00
 5.8485500E+00 1.1950616E+00 1.8707699E+00
 5.9250400E+00 1.1751368E+00 1.8783665E+00
 6.0021899E+00 1.1539548E+00 1.8852381E+00
 6.0795523E+00 1.1314549E+00 1.8909918E+00
 6.1566417E+00 1.1076154E+00 1.8952259E+00
 6.2329504E+00 1.0824596E+00 1.8975529E+00
 6.3079649E+00 1.0560582E+00 1.8976211E+00
 6.3811854E+00 1.0285241E+00 1.8951345E+00
 6.4521494E+00 1.0000000E+00 1.8898669E+00
 6.5204678E+00 9.7063705E-01 1.8816664E+00
 6.5858977E+00 9.4058162E-01 1.8704404E+00
 6.6485408E+00 9.1002349E-01 1.8560956E+00
 6.7092377E+00 8.7938755E-01 1.8384027E+00
 5.4870649E+00 1.2409851E+00 1.8447277E+00
 5.5575733E+00 1.2234471E+00 1.8514512E+00
 5.6293745E+00 1.2058124E+00 1.8584426E+00
 5.7025954E+00 1.1874770E+00 1.8657011E+00
 5.7771900E+00 1.1681839E+00 1.8730549E+00
 5.8529512E+00 1.1478018E+00 1.8802353E+00
 5.9295491E+00 1.1262414E+00 1.8869101E+00
 6.0065728E+00 1.1034422E+00 1.8927049E+00
 6.0835592E+00 1.0793793E+00 1.8972235E+00
 6.1600146E+00 1.0540697E+00 1.9000713E+00
 6.2354324E+00 1.0275755E+00 1.9008784E+00
 6.3093127E+00 1.0000000E+00 1.8993204E+00
 6.3811854E+00 9.7147598E-01 1.8951345E+00
 6.4506446E+00 9.4214351E-01 1.8881268E+00
 6.5174185E+00 9.1213353E-01 1.8781622E+00
 6.5815500E+00 8.8160106E-01 1.8651205E+00
 6.6437630E+00 8.5089050E-01 1.8487953E+00
 5.4880273E+00 1.1995967E+00 1.8554811E+00
 5.5593368E+00 1.1808116E+00 1.8615756E+00
 5.6317833E+00 1.1617810E+00 1.8679197E+00
 5.7054769E+00 1.1419751E+00 1.8744506E+00
 5.7803549E+00 1.1211749E+00 1.8809644E+00
 5.8561898E+00 1.0992758E+00 1.8871733E+00
 5.9326333E+00 1.0762165E+00 1.8927336E+00
 6.0092593E+00 1.0519696E+00 1.8972668E+00
 6.0855967E+00 1.0265462E+00 1.9003822E+00
 6.1611525E+00 1.0000000E+00 1.9017011E+00
 6.2354324E+00 9.7242457E-01 1.9008784E+00
 6.3079649E+00 9.4394188E-01 1.8976211E+00
 6.3783332E+00 9.1468089E-01 1.8916975E+00
 6.4462383E+00 8.8475694E-01 1.8829320E+00
 6.5116605E+00 8.5429070E-01 1.8711737E+00
 6.5751920E+00 8.2354563E-01 1.8562253E+00
 5.4888293E+00 1.1568037E+00 1.8643727E+00
 5.5607591E+00 1.1368451E+00 1.8696933E+00
 5.6336480E+00 1.1164985E+00 1.8752272E+00
 5.7075928E+00 1.0953191E+00 1.8808567E+00
 5.7825149E+00 1.0731327E+00 1.8863514E+00
 5.8581710E+00 1.0498651E+00 1.8914104E+00
 5.9341987E+00 1.0254856E+00 1.8956852E+00
 6.0101643E+00 1.0000000E+00 1.8988015E+00
 6.0855967E+00 9.7345389E-01 1.9003822E+00
 6.1600146E+00 9.4593034E-01 1.9000713E+00
 6.2329504E+00 9.1754042E-01 1.8975529E+00
 6.3039823E+00 8.8840147E-01 1.8925633E+00
 6.3727886E+00 8.5861349E-01 1.8848897E+00
 6.4392859E+00 8.2826468E-01 1.8743486E+00
 6.5039211E+00 7.9754088E-01 1.8607392E+00
 5.4894497E+00 1.1128616E+00 1.8712185E+00
 5.5618022E+00 1.0918330E+00 1.8756281E+00
 5.6349191E+00 1.0702833E+00 1.8801981E+00
 5.7088854E+00 1.0478639E+00 1.8847653E+00
 5.7836101E+00 1.0244499E+00 1.8890802E+00
 5.8588376E+00 1.0000000E+00 1.8928354E+00
 5.9341987E+00 9.7451449E-01 1.8956852E+00
 6.0092593E+00 9.4803048E-01 1.8972668E+00
 6.0835592E+00 9.2062073E-01 1.8972234E+00
 6.1566417E+00 8.9238466E-01 1.8952259E+00
 6.2280854E+00 8.6342759E-01 1.8909857E+00
 6.2975510E+00 8.3383455E-01 1.8842571E+00
 6.3648920E+00 8.0366373E-01 1.8748238E+00
 6.4304004E+00 7.7302907E-01 1.8624709E+00
 5.4898722E+00 1.0680671E+00 1.8758700E+00
 5.5624389E+00 1.0461003E+00 1.8792454E+00
 5.6355631E+00 1.0234926E+00 1.8827141E+00
 5.7093202E+00 1.0000000E+00 1.8860792E+00
 5.7836101E+00 9.7555016E-01 1.8890802E+00
 5.8581710E+00 9.5013497E-01 1.8914104E+00
 5.9326333E+00 9.2378354E-01 1.8927336E+00
 6.0065728E+00 8.9655788E-01 1.8927049E+00
 6.0795523E+00 8.6854518E-01 1.8909918E+00
 6.1511570E+00 8.3983829E-01 1.8872897E+00
 6.2210345E+00 8.1050748E-01 1.8813266E+00
 6.2889782E+00 7.8058361E-01 1.8728545E+00
 6.3551185E+00 7.5011576E-01 1.8616356E+00
 5.4900862E+00 1.0227481E+00 1.8782226E+00
 5.5626530E+00 1.0000000E+00 1.8804607E+00
 5.6355631E+00 9.7650744E-01 1.8827141E+00
 5.7088854E+00 9.5213620E-01 1.8847653E+00
 5.7825149E+00 9.2686740E-01 1.8863514E+00
 5.8561898E+00 9.0072425E-01 1.8871733E+00
 5.9295491E+00 8.7375872E-01 1.8869101E+00
 6.0021899E+00 8.4604531E-01 1.8852381E+00
 6.0737122E+00 8.1766374E-01 1.8818467E+00
 6.1437567E+00 7.8866946E-01 1.8764452E+00
 6.2120590E+00 7.5906861E-01 1.8687576E+00
 6.2785856E+00 7.2885303E-01 1.8585167E+00
 5.4900862E+00 9.7725201E-01 1.8782226E+00
 5.5624389E+00 9.5389981E-01 1.8792453E+00
 5.6349191E+00 9.2971679E-01 1.8801981E+00
 5.7075928E+00 9.0468102E-01 1.8808567E+00
 5.7803550E+00 8.7882521E-01 1.8809644E+00
 5.8529512E+00 8.5219827E-01 1.8802353E+00
 5.9250400E+00 8.2486332E-01 1.8783664E+00
 5.9962508E+00 7.9688640E-01 1.8750530E+00
 6.0662253E+00 7.6830789E-01 1.8699949E+00
 6.1346464E+00 7.3911133E-01 1.8628934E+00
 6.2013162E+00 7.0923888E-01 1.8534491E+00
 5.4898722E+00 9.3193299E-01 1.8758699E+00
 5.5618022E+00 9.0816706E-01 1.8756280E+00
 5.6336480E+00 8.8350160E-01 1.8752272E+00
 5.7054769E+00 8.5802502E-01 1.8744506E+00
 5.7771900E+00 8.3181617E-01 1.8730549E+00
 5.8485500E+00 8.0493845E-01 1.8707699E+00
 5.9192424E+00 7.7744636E-01 1.8673083E+00
 5.9889245E+00 7.4936495E-01 1.8623717E+00
 6.0572342E+00 7.2065661E-01 1.8556462E+00
 6.1238134E+00 6.9122088E-01 1.8468003E+00
 5.4894497E+00 8.8713849E-01 1.8712184E+00
 5.5607591E+00 8.6315496E-01 1.8696932E+00
 5.6317833E+00 8.3821905E-01 1.8679197E+00
 5.7025954E+00 8.1252308E-01 1.8657011E+00
 5.7731106E+00 7.8618062E-01 1.8628118E+00
 5.8431132E+00 7.5925073E-01 1.8589951E+00
 5.9123020E+00 7.3174602E-01 1.8539658E+00
 5.9802856E+00 7.0360926E-01 1.8474044E+00
 6.0465543E+00 6.7470322E-01 1.8389514E+00
 5.4888293E+00 8.4319637E-01 1.8643726E+00
 5.5593368E+00 8.1918850E-01 1.8615755E+00
 5.6293745E+00 7.9418767E-01 1.8584425E+00
 5.6990283E+00 7.6847611E-01 1.8548065E+00
 5.7682283E+00 7.4218310E-01 1.8504587E+00
 5.8367580E+00 7.1532956E-01 1.8451417E+00
 5.9042231E+00 6.8784347E-01 1.8385419E+00
 5.9699801E+00 6.5955603E-01 1.8302788E+00
 5.4880273E+00 8.0040336E-01 1.8554811E+00
 5.5575733E+00 7.7655303E-01 1.8514511E+00
 5.6264888E+00 7.5167204E-01 1.8469992E+00
 5.6948702E+00 7.2611152E-01 1.8419917E+00
 5.7626322E+00 6.9997966E-01 1.8362230E+00
 5.8294199E+00 6.7321491E-01 1.8294014E+00
 5.8944876E+00 6.4562631E-01 1.8211368E+00
 5.4870650E+00 7.5901502E-01 1.8447276E+00
 5.5555181E+00 7.3548119E-01 1.8395258E+00
 5.6232005E+00 7.1086680E-01 1.8338125E+00
 5.6901779E+00 6.8554872E-01 1.8274759E+00
 5.7561870E+00 6.5957034E-01 1.8202800E+00
 5.8204242E+00 6.3274929E-01 1.8118436E+00
 5.4859720E+00 7.1923854E-01 1.8323208E+00
 5.5532262E+00 6.9614080E-01 1.8260194E+00
 5.6195446E+00 6.7186550E-01 1.8190946E+00
 5.6847674E+00 6.4675962E-01 1.8114211E+00
 5.7480795E+00 6.2076123E-01 1.8026712E+00
 5.4847793E+00 6.8122933E-01 1.8184820E+00
 5.5507187E+00 6.5860828E-01 1.8111399E+00
 5.6152795E+00 6.3460403E-01 1.8029883E+00
 5.6776855E+00 6.0950248E-01 1.7938347E+00
 5.4834960E+00 6.4506754E-01 1.8034239E+00
 5.5477955E+00 6.2283661E-01 1.7950406E+00
 5.6094309E+00 5.9882876E-01 1.7854939E+00
 5.4819980E+00 6.1072606E-01 1.7873213E+00
 5.5433614E+00 5.8849199E-01 1.7776793E+00
 5.4798206E+00 5.7813225E-01 1.7703132E+00
 5.3829555E+00 1.4825752E+00 1.7322945E+00
 5.3446419E+00 1.5060057E+00 1.7162258E+00
 5.3047080E+00 1.5301608E+00 1.6987877E+00
 5.2632848E+00 1.5549360E+00 1.6799196E+00
 5.2205108E+00 1.5802243E+00 1.6595667E+00
 5.1766297E+00 1.6059106E+00 1.6376578E+00
 5.1318778E+00 1.6318769E+00 1.6141018E+00
 5.0865207E+00 1.6579699E+00 1.5888129E+00
 5.0408620E+00 1.6840011E+00 1.5617161E+00
 4.9952332E+00 1.7097443E+00 1.5327574E+00
 4.9499836E+00 1.7349418E+00 1.5019126E+00
 4.9054662E+00 1.7593122E+00 1.4691962E+00
 4.8620251E+00 1.7825623E+00 1.4346703E+00
 4.8199830E+00 1.8044016E+00 1.3984497E+00
 4.7796304E+00 1.8245582E+00 1.3607039E+00
 4.7412165E+00 1.8427938E+00 1.3216534E+00
 4.7049429E+00 1.8589173E+00 1.2815619E+00
 4.6709607E+00 1.8727937E+00 1.2407228E+00
 4.6393715E+00 1.8843484E+00 1.1994455E+00
 4.6102425E+00 1.8935654E+00 1.1580433E+00
 4.5836388E+00 1.9004789E+00 1.1168526E+00
 4.5596189E+00 1.9051693E+00 1.0762043E+00
 4.5382955E+00 1.9077610E+00 1.0365997E+00
 3.8339339E+00 1.0848084E+00 1.7419573E+00
 3.8251118E+00 1.1401044E+00 1.7281884E+00
 3.8192956E+00 1.1967883E+00 1.7113211E+00
 3.8174299E+00 1.2548545E+00 1.6914872E+00
 3.8200399E+00 1.3138999E+00 1.6686399E+00
 3.8275050E+00 1.3733385E+00 1.6427474E+00
 3.8401155E+00 1.4324771E+00 1.6138529E+00
 3.8580631E+00 1.4905531E+00 1.5820980E+00
 3.8814132E+00 1.5467685E+00 1.5477270E+00
 3.9100843E+00 1.6003325E+00 1.5110828E+00
 3.9438401E+00 1.6505068E+00 1.4725951E+00
 3.9822933E+00 1.6966504E+00 1.4327621E+00
 4.0249236E+00 1.7382580E+00 1.3921263E+00
 4.0711063E+00 1.7749893E+00 1.3512457E+00
 4.1201486E+00 1.8066829E+00 1.3106637E+00
 4.1713312E+00 1.8333575E+00 1.2708815E+00
 4.2239498E+00 1.8551963E+00 1.2323341E+00
 4.2773541E+00 1.8725201E+00 1.1953746E+00
 4.3309724E+00 1.8857505E+00 1.1602675E+00
 4.3843289E+00 1.8953723E+00 1.1271749E+00
 4.4370137E+00 1.9019008E+00 1.0960824E+00
 4.4885620E+00 1.9058595E+00 1.0665994E+00
 3.8839066E+00 1.1182161E+00 1.7657042E+00
 3.8780684E+00 1.1752080E+00 1.7516305E+00
 3.8751183E+00 1.2327268E+00 1.7342821E+00
 3.8761731E+00 1.2910882E+00 1.7138433E+00
 3.8817733E+00 1.3499847E+00 1.6902830E+00
 3.8922454E+00 1.4088403E+00 1.6635769E+00
 3.9078072E+00 1.4669479E+00 1.6337893E+00
 3.9285685E+00 1.5235320E+00 1.6010945E+00
 3.9545074E+00 1.5778011E+00 1.5657771E+00
 3.9854568E+00 1.6289965E+00 1.5282228E+00
 4.0211011E+00 1.6764394E+00 1.4889025E+00
 4.0609896E+00 1.7195729E+00 1.4483494E+00
 4.1045588E+00 1.7579960E+00 1.4071314E+00
 4.1511669E+00 1.7914828E+00 1.3658194E+00
 4.2001325E+00 1.8199891E+00 1.3249571E+00
 4.2507761E+00 1.8436409E+00 1.2850326E+00
 4.3024621E+00 1.8627126E+00 1.2464569E+00
 4.3546355E+00 1.8775922E+00 1.2095457E+00
 4.4068483E+00 1.8887474E+00 1.1744808E+00
 4.4587198E+00 1.8966946E+00 1.1412079E+00
 4.5098656E+00 1.9019870E+00 1.1090470E+00
 3.9384991E+00 1.1504409E+00 1.7870263E+00
 3.9354664E+00 1.2081713E+00 1.7724109E+00
 3.9353575E+00 1.2660802E+00 1.7544377E+00
 3.9393007E+00 1.3244248E+00 1.7332555E+00
 3.9478152E+00 1.3828967E+00 1.7088371E+00
 3.9611691E+00 1.4409017E+00 1.6811787E+00
 3.9795074E+00 1.4977160E+00 1.6503773E+00
 4.0028592E+00 1.5525634E+00 1.6166492E+00
 4.0311202E+00 1.6046743E+00 1.5803256E+00
 4.0640448E+00 1.6533384E+00 1.5418393E+00
 4.1012509E+00 1.6979514E+00 1.5017031E+00
 4.1422390E+00 1.7380528E+00 1.4604837E+00
 4.1864206E+00 1.7733519E+00 1.4187693E+00
 4.2331556E+00 1.8037389E+00 1.3771374E+00
 4.2817926E+00 1.8292795E+00 1.3361224E+00
 4.3317121E+00 1.8501963E+00 1.2961891E+00
 4.3823679E+00 1.8668384E+00 1.2577054E+00
 4.4333149E+00 1.8796482E+00 1.2209020E+00
 4.4841825E+00 1.8891388E+00 1.1857329E+00
 4.5345362E+00 1.8958848E+00 1.1515719E+00
 3.9974595E+00 1.1818014E+00 1.8053949E+00
 3.9971649E+00 1.2397304E+00 1.7900306E+00
 3.9998830E+00 1.2975816E+00 1.7712653E+00
 4.0066924E+00 1.3555149E+00 1.7491987E+00
 4.0180473E+00 1.4131725E+00 1.7238062E+00
 4.0341464E+00 1.4699396E+00 1.6951127E+00
 4.0550582E+00 1.5250880E+00 1.6632574E+00
 4.0807327E+00 1.5778586E+00 1.6285045E+00
 4.1109895E+00 1.6275251E+00 1.5912345E+00
 4.1455166E+00 1.6734457E+00 1.5519257E+00
 4.1838818E+00 1.7151075E+00 1.5111283E+00
 4.2255570E+00 1.7521569E+00 1.4694335E+00
 4.2699510E+00 1.7844177E+00 1.4274391E+00
 4.3164484E+00 1.8118902E+00 1.3857152E+00
 4.3644528E+00 1.8347387E+00 1.3447722E+00
 4.4134290E+00 1.8532635E+00 1.3050309E+00
 4.4629374E+00 1.8678726E+00 1.2667720E+00
 4.5126041E+00 1.8790612E+00 1.2300151E+00
 4.5619681E+00 1.8874155E+00 1.1942242E+00
 4.0605431E+00 1.2121263E+00 1.8204390E+00
 4.0629480E+00 1.2698282E+00 1.8041507E+00
 4.0684734E+00 1.3272034E+00 1.7844509E+00