# TIME = 5.400000
variables = x, y, z
zone N=5762 E=11520 F=FEPOINT ET=TRIANGLE
 5.6737819E+00 1.4615961E+00 1.7465118E+00
 5.6737819E+00 1.4615963E+00 2.5348732E-01
 5.6737819E+00 5.3840415E-01 1.7465117E+00
 5.6737819E+00 5.3840405E-01 2.5348756E-01
 4.0594384E+00 1.0000001E+00 1.7257757E+00
 7.2841381E+00 1.0000001E+00 1.7184206E+00
 4.0594386E+00 1.0000001E+00 2.7422406E-01
 7.2841382E+00 1.0000001E+00 2.8157872E-01
 4.7733275E+00 1.9110549E+00 9.9999971E-01
 4.7733275E+00 8.8945337E-02 9.9999971E-01
 6.5704156E+00 1.8989968E+00 9.9999971E-01
 6.5704157E+00 1.0100319E-01 9.9999971E-01
 5.6171697E+00 1.4530309E+00 1.7514674E+00
 5.5546179E+00 1.4437597E+00 1.7574192E+00
 5.4891674E+00 1.4343519E+00 1.7641534E+00
 5.4210375E+00 1.4247418E+00 1.7717892E+00
 5.3505112E+00 1.4148956E+00 1.7803415E+00
 5.2778957E+00 1.4047015E+00 1.7897799E+00
 5.2034959E+00 1.3940074E+00 1.7999843E+00
 5.1276521E+00 1.3826133E+00 1.8107360E+00
 5.0507318E+00 1.3702829E+00 1.8217072E+00
 4.9731259E+00 1.3567572E+00 1.8324656E+00
 4.8952388E+00 1.3417747E+00 1.8424910E+00
 4.8174849E+00 1.3250947E+00 1.8512053E+00
 4.7402900E+00 1.3065226E+00 1.8580122E+00
 4.6640965E+00 1.2859316E+00 1.8623426E+00
 4.5893679E+00 1.2632796E+00 1.8636996E+00
 4.5165874E+00 1.2386166E+00 1.8616971E+00
 4.4462471E+00 1.2120825E+00 1.8560873E+00
 4.3788299E+00 1.1838956E+00 1.8467724E+00
 4.3147882E+00 1.1543358E+00 1.8338037E+00
 4.2545237E+00 1.1237247E+00 1.8173684E+00
 4.1983967E+00 1.0924235E+00 1.7977826E+00
 4.1466907E+00 1.0608150E+00 1.7754536E+00
 4.0997319E+00 1.0294266E+00 1.7509354E+00
 5.6105538E+00 5.7893783E-01 1.7698209E+00
 5.5460421E+00 5.9001716E-01 1.7763102E+00
 5.4790122E+00 6.0085948E-01 1.7833731E+00
 5.4097977E+00 6.1176869E-01 1.7912124E+00
 5.3384590E+00 6.2300244E-01 1.7999431E+00
 5.2652492E+00 6.3471180E-01 1.8095200E+00
 5.1904605E+00 6.4706917E-01 1.8197974E+00
 5.1144360E+00 6.6026858E-01 1.8305169E+00
 5.0375546E+00 6.7453094E-01 1.8413113E+00
 4.9602168E+00 6.9008704E-01 1.8517135E+00
 4.8828336E+00 7.0715737E-01 1.8611788E+00
 4.8058218E+00 7.2592893E-01 1.8691184E+00
 4.7296059E+00 7.4653380E-01 1.8749426E+00
 4.6546228E+00 7.6903214E-01 1.8781055E+00
 4.5813248E+00 7.9340291E-01 1.8781490E+00
 4.5101767E+00 8.1954410E-01 1.8747371E+00
 4.4416433E+00 8.4728241E-01 1.8676771E+00
 4.3761665E+00 8.7638841E-01 1.8569237E+00
 4.3141339E+00 9.0658728E-01 1.8425662E+00
 4.2558105E+00 9.3755413E-01 1.8247836E+00
 4.2012160E+00 9.6889283E-01 1.8037541E+00
 4.1499449E+00 1.0000001E+00 1.7795026E+00
 5.6082627E+00 6.1184671E-01 1.7869103E+00
 5.5412091E+00 6.2478035E-01 1.7937538E+00
 5.4725761E+00 6.3707890E-01 1.8009611E+00
 5.4020471E+00 6.4943848E-01 1.8089110E+00
 5.3297107E+00 6.6217694E-01 1.8177025E+00
 5.2557173E+00 6.7551103E-01 1.8272912E+00
 5.1803492E+00 6.8961787E-01 1.8374982E+00
 5.1039514E+00 7.0468918E-01 1.8480300E+00
 5.0269148E+00 7.2092756E-01 1.8584819E+00
 4.9496509E+00 7.3853366E-01 1.8683544E+00
 4.8725787E+00 7.5768470E-01 1.8770805E+00
 4.7961188E+00 7.7851385E-01 1.8840638E+00
 4.7206956E+00 8.0109269E-01 1.8887237E+00
 4.6467406E+00 8.2542085E-01 1.8905408E+00
 4.5746930E+00 8.5142434E-01 1.8890978E+00
 4.5049923E+00 8.7896433E-01 1.8841081E+00
 4.4380575E+00 9.0785190E-01 1.8754272E+00
 4.3742378E+00 9.3785943E-01 1.8630387E+00
 4.3137121E+00 9.6870611E-01 1.8470002E+00
 4.2563148E+00 1.0000001E+00 1.8273275E+00
 4.2012159E+00 1.0311074E+00 1.8037541E+00
 5.6067188E+00 6.4641208E-01 1.8030364E+00
 5.5380821E+00 6.6082260E-01 1.8098528E+00
 5.4679928E+00 6.7461006E-01 1.8170534E+00
 5.3962781E+00 6.8846463E-01 1.8249596E+00
 5.3229393E+00 7.0278685E-01 1.8336714E+00
 5.2481423E+00 7.1780681E-01 1.8431140E+00
 5.1721628E+00 7.3371101E-01 1.8530797E+00
 5.0953615E+00 7.5068048E-01 1.8632387E+00
 5.0181431E+00 7.6889685E-01 1.8731522E+00
 4.9409314E+00 7.8852610E-01 1.8822921E+00
 4.8641530E+00 8.0969984E-01 1.8900749E+00
 4.7882318E+00 8.3249723E-01 1.8959031E+00
 4.7135894E+00 8.5693344E-01 1.8992120E+00
 4.6406469E+00 8.8295627E-01 1.8995142E+00
 4.5698206E+00 9.1045313E-01 1.8964358E+00
 4.5015044E+00 9.3926515E-01 1.8897345E+00
 4.4360192E+00 9.6919741E-01 1.8792939E+00
 4.3735046E+00 1.0000001E+00 1.8650752E+00
 4.3137121E+00 1.0312941E+00 1.8470003E+00
 4.2558104E+00 1.0624461E+00 1.8247836E+00
 5.6054758E+00 6.8269048E-01 1.8180578E+00
 5.5355697E+00 6.9844553E-01 1.8246411E+00
 5.4642823E+00 7.1366168E-01 1.8316507E+00
 5.3915153E+00 7.2903171E-01 1.8393564E+00
 5.3172956E+00 7.4496013E-01 1.8478199E+00
 5.2417972E+00 7.6168557E-01 1.8569363E+00
 5.1653156E+00 7.7938792E-01 1.8664641E+00
 5.0882272E+00 7.9823373E-01 1.8760407E+00
 5.0109522E+00 8.1837681E-01 1.8851972E+00
 4.9339242E+00 8.3994485E-01 1.8933848E+00
 4.8575746E+00 8.6302179E-01 1.9000124E+00
 4.7823256E+00 8.8763522E-01 1.9044911E+00
 4.7085890E+00 9.1375117E-01 1.9062811E+00
 4.6367640E+00 9.4127921E-01 1.9049324E+00
 4.5672227E+00 9.7008501E-01 1.9001121E+00
 4.5002669E+00 1.0000001E+00 1.8916081E+00
 4.4360192E+00 1.0308028E+00 1.8792940E+00
 4.3742378E+00 1.0621408E+00 1.8630388E+00
 4.3141338E+00 1.0934130E+00 1.8425663E+00
 5.6043617E+00 7.2071790E-01 1.8318163E+00
 5.5333429E+00 7.3772209E-01 1.8379994E+00
 5.4610376E+00 7.5432448E-01 1.8446536E+00
 5.3873919E+00 7.7119315E-01 1.8519895E+00
 5.3124629E+00 7.8871660E-01 1.8600244E+00
 5.2364460E+00 8.0712315E-01 1.8686181E+00
 5.1596557E+00 8.2657971E-01 1.8774976E+00
 5.0824852E+00 8.4723023E-01 1.8862710E+00
 5.0053663E+00 8.6919652E-01 1.8944473E+00
 4.9287381E+00 8.9256466E-01 1.9014667E+00
 4.8530303E+00 9.1737215E-01 1.9067414E+00
 4.7786551E+00 9.4360103E-01 1.9097016E+00
 4.7060025E+00 9.7118095E-01 1.9098398E+00
 4.6354295E+00 1.0000001E+00 1.9067439E+00
 4.5672227E+00 1.0299152E+00 1.9001122E+00
 4.5015044E+00 1.0607351E+00 1.8897346E+00
 4.4380574E+00 1.0921483E+00 1.8754273E+00
 4.3761664E+00 1.1236118E+00 1.8569238E+00
 5.6033373E+00 7.6042579E-01 1.8441173E+00
 5.5313468E+00 7.7860286E-01 1.8497512E+00
 5.4581951E+00 7.9654562E-01 1.8558918E+00
 5.3838625E+00 8.1487332E-01 1.8626854E+00
 5.3084315E+00 8.3394532E-01 1.8701039E+00
 5.2321180E+00 8.5396953E-01 1.8779732E+00
 5.1552539E+00 8.7509210E-01 1.8859916E+00
 5.0782447E+00 8.9742985E-01 1.8937452E+00
 5.0015283E+00 9.2106879E-01 1.9007301E+00
 4.9255422E+00 9.4605404E-01 1.9063861E+00
 4.8507058E+00 9.7238169E-01 1.9101397E+00
 4.7774094E+00 1.0000001E+00 1.9114487E+00
 4.7060025E+00 1.0288193E+00 1.9098398E+00
 4.6367640E+00 1.0587210E+00 1.9049325E+00
 4.5698206E+00 1.0895471E+00 1.8964359E+00
 4.5049923E+00 1.1210359E+00 1.8841082E+00
 4.4416433E+00 1.1527179E+00 1.8676773E+00
 5.6024247E+00 8.0166887E-01 1.8547555E+00
 5.5296190E+00 8.2094695E-01 1.8597026E+00
 5.4558081E+00 8.4016677E-01 1.8651736E+00
 5.3809983E+00 8.5988723E-01 1.8712522E+00
 5.3052921E+00 8.8042684E-01 1.8778673E+00
 5.2289227E+00 9.0196605E-01 1.8848140E+00
 5.1522342E+00 9.2462528E-01 1.8917683E+00
 5.0756387E+00 9.4849065E-01 1.8983023E+00
 4.9995723E+00 9.7361281E-01 1.9039089E+00
 4.9244622E+00 1.0000001E+00 1.9080383E+00
 4.8507058E+00 1.0276186E+00 1.9101398E+00
 4.7786551E+00 1.0563992E+00 1.9097018E+00
 4.7085890E+00 1.0862491E+00 1.9062813E+00
 4.6406469E+00 1.1170440E+00 1.8995144E+00
 4.5746930E+00 1.1485759E+00 1.8890981E+00
 4.5101767E+00 1.1804562E+00 1.8747374E+00
 5.6016555E+00 8.4425114E-01 1.8635366E+00
 5.5282141E+00 8.6454274E-01 1.8676668E+00
 5.4539486E+00 8.8495284E-01 1.8723172E+00
 5.3788848E+00 9.0596875E-01 1.8775136E+00
 5.3031410E+00 9.2785983E-01 1.8831464E+00
 5.2269618E+00 9.5077368E-01 1.8889858E+00
 5.1506977E+00 9.7480192E-01 1.8946927E+00
 5.0747593E+00 1.0000001E+00 1.8998339E+00
 4.9995723E+00 1.0263875E+00 1.9039090E+00
 4.9255422E+00 1.0539462E+00 1.9063861E+00
 4.8530303E+00 1.0826281E+00 1.9067415E+00
 4.7823256E+00 1.1123651E+00 1.9044913E+00
 4.7135895E+00 1.1430668E+00 1.8992122E+00
 4.6467406E+00 1.1745794E+00 1.8905411E+00
 4.5813248E+00 1.2065974E+00 1.8781493E+00
 5.6010563E+00 8.8793020E-01 1.8702886E+00
 5.5271780E+00 9.0912524E-01 1.8734818E+00
 5.4526758E+00 9.3061140E-01 1.8771707E+00
 5.3775894E+00 9.5279380E-01 1.8813300E+00
 5.3020477E+00 9.7588618E-01 1.8858183E+00
 5.2263009E+00 1.0000001E+00 1.8903881E+00
 5.1506977E+00 1.0251983E+00 1.8946928E+00
 5.0756387E+00 1.0515096E+00 1.8983023E+00
 5.0015283E+00 1.0789315E+00 1.9007302E+00
 4.9287381E+00 1.1074356E+00 1.9014669E+00
 4.8575746E+00 1.1369785E+00 1.9000126E+00
 4.7882318E+00 1.1675031E+00 1.8959034E+00
 4.7206957E+00 1.1989076E+00 1.8887241E+00
 4.6546228E+00 1.2309682E+00 1.8781059E+00
 5.6006464E+00 9.3242353E-01 1.8748723E+00
 5.5265436E+00 9.5438885E-01 1.8770232E+00
 5.4520295E+00 9.7680966E-01 1.8796256E+00
 5.3771531E+00 1.0000001E+00 1.8826123E+00
 5.3020477E+00 1.0241141E+00 1.8858183E+00
 5.2269618E+00 1.0492266E+00 1.8889859E+00
 5.1522342E+00 1.0753750E+00 1.8917684E+00
 5.0782447E+00 1.1025704E+00 1.8937454E+00
 5.0053663E+00 1.1308038E+00 1.8944475E+00
 4.9339242E+00 1.1600554E+00 1.8933851E+00
 4.8641531E+00 1.1903005E+00 1.8900752E+00
 4.7961188E+00 1.2214865E+00 1.8840642E+00
 4.7296060E+00 1.2534665E+00 1.8749430E+00
 5.6004384E+00 9.7741817E-01 1.8771896E+00
 5.5263300E+00 1.0000001E+00 1.8782125E+00
 5.4520295E+00 1.0231906E+00 1.8796256E+00
 5.3775894E+00 1.0472064E+00 1.8813300E+00
 5.3031410E+00 1.0721404E+00 1.8831465E+00
 5.2289227E+00 1.0980342E+00 1.8848141E+00
 5.1552539E+00 1.1249082E+00 1.8859918E+00
 5.0824852E+00 1.1527701E+00 1.8862712E+00
 5.0109522E+00 1.1816235E+00 1.8851974E+00
 4.9409314E+00 1.2114742E+00 1.8822925E+00
 4.8725787E+00 1.2423156E+00 1.8770809E+00
 4.8058219E+00 1.2740714E+00 1.8691189E+00
 5.6004384E+00 1.0225821E+00 1.8771896E+00
 5.5265436E+00 1.0456114E+00 1.8770232E+00
 5.4526758E+00 1.0693888E+00 1.8771707E+00
 5.3788847E+00 1.0940315E+00 1.8775137E+00
 5.3052920E+00 1.1195734E+00 1.8778674E+00
 5.2321180E+00 1.1460307E+00 1.8779733E+00
 5.1596557E+00 1.1734206E+00 1.8774978E+00
 5.0882272E+00 1.2017666E+00 1.8760409E+00
 5.0181431E+00 1.2311035E+00 1.8731525E+00
 4.9496510E+00 1.2614667E+00 1.8683548E+00
 4.8828337E+00 1.2928430E+00 1.8611792E+00
 5.6006464E+00 1.0675767E+00 1.8748724E+00
 5.5271780E+00 1.0908750E+00 1.8734819E+00
 5.4539486E+00 1.1150474E+00 1.8723173E+00
 5.3809982E+00 1.1401130E+00 1.8712524E+00
 5.3084315E+00 1.1660550E+00 1.8701041E+00
 5.2364460E+00 1.1928771E+00 1.8686184E+00
 5.1653156E+00 1.2206124E+00 1.8664644E+00
 5.0953615E+00 1.2493198E+00 1.8632390E+00
 5.0269148E+00 1.2790728E+00 1.8584823E+00
 4.9602168E+00 1.3099133E+00 1.8517139E+00
 5.6010563E+00 1.1120700E+00 1.8702887E+00
 5.5282140E+00 1.1354575E+00 1.8676669E+00
 5.4558081E+00 1.1598335E+00 1.8651737E+00
 5.3838625E+00 1.1851270E+00 1.8626855E+00
 5.3124629E+00 1.2112837E+00 1.8600246E+00
 5.2417971E+00 1.2383147E+00 1.8569366E+00
 5.1721628E+00 1.2662893E+00 1.8530800E+00
 5.1039514E+00 1.2953112E+00 1.8480303E+00
 5.0375546E+00 1.3254694E+00 1.8413117E+00
 5.6016555E+00 1.1557491E+00 1.8635367E+00
 5.5296190E+00 1.1790533E+00 1.8597028E+00
 5.4581951E+00 1.2034547E+00 1.8558919E+00
 5.3873918E+00 1.2288071E+00 1.8519897E+00
 5.3172956E+00 1.2550402E+00 1.8478201E+00
 5.2481422E+00 1.2821935E+00 1.8431143E+00
 5.1803492E+00 1.3103825E+00 1.8374985E+00
 5.1144360E+00 1.3397318E+00 1.8305172E+00
 5.6024247E+00 1.1983314E+00 1.8547556E+00
 5.5313468E+00 1.2213974E+00 1.8497513E+00
 5.4610376E+00 1.2456758E+00 1.8446538E+00
 5.3915153E+00 1.2709686E+00 1.8393566E+00
 5.3229393E+00 1.2972135E+00 1.8336717E+00
 5.2557173E+00 1.3244893E+00 1.8272915E+00
 5.1904605E+00 1.3529312E+00 1.8197978E+00
 5.6033373E+00 1.2395745E+00 1.8441174E+00
 5.5333428E+00 1.2622782E+00 1.8379995E+00
 5.4642823E+00 1.2863386E+00 1.8316509E+00
 5.3962780E+00 1.3115357E+00 1.8249598E+00
 5.3297107E+00 1.3378234E+00 1.8177028E+00
 5.2652492E+00 1.3652886E+00 1.8095203E+00
 5.6043617E+00 1.2792824E+00 1.8318164E+00
 5.5355697E+00 1.3015548E+00 1.8246413E+00
 5.4679928E+00 1.3253902E+00 1.8170536E+00
 5.4020470E+00 1.3505619E+00 1.8089112E+00
 5.3384589E+00 1.3769979E+00 1.7999434E+00
 5.6054758E+00 1.3173098E+00 1.8180579E+00
 5.5380821E+00 1.3391777E+00 1.8098530E+00
 5.4725761E+00 1.3629214E+00 1.8009613E+00
 5.4097977E+00 1.3882316E+00 1.7912127E+00
 5.6067188E+00 1.3535882E+00 1.8030365E+00
 5.5412091E+00 1.3752200E+00 1.7937540E+00
 5.4790121E+00 1.3991408E+00 1.7833734E+00
 5.6082626E+00 1.3881536E+00 1.7869105E+00
 5.5460421E+00 1.4099832E+00 1.7763104E+00
 5.6105538E+00 1.4210625E+00 1.7698210E+00
 5.6738761E+00 1.4341441E+00 1.7627667E+00
 5.6739908E+00 1.4028329E+00 1.7797606E+00
 5.6740648E+00 1.3696846E+00 1.7960259E+00
 5.6741184E+00 1.3345728E+00 1.8114157E+00
 5.6741604E+00 1.2975703E+00 1.8257097E+00
 5.6741963E+00 1.2588100E+00 1.8386730E+00
 5.6742276E+00 1.2184324E+00 1.8500894E+00
 5.6742545E+00 1.1766168E+00 1.8597556E+00
 5.6742763E+00 1.1335866E+00 1.8674878E+00
 5.6742924E+00 1.0896051E+00 1.8731304E+00
 5.6743022E+00 1.0449693E+00 1.8765654E+00
 5.6743056E+00 1.0000001E+00 1.8777188E+00
 5.6743023E+00 9.5503091E-01 1.8765654E+00
 5.6742924E+00 9.1039512E-01 1.8731304E+00
 5.6742763E+00 8.6641367E-01 1.8674877E+00
 5.6742545E+00 8.2338348E-01 1.8597555E+00
 5.6742276E+00 7.8156786E-01 1.8500893E+00
 5.6741963E+00 7.4119022E-01 1.8386729E+00
 5.6741605E+00 7.0242999E-01 1.8257096E+00
 5.6741184E+00 6.6542746E-01 1.8114155E+00
 5.6740648E+00 6.3031570E-01 1.7960257E+00
 5.6739909E+00 5.9716735E-01 1.7797605E+00
 5.6738761E+00 5.6585622E-01 1.7627666E+00
 5.7304296E+00 5.4642112E-01 1.7523611E+00
 5.7928956E+00 5.5515513E-01 1.7592399E+00
 5.8581134E+00 5.6413346E-01 1.7667821E+00
 5.9258406E+00 5.7348380E-01 1.7749829E+00
 5.9958228E+00 5.8329349E-01 1.7837293E+00
 6.0677919E+00 5.9370790E-01 1.7928750E+00
 6.1415079E+00 6.0489016E-01 1.8022181E+00
 6.2166968E+00 6.1702042E-01 1.8115060E+00
 6.2930491E+00 6.3028381E-01 1.8204389E+00
 6.3702079E+00 6.4485948E-01 1.8286784E+00
 6.4477701E+00 6.6090928E-01 1.8358605E+00
 6.5252902E+00 6.7856682E-01 1.8416102E+00
 6.6022898E+00 6.9792736E-01 1.8455596E+00
 6.6782706E+00 7.1903972E-01 1.8473650E+00
 6.7527312E+00 7.4190037E-01 1.8467256E+00
 6.8251847E+00 7.6645132E-01 1.8433993E+00
 6.8951747E+00 7.9258161E-01 1.8372162E+00
 6.9622854E+00 8.2013243E-01 1.8280874E+00
 7.0261451E+00 8.4890387E-01 1.8160098E+00
 7.0864267E+00 8.7866556E-01 1.8010668E+00
 7.1428214E+00 9.0914851E-01 1.7834380E+00
 7.1950681E+00 9.4005569E-01 1.7633769E+00
 7.2428264E+00 9.7091983E-01 1.7412780E+00
 5.7372176E+00 1.4216606E+00 1.7708339E+00
 5.8015817E+00 1.4110905E+00 1.7782834E+00
 5.8683104E+00 1.4006238E+00 1.7861628E+00
 5.9370612E+00 1.3899077E+00 1.7945388E+00
 6.0077998E+00 1.3786502E+00 1.8033969E+00
 6.0803249E+00 1.3666786E+00 1.8125808E+00
 6.1544098E+00 1.3538237E+00 1.8218710E+00
 6.2297806E+00 1.3399220E+00 1.8309892E+00
 6.3061127E+00 1.3248111E+00 1.8396130E+00
 6.3830328E+00 1.3083411E+00 1.8473866E+00
 6.4601223E+00 1.2903853E+00 1.8539359E+00
 6.5369258E+00 1.2708503E+00 1.8588843E+00
 6.6129614E+00 1.2496848E+00 1.8618715E+00
 6.6877365E+00 1.2268848E+00 1.8625708E+00
 6.7607641E+00 1.2024957E+00 1.8607075E+00
 6.8315803E+00 1.1766099E+00 1.8560727E+00
 6.8997584E+00 1.1493601E+00 1.8485345E+00
 6.9649221E+00 1.1209114E+00 1.8380419E+00
 7.0267595E+00 1.0914595E+00 1.8246197E+00
 7.0850753E+00 1.0612444E+00 1.8083411E+00
 7.1399031E+00 1.0305786E+00 1.7892595E+00
 7.1916942E+00 1.0000001E+00 1.7672805E+00
 5.7396919E+00 1.3887499E+00 1.7879799E+00
 5.8065442E+00 1.3763002E+00 1.7958363E+00
 5.8748091E+00 1.3643310E+00 1.8038762E+00
 5.9448110E+00 1.3521142E+00 1.8123457E+00
 6.0164941E+00 1.3393095E+00 1.8212117E+00
 6.0897636E+00 1.3256927E+00 1.8303221E+00
 6.1644076E+00 1.3111010E+00 1.8394326E+00
 6.2401503E+00 1.2953827E+00 1.8482427E+00
 6.3166524E+00 1.2783986E+00 1.8564085E+00
 6.3935228E+00 1.2600279E+00 1.8635584E+00
 6.4703270E+00 1.2401795E+00 1.8693094E+00
 6.5465986E+00 1.2187998E+00 1.8732854E+00
 6.6218527E+00 1.1958798E+00 1.8751358E+00
 6.6956025E+00 1.1714560E+00 1.8745538E+00
 6.7673777E+00 1.1456084E+00 1.8712923E+00
 6.8367436E+00 1.1184513E+00 1.8651758E+00
 6.9033216E+00 1.0901241E+00 1.8561047E+00
 6.9668269E+00 1.0607864E+00 1.8440436E+00
 7.0271547E+00 1.0306414E+00 1.8289812E+00
 7.0845443E+00 1.0000001E+00 1.8108375E+00
 7.1399031E+00 9.6942162E-01 1.7892595E+00
 5.7413681E+00 1.3541547E+00 1.8041581E+00
 5.8097677E+00 1.3401923E+00 1.8120276E+00
 5.8794403E+00 1.3266911E+00 1.8200782E+00
 5.9505776E+00 1.3129381E+00 1.8284901E+00
 6.0232185E+00 1.2985215E+00 1.8372303E+00
 6.0972588E+00 1.2832156E+00 1.8461187E+00
 6.1724971E+00 1.2668583E+00 1.8548907E+00
 6.2486427E+00 1.2493157E+00 1.8632226E+00
 6.3253391E+00 1.2304725E+00 1.8707516E+00
 6.4021769E+00 1.2102392E+00 1.8770933E+00
 6.4787070E+00 1.1885610E+00 1.8818599E+00
 6.5544547E+00 1.1654240E+00 1.8846802E+00
 6.6289356E+00 1.1408580E+00 1.8852181E+00
 6.7016750E+00 1.1149332E+00 1.8831904E+00
 6.7722289E+00 1.0877521E+00 1.8783796E+00
 6.8402118E+00 1.0594371E+00 1.8706391E+00
 6.9053441E+00 1.0301266E+00 1.8598824E+00
 6.9675504E+00 1.0000001E+00 1.8460436E+00
 7.0271547E+00 9.6935879E-01 1.8289812E+00
 7.0850753E+00 9.3875582E-01 1.8083412E+00
 5.7427033E+00 1.3178319E+00 1.8192284E+00
 5.8123469E+00 1.3024787E+00 1.8269014E+00
 5.8831810E+00 1.2875039E+00 1.8347757E+00
 5.9553312E+00 1.2721990E+00 1.8429732E+00
 6.0288174E+00 1.2561584E+00 1.8514215E+00
 6.1035336E+00 1.2391575E+00 1.8599147E+00
 6.1792617E+00 1.2210494E+00 1.8681632E+00
 6.2556956E+00 1.2017201E+00 1.8758234E+00
 6.3324601E+00 1.1810820E+00 1.8825178E+00
 6.4091304E+00 1.1590792E+00 1.8878545E+00
 6.4852471E+00 1.1356935E+00 1.8914475E+00
 6.5603337E+00 1.1109482E+00 1.8929366E+00
 6.6339149E+00 1.0849053E+00 1.8920064E+00
 6.7055401E+00 1.0576572E+00 1.8884005E+00
 6.7748127E+00 1.0293145E+00 1.8819282E+00
 6.8414413E+00 1.0000001E+00 1.8724579E+00
 6.9053441E+00 9.6987358E-01 1.8598824E+00
 6.9668269E+00 9.3921379E-01 1.8440436E+00
 7.0267595E+00 9.0854075E-01 1.8246197E+00
 5.7438895E+00 1.2797510E+00 1.8330331E+00
 5.8146235E+00 1.2630952E+00 1.8403390E+00
 5.8864455E+00 1.2466870E+00 1.8478692E+00
 5.9594417E+00 1.2298504E+00 1.8556818E+00
 6.0336086E+00 1.2122044E+00 1.8636604E+00
 6.1088236E+00 1.1935436E+00 1.8715692E+00
 6.1848526E+00 1.1737411E+00 1.8790972E+00
 6.2613719E+00 1.1527086E+00 1.8858848E+00
 6.3379915E+00 1.1303888E+00 1.8915457E+00
 6.4142761E+00 1.1067603E+00 1.8956877E+00
 6.4897638E+00 1.0818398E+00 1.8979338E+00
 6.5639857E+00 1.0556815E+00 1.8979421E+00
 6.6364891E+00 1.0283683E+00 1.8954216E+00
 6.7068677E+00 1.0000001E+00 1.8901417E+00
 6.7748127E+00 9.7068567E-01 1.8819282E+00
 6.8402118E+00 9.4056308E-01 1.8706391E+00
 6.9033216E+00 9.0987614E-01 1.8561047E+00
 6.9649221E+00 8.7908876E-01 1.8380419E+00
 5.7449750E+00 1.2399830E+00 1.8453769E+00
 5.8166605E+00 1.2220960E+00 1.8521626E+00
 5.8893023E+00 1.2042989E+00 1.8591867E+00
 5.9629579E+00 1.1859727E+00 1.8664409E+00
 6.0376037E+00 1.1667739E+00 1.8737655E+00
 6.1131012E+00 1.1465253E+00 1.8808980E+00
 6.1892003E+00 1.1251260E+00 1.8875094E+00
 6.2655638E+00 1.1025162E+00 1.8932305E+00
 6.3417920E+00 1.0786708E+00 1.8976732E+00
 6.4174468E+00 1.0536010E+00 1.9004525E+00
 6.4920737E+00 1.0273529E+00 1.9012078E+00
 6.5652248E+00 1.0000001E+00 1.8996197E+00
 6.6364891E+00 9.7163193E-01 1.8954216E+00
 6.7055401E+00 9.4234300E-01 1.8884005E+00
 6.7722289E+00 9.1224814E-01 1.8783796E+00
 6.8367437E+00 8.8154889E-01 1.8651758E+00
 6.8997585E+00 8.5064010E-01 1.8485346E+00
 5.7459405E+00 1.1986742E+00 1.8560532E+00
 5.8184225E+00 1.1796242E+00 1.8621759E+00
 5.8917003E+00 1.1605009E+00 1.8685344E+00
 5.9658103E+00 1.1407539E+00 1.8750575E+00
 6.0407141E+00 1.1200883E+00 1.8815467E+00
 6.1162587E+00 1.0983611E+00 1.8877169E+00
 6.1921826E+00 1.0755010E+00 1.8932277E+00
 6.2681399E+00 1.0514783E+00 1.8977069E+00
 6.3437288E+00 1.0262986E+00 1.9007720E+00
 6.4185183E+00 1.0000001E+00 1.9020523E+00
 6.4920737E+00 9.7264735E-01 1.9012078E+00
 6.5639857E+00 9.4431875E-01 1.8979421E+00
 6.6339149E+00 9.1509489E-01 1.8920065E+00
 6.7016750E+00 8.8506697E-01 1.8831904E+00
 6.7673777E+00 8.5439184E-01 1.8712923E+00
 6.8315804E+00 8.2339031E-01 1.8560727E+00
 5.7467539E+00 1.1560214E+00 1.8648665E+00
 5.8198551E+00 1.1358930E+00 1.8701903E+00
 5.8935679E+00 1.1155302E+00 1.8757289E+00
 5.9679147E+00 1.0944619E+00 1.8813548E+00
 6.0428448E+00 1.0724499E+00 1.8868369E+00
 6.1181962E+00 1.0493891E+00 1.8918743E+00
 6.1937000E+00 1.0252395E+00 1.8961218E+00
 6.2690092E+00 1.0000001E+00 1.8992110E+00
 6.3437288E+00 9.7370163E-01 1.9007720E+00
 6.4174468E+00 9.4639918E-01 1.9004525E+00
 6.4897638E+00 9.1816038E-01 1.8979338E+00
 6.5603337E+00 8.8905198E-01 1.8929366E+00
 6.6289356E+00 8.5914221E-01 1.8852181E+00
 6.6956025E+00 8.2854416E-01 1.8745538E+00
 6.7607641E+00 7.9750450E-01 1.8607075E+00
 5.7473876E+00 1.1122677E+00 1.8716437E+00
 5.8209113E+00 1.0911690E+00 1.8760423E+00
 5.8948460E+00 1.0696810E+00 1.8806170E+00
 5.9692042E+00 1.0474226E+00 1.8851927E+00
 6.0439277E+00 1.0242173E+00 1.8895141E+00
 6.1188492E+00 1.0000001E+00 1.8932715E+00
 6.1937000E+00 9.7476070E-01 1.8961218E+00
 6.2681399E+00 9.4852187E-01 1.8977069E+00
 6.3417920E+00 9.2132937E-01 1.8976732E+00
 6.4142761E+00 8.9323992E-01 1.8956877E+00
 6.4852471E+00 8.6430668E-01 1.8914475E+00
 6.5544547E+00 8.3457619E-01 1.8846802E+00
 6.6218527E+00 8.0412041E-01 1.8751359E+00
 6.6877365E+00 7.7311538E-01 1.8625709E+00
 5.7478210E+00 1.0676966E+00 1.8762446E+00
 5.8215581E+00 1.0457595E+00 1.8796064E+00
 5.8954950E+00 1.0232884E+00 1.8830895E+00
 5.9696385E+00 1.0000001E+00 1.8864822E+00
 6.0439277E+00 9.7578291E-01 1.8895141E+00
 6.1181962E+00 9.5061106E-01 1.8918743E+00
 6.1921826E+00 9.2449922E-01 1.8932277E+00
 6.2655638E+00 8.9748405E-01 1.8932305E+00
 6.3379915E+00 8.6961138E-01 1.8915457E+00
 6.4091304E+00 8.4092105E-01 1.8878545E+00
 6.4787070E+00 8.1143925E-01 1.8818599E+00
 6.5465986E+00 7.8120039E-01 1.8732855E+00
 6.6129614E+00 7.5031536E-01 1.8618715E+00
 5.7480410E+00 1.0226222E+00 1.8785705E+00
 5.8217758E+00 1.0000001E+00 1.8808034E+00
 5.8954950E+00 9.7671184E-01 1.8830895E+00
 5.9692042E+00 9.5257759E-01 1.8851927E+00
 6.0428449E+00 9.2755030E-01 1.8868369E+00
 6.1162587E+00 9.0163907E-01 1.8877169E+00
 6.1892003E+00 8.7487421E-01 1.8875094E+00
 6.2613719E+00 8.4729162E-01 1.8858848E+00
 6.3324601E+00 8.1891818E-01 1.8825179E+00
 6.4021769E+00 7.8976103E-01 1.8770933E+00
 6.4703270E+00 7.5982075E-01 1.8693094E+00
 6.5369258E+00 7.2914986E-01 1.8588844E+00
 5.7480410E+00 9.7737798E-01 1.8785705E+00
 5.8215581E+00 9.5424070E-01 1.8796064E+00
 5.8948460E+00 9.3031924E-01 1.8806170E+00
 5.9679147E+00 9.0553831E-01 1.8813547E+00
 6.0407141E+00 8.7991187E-01 1.8815467E+00
 6.1131012E+00 8.5347492E-01 1.8808980E+00
 6.1848526E+00 8.2625906E-01 1.8790972E+00
 6.2556956E+00 7.9828015E-01 1.8758234E+00
 6.3253391E+00 7.6952774E-01 1.8707516E+00
 6.3935228E+00 7.3997227E-01 1.8635584E+00
 6.4601223E+00 7.0961493E-01 1.8539359E+00
 5.7478210E+00 9.3230363E-01 1.8762446E+00
 5.8209113E+00 9.0883121E-01 1.8760423E+00
 5.8935679E+00 8.8447005E-01 1.8757289E+00
 5.9658104E+00 8.5924637E-01 1.8750575E+00
 6.0376037E+00 8.3322630E-01 1.8737655E+00
 6.1088236E+00 8.0645659E-01 1.8715692E+00
 6.1792617E+00 7.7895080E-01 1.8681632E+00
 6.2486427E+00 7.5068446E-01 1.8632226E+00
 6.3166524E+00 7.2160160E-01 1.8564085E+00
 6.3830328E+00 6.9165912E-01 1.8473867E+00
 5.7473876E+00 8.8773256E-01 1.8716436E+00
 5.8198551E+00 8.6410719E-01 1.8701902E+00
 5.8917003E+00 8.3949928E-01 1.8685344E+00
 5.9629579E+00 8.1402756E-01 1.8664408E+00
 6.0336086E+00 7.8779584E-01 1.8636603E+00
 6.1035336E+00 7.6084275E-01 1.8599147E+00
 6.1724971E+00 7.3314195E-01 1.8548907E+00
 6.2401503E+00 7.0461748E-01 1.8482427E+00
 6.3061127E+00 6.7518914E-01 1.8396130E+00
 5.7467539E+00 8.4397887E-01 1.8648664E+00
 5.8184225E+00 8.2037603E-01 1.8621758E+00
 5.8893023E+00 7.9570128E-01 1.8591867E+00
 5.9594418E+00 7.7014987E-01 1.8556818E+00
 6.0288174E+00 7.4384178E-01 1.8514215E+00
 6.0972588E+00 7.1678465E-01 1.8461187E+00
 6.1644076E+00 6.8889920E-01 1.8394326E+00
 6.2297806E+00 6.6007820E-01 1.8309892E+00
 5.7459405E+00 8.0132605E-01 1.8560532E+00
 5.8166605E+00 7.7790425E-01 1.8521625E+00
 5.8864455E+00 7.5331319E-01 1.8478692E+00
 5.9553312E+00 7.2780121E-01 1.8429732E+00
 6.0232185E+00 7.0147873E-01 1.8372302E+00
 6.0897636E+00 6.7430755E-01 1.8303221E+00
 6.1544098E+00 6.4617647E-01 1.8218710E+00
 5.7449750E+00 7.6001726E-01 1.8453769E+00
 5.8146235E+00 7.3690500E-01 1.8403389E+00
 5.8831810E+00 7.1249628E-01 1.8347756E+00
 5.9505776E+00 6.8706214E-01 1.8284901E+00
 6.0164941E+00 6.6069076E-01 1.8212117E+00
 6.0803249E+00 6.3332161E-01 1.8125808E+00
 5.7438895E+00 7.2024929E-01 1.8330330E+00
 5.8123469E+00 6.9752158E-01 1.8269013E+00
 5.8794403E+00 6.7330909E-01 1.8200782E+00
 5.9448110E+00 6.4788604E-01 1.8123457E+00
 6.0077998E+00 6.2135000E-01 1.8033968E+00
 5.7427034E+00 6.8216835E-01 1.8192283E+00
 5.8097677E+00 6.5980793E-01 1.8120275E+00
 5.8748091E+00 6.3566919E-01 1.8038761E+00
 5.9370613E+00 6.1009250E-01 1.7945388E+00
 5.7413681E+00 6.4584559E-01 1.8041580E+00
 5.8065442E+00 6.2370004E-01 1.7958363E+00
 5.8683104E+00 5.9937640E-01 1.7861627E+00
 5.7396920E+00 6.1125041E-01 1.7879798E+00
 5.8015817E+00 5.8890971E-01 1.7782834E+00
 5.7372177E+00 5.7833965E-01 1.7708338E+00
 5.6389541E+00 1.4830189E+00 1.7325588E+00
 5.6001797E+00 1.5066734E+00 1.7164092E+00
 5.5597906E+00 1.5310129E+00 1.6989261E+00
 5.5179542E+00 1.5559332E+00 1.6800548E+00
 5.4747834E+00 1.5813461E+00 1.6597319E+00
 5.4305373E+00 1.6071427E+00 1.6378841E+00
 5.3854651E+00 1.6332053E+00 1.6144215E+00
 5.3398392E+00 1.6593837E+00 1.5892561E+00
 5.2939639E+00 1.6854930E+00 1.5623080E+00
 5.2481694E+00 1.7113110E+00 1.5335167E+00
 5.2028025E+00 1.7365825E+00 1.5028506E+00
 5.1582122E+00 1.7610281E+00 1.4703169E+00
 5.1147369E+00 1.7843561E+00 1.4359696E+00
 5.0726909E+00 1.8062779E+00 1.3999146E+00
 5.0323548E+00 1.8265232E+00 1.3623112E+00
 4.9939668E+00 1.8448553E+00 1.3233675E+00
 4.9577186E+00 1.8610838E+00 1.2833327E+00
 4.9237570E+00 1.8750718E+00 1.2424855E+00
 4.8921905E+00 1.8867397E+00 1.2011232E+00
 4.8631072E+00 1.8960637E+00 1.1595519E+00
 4.8365952E+00 1.9030696E+00 1.1181003E+00
 4.8127014E+00 1.9078306E+00 1.0770832E+00
 4.7914736E+00 1.9104598E+00 1.0370404E+00
 4.0903095E+00 1.0855326E+00 1.7410450E+00
 4.0816412E+00 1.1412790E+00 1.7271118E+00
 4.0759660E+00 1.1982037E+00 1.7100811E+00
 4.0741830E+00 1.2563186E+00 1.6901054E+00
 4.0768325E+00 1.3152698E+00 1.6671821E+00
 4.0842939E+00 1.3745084E+00 1.6413104E+00
 4.0968317E+00 1.4333724E+00 1.6125419E+00
 4.1146092E+00 1.4911376E+00 1.5810109E+00
 4.1376742E+00 1.5470479E+00 1.5469458E+00
 4.1659429E+00 1.6003526E+00 1.5106686E+00
 4.1991904E+00 1.6503472E+00 1.4725844E+00
 4.2370539E+00 1.6964154E+00 1.4331645E+00
 4.2790472E+00 1.7380649E+00 1.3929234E+00
 4.3245862E+00 1.7749557E+00 1.3523930E+00
 4.3730233E+00 1.8069142E+00 1.3120942E+00
 4.4236850E+00 1.8339363E+00 1.2725116E+00
 4.4759109E+00 1.8561739E+00 1.2340721E+00
 4.5290864E+00 1.8739124E+00 1.1971288E+00
 4.5826581E+00 1.8875376E+00 1.1619504E+00
 4.6361432E+00 1.8975052E+00 1.1286914E+00
 4.6891206E+00 1.9043109E+00 1.0973132E+00
 4.7411345E+00 1.9084625E+00 1.0674327E+00
 4.1401737E+00 1.1194305E+00 1.7652002E+00
 4.1346339E+00 1.1771287E+00 1.7509591E+00
 4.1319234E+00 1.2350267E+00 1.7334256E+00
 4.1330922E+00 1.2934518E+00 1.7128224E+00
 4.1387304E+00 1.3521884E+00 1.6891877E+00
 4.1491786E+00 1.4107372E+00 1.6625333E+00
 4.1646306E+00 1.4684523E+00 1.6329263E+00
 4.1851672E+00 1.5246144E+00 1.6005260E+00
 4.2107509E+00 1.5784836E+00 1.5655940E+00
 4.2412163E+00 1.6293458E+00 1.5284887E+00
 4.2762657E+00 1.6765571E+00 1.4896503E+00
 4.3154795E+00 1.7195831E+00 1.4495799E+00
 4.3583355E+00 1.7580315E+00 1.4088134E+00
 4.4042401E+00 1.7916710E+00 1.3678928E+00
 4.4525649E+00 1.8204391E+00 1.3273380E+00
 4.5026862E+00 1.8444335E+00 1.2876205E+00
 4.5540213E+00 1.8638934E+00 1.2491409E+00
 4.6060563E+00 1.8791708E+00 1.2122012E+00
 4.6583529E+00 1.8907017E+00 1.1769481E+00
 4.7105157E+00 1.8989776E+00 1.1432644E+00
 4.7621710E+00 1.9045206E+00 1.1104887E+00
 4.1945753E+00 1.1519926E+00 1.7868838E+00
 4.1919540E+00 1.2105533E+00 1.7720862E+00
 4.1921478E+00 1.2689000E+00 1.7539092E+00
 4.1962160E+00 1.3273001E+00 1.7325583E+00
 4.2047498E+00 1.3855580E+00 1.7080843E+00
 4.2180418E+00 1.4431823E+00 1.6805168E+00
 4.2362165E+00 1.4995302E+00 1.6499496E+00
 4.2592772E+00 1.5538938E+00 1.6165777E+00
 4.2871094E+00 1.6055615E+00 1.5807031E+00
 4.3194752E+00 1.6538692E+00 1.5427253E+00
 4.3560178E+00 1.6982453E+00 1.5031214E+00
 4.3962760E+00 1.7382473E+00 1.4624217E+00
 4.4397102E+00 1.7735868E+00 1.4211797E+00
 4.4857370E+00 1.8041419E+00 1.3799421E+00
 4.5337683E+00 1.8299539E+00 1.3392186E+00
 4.5832498E+00 1.8512130E+00 1.2994533E+00
 4.6336919E+00 1.8682330E+00 1.2609881E+00
 4.6846724E+00 1.8814252E+00 1.2240001E+00
 4.7358027E+00 1.8912771E+00 1.1883621E+00
 4.7866501E+00 1.8983206E+00 1.1534652E+00
 4.2532601E+00 1.1835050E+00 1.8056005E+00
 4.2534146E+00 1.2422625E+00 1.7900355E+00
 4.2564304E+00 1.3005457E+00 1.7710537E+00
 4.2633294E+00 1.3585179E+00 1.7488250E+00
 4.2746524E+00 1.4159371E+00 1.7234008E+00
 4.2906287E+00 1.4723001E+00 1.6948330E+00
 4.3113107E+00 1.5269687E+00 1.6632512E+00
 4.3366284E+00 1.5792577E+00 1.6288928E+00
 4.3663975E+00 1.6284997E+00 1.5921042E+00
 4.4003213E+00 1.6740967E+00 1.5533257E+00
 4.4379996E+00 1.7155629E+00 1.5130683E+00
 4.4789498E+00 1.7525557E+00 1.4718843E+00
 4.5226373E+00 1.7848939E+00 1.4303355E+00
 4.5685130E+00 1.8125595E+00 1.3889604E+00
 4.6160522E+00 1.8356882E+00 1.3482411E+00
 4.6647855E+00 1.8545483E+00 1.3085638E+00
 4.7143036E+00 1.8695192E+00 1.2701489E+00
 4.7642092E+00 1.8810723E+00 1.2329288E+00
 4.8140223E+00 1.8897452E+00 1.1963882E+00
 4.3159656E+00 1.2138711E+00 1.8209821E+00
 4.3187732E+00 1.2723446E+00 1.8044684E+00
 4.3245259E+00 1.3301198E+00 1.7845407E+00