# TIME = 6.000000
VARIABLES = X, Y, Z, FX, FY, FZ
ZONE N=29232 E=58212 F=FEPOINT ET=TRIANGLE
  0.000E+00  9.502E-01  1.243E-03 3.3385280E+00 9.0722983E-02 1.8245810E+00
  0.000E+00  1.000E+00  0.000E+00 3.3371102E+00 4.8743661E-06 1.8269085E+00
  4.318E-02  9.751E-01  3.108E-04 3.3369361E+00 4.4724985E-02 1.8007517E+00
  0.000E+00  1.050E+00  1.243E-03 3.3385280E+00 -9.0713243E-02 1.8245815E+00
  4.318E-02  1.025E+00  3.108E-04 3.3369361E+00 -4.4715234E-02 1.8007520E+00
  0.000E+00  1.100E+00  4.969E-03 3.3440221E+00 -1.8151552E-01 1.8177853E+00
  4.318E-02  1.075E+00  2.796E-03 3.3403594E+00 -1.3419379E-01 1.7962205E+00
  0.000E+00  1.149E+00  1.117E-02 3.3559461E+00 -2.7241543E-01 1.8068226E+00
  4.318E-02  1.124E+00  7.761E-03 3.3492367E+00 -2.2379157E-01 1.7874406E+00
  0.000E+00  1.198E+00  1.983E-02 3.3737097E+00 -3.6282232E-01 1.7914930E+00
  4.318E-02  1.174E+00  1.519E-02 3.3647895E+00 -3.1329972E-01 1.7745431E+00
  0.000E+00  1.247E+00  3.092E-02 3.3902496E+00 -4.5154436E-01 1.7711010E+00
  4.318E-02  1.223E+00  2.507E-02 3.3830473E+00 -4.0175866E-01 1.7570260E+00
  0.000E+00  1.295E+00  4.443E-02 3.3973436E+00 -5.3829280E-01 1.7457022E+00
  4.318E-02  1.271E+00  3.738E-02 3.3949143E+00 -4.8816929E-01 1.7343302E+00
  0.000E+00  1.342E+00  6.031E-02 3.4085113E+00 -6.2432328E-01 1.7165414E+00
  4.318E-02  1.318E+00  5.207E-02 3.3981643E+00 -5.7318007E-01 1.7072803E+00
  0.000E+00  1.388E+00  7.852E-02 3.4424936E+00 -7.0977286E-01 1.6838161E+00
  4.318E-02  1.365E+00  6.913E-02 3.4269957E+00 -6.5789400E-01 1.6769042E+00
  0.000E+00  1.434E+00  9.903E-02 3.4506623E+00 -7.9290613E-01 1.6463148E+00
  4.318E-02  1.411E+00  8.849E-02 3.4529222E+00 -7.4115592E-01 1.6423545E+00
  0.000E+00  1.478E+00  1.218E-01 3.4684191E+00 -8.7375185E-01 1.6045594E+00
  4.318E-02  1.456E+00  1.101E-01 3.4502981E+00 -8.2188542E-01 1.6031339E+00
  0.000E+00  1.521E+00  1.467E-01 3.4943195E+00 -9.5273013E-01 1.5591050E+00
  4.318E-02  1.500E+00  1.340E-01 3.4846603E+00 -9.0071782E-01 1.5601652E+00
  0.000E+00  1.563E+00  1.738E-01 3.4909310E+00 -1.0292671E+00 1.5096645E+00
  4.318E-02  1.543E+00  1.600E-01 3.4838926E+00 -9.7744838E-01 1.5133924E+00
  0.000E+00  1.604E+00  2.029E-01 3.5121381E+00 -1.1032218E+00 1.4564666E+00
  4.318E-02  1.584E+00  1.881E-01 3.5154087E+00 -1.0516347E+00 1.4627479E+00
  0.000E+00  1.643E+00  2.340E-01 3.5196745E+00 -1.1744625E+00 1.3996786E+00
  4.318E-02  1.623E+00  2.182E-01 3.5058761E+00 -1.1232514E+00 1.4085214E+00
  0.000E+00  1.680E+00  2.669E-01 3.5210789E+00 -1.2427659E+00 1.3393926E+00
  4.318E-02  1.662E+00  2.502E-01 3.5225222E+00 -1.1920637E+00 1.3507825E+00
  0.000E+00  1.716E+00  3.018E-01 3.5223489E+00 -1.3079859E+00 1.2757795E+00
  4.318E-02  1.698E+00  2.841E-01 3.5223790E+00 -1.2579123E+00 1.2896815E+00
  0.000E+00  1.750E+00  3.383E-01 3.5224922E+00 -1.3699547E+00 1.2089963E+00
  4.318E-02  1.733E+00  3.198E-01 3.5211088E+00 -1.3206349E+00 1.2253746E+00
  0.000E+00  1.782E+00  3.765E-01 3.5058460E+00 -1.4285138E+00 1.1392074E+00
  4.318E-02  1.766E+00  3.572E-01 3.5197045E+00 -1.3800776E+00 1.1580278E+00
  0.000E+00  1.812E+00  4.163E-01 3.5153787E+00 -1.4835107E+00 1.0665743E+00
  4.318E-02  1.797E+00  3.962E-01 3.5121680E+00 -1.4360707E+00 1.0877847E+00
  0.000E+00  1.840E+00  4.575E-01 3.4838626E+00 -1.5348746E+00 9.9133492E-01
  4.318E-02  1.826E+00  4.367E-01 3.4909609E+00 -1.4885247E+00 1.0148656E+00
  0.000E+00  1.866E+00  5.000E-01 3.4846305E+00 -1.5823116E+00 9.1351513E-01
  4.318E-02  1.853E+00  4.786E-01 3.4943490E+00 -1.5372728E+00 9.3940012E-01
  0.000E+00  1.890E+00  5.438E-01 3.4502682E+00 -1.6258912E+00 8.3356354E-01
  4.318E-02  1.878E+00  5.217E-01 3.4684485E+00 -1.5820917E+00 8.6152776E-01
  0.000E+00  1.912E+00  5.887E-01 3.4528927E+00 -1.6656692E+00 7.5168826E-01
  4.318E-02  1.901E+00  5.661E-01 3.4506915E+00 -1.6232628E+00 7.8181400E-01
  0.000E+00  1.931E+00  6.347E-01 3.4269662E+00 -1.7007098E+00 6.6724438E-01
  4.318E-02  1.921E+00  6.116E-01 3.4425225E+00 -1.6602393E+00 6.9984476E-01
  0.000E+00  1.948E+00  6.815E-01 3.3981348E+00 -1.7315181E+00 5.8132784E-01
  4.318E-02  1.940E+00  6.580E-01 3.4085401E+00 -1.6925077E+00 6.1559165E-01
  0.000E+00  1.963E+00  7.292E-01 3.3948852E+00 -1.7589525E+00 4.9511021E-01
  4.318E-02  1.956E+00  7.052E-01 3.3973720E+00 -1.7212601E+00 5.3076552E-01
  0.000E+00  1.975E+00  7.775E-01 3.3830182E+00 -1.7819708E+00 4.0747270E-01
  4.318E-02  1.969E+00  7.532E-01 3.3902776E+00 -1.7463032E+00 4.4523152E-01
  0.000E+00  1.985E+00  8.264E-01 3.3647603E+00 -1.7997371E+00 3.1775767E-01
  4.318E-02  1.980E+00  8.019E-01 3.3737376E+00 -1.7664104E+00 3.5775174E-01
  0.000E+00  1.992E+00  8.757E-01 3.3492074E+00 -1.8128184E+00 2.2697854E-01
  4.318E-02  1.989E+00  8.510E-01 3.3559742E+00 -1.7815263E+00 2.6861077E-01
  0.000E+00  1.997E+00  9.253E-01 3.3403301E+00 -1.8217235E+00 1.3610859E-01
  4.318E-02  1.995E+00  9.004E-01 3.3440501E+00 -1.7923362E+00 1.7898362E-01
  0.000E+00  2.000E+00  9.751E-01 3.3369068E+00 -1.8263198E+00 4.5359602E-02
  4.318E-02  1.999E+00  9.502E-01 3.3385560E+00 -1.7990378E+00 8.9452628E-02
  0.000E+00  2.000E+00  1.025E+00 3.3369068E+00 -1.8263200E+00 -4.5350499E-02
  4.318E-02  2.000E+00  1.000E+00 3.3371381E+00 -1.8013327E+00 4.5651445E-06
  0.000E+00  1.997E+00  1.075E+00 3.3403301E+00 -1.8217241E+00 -1.3609949E-01
  4.318E-02  1.999E+00  1.050E+00 3.3385560E+00 -1.7990383E+00 -8.9443513E-02
  0.000E+00  1.992E+00  1.124E+00 3.3492073E+00 -1.8128195E+00 -2.2696948E-01
  4.318E-02  1.995E+00  1.100E+00 3.3440500E+00 -1.7923371E+00 -1.7897454E-01
  0.000E+00  1.985E+00  1.174E+00 3.3647601E+00 -1.7997390E+00 -3.1774867E-01
  4.318E-02  1.989E+00  1.149E+00 3.3559739E+00 -1.7815277E+00 -2.6860175E-01
  0.000E+00  1.975E+00  1.223E+00 3.3830179E+00 -1.7819735E+00 -4.0746379E-01
  4.318E-02  1.980E+00  1.198E+00 3.3737373E+00 -1.7664127E+00 -3.5774279E-01
  0.000E+00  1.963E+00  1.271E+00 3.3948848E+00 -1.7589554E+00 -4.9510140E-01
  4.318E-02  1.969E+00  1.247E+00 3.3902772E+00 -1.7463061E+00 -4.4522266E-01
  0.000E+00  1.948E+00  1.318E+00 3.3981344E+00 -1.7315209E+00 -5.8131914E-01
  4.318E-02  1.956E+00  1.295E+00 3.3973716E+00 -1.7212629E+00 -5.3075677E-01
  0.000E+00  1.931E+00  1.365E+00 3.4269657E+00 -1.7007138E+00 -6.6723584E-01
  4.318E-02  1.940E+00  1.342E+00 3.4085397E+00 -1.6925109E+00 -6.1558303E-01
  0.000E+00  1.912E+00  1.411E+00 3.4528921E+00 -1.6656739E+00 -7.5167989E-01
  4.318E-02  1.921E+00  1.388E+00 3.4425220E+00 -1.6602440E+00 -6.9983631E-01
  0.000E+00  1.890E+00  1.456E+00 3.4502675E+00 -1.6258954E+00 -8.3355533E-01
  4.318E-02  1.901E+00  1.434E+00 3.4506909E+00 -1.6232671E+00 -7.8180572E-01
  0.000E+00  1.866E+00  1.500E+00 3.4846298E+00 -1.5823171E+00 -9.1350716E-01
  4.318E-02  1.878E+00  1.478E+00 3.4684478E+00 -1.5820966E+00 -8.6151968E-01
  0.000E+00  1.840E+00  1.543E+00 3.4838618E+00 -1.5348802E+00 -9.9132715E-01
  4.318E-02  1.853E+00  1.521E+00 3.4943483E+00 -1.5372785E+00 -9.3939226E-01
  0.000E+00  1.812E+00  1.584E+00 3.5153779E+00 -1.4835168E+00 -1.0665668E+00
  4.318E-02  1.826E+00  1.563E+00 3.4909601E+00 -1.4885304E+00 -1.0148580E+00
  0.000E+00  1.782E+00  1.623E+00 3.5058451E+00 -1.4285203E+00 -1.1392002E+00
  4.318E-02  1.797E+00  1.604E+00 3.5121672E+00 -1.4360772E+00 -1.0877773E+00
  0.000E+00  1.750E+00  1.662E+00 3.5224912E+00 -1.3699615E+00 -1.2089894E+00
  4.318E-02  1.766E+00  1.643E+00 3.5197037E+00 -1.3800842E+00 -1.1580207E+00
  0.000E+00  1.716E+00  1.698E+00 3.5223479E+00 -1.3079931E+00 -1.2757729E+00
  4.318E-02  1.733E+00  1.680E+00 3.5211079E+00 -1.3206420E+00 -1.2253678E+00
  0.000E+00  1.680E+00  1.733E+00 3.5210779E+00 -1.2427734E+00 -1.3393863E+00
  4.318E-02  1.698E+00  1.716E+00 3.5223780E+00 -1.2579196E+00 -1.2896751E+00
  0.000E+00  1.643E+00  1.766E+00 3.5196735E+00 -1.1744703E+00 -1.3996727E+00
  4.318E-02  1.662E+00  1.750E+00 3.5225212E+00 -1.1920714E+00 -1.3507764E+00
  0.000E+00  1.604E+00  1.797E+00 3.5121371E+00 -1.1032299E+00 -1.4564610E+00
  4.318E-02  1.623E+00  1.782E+00 3.5058750E+00 -1.1232594E+00 -1.4085156E+00
  0.000E+00  1.563E+00  1.826E+00 3.4909299E+00 -1.0292754E+00 -1.5096593E+00
  4.318E-02  1.584E+00  1.812E+00 3.5154076E+00 -1.0516430E+00 -1.4627426E+00
  0.000E+00  1.521E+00  1.853E+00 3.4943184E+00 -9.5273868E-01 -1.5591003E+00
  4.318E-02  1.543E+00  1.840E+00 3.4838914E+00 -9.7745689E-01 -1.5133874E+00
  0.000E+00  1.478E+00  1.878E+00 3.4684180E+00 -8.7376072E-01 -1.6045551E+00
  4.318E-02  1.500E+00  1.866E+00 3.4846592E+00 -9.0072655E-01 -1.5601607E+00
  0.000E+00  1.434E+00  1.901E+00 3.4506612E+00 -7.9291525E-01 -1.6463109E+00
  4.318E-02  1.456E+00  1.890E+00 3.4502969E+00 -8.2189422E-01 -1.6031298E+00
  0.000E+00  1.388E+00  1.921E+00 3.4424924E+00 -7.0978207E-01 -1.6838127E+00
  4.318E-02  1.411E+00  1.912E+00 3.4529210E+00 -7.4116493E-01 -1.6423509E+00
  0.000E+00  1.342E+00  1.940E+00 3.4085100E+00 -6.2433239E-01 -1.7165384E+00
  4.318E-02  1.365E+00  1.931E+00 3.4269945E+00 -6.5790329E-01 -1.6769010E+00
  0.000E+00  1.295E+00  1.956E+00 3.3973422E+00 -5.3830189E-01 -1.7456996E+00
  4.318E-02  1.318E+00  1.948E+00 3.3981631E+00 -5.7318967E-01 -1.7072777E+00
  0.000E+00  1.247E+00  1.969E+00 3.3902482E+00 -4.5155364E-01 -1.7710989E+00
  4.318E-02  1.271E+00  1.963E+00 3.3949132E+00 -4.8817903E-01 -1.7343281E+00
  0.000E+00  1.198E+00  1.980E+00 3.3737084E+00 -3.6283192E-01 -1.7914915E+00
  4.318E-02  1.223E+00  1.975E+00 3.3830461E+00 -4.0176837E-01 -1.7570244E+00
  0.000E+00  1.149E+00  1.989E+00 3.3559449E+00 -2.7242529E-01 -1.8068216E+00
  4.318E-02  1.174E+00  1.985E+00 3.3647882E+00 -3.1330932E-01 -1.7745419E+00
  0.000E+00  1.100E+00  1.995E+00 3.3440209E+00 -1.8152546E-01 -1.8177849E+00
  4.318E-02  1.124E+00  1.992E+00 3.3492354E+00 -2.2380112E-01 -1.7874400E+00
  0.000E+00  1.050E+00  1.999E+00 3.3385267E+00 -9.0723142E-02 -1.8245815E+00
  4.318E-02  1.075E+00  1.997E+00 3.3403582E+00 -1.3420339E-01 -1.7962204E+00
  0.000E+00  1.000E+00  2.000E+00 3.3371089E+00 -4.8756150E-06 -1.8269092E+00
  4.318E-02  1.025E+00  2.000E+00 3.3369349E+00 -4.4724929E-02 -1.8007524E+00
  0.000E+00  9.502E-01  1.999E+00 3.3385267E+00 9.0713399E-02 -1.8245820E+00
  4.318E-02  9.751E-01  2.000E+00 3.3369349E+00 4.4715184E-02 -1.8007526E+00
  0.000E+00  9.004E-01  1.995E+00 3.3440209E+00 1.8151575E-01 -1.8177859E+00
  4.318E-02  9.253E-01  1.997E+00 3.3403582E+00 1.3419366E-01 -1.7962212E+00
  0.000E+00  8.510E-01  1.989E+00 3.3559450E+00 2.7241563E-01 -1.8068232E+00
  4.318E-02  8.757E-01  1.992E+00 3.3492354E+00 2.2379144E-01 -1.7874413E+00
  0.000E+00  8.019E-01  1.980E+00 3.3737084E+00 3.6282233E-01 -1.7914936E+00
  4.318E-02  8.264E-01  1.985E+00 3.3647883E+00 3.1329970E-01 -1.7745438E+00
  0.000E+00  7.532E-01  1.969E+00 3.3902483E+00 4.5154414E-01 -1.7711015E+00
  4.318E-02  7.775E-01  1.975E+00 3.3830461E+00 4.0175883E-01 -1.7570267E+00
  0.000E+00  7.052E-01  1.956E+00 3.3973423E+00 5.3829250E-01 -1.7457027E+00
  4.318E-02  7.292E-01  1.963E+00 3.3949133E+00 4.8816960E-01 -1.7343309E+00
  0.000E+00  6.580E-01  1.940E+00 3.4085101E+00 6.2432314E-01 -1.7165419E+00
  4.318E-02  6.815E-01  1.948E+00 3.3981632E+00 5.7318036E-01 -1.7072810E+00
  0.000E+00  6.116E-01  1.921E+00 3.4424925E+00 7.0977297E-01 -1.6838167E+00
  4.318E-02  6.347E-01  1.931E+00 3.4269946E+00 6.5789412E-01 -1.6769048E+00
  0.000E+00  5.661E-01  1.901E+00 3.4506613E+00 7.9290632E-01 -1.6463154E+00
  4.318E-02  5.887E-01  1.912E+00 3.4529211E+00 7.4115592E-01 -1.6423551E+00
  0.000E+00  5.217E-01  1.878E+00 3.4684181E+00 8.7375199E-01 -1.6045600E+00
  4.318E-02  5.438E-01  1.890E+00 3.4502970E+00 8.2188542E-01 -1.6031345E+00
  0.000E+00  4.786E-01  1.853E+00 3.4943185E+00 9.5273017E-01 -1.5591056E+00
  4.318E-02  5.000E-01  1.866E+00 3.4846593E+00 9.0071791E-01 -1.5601658E+00
  0.000E+00  4.367E-01  1.826E+00 3.4909301E+00 1.0292671E+00 -1.5096651E+00
  4.318E-02  4.575E-01  1.840E+00 3.4838916E+00 9.7744852E-01 -1.5133930E+00
  0.000E+00  3.962E-01  1.797E+00 3.5121373E+00 1.1032219E+00 -1.4564671E+00
  4.318E-02  4.163E-01  1.812E+00 3.5154078E+00 1.0516349E+00 -1.4627485E+00
  0.000E+00  3.572E-01  1.766E+00 3.5196737E+00 1.1744626E+00 -1.3996792E+00
  4.318E-02  3.765E-01  1.782E+00 3.5058752E+00 1.1232516E+00 -1.4085220E+00
  0.000E+00  3.198E-01  1.733E+00 3.5210780E+00 1.2427659E+00 -1.3393932E+00
  4.318E-02  3.383E-01  1.750E+00 3.5225214E+00 1.1920638E+00 -1.3507831E+00
  0.000E+00  2.841E-01  1.698E+00 3.5223481E+00 1.3079860E+00 -1.2757801E+00
  4.318E-02  3.018E-01  1.716E+00 3.5223782E+00 1.2579124E+00 -1.2896821E+00
  0.000E+00  2.502E-01  1.662E+00 3.5224914E+00 1.3699548E+00 -1.2089969E+00
  4.318E-02  2.669E-01  1.680E+00 3.5211081E+00 1.3206350E+00 -1.2253752E+00
  0.000E+00  2.182E-01  1.623E+00 3.5058453E+00 1.4285139E+00 -1.1392080E+00
  4.318E-02  2.340E-01  1.643E+00 3.5197039E+00 1.3800777E+00 -1.1580284E+00
  0.000E+00  1.881E-01  1.584E+00 3.5153781E+00 1.4835108E+00 -1.0665749E+00
  4.318E-02  2.029E-01  1.604E+00 3.5121673E+00 1.4360708E+00 -1.0877853E+00
  0.000E+00  1.600E-01  1.543E+00 3.4838621E+00 1.5348747E+00 -9.9133551E-01
  4.318E-02  1.738E-01  1.563E+00 3.4909603E+00 1.4885248E+00 -1.0148662E+00
  0.000E+00  1.340E-01  1.500E+00 3.4846300E+00 1.5823117E+00 -9.1351573E-01
  4.318E-02  1.467E-01  1.521E+00 3.4943485E+00 1.5372728E+00 -9.3940073E-01
  0.000E+00  1.101E-01  1.456E+00 3.4502678E+00 1.6258913E+00 -8.3356414E-01
  4.318E-02  1.218E-01  1.478E+00 3.4684481E+00 1.5820918E+00 -8.6152837E-01
  0.000E+00  8.849E-02  1.411E+00 3.4528924E+00 1.6656693E+00 -7.5168887E-01
  4.318E-02  9.903E-02  1.434E+00 3.4506911E+00 1.6232629E+00 -7.8181461E-01
  0.000E+00  6.913E-02  1.365E+00 3.4269659E+00 1.7007099E+00 -6.6724499E-01
  4.318E-02  7.852E-02  1.388E+00 3.4425222E+00 1.6602394E+00 -6.9984537E-01
  0.000E+00  5.207E-02  1.318E+00 3.3981346E+00 1.7315182E+00 -5.8132844E-01
  4.318E-02  6.031E-02  1.342E+00 3.4085399E+00 1.6925077E+00 -6.1559226E-01
  0.000E+00  3.738E-02  1.271E+00 3.3948850E+00 1.7589525E+00 -4.9511083E-01
  4.318E-02  4.443E-02  1.295E+00 3.3973719E+00 1.7212601E+00 -5.3076613E-01
  0.000E+00  2.507E-02  1.223E+00 3.3830181E+00 1.7819709E+00 -4.0747331E-01
  4.318E-02  3.092E-02  1.247E+00 3.3902775E+00 1.7463032E+00 -4.4523214E-01
  0.000E+00  1.519E-02  1.174E+00 3.3647603E+00 1.7997372E+00 -3.1775828E-01
  4.318E-02  1.983E-02  1.198E+00 3.3737376E+00 1.7664104E+00 -3.5775237E-01
  0.000E+00  7.761E-03  1.124E+00 3.3492075E+00 1.8128184E+00 -2.2697915E-01
  4.318E-02  1.117E-02  1.149E+00 3.3559742E+00 1.7815263E+00 -2.6861140E-01
  0.000E+00  2.796E-03  1.075E+00 3.3403303E+00 1.8217235E+00 -1.3610922E-01
  4.318E-02  4.969E-03  1.100E+00 3.3440502E+00 1.7923363E+00 -1.7898424E-01
  0.000E+00  3.108E-04  1.025E+00 3.3369070E+00 1.8263198E+00 -4.5360244E-02
  4.318E-02  1.243E-03  1.050E+00 3.3385562E+00 1.7990378E+00 -8.9453249E-02
  0.000E+00  3.108E-04  9.751E-01 3.3369071E+00 1.8263200E+00 4.5349853E-02
  4.318E-02  0.000E+00  1.000E+00 3.3371384E+00 1.8013327E+00 -5.1844348E-06
  0.000E+00  2.796E-03  9.253E-01 3.3403304E+00 1.8217241E+00 1.3609886E-01
  4.318E-02  1.243E-03  9.502E-01 3.3385563E+00 1.7990382E+00 8.9442885E-02
  0.000E+00  7.761E-03  8.757E-01 3.3492077E+00 1.8128194E+00 2.2696885E-01
  4.318E-02  4.969E-03  9.004E-01 3.3440504E+00 1.7923371E+00 1.7897390E-01
  0.000E+00  1.519E-02  8.264E-01 3.3647605E+00 1.7997389E+00 3.1774804E-01
  4.318E-02  1.117E-02  8.510E-01 3.3559744E+00 1.7815277E+00 2.6860110E-01
  0.000E+00  2.507E-02  7.775E-01 3.3830184E+00 1.7819734E+00 4.0746315E-01
  4.318E-02  1.983E-02  8.019E-01 3.3737379E+00 1.7664126E+00 3.5774214E-01
  0.000E+00  3.738E-02  7.292E-01 3.3948854E+00 1.7589553E+00 4.9510076E-01
  4.318E-02  3.092E-02  7.532E-01 3.3902778E+00 1.7463060E+00 4.4522201E-01
  0.000E+00  5.207E-02  6.815E-01 3.3981350E+00 1.7315208E+00 5.8131849E-01
  4.318E-02  4.443E-02  7.052E-01 3.3973723E+00 1.7212628E+00 5.3075612E-01
  0.000E+00  6.913E-02  6.347E-01 3.4269664E+00 1.7007137E+00 6.6723519E-01
  4.318E-02  6.031E-02  6.580E-01 3.4085404E+00 1.6925108E+00 6.1558238E-01
  0.000E+00  8.849E-02  5.887E-01 3.4528929E+00 1.6656738E+00 7.5167923E-01
  4.318E-02  7.852E-02  6.116E-01 3.4425227E+00 1.6602439E+00 6.9983565E-01
  0.000E+00  1.101E-01  5.438E-01 3.4502684E+00 1.6258953E+00 8.3355468E-01
  4.318E-02  9.903E-02  5.661E-01 3.4506917E+00 1.6232670E+00 7.8180506E-01
  0.000E+00  1.340E-01  5.000E-01 3.4846307E+00 1.5823170E+00 9.1350650E-01
  4.318E-02  1.218E-01  5.217E-01 3.4684487E+00 1.5820965E+00 8.6151902E-01
  0.000E+00  1.600E-01  4.575E-01 3.4838628E+00 1.5348801E+00 9.9132650E-01
  4.318E-02  1.467E-01  4.786E-01 3.4943492E+00 1.5372784E+00 9.3939160E-01
  0.000E+00  1.881E-01  4.163E-01 3.5153789E+00 1.4835167E+00 1.0665662E+00
  4.318E-02  1.738E-01  4.367E-01 3.4909611E+00 1.4885303E+00 1.0148573E+00
  0.000E+00  2.182E-01  3.765E-01 3.5058462E+00 1.4285202E+00 1.1391996E+00
  4.318E-02  2.029E-01  3.962E-01 3.5121682E+00 1.4360771E+00 1.0877766E+00
  0.000E+00  2.502E-01  3.383E-01 3.5224923E+00 1.3699614E+00 1.2089887E+00
  4.318E-02  2.340E-01  3.572E-01 3.5197047E+00 1.3800841E+00 1.1580201E+00
  0.000E+00  2.841E-01  3.018E-01 3.5223491E+00 1.3079930E+00 1.2757722E+00
  4.318E-02  2.669E-01  3.198E-01 3.5211090E+00 1.3206419E+00 1.2253672E+00
  0.000E+00  3.198E-01  2.669E-01 3.5210790E+00 1.2427733E+00 1.3393856E+00
  4.318E-02  3.018E-01  2.841E-01 3.5223792E+00 1.2579195E+00 1.2896744E+00
  0.000E+00  3.572E-01  2.340E-01 3.5196747E+00 1.1744702E+00 1.3996720E+00
  4.318E-02  3.383E-01  2.502E-01 3.5225224E+00 1.1920713E+00 1.3507757E+00
  0.000E+00  3.962E-01  2.029E-01 3.5121383E+00 1.1032298E+00 1.4564603E+00
  4.318E-02  3.765E-01  2.182E-01 3.5058762E+00 1.1232593E+00 1.4085150E+00
  0.000E+00  4.367E-01  1.738E-01 3.4909312E+00 1.0292753E+00 1.5096587E+00
  4.318E-02  4.163E-01  1.881E-01 3.5154089E+00 1.0516429E+00 1.4627419E+00
  0.000E+00  4.786E-01  1.467E-01 3.4943197E+00 9.5273864E-01 1.5590996E+00
  4.318E-02  4.575E-01  1.600E-01 3.4838927E+00 9.7745675E-01 1.5133867E+00
  0.000E+00  5.217E-01  1.218E-01 3.4684192E+00 8.7376058E-01 1.6045545E+00
  4.318E-02  5.000E-01  1.340E-01 3.4846605E+00 9.0072646E-01 1.5601600E+00
  0.000E+00  5.661E-01  9.903E-02 3.4506625E+00 7.9291504E-01 1.6463103E+00
  4.318E-02  5.438E-01  1.101E-01 3.4502982E+00 8.2189423E-01 1.6031292E+00
  0.000E+00  6.116E-01  7.852E-02 3.4424937E+00 7.0978196E-01 1.6838120E+00
  4.318E-02  5.887E-01  8.849E-02 3.4529224E+00 7.4116494E-01 1.6423502E+00
  0.000E+00  6.580E-01  6.031E-02 3.4085113E+00 6.2433253E-01 1.7165378E+00
  4.318E-02  6.347E-01  6.913E-02 3.4269958E+00 6.5790317E-01 1.6769003E+00
  0.000E+00  7.052E-01  4.443E-02 3.3973437E+00 5.3830218E-01 1.7456991E+00
  4.318E-02  6.815E-01  5.207E-02 3.3981644E+00 5.7318939E-01 1.7072770E+00
  0.000E+00  7.532E-01  3.092E-02 3.3902496E+00 4.5155385E-01 1.7710984E+00
  4.318E-02  7.292E-01  3.738E-02 3.3949144E+00 4.8817873E-01 1.7343274E+00
  0.000E+00  8.019E-01  1.983E-02 3.3737097E+00 3.6283190E-01 1.7914909E+00
  4.318E-02  7.775E-01  2.507E-02 3.3830473E+00 4.0176821E-01 1.7570237E+00
  0.000E+00  8.510E-01  1.117E-02 3.3559462E+00 2.7242509E-01 1.8068210E+00
  4.318E-02  8.264E-01  1.519E-02 3.3647895E+00 3.1330935E-01 1.7745413E+00
  0.000E+00  9.004E-01  4.969E-03 3.3440221E+00 1.8152523E-01 1.8177843E+00
  4.318E-02  8.757E-01  7.761E-03 3.3492368E+00 2.2380126E-01 1.7874393E+00
  4.318E-02  9.253E-01  2.796E-03 3.3403595E+00 1.3420352E-01 1.7962197E+00
  1.000E+01  1.050E+00  1.243E-03 3.3385280E+00 -9.0713243E-02 1.8245815E+00
  1.000E+01  1.000E+00  5.551E-16 3.3371102E+00 4.8743661E-06 1.8269085E+00
  9.957E+00  1.025E+00  3.108E-04 3.3369310E+00 -4.5991189E-02 1.8521290E+00
  1.000E+01  9.502E-01  1.243E-03 3.3385280E+00 9.0722983E-02 1.8245810E+00
  9.957E+00  9.751E-01  3.108E-04 3.3369310E+00 4.6000932E-02 1.8521288E+00
  1.000E+01  9.004E-01  4.969E-03 3.3440221E+00 1.8152523E-01 1.8177843E+00
  9.957E+00  9.253E-01  2.796E-03 3.3403543E+00 1.3803246E-01 1.8474674E+00
  1.000E+01  8.510E-01  1.117E-02 3.3559462E+00 2.7242509E-01 1.8068210E+00
  9.957E+00  8.757E-01  7.761E-03 3.3492315E+00 2.3018660E-01 1.8384363E+00
  1.000E+01  8.019E-01  1.983E-02 3.3737097E+00 3.6283190E-01 1.7914909E+00
  9.957E+00  8.264E-01  1.519E-02 3.3647843E+00 3.2224856E-01 1.8251702E+00
  1.000E+01  7.532E-01  3.092E-02 3.3902496E+00 4.5155385E-01 1.7710984E+00
  9.957E+00  7.775E-01  2.507E-02 3.3830421E+00 4.1323136E-01 1.8071529E+00
  1.000E+01  7.052E-01  4.443E-02 3.3973437E+00 5.3830218E-01 1.7456991E+00
  9.957E+00  7.292E-01  3.738E-02 3.3949093E+00 5.0210739E-01 1.7838093E+00
  1.000E+01  6.580E-01  6.031E-02 3.4085113E+00 6.2433253E-01 1.7165378E+00
  9.957E+00  6.815E-01  5.207E-02 3.3981593E+00 5.8954349E-01 1.7559869E+00
  1.000E+01  6.116E-01  7.852E-02 3.4424937E+00 7.0978196E-01 1.6838120E+00
  9.957E+00  6.347E-01  6.913E-02 3.4269905E+00 6.7667409E-01 1.7247430E+00
  1.000E+01  5.661E-01  9.903E-02 3.4506625E+00 7.9291504E-01 1.6463103E+00
  9.957E+00  5.887E-01  8.849E-02 3.4529171E+00 7.6231130E-01 1.6892075E+00
  1.000E+01  5.217E-01  1.218E-01 3.4684192E+00 8.7376058E-01 1.6045545E+00
  9.957E+00  5.438E-01  1.101E-01 3.4502929E+00 8.4534367E-01 1.6488672E+00
  1.000E+01  4.786E-01  1.467E-01 3.4943197E+00 9.5273864E-01 1.5590996E+00
  9.957E+00  5.000E-01  1.340E-01 3.4846552E+00 9.2642508E-01 1.6046720E+00
  1.000E+01  4.367E-01  1.738E-01 3.4909312E+00 1.0292753E+00 1.5096587E+00
  9.957E+00  4.575E-01  1.600E-01 3.4838875E+00 1.0053445E+00 1.5565646E+00
  1.000E+01  3.962E-01  2.029E-01 3.5121383E+00 1.1032298E+00 1.4564603E+00
  9.957E+00  4.163E-01  1.881E-01 3.5154035E+00 1.0816469E+00 1.5044745E+00
  1.000E+01  3.572E-01  2.340E-01 3.5196747E+00 1.1744702E+00 1.3996720E+00
  9.957E+00  3.765E-01  2.182E-01 3.5058710E+00 1.1553066E+00 1.4487008E+00
  1.000E+01  3.198E-01  2.669E-01 3.5210790E+00 1.2427733E+00 1.3393856E+00
  9.957E+00  3.383E-01  2.502E-01 3.5225171E+00 1.2260816E+00 1.3893140E+00
  1.000E+01  2.841E-01  3.018E-01 3.5223491E+00 1.3079930E+00 1.2757722E+00
  9.957E+00  3.018E-01  2.841E-01 3.5223738E+00 1.2938083E+00 1.3264695E+00
  1.000E+01  2.502E-01  3.383E-01 3.5224923E+00 1.3699614E+00 1.2089887E+00
  9.957E+00  2.669E-01  3.198E-01 3.5211038E+00 1.3583205E+00 1.2603279E+00
  1.000E+01  2.182E-01  3.765E-01 3.5058462E+00 1.4285202E+00 1.1391996E+00
  9.957E+00  2.340E-01  3.572E-01 3.5196994E+00 1.4194582E+00 1.1910592E+00
  1.000E+01  1.881E-01  4.163E-01 3.5153789E+00 1.4835167E+00 1.0665662E+00
  9.957E+00  2.029E-01  3.962E-01 3.5121629E+00 1.4770489E+00 1.1188120E+00
  1.000E+01  1.600E-01  4.575E-01 3.4838628E+00 1.5348801E+00 9.9132650E-01
  9.957E+00  1.738E-01  4.367E-01 3.4909557E+00 1.5309984E+00 1.0438121E+00
  1.000E+01  1.340E-01  5.000E-01 3.4846307E+00 1.5823170E+00 9.1350650E-01
  9.957E+00  1.467E-01  4.786E-01 3.4943439E+00 1.5811377E+00 9.6619357E-01
  1.000E+01  1.101E-01  5.438E-01 3.4502684E+00 1.6258953E+00 8.3355468E-01
  9.957E+00  1.218E-01  5.217E-01 3.4684434E+00 1.6272340E+00 8.8609927E-01
  1.000E+01  8.849E-02  5.887E-01 3.4528929E+00 1.6656738E+00 7.5167923E-01
  9.957E+00  9.903E-02  5.661E-01 3.4506866E+00 1.6695800E+00 8.0411128E-01
  1.000E+01  6.913E-02  6.347E-01 3.4269664E+00 1.7007137E+00 6.6723519E-01
  9.957E+00  7.852E-02  6.116E-01 3.4425174E+00 1.7076114E+00 7.1980312E-01
  1.000E+01  5.207E-02  6.815E-01 3.3981350E+00 1.7315208E+00 5.8131849E-01
  9.957E+00  6.031E-02  6.580E-01 3.4085350E+00 1.7407988E+00 6.3314588E-01
  1.000E+01  3.738E-02  7.292E-01 3.3948854E+00 1.7589553E+00 4.9510076E-01
  9.957E+00  4.443E-02  7.052E-01 3.3973671E+00 1.7703717E+00 5.4589949E-01
  1.000E+01  2.507E-02  7.775E-01 3.3830184E+00 1.7819734E+00 4.0746315E-01
  9.957E+00  3.092E-02  7.532E-01 3.3902726E+00 1.7961294E+00 4.5792511E-01
  1.000E+01  1.519E-02  8.264E-01 3.3647605E+00 1.7997389E+00 3.1774804E-01
  9.957E+00  1.983E-02  8.019E-01 3.3737326E+00 1.8168095E+00 3.6794948E-01
  1.000E+01  7.761E-03  8.757E-01 3.3492077E+00 1.8128194E+00 2.2696885E-01
  9.957E+00  1.117E-02  8.510E-01 3.3559692E+00 1.8323559E+00 2.7626520E-01
  1.000E+01  2.796E-03  9.253E-01 3.3403304E+00 1.8217241E+00 1.3609886E-01
  9.957E+00  4.969E-03  9.004E-01 3.3440452E+00 1.8434739E+00 1.8408077E-01
  1.000E+01  3.108E-04  9.751E-01 3.3369071E+00 1.8263200E+00 4.5349853E-02
  9.957E+00  1.243E-03  9.502E-01 3.3385511E+00 1.8503663E+00 9.1995164E-02
  1.000E+01  3.108E-04  1.025E+00 3.3369070E+00 1.8263198E+00 -4.5360244E-02
  9.957E+00  0.000E+00  1.000E+00 3.3371332E+00 1.8527263E+00 -5.1838424E-06
  1.000E+01  2.796E-03  1.075E+00 3.3403303E+00 1.8217235E+00 -1.3610922E-01
  9.957E+00  1.243E-03  1.050E+00 3.3385510E+00 1.8503659E+00 -9.2005525E-02
  1.000E+01  7.761E-03  1.124E+00 3.3492075E+00 1.8128184E+00 -2.2697915E-01
  9.957E+00  4.969E-03  1.100E+00 3.3440451E+00 1.8434731E+00 -1.8409111E-01
  1.000E+01  1.519E-02  1.174E+00 3.3647603E+00 1.7997372E+00 -3.1775828E-01
  9.957E+00  1.117E-02  1.149E+00 3.3559690E+00 1.8323546E+00 -2.7627549E-01
  1.000E+01  2.507E-02  1.223E+00 3.3830181E+00 1.7819709E+00 -4.0747331E-01
  9.957E+00  1.983E-02  1.198E+00 3.3737323E+00 1.8168073E+00 -3.6795969E-01
  1.000E+01  3.738E-02  1.271E+00 3.3948850E+00 1.7589525E+00 -4.9511083E-01
  9.957E+00  3.092E-02  1.247E+00 3.3902723E+00 1.7961266E+00 -4.5793523E-01
  1.000E+01  5.207E-02  1.318E+00 3.3981346E+00 1.7315182E+00 -5.8132844E-01
  9.957E+00  4.443E-02  1.295E+00 3.3973666E+00 1.7703690E+00 -5.4590950E-01
  1.000E+01  6.913E-02  1.365E+00 3.4269659E+00 1.7007099E+00 -6.6724499E-01
  9.957E+00  6.031E-02  1.342E+00 3.4085345E+00 1.7407957E+00 -6.3315576E-01
  1.000E+01  8.849E-02  1.411E+00 3.4528924E+00 1.6656693E+00 -7.5168887E-01
  9.957E+00  7.852E-02  1.388E+00 3.4425169E+00 1.7076069E+00 -7.1981284E-01
  1.000E+01  1.101E-01  1.456E+00 3.4502678E+00 1.6258913E+00 -8.3356414E-01
  9.957E+00  9.903E-02  1.434E+00 3.4506860E+00 1.6695758E+00 -8.0412083E-01
  1.000E+01  1.340E-01  1.500E+00 3.4846300E+00 1.5823117E+00 -9.1351573E-01
  9.957E+00  1.218E-01  1.478E+00 3.4684427E+00 1.6272294E+00 -8.8610862E-01
  1.000E+01  1.600E-01  1.543E+00 3.4838621E+00 1.5348747E+00 -9.9133551E-01
  9.957E+00  1.467E-01  1.521E+00 3.4943432E+00 1.5811321E+00 -9.6620269E-01
  1.000E+01  1.881E-01  1.584E+00 3.5153781E+00 1.4835108E+00 -1.0665749E+00
  9.957E+00  1.738E-01  1.563E+00 3.4909549E+00 1.5309929E+00 -1.0438210E+00
  1.000E+01  2.182E-01  1.623E+00 3.5058453E+00 1.4285139E+00 -1.1392080E+00
  9.957E+00  2.029E-01  1.604E+00 3.5121621E+00 1.4770427E+00 -1.1188206E+00
  1.000E+01  2.502E-01  1.662E+00 3.5224914E+00 1.3699548E+00 -1.2089969E+00
  9.957E+00  2.340E-01  1.643E+00 3.5196985E+00 1.4194518E+00 -1.1910676E+00
  1.000E+01  2.841E-01  1.698E+00 3.5223481E+00 1.3079860E+00 -1.2757801E+00
  9.957E+00  2.669E-01  1.680E+00 3.5211029E+00 1.3583136E+00 -1.2603359E+00
  1.000E+01  3.198E-01  1.733E+00 3.5210780E+00 1.2427659E+00 -1.3393932E+00
  9.957E+00  3.018E-01  1.716E+00 3.5223729E+00 1.2938012E+00 -1.3264773E+00
  1.000E+01  3.572E-01  1.766E+00 3.5196737E+00 1.1744626E+00 -1.3996792E+00
  9.957E+00  3.383E-01  1.750E+00 3.5225161E+00 1.2260741E+00 -1.3893214E+00
  1.000E+01  3.962E-01  1.797E+00 3.5121373E+00 1.1032219E+00 -1.4564671E+00
  9.957E+00  3.765E-01  1.782E+00 3.5058699E+00 1.1552988E+00 -1.4487078E+00
  1.000E+01  4.367E-01  1.826E+00 3.4909301E+00 1.0292671E+00 -1.5096651E+00
  9.957E+00  4.163E-01  1.812E+00 3.5154025E+00 1.0816389E+00 -1.5044811E+00
  1.000E+01  4.786E-01  1.853E+00 3.4943185E+00 9.5273017E-01 -1.5591056E+00
  9.957E+00  4.575E-01  1.840E+00 3.4838864E+00 1.0053363E+00 -1.5565709E+00
  1.000E+01  5.217E-01  1.878E+00 3.4684181E+00 8.7375199E-01 -1.6045600E+00
  9.957E+00  5.000E-01  1.866E+00 3.4846540E+00 9.2641653E-01 -1.6046778E+00
  1.000E+01  5.661E-01  1.901E+00 3.4506613E+00 7.9290632E-01 -1.6463154E+00
  9.957E+00  5.438E-01  1.890E+00 3.4502917E+00 8.4533486E-01 -1.6488725E+00
  1.000E+01  6.116E-01  1.921E+00 3.4424925E+00 7.0977297E-01 -1.6838167E+00
  9.957E+00  5.887E-01  1.912E+00 3.4529159E+00 7.6230228E-01 -1.6892124E+00
  1.000E+01  6.580E-01  1.940E+00 3.4085101E+00 6.2432314E-01 -1.7165419E+00
  9.957E+00  6.347E-01  1.931E+00 3.4269893E+00 6.7666505E-01 -1.7247474E+00
  1.000E+01  7.052E-01  1.956E+00 3.3973423E+00 5.3829250E-01 -1.7457027E+00
  9.957E+00  6.815E-01  1.948E+00 3.3981581E+00 5.8953446E-01 -1.7559909E+00
  1.000E+01  7.532E-01  1.969E+00 3.3902483E+00 4.5154414E-01 -1.7711015E+00
  9.957E+00  7.292E-01  1.963E+00 3.3949082E+00 5.0209825E-01 -1.7838128E+00
  1.000E+01  8.019E-01  1.980E+00 3.3737084E+00 3.6282233E-01 -1.7914936E+00
  9.957E+00  7.775E-01  1.975E+00 3.3830409E+00 4.1322196E-01 -1.8071559E+00
  1.000E+01  8.510E-01  1.989E+00 3.3559450E+00 2.7241563E-01 -1.8068232E+00
  9.957E+00  8.264E-01  1.985E+00 3.3647830E+00 3.2223889E-01 -1.8251726E+00
  1.000E+01  9.004E-01  1.995E+00 3.3440209E+00 1.8151575E-01 -1.8177859E+00
  9.957E+00  8.757E-01  1.992E+00 3.3492302E+00 2.3017678E-01 -1.8384383E+00
  1.000E+01  9.502E-01  1.999E+00 3.3385267E+00 9.0713399E-02 -1.8245820E+00
  9.957E+00  9.253E-01  1.997E+00 3.3403530E+00 1.3802261E-01 -1.8474688E+00
  1.000E+01  1.000E+00  2.000E+00 3.3371089E+00 -4.8756150E-06 -1.8269092E+00
  9.957E+00  9.751E-01  2.000E+00 3.3369297E+00 4.5991133E-02 -1.8521297E+00
  1.000E+01  1.050E+00  1.999E+00 3.3385267E+00 -9.0723142E-02 -1.8245815E+00
  9.957E+00  1.025E+00  2.000E+00 3.3369297E+00 -4.6000886E-02 -1.8521294E+00
  1.000E+01  1.100E+00  1.995E+00 3.3440209E+00 -1.8152546E-01 -1.8177849E+00
  9.957E+00  1.075E+00  1.997E+00 3.3403530E+00 -1.3803234E-01 -1.8474680E+00
  1.000E+01  1.149E+00  1.989E+00 3.3559449E+00 -2.7242529E-01 -1.8068216E+00
  9.957E+00  1.124E+00  1.992E+00 3.3492302E+00 -2.3018647E-01 -1.8384370E+00
  1.000E+01  1.198E+00  1.980E+00 3.3737084E+00 -3.6283192E-01 -1.7914915E+00
  9.957E+00  1.174E+00  1.985E+00 3.3647829E+00 -3.2224852E-01 -1.8251708E+00