# TIME = 3.000000
VARIABLES = X, Y, Z, FX, FY, FZ
ZONE N=29232 E=58212 F=FEPOINT ET=TRIANGLE
  0.000E+00  9.502E-01  1.243E-03 3.3423190E+00 8.3036230E-02 1.6699888E+00
  0.000E+00  1.000E+00  0.000E+00 3.3409021E+00 4.3758152E-06 1.6721192E+00
  4.318E-02  9.751E-01  3.108E-04 3.3407250E+00 4.0891289E-02 1.6464018E+00
  0.000E+00  1.050E+00  1.243E-03 3.3423190E+00 -8.3027486E-02 1.6699893E+00
  4.318E-02  1.025E+00  3.108E-04 3.3407250E+00 -4.0882540E-02 1.6464020E+00
  0.000E+00  1.100E+00  4.969E-03 3.3478118E+00 -1.6613633E-01 1.6637689E+00
  4.318E-02  1.075E+00  2.796E-03 3.3441472E+00 -1.2269145E-01 1.6422590E+00
  0.000E+00  1.149E+00  1.117E-02 3.3597371E+00 -2.4933444E-01 1.6537351E+00
  4.318E-02  1.124E+00  7.761E-03 3.3530247E+00 -2.0460945E-01 1.6342317E+00
  0.000E+00  1.198E+00  1.983E-02 3.3775043E+00 -3.3208123E-01 1.6397043E+00
  4.318E-02  1.174E+00  1.519E-02 3.3685808E+00 -2.8644563E-01 1.6224397E+00
  0.000E+00  1.247E+00  3.092E-02 3.3940435E+00 -4.1328592E-01 1.6210400E+00
  4.318E-02  1.223E+00  2.507E-02 3.3868414E+00 -3.6732254E-01 1.6064241E+00
  0.000E+00  1.295E+00  4.443E-02 3.4011239E+00 -4.9268436E-01 1.5977931E+00
  4.318E-02  1.271E+00  3.738E-02 3.3987014E+00 -4.4632657E-01 1.5856736E+00
  0.000E+00  1.342E+00  6.031E-02 3.4122796E+00 -5.7142588E-01 1.5711031E+00
  4.318E-02  1.318E+00  5.207E-02 3.4019316E+00 -5.2405057E-01 1.5609423E+00
  0.000E+00  1.388E+00  7.852E-02 3.4462757E+00 -6.4963576E-01 1.5411506E+00
  4.318E-02  1.365E+00  6.913E-02 3.4307699E+00 -6.0150317E-01 1.5331698E+00
  0.000E+00  1.434E+00  9.903E-02 3.4544305E+00 -7.2572539E-01 1.5068267E+00
  4.318E-02  1.411E+00  8.849E-02 3.4567019E+00 -6.7762831E-01 1.5015815E+00
  0.000E+00  1.478E+00  1.218E-01 3.4721820E+00 -7.9972114E-01 1.4686092E+00
  4.318E-02  1.456E+00  1.101E-01 3.4540515E+00 -7.5143817E-01 1.4657227E+00
  0.000E+00  1.521E+00  1.467E-01 3.4980915E+00 -8.7200771E-01 1.4270060E+00
  4.318E-02  1.500E+00  1.340E-01 3.4884292E+00 -8.2351359E-01 1.4264370E+00
  0.000E+00  1.563E+00  1.738E-01 3.4946812E+00 -9.4205987E-01 1.3817545E+00
  4.318E-02  1.543E+00  1.600E-01 3.4876422E+00 -8.9366729E-01 1.3836732E+00
  0.000E+00  1.604E+00  2.029E-01 3.5158978E+00 -1.0097486E+00 1.3330638E+00
  4.318E-02  1.584E+00  1.881E-01 3.5191749E+00 -9.6149481E-01 1.3373698E+00
  0.000E+00  1.643E+00  2.340E-01 3.5234307E+00 -1.0749533E+00 1.2810874E+00
  4.318E-02  1.623E+00  2.182E-01 3.5096216E+00 -1.0269729E+00 1.2877912E+00
  0.000E+00  1.680E+00  2.669E-01 3.5248328E+00 -1.1374695E+00 1.2259092E+00
  4.318E-02  1.662E+00  2.502E-01 3.5262768E+00 -1.0898870E+00 1.2350014E+00
  0.000E+00  1.716E+00  3.018E-01 3.5261015E+00 -1.1971635E+00 1.1676860E+00
  4.318E-02  1.698E+00  2.841E-01 3.5261296E+00 -1.1500914E+00 1.1791376E+00
  0.000E+00  1.750E+00  3.383E-01 3.5262489E+00 -1.2538819E+00 1.1065612E+00
  4.318E-02  1.733E+00  3.198E-01 3.5248607E+00 -1.2074378E+00 1.1203427E+00
  0.000E+00  1.782E+00  3.765E-01 3.5095937E+00 -1.3074794E+00 1.0426853E+00
  4.318E-02  1.766E+00  3.572E-01 3.5234587E+00 -1.2617855E+00 1.0587685E+00
  0.000E+00  1.812E+00  4.163E-01 3.5191472E+00 -1.3578166E+00 9.7620625E-01
  4.318E-02  1.797E+00  3.962E-01 3.5159257E+00 -1.3129792E+00 9.9454618E-01
  0.000E+00  1.840E+00  4.575E-01 3.4876145E+00 -1.4048285E+00 9.0734168E-01
  4.318E-02  1.826E+00  4.367E-01 3.4947092E+00 -1.3609371E+00 9.2787732E-01
  0.000E+00  1.866E+00  5.000E-01 3.4884017E+00 -1.4482463E+00 8.3611538E-01
  4.318E-02  1.853E+00  4.786E-01 3.4981191E+00 -1.4055067E+00 8.5888031E-01
  0.000E+00  1.890E+00  5.438E-01 3.4540240E+00 -1.4881335E+00 7.6293789E-01
  4.318E-02  1.878E+00  5.217E-01 3.4722097E+00 -1.4464841E+00 7.8768271E-01
  0.000E+00  1.912E+00  5.887E-01 3.4566748E+00 -1.5245413E+00 6.8799973E-01
  4.318E-02  1.901E+00  5.661E-01 3.4544579E+00 -1.4841262E+00 7.1480155E-01
  0.000E+00  1.931E+00  6.347E-01 3.4307428E+00 -1.5566129E+00 6.1071054E-01
  4.318E-02  1.921E+00  6.116E-01 3.4463029E+00 -1.5179334E+00 6.3985825E-01
  0.000E+00  1.948E+00  6.815E-01 3.4019047E+00 -1.5848109E+00 5.3207346E-01
  4.318E-02  1.940E+00  6.580E-01 3.4123069E+00 -1.5474358E+00 5.6282679E-01
  0.000E+00  1.963E+00  7.292E-01 3.3986747E+00 -1.6099208E+00 4.5316089E-01
  4.318E-02  1.956E+00  7.052E-01 3.4011509E+00 -1.5737237E+00 4.8527148E-01
  0.000E+00  1.975E+00  7.775E-01 3.3868149E+00 -1.6309889E+00 3.7294871E-01
  4.318E-02  1.969E+00  7.532E-01 3.3940702E+00 -1.5966203E+00 4.0706900E-01
  0.000E+00  1.985E+00  8.264E-01 3.3685543E+00 -1.6472499E+00 2.9083498E-01
  4.318E-02  1.980E+00  8.019E-01 3.3775310E+00 -1.6150040E+00 3.2708748E-01
  0.000E+00  1.992E+00  8.757E-01 3.3529982E+00 -1.6592228E+00 2.0774731E-01
  4.318E-02  1.989E+00  8.510E-01 3.3597638E+00 -1.6288243E+00 2.4558712E-01
  0.000E+00  1.997E+00  9.253E-01 3.3441207E+00 -1.6673734E+00 1.2457655E-01
  4.318E-02  1.995E+00  9.004E-01 3.3478385E+00 -1.6387076E+00 1.6364227E-01
  0.000E+00  2.000E+00  9.751E-01 3.3406986E+00 -1.6715803E+00 4.1516521E-02
  4.318E-02  1.999E+00  9.502E-01 3.3423457E+00 -1.6448348E+00 8.1785363E-02
  0.000E+00  2.000E+00  1.025E+00 3.3406986E+00 -1.6715805E+00 -4.1507920E-02
  4.318E-02  2.000E+00  1.000E+00 3.3409288E+00 -1.6469330E+00 4.2943645E-06
  0.000E+00  1.997E+00  1.075E+00 3.3441208E+00 -1.6673740E+00 -1.2456797E-01
  4.318E-02  1.999E+00  1.050E+00 3.3423457E+00 -1.6448351E+00 -8.1776782E-02
  0.000E+00  1.992E+00  1.124E+00 3.3529982E+00 -1.6592238E+00 -2.0773878E-01
  4.318E-02  1.995E+00  1.100E+00 3.3478385E+00 -1.6387084E+00 -1.6363371E-01
  0.000E+00  1.985E+00  1.174E+00 3.3685543E+00 -1.6472516E+00 -2.9082651E-01
  4.318E-02  1.989E+00  1.149E+00 3.3597638E+00 -1.6288255E+00 -2.4557861E-01
  0.000E+00  1.975E+00  1.223E+00 3.3868149E+00 -1.6309913E+00 -3.7294031E-01
  4.318E-02  1.980E+00  1.198E+00 3.3775310E+00 -1.6150061E+00 -3.2707903E-01
  0.000E+00  1.963E+00  1.271E+00 3.3986748E+00 -1.6099235E+00 -4.5315257E-01
  4.318E-02  1.969E+00  1.247E+00 3.3940703E+00 -1.5966229E+00 -4.0706064E-01
  0.000E+00  1.948E+00  1.318E+00 3.4019047E+00 -1.5848134E+00 -5.3206525E-01
  4.318E-02  1.956E+00  1.295E+00 3.4011509E+00 -1.5737262E+00 -4.8526322E-01
  0.000E+00  1.931E+00  1.365E+00 3.4307429E+00 -1.5566165E+00 -6.1070246E-01
  4.318E-02  1.940E+00  1.342E+00 3.4123070E+00 -1.5474387E+00 -5.6281865E-01
  0.000E+00  1.912E+00  1.411E+00 3.4566749E+00 -1.5245455E+00 -6.8799180E-01
  4.318E-02  1.921E+00  1.388E+00 3.4463029E+00 -1.5179375E+00 -6.3985026E-01
  0.000E+00  1.890E+00  1.456E+00 3.4540241E+00 -1.4881373E+00 -7.6293012E-01
  4.318E-02  1.901E+00  1.434E+00 3.4544580E+00 -1.4841301E+00 -7.1479372E-01
  0.000E+00  1.866E+00  1.500E+00 3.4884018E+00 -1.4482513E+00 -8.3610782E-01
  4.318E-02  1.878E+00  1.478E+00 3.4722098E+00 -1.4464884E+00 -7.8767506E-01
  0.000E+00  1.840E+00  1.543E+00 3.4876146E+00 -1.4048336E+00 -9.0733432E-01
  4.318E-02  1.853E+00  1.521E+00 3.4981192E+00 -1.4055119E+00 -8.5887286E-01
  0.000E+00  1.812E+00  1.584E+00 3.5191473E+00 -1.3578220E+00 -9.7619912E-01
  4.318E-02  1.826E+00  1.563E+00 3.4947093E+00 -1.3609422E+00 -9.2787007E-01
  0.000E+00  1.782E+00  1.623E+00 3.5095938E+00 -1.3074853E+00 -1.0426784E+00
  4.318E-02  1.797E+00  1.604E+00 3.5159258E+00 -1.3129849E+00 -9.9453918E-01
  0.000E+00  1.750E+00  1.662E+00 3.5262490E+00 -1.2538880E+00 -1.1065546E+00
  4.318E-02  1.766E+00  1.643E+00 3.5234588E+00 -1.2617914E+00 -1.0587618E+00
  0.000E+00  1.716E+00  1.698E+00 3.5261016E+00 -1.1971700E+00 -1.1676796E+00
  4.318E-02  1.733E+00  1.680E+00 3.5248608E+00 -1.2074442E+00 -1.1203362E+00
  0.000E+00  1.680E+00  1.733E+00 3.5248329E+00 -1.1374762E+00 -1.2259032E+00
  4.318E-02  1.698E+00  1.716E+00 3.5261297E+00 -1.1500980E+00 -1.1791314E+00
  0.000E+00  1.643E+00  1.766E+00 3.5234308E+00 -1.0749603E+00 -1.2810817E+00
  4.318E-02  1.662E+00  1.750E+00 3.5262770E+00 -1.0898939E+00 -1.2349955E+00
  0.000E+00  1.604E+00  1.797E+00 3.5158979E+00 -1.0097559E+00 -1.3330585E+00
  4.318E-02  1.623E+00  1.782E+00 3.5096217E+00 -1.0269801E+00 -1.2877857E+00
  0.000E+00  1.563E+00  1.826E+00 3.4946814E+00 -9.4206741E-01 -1.3817494E+00
  4.318E-02  1.584E+00  1.812E+00 3.5191750E+00 -9.6150220E-01 -1.3373646E+00
  0.000E+00  1.521E+00  1.853E+00 3.4980916E+00 -8.7201550E-01 -1.4270014E+00
  4.318E-02  1.543E+00  1.840E+00 3.4876423E+00 -8.9367485E-01 -1.3836684E+00
  0.000E+00  1.478E+00  1.878E+00 3.4721822E+00 -7.9972906E-01 -1.4686049E+00
  4.318E-02  1.500E+00  1.866E+00 3.4884293E+00 -8.2352141E-01 -1.4264326E+00
  0.000E+00  1.434E+00  1.901E+00 3.4544305E+00 -7.2573334E-01 -1.5068228E+00
  4.318E-02  1.456E+00  1.890E+00 3.4540516E+00 -7.5144623E-01 -1.4657186E+00
  0.000E+00  1.388E+00  1.921E+00 3.4462757E+00 -6.4964385E-01 -1.5411471E+00
  4.318E-02  1.411E+00  1.912E+00 3.4567021E+00 -6.7763664E-01 -1.5015779E+00
  0.000E+00  1.342E+00  1.940E+00 3.4122797E+00 -5.7143427E-01 -1.5711001E+00
  4.318E-02  1.365E+00  1.931E+00 3.4307701E+00 -6.0151159E-01 -1.5331666E+00
  0.000E+00  1.295E+00  1.956E+00 3.4011241E+00 -4.9269315E-01 -1.5977906E+00
  4.318E-02  1.318E+00  1.948E+00 3.4019318E+00 -5.2405894E-01 -1.5609395E+00
  0.000E+00  1.247E+00  1.969E+00 3.3940439E+00 -4.1329494E-01 -1.6210380E+00
  4.318E-02  1.271E+00  1.963E+00 3.3987014E+00 -4.4633486E-01 -1.5856712E+00
  0.000E+00  1.198E+00  1.980E+00 3.3775046E+00 -3.3209026E-01 -1.6397028E+00
  4.318E-02  1.223E+00  1.975E+00 3.3868414E+00 -3.6733090E-01 -1.6064222E+00
  0.000E+00  1.149E+00  1.989E+00 3.3597373E+00 -2.4934334E-01 -1.6537340E+00
  4.318E-02  1.174E+00  1.985E+00 3.3685809E+00 -2.8645417E-01 -1.6224382E+00
  0.000E+00  1.100E+00  1.995E+00 3.3478119E+00 -1.6614513E-01 -1.6637683E+00
  4.318E-02  1.124E+00  1.992E+00 3.3530248E+00 -2.0461818E-01 -1.6342306E+00
  0.000E+00  1.050E+00  1.999E+00 3.3423190E+00 -8.3036291E-02 -1.6699891E+00
  4.318E-02  1.075E+00  1.997E+00 3.3441474E+00 -1.2270029E-01 -1.6422584E+00
  0.000E+00  1.000E+00  2.000E+00 3.3409021E+00 -4.4600222E-06 -1.6721195E+00
  4.318E-02  1.025E+00  2.000E+00 3.3407253E+00 -4.0891389E-02 -1.6464020E+00
  0.000E+00  9.502E-01  1.999E+00 3.3423190E+00 8.3027379E-02 -1.6699896E+00
  4.318E-02  9.751E-01  2.000E+00 3.3407253E+00 4.0882470E-02 -1.6464022E+00
  0.000E+00  9.004E-01  1.995E+00 3.3478119E+00 1.6613625E-01 -1.6637693E+00
  4.318E-02  9.253E-01  1.997E+00 3.3441474E+00 1.2269138E-01 -1.6422591E+00
  0.000E+00  8.510E-01  1.989E+00 3.3597373E+00 2.4933451E-01 -1.6537354E+00
  4.318E-02  8.757E-01  1.992E+00 3.3530248E+00 2.0460932E-01 -1.6342318E+00
  0.000E+00  8.019E-01  1.980E+00 3.3775046E+00 3.3208149E-01 -1.6397047E+00
  4.318E-02  8.264E-01  1.985E+00 3.3685809E+00 2.8644537E-01 -1.6224398E+00
  0.000E+00  7.532E-01  1.969E+00 3.3940438E+00 4.1328626E-01 -1.6210403E+00
  4.318E-02  7.775E-01  1.975E+00 3.3868414E+00 3.6732217E-01 -1.6064243E+00
  0.000E+00  7.052E-01  1.956E+00 3.4011241E+00 4.9268456E-01 -1.5977934E+00
  4.318E-02  7.292E-01  1.963E+00 3.3987014E+00 4.4632622E-01 -1.5856738E+00
  0.000E+00  6.580E-01  1.940E+00 3.4122797E+00 5.7142581E-01 -1.5711033E+00
  4.318E-02  6.815E-01  1.948E+00 3.4019318E+00 5.2405041E-01 -1.5609425E+00
  0.000E+00  6.116E-01  1.921E+00 3.4462757E+00 6.4963552E-01 -1.5411508E+00
  4.318E-02  6.347E-01  1.931E+00 3.4307701E+00 6.0150320E-01 -1.5331700E+00
  0.000E+00  5.661E-01  1.901E+00 3.4544305E+00 7.2572516E-01 -1.5068269E+00
  4.318E-02  5.887E-01  1.912E+00 3.4567021E+00 6.7762839E-01 -1.5015818E+00
  0.000E+00  5.217E-01  1.878E+00 3.4721822E+00 7.9972107E-01 -1.4686094E+00
  4.318E-02  5.438E-01  1.890E+00 3.4540516E+00 7.5143816E-01 -1.4657229E+00
  0.000E+00  4.786E-01  1.853E+00 3.4980916E+00 8.7200771E-01 -1.4270062E+00
  4.318E-02  5.000E-01  1.866E+00 3.4884293E+00 8.2351350E-01 -1.4264372E+00
  0.000E+00  4.367E-01  1.826E+00 3.4946813E+00 9.4205985E-01 -1.3817547E+00
  4.318E-02  4.575E-01  1.840E+00 3.4876423E+00 8.9366718E-01 -1.3836734E+00
  0.000E+00  3.962E-01  1.797E+00 3.5158979E+00 1.0097486E+00 -1.3330640E+00
  4.318E-02  4.163E-01  1.812E+00 3.5191750E+00 9.6149473E-01 -1.3373700E+00
  0.000E+00  3.572E-01  1.766E+00 3.5234308E+00 1.0749532E+00 -1.2810876E+00
  4.318E-02  3.765E-01  1.782E+00 3.5096217E+00 1.0269729E+00 -1.2877914E+00
  0.000E+00  3.198E-01  1.733E+00 3.5248329E+00 1.1374694E+00 -1.2259094E+00
  4.318E-02  3.383E-01  1.750E+00 3.5262769E+00 1.0898869E+00 -1.2350016E+00
  0.000E+00  2.841E-01  1.698E+00 3.5261016E+00 1.1971635E+00 -1.1676862E+00
  4.318E-02  3.018E-01  1.716E+00 3.5261296E+00 1.1500914E+00 -1.1791378E+00
  0.000E+00  2.502E-01  1.662E+00 3.5262489E+00 1.2538818E+00 -1.1065614E+00
  4.318E-02  2.669E-01  1.680E+00 3.5248608E+00 1.2074378E+00 -1.1203429E+00
  0.000E+00  2.182E-01  1.623E+00 3.5095938E+00 1.3074793E+00 -1.0426855E+00
  4.318E-02  2.340E-01  1.643E+00 3.5234588E+00 1.2617854E+00 -1.0587687E+00
  0.000E+00  1.881E-01  1.584E+00 3.5191472E+00 1.3578165E+00 -9.7620646E-01
  4.318E-02  2.029E-01  1.604E+00 3.5159258E+00 1.3129791E+00 -9.9454639E-01
  0.000E+00  1.600E-01  1.543E+00 3.4876146E+00 1.4048285E+00 -9.0734189E-01
  4.318E-02  1.738E-01  1.563E+00 3.4947092E+00 1.3609371E+00 -9.2787754E-01
  0.000E+00  1.340E-01  1.500E+00 3.4884018E+00 1.4482463E+00 -8.3611559E-01
  4.318E-02  1.467E-01  1.521E+00 3.4981192E+00 1.4055067E+00 -8.5888053E-01
  0.000E+00  1.101E-01  1.456E+00 3.4540240E+00 1.4881334E+00 -7.6293810E-01
  4.318E-02  1.218E-01  1.478E+00 3.4722098E+00 1.4464840E+00 -7.8768293E-01
  0.000E+00  8.849E-02  1.411E+00 3.4566749E+00 1.5245412E+00 -6.8799994E-01
  4.318E-02  9.903E-02  1.434E+00 3.4544579E+00 1.4841261E+00 -7.1480178E-01
  0.000E+00  6.913E-02  1.365E+00 3.4307429E+00 1.5566129E+00 -6.1071075E-01
  4.318E-02  7.852E-02  1.388E+00 3.4463029E+00 1.5179333E+00 -6.3985847E-01
  0.000E+00  5.207E-02  1.318E+00 3.4019047E+00 1.5848108E+00 -5.3207368E-01
  4.318E-02  6.031E-02  1.342E+00 3.4123069E+00 1.5474357E+00 -5.6282701E-01
  0.000E+00  3.738E-02  1.271E+00 3.3986747E+00 1.6099208E+00 -4.5316111E-01
  4.318E-02  4.443E-02  1.295E+00 3.4011509E+00 1.5737236E+00 -4.8527171E-01
  0.000E+00  2.507E-02  1.223E+00 3.3868149E+00 1.6309889E+00 -3.7294894E-01
  4.318E-02  3.092E-02  1.247E+00 3.3940702E+00 1.5966202E+00 -4.0706923E-01
  0.000E+00  1.519E-02  1.174E+00 3.3685543E+00 1.6472499E+00 -2.9083522E-01
  4.318E-02  1.983E-02  1.198E+00 3.3775309E+00 1.6150040E+00 -3.2708771E-01
  0.000E+00  7.761E-03  1.124E+00 3.3529982E+00 1.6592227E+00 -2.0774755E-01
  4.318E-02  1.117E-02  1.149E+00 3.3597637E+00 1.6288242E+00 -2.4558735E-01
  0.000E+00  2.796E-03  1.075E+00 3.3441207E+00 1.6673733E+00 -1.2457678E-01
  4.318E-02  4.969E-03  1.100E+00 3.3478385E+00 1.6387075E+00 -1.6364250E-01
  0.000E+00  3.108E-04  1.025E+00 3.3406986E+00 1.6715802E+00 -4.1516752E-02
  4.318E-02  1.243E-03  1.050E+00 3.3423457E+00 1.6448347E+00 -8.1785605E-02
  0.000E+00  3.108E-04  9.751E-01 3.3406985E+00 1.6715804E+00 4.1507686E-02
  4.318E-02  0.000E+00  1.000E+00 3.3409287E+00 1.6469329E+00 -4.5411025E-06
  0.000E+00  2.796E-03  9.253E-01 3.3441207E+00 1.6673739E+00 1.2456773E-01
  4.318E-02  1.243E-03  9.502E-01 3.3423457E+00 1.6448351E+00 8.1776533E-02
  0.000E+00  7.761E-03  8.757E-01 3.3529981E+00 1.6592237E+00 2.0773853E-01
  4.318E-02  4.969E-03  9.004E-01 3.3478385E+00 1.6387083E+00 1.6363346E-01
  0.000E+00  1.519E-02  8.264E-01 3.3685543E+00 1.6472515E+00 2.9082625E-01
  4.318E-02  1.117E-02  8.510E-01 3.3597637E+00 1.6288255E+00 2.4557836E-01
  0.000E+00  2.507E-02  7.775E-01 3.3868148E+00 1.6309912E+00 3.7294005E-01
  4.318E-02  1.983E-02  8.019E-01 3.3775309E+00 1.6150060E+00 3.2707878E-01
  0.000E+00  3.738E-02  7.292E-01 3.3986747E+00 1.6099234E+00 4.5315232E-01
  4.318E-02  3.092E-02  7.532E-01 3.3940702E+00 1.5966228E+00 4.0706039E-01
  0.000E+00  5.207E-02  6.815E-01 3.4019046E+00 1.5848133E+00 5.3206500E-01
  4.318E-02  4.443E-02  7.052E-01 3.4011509E+00 1.5737261E+00 4.8526296E-01
  0.000E+00  6.913E-02  6.347E-01 3.4307428E+00 1.5566164E+00 6.1070221E-01
  4.318E-02  6.031E-02  6.580E-01 3.4123069E+00 1.5474386E+00 5.6281839E-01
  0.000E+00  8.849E-02  5.887E-01 3.4566748E+00 1.5245454E+00 6.8799155E-01
  4.318E-02  7.852E-02  6.116E-01 3.4463029E+00 1.5179374E+00 6.3984999E-01
  0.000E+00  1.101E-01  5.438E-01 3.4540239E+00 1.4881372E+00 7.6292986E-01
  4.318E-02  9.903E-02  5.661E-01 3.4544579E+00 1.4841299E+00 7.1479345E-01
  0.000E+00  1.340E-01  5.000E-01 3.4884017E+00 1.4482512E+00 8.3610756E-01
  4.318E-02  1.218E-01  5.217E-01 3.4722097E+00 1.4464883E+00 7.8767479E-01
  0.000E+00  1.600E-01  4.575E-01 3.4876145E+00 1.4048335E+00 9.0733405E-01
  4.318E-02  1.467E-01  4.786E-01 3.4981191E+00 1.4055118E+00 8.5887258E-01
  0.000E+00  1.881E-01  4.163E-01 3.5191471E+00 1.3578219E+00 9.7619886E-01
  4.318E-02  1.738E-01  4.367E-01 3.4947091E+00 1.3609421E+00 9.2786980E-01
  0.000E+00  2.182E-01  3.765E-01 3.5095937E+00 1.3074852E+00 1.0426782E+00
  4.318E-02  2.029E-01  3.962E-01 3.5159257E+00 1.3129848E+00 9.9453891E-01
  0.000E+00  2.502E-01  3.383E-01 3.5262488E+00 1.2538879E+00 1.1065543E+00
  4.318E-02  2.340E-01  3.572E-01 3.5234587E+00 1.2617913E+00 1.0587615E+00
  0.000E+00  2.841E-01  3.018E-01 3.5261015E+00 1.1971699E+00 1.1676794E+00
  4.318E-02  2.669E-01  3.198E-01 3.5248607E+00 1.2074441E+00 1.1203360E+00
  0.000E+00  3.198E-01  2.669E-01 3.5248327E+00 1.1374761E+00 1.2259030E+00
  4.318E-02  3.018E-01  2.841E-01 3.5261295E+00 1.1500979E+00 1.1791312E+00
  0.000E+00  3.572E-01  2.340E-01 3.5234307E+00 1.0749602E+00 1.2810815E+00
  4.318E-02  3.383E-01  2.502E-01 3.5262768E+00 1.0898938E+00 1.2349952E+00
  0.000E+00  3.962E-01  2.029E-01 3.5158978E+00 1.0097558E+00 1.3330582E+00
  4.318E-02  3.765E-01  2.182E-01 3.5096216E+00 1.0269800E+00 1.2877854E+00
  0.000E+00  4.367E-01  1.738E-01 3.4946812E+00 9.4206727E-01 1.3817492E+00
  4.318E-02  4.163E-01  1.881E-01 3.5191749E+00 9.6150210E-01 1.3373643E+00
  0.000E+00  4.786E-01  1.467E-01 3.4980914E+00 8.7201534E-01 1.4270011E+00
  4.318E-02  4.575E-01  1.600E-01 3.4876422E+00 8.9367478E-01 1.3836681E+00
  0.000E+00  5.217E-01  1.218E-01 3.4721820E+00 7.9972896E-01 1.4686046E+00
  4.318E-02  5.000E-01  1.340E-01 3.4884292E+00 8.2352134E-01 1.4264323E+00
  0.000E+00  5.661E-01  9.903E-02 3.4544305E+00 7.2573338E-01 1.5068226E+00
  4.318E-02  5.438E-01  1.101E-01 3.4540514E+00 7.5144607E-01 1.4657183E+00
  0.000E+00  6.116E-01  7.852E-02 3.4462757E+00 6.4964393E-01 1.5411469E+00
  4.318E-02  5.887E-01  8.849E-02 3.4567018E+00 6.7763640E-01 1.5015776E+00
  0.000E+00  6.580E-01  6.031E-02 3.4122796E+00 5.7143417E-01 1.5710998E+00
  4.318E-02  6.347E-01  6.913E-02 3.4307698E+00 6.0151140E-01 1.5331663E+00
  0.000E+00  7.052E-01  4.443E-02 3.4011238E+00 4.9269278E-01 1.5977903E+00
  4.318E-02  6.815E-01  5.207E-02 3.4019316E+00 5.2405893E-01 1.5609392E+00
  0.000E+00  7.532E-01  3.092E-02 3.3940435E+00 4.1329444E-01 1.6210376E+00
  4.318E-02  7.292E-01  3.738E-02 3.3987014E+00 4.4633504E-01 1.5856710E+00
  0.000E+00  8.019E-01  1.983E-02 3.3775043E+00 3.3208983E-01 1.6397024E+00
  4.318E-02  7.775E-01  2.507E-02 3.3868414E+00 3.6733111E-01 1.6064220E+00
  0.000E+00  8.510E-01  1.117E-02 3.3597371E+00 2.4934311E-01 1.6537336E+00
  4.318E-02  8.264E-01  1.519E-02 3.3685808E+00 2.8645427E-01 1.6224380E+00
  0.000E+00  9.004E-01  4.969E-03 3.3478118E+00 1.6614504E-01 1.6637680E+00
  4.318E-02  8.757E-01  7.761E-03 3.3530247E+00 2.0461815E-01 1.6342305E+00
  4.318E-02  9.253E-01  2.796E-03 3.3441472E+00 1.2270018E-01 1.6422583E+00
  1.000E+01  1.050E+00  1.243E-03 3.3423190E+00 -8.3027486E-02 1.6699893E+00
  1.000E+01  1.000E+00  5.551E-16 3.3409021E+00 4.3758152E-06 1.6721192E+00
  9.957E+00  1.025E+00  3.108E-04 3.3407242E+00 -4.2138617E-02 1.6969788E+00
  1.000E+01  9.502E-01  1.243E-03 3.3423190E+00 8.3036230E-02 1.6699888E+00
  9.957E+00  9.751E-01  3.108E-04 3.3407242E+00 4.2147367E-02 1.6969786E+00
  1.000E+01  9.004E-01  4.969E-03 3.3478118E+00 1.6614504E-01 1.6637680E+00
  9.957E+00  9.253E-01  2.796E-03 3.3441464E+00 1.2646949E-01 1.6927077E+00
  1.000E+01  8.510E-01  1.117E-02 3.3597371E+00 2.4934311E-01 1.6537336E+00
  9.957E+00  8.757E-01  7.761E-03 3.3530238E+00 2.1090404E-01 1.6844331E+00
  1.000E+01  8.019E-01  1.983E-02 3.3775043E+00 3.3208983E-01 1.6397024E+00
  9.957E+00  8.264E-01  1.519E-02 3.3685799E+00 2.9525423E-01 1.6722783E+00
  1.000E+01  7.532E-01  3.092E-02 3.3940435E+00 4.1329444E-01 1.6210376E+00
  9.957E+00  7.775E-01  2.507E-02 3.3868406E+00 3.7861571E-01 1.6557704E+00
  1.000E+01  7.052E-01  4.443E-02 3.4011238E+00 4.9269278E-01 1.5977903E+00
  9.957E+00  7.292E-01  3.738E-02 3.3987007E+00 4.6004676E-01 1.6343822E+00
  1.000E+01  6.580E-01  6.031E-02 3.4122796E+00 5.7143417E-01 1.5710998E+00
  9.957E+00  6.815E-01  5.207E-02 3.4019309E+00 5.4015832E-01 1.6088904E+00
  1.000E+01  6.116E-01  7.852E-02 3.4462757E+00 6.4964393E-01 1.5411469E+00
  9.957E+00  6.347E-01  6.913E-02 3.4307689E+00 6.1998997E-01 1.5802637E+00
  1.000E+01  5.661E-01  9.903E-02 3.4544305E+00 7.2573338E-01 1.5068226E+00
  9.957E+00  5.887E-01  8.849E-02 3.4567010E+00 6.9845339E-01 1.5477050E+00
  1.000E+01  5.217E-01  1.218E-01 3.4721820E+00 7.9972896E-01 1.4686046E+00
  9.957E+00  5.438E-01  1.101E-01 3.4540506E+00 7.7453026E-01 1.5107439E+00
  1.000E+01  4.786E-01  1.467E-01 3.4980914E+00 8.7201534E-01 1.4270011E+00
  9.957E+00  5.000E-01  1.340E-01 3.4884283E+00 8.4881968E-01 1.4702509E+00
  1.000E+01  4.367E-01  1.738E-01 3.4946812E+00 9.4206727E-01 1.3817492E+00
  9.957E+00  4.575E-01  1.600E-01 3.4876414E+00 9.2112816E-01 1.4261735E+00
  1.000E+01  3.962E-01  2.029E-01 3.5158978E+00 1.0097558E+00 1.3330582E+00
  9.957E+00  4.163E-01  1.881E-01 3.5191740E+00 9.9103883E-01 1.3784469E+00
  1.000E+01  3.572E-01  2.340E-01 3.5234307E+00 1.0749602E+00 1.2810815E+00
  9.957E+00  3.765E-01  2.182E-01 3.5096208E+00 1.0585280E+00 1.3273452E+00
  1.000E+01  3.198E-01  2.669E-01 3.5248327E+00 1.1374761E+00 1.2259030E+00
  9.957E+00  3.383E-01  2.502E-01 3.5262759E+00 1.1233744E+00 1.2729332E+00
  1.000E+01  2.841E-01  3.018E-01 3.5261015E+00 1.1971699E+00 1.1676794E+00
  9.957E+00  3.018E-01  2.841E-01 3.5261286E+00 1.1854277E+00 1.2153532E+00
  1.000E+01  2.502E-01  3.383E-01 3.5262488E+00 1.2538879E+00 1.1065543E+00
  9.957E+00  2.669E-01  3.198E-01 3.5248599E+00 1.2445358E+00 1.1547521E+00
  1.000E+01  2.182E-01  3.765E-01 3.5095937E+00 1.3074852E+00 1.0426782E+00
  9.957E+00  2.340E-01  3.572E-01 3.5234578E+00 1.3005521E+00 1.0912860E+00
  1.000E+01  1.881E-01  4.163E-01 3.5191471E+00 1.3578219E+00 9.7619886E-01
  9.957E+00  2.029E-01  3.962E-01 3.5159248E+00 1.3533185E+00 1.0250908E+00
  1.000E+01  1.600E-01  4.575E-01 3.4876145E+00 1.4048335E+00 9.0733405E-01
  9.957E+00  1.738E-01  4.367E-01 3.4947082E+00 1.4027487E+00 9.5637362E-01
  1.000E+01  1.340E-01  5.000E-01 3.4884017E+00 1.4482512E+00 8.3610756E-01
  9.957E+00  1.467E-01  4.786E-01 3.4981183E+00 1.4486879E+00 8.8525709E-01
  1.000E+01  1.101E-01  5.438E-01 3.4540239E+00 1.4881372E+00 7.6292986E-01
  9.957E+00  1.218E-01  5.217E-01 3.4722088E+00 1.4909228E+00 8.1187218E-01
  1.000E+01  8.849E-02  5.887E-01 3.4566748E+00 1.5245454E+00 6.8799155E-01
  9.957E+00  9.903E-02  5.661E-01 3.4544572E+00 1.5297215E+00 7.3675224E-01
  1.000E+01  6.913E-02  6.347E-01 3.4307428E+00 1.5566164E+00 6.1070221E-01
  9.957E+00  7.852E-02  6.116E-01 3.4463020E+00 1.5645671E+00 6.5950646E-01
  1.000E+01  5.207E-02  6.815E-01 3.4019046E+00 1.5848133E+00 5.3206500E-01
  9.957E+00  6.031E-02  6.580E-01 3.4123060E+00 1.5949744E+00 5.8010833E-01
  1.000E+01  3.738E-02  7.292E-01 3.3986747E+00 1.6099234E+00 4.5315232E-01
  9.957E+00  4.443E-02  7.052E-01 3.4011501E+00 1.6220700E+00 5.0017046E-01
  1.000E+01  2.507E-02  7.775E-01 3.3868148E+00 1.6309912E+00 3.7294005E-01
  9.957E+00  3.092E-02  7.532E-01 3.3940694E+00 1.6456701E+00 4.1956563E-01
  1.000E+01  1.519E-02  8.264E-01 3.3685543E+00 1.6472515E+00 2.9082625E-01
  9.957E+00  1.983E-02  8.019E-01 3.3775301E+00 1.6646179E+00 3.3712714E-01
  1.000E+01  7.761E-03  8.757E-01 3.3529981E+00 1.6592237E+00 2.0773853E-01
  9.957E+00  1.117E-02  8.510E-01 3.3597629E+00 1.6788620E+00 2.5312309E-01
  1.000E+01  2.796E-03  9.253E-01 3.3441207E+00 1.6673739E+00 1.2456773E-01
  9.957E+00  4.969E-03  9.004E-01 3.3478377E+00 1.6890486E+00 1.6866079E-01
  1.000E+01  3.108E-04  9.751E-01 3.3406985E+00 1.6715804E+00 4.1507686E-02
  9.957E+00  1.243E-03  9.502E-01 3.3423449E+00 1.6953636E+00 8.4289064E-02
  1.000E+01  3.108E-04  1.025E+00 3.3406986E+00 1.6715802E+00 -4.1516752E-02
  9.957E+00  0.000E+00  1.000E+00 3.3409280E+00 1.6975259E+00 -4.5368753E-06
  1.000E+01  2.796E-03  1.075E+00 3.3441207E+00 1.6673733E+00 -1.2457678E-01
  9.957E+00  1.243E-03  1.050E+00 3.3423449E+00 1.6953633E+00 -8.4298126E-02
  1.000E+01  7.761E-03  1.124E+00 3.3529982E+00 1.6592227E+00 -2.0774755E-01
  9.957E+00  4.969E-03  1.100E+00 3.3478377E+00 1.6890478E+00 -1.6866982E-01
  1.000E+01  1.519E-02  1.174E+00 3.3685543E+00 1.6472499E+00 -2.9083522E-01
  9.957E+00  1.117E-02  1.149E+00 3.3597629E+00 1.6788607E+00 -2.5313207E-01
  1.000E+01  2.507E-02  1.223E+00 3.3868149E+00 1.6309889E+00 -3.7294894E-01
  9.957E+00  1.983E-02  1.198E+00 3.3775301E+00 1.6646159E+00 -3.3713605E-01
  1.000E+01  3.738E-02  1.271E+00 3.3986747E+00 1.6099208E+00 -4.5316111E-01
  9.957E+00  3.092E-02  1.247E+00 3.3940694E+00 1.6456675E+00 -4.1957446E-01
  1.000E+01  5.207E-02  1.318E+00 3.4019047E+00 1.5848108E+00 -5.3207368E-01
  9.957E+00  4.443E-02  1.295E+00 3.4011501E+00 1.6220676E+00 -5.0017919E-01
  1.000E+01  6.913E-02  1.365E+00 3.4307429E+00 1.5566129E+00 -6.1071075E-01
  9.957E+00  6.031E-02  1.342E+00 3.4123060E+00 1.5949715E+00 -5.8011694E-01
  1.000E+01  8.849E-02  1.411E+00 3.4566749E+00 1.5245412E+00 -6.8799994E-01
  9.957E+00  7.852E-02  1.388E+00 3.4463020E+00 1.5645630E+00 -6.5951493E-01
  1.000E+01  1.101E-01  1.456E+00 3.4540240E+00 1.4881334E+00 -7.6293810E-01
  9.957E+00  9.903E-02  1.434E+00 3.4544573E+00 1.5297177E+00 -7.3676056E-01
  1.000E+01  1.340E-01  1.500E+00 3.4884018E+00 1.4482463E+00 -8.3611559E-01
  9.957E+00  1.218E-01  1.478E+00 3.4722088E+00 1.4909185E+00 -8.1188031E-01
  1.000E+01  1.600E-01  1.543E+00 3.4876146E+00 1.4048285E+00 -9.0734189E-01
  9.957E+00  1.467E-01  1.521E+00 3.4981183E+00 1.4486828E+00 -8.8526502E-01
  1.000E+01  1.881E-01  1.584E+00 3.5191472E+00 1.3578165E+00 -9.7620646E-01
  9.957E+00  1.738E-01  1.563E+00 3.4947083E+00 1.4027436E+00 -9.5638135E-01
  1.000E+01  2.182E-01  1.623E+00 3.5095938E+00 1.3074793E+00 -1.0426855E+00
  9.957E+00  2.029E-01  1.604E+00 3.5159249E+00 1.3533128E+00 -1.0250983E+00
  1.000E+01  2.502E-01  1.662E+00 3.5262489E+00 1.2538818E+00 -1.1065614E+00
  9.957E+00  2.340E-01  1.643E+00 3.5234579E+00 1.3005462E+00 -1.0912932E+00
  1.000E+01  2.841E-01  1.698E+00 3.5261016E+00 1.1971635E+00 -1.1676862E+00
  9.957E+00  2.669E-01  1.680E+00 3.5248600E+00 1.2445295E+00 -1.1547591E+00
  1.000E+01  3.198E-01  1.733E+00 3.5248329E+00 1.1374694E+00 -1.2259094E+00
  9.957E+00  3.018E-01  1.716E+00 3.5261287E+00 1.1854212E+00 -1.2153598E+00
  1.000E+01  3.572E-01  1.766E+00 3.5234308E+00 1.0749532E+00 -1.2810876E+00
  9.957E+00  3.383E-01  1.750E+00 3.5262760E+00 1.1233675E+00 -1.2729396E+00
  1.000E+01  3.962E-01  1.797E+00 3.5158979E+00 1.0097486E+00 -1.3330640E+00
  9.957E+00  3.765E-01  1.782E+00 3.5096209E+00 1.0585210E+00 -1.3273512E+00
  1.000E+01  4.367E-01  1.826E+00 3.4946813E+00 9.4205985E-01 -1.3817547E+00
  9.957E+00  4.163E-01  1.812E+00 3.5191741E+00 9.9103145E-01 -1.3784525E+00
  1.000E+01  4.786E-01  1.853E+00 3.4980916E+00 8.7200771E-01 -1.4270062E+00
  9.957E+00  4.575E-01  1.840E+00 3.4876415E+00 9.2112055E-01 -1.4261788E+00
  1.000E+01  5.217E-01  1.878E+00 3.4721822E+00 7.9972107E-01 -1.4686094E+00
  9.957E+00  5.000E-01  1.866E+00 3.4884284E+00 8.4881184E-01 -1.4702558E+00
  1.000E+01  5.661E-01  1.901E+00 3.4544305E+00 7.2572516E-01 -1.5068269E+00
  9.957E+00  5.438E-01  1.890E+00 3.4540507E+00 7.7452236E-01 -1.5107485E+00
  1.000E+01  6.116E-01  1.921E+00 3.4462757E+00 6.4963552E-01 -1.5411508E+00
  9.957E+00  5.887E-01  1.912E+00 3.4567012E+00 6.9844538E-01 -1.5477091E+00
  1.000E+01  6.580E-01  1.940E+00 3.4122797E+00 5.7142581E-01 -1.5711033E+00
  9.957E+00  6.347E-01  1.931E+00 3.4307691E+00 6.1998175E-01 -1.5802674E+00
  1.000E+01  7.052E-01  1.956E+00 3.4011241E+00 4.9268456E-01 -1.5977934E+00
  9.957E+00  6.815E-01  1.948E+00 3.4019310E+00 5.4014978E-01 -1.6088936E+00
  1.000E+01  7.532E-01  1.969E+00 3.3940438E+00 4.1328626E-01 -1.6210403E+00
  9.957E+00  7.292E-01  1.963E+00 3.3987007E+00 4.6003793E-01 -1.6343849E+00
  1.000E+01  8.019E-01  1.980E+00 3.3775046E+00 3.3208149E-01 -1.6397047E+00
  9.957E+00  7.775E-01  1.975E+00 3.3868406E+00 3.7860678E-01 -1.6557726E+00
  1.000E+01  8.510E-01  1.989E+00 3.3597373E+00 2.4933451E-01 -1.6537354E+00
  9.957E+00  8.264E-01  1.985E+00 3.3685800E+00 2.9524534E-01 -1.6722801E+00
  1.000E+01  9.004E-01  1.995E+00 3.3478119E+00 1.6613625E-01 -1.6637693E+00
  9.957E+00  8.757E-01  1.992E+00 3.3530240E+00 2.1089522E-01 -1.6844344E+00
  1.000E+01  9.502E-01  1.999E+00 3.3423190E+00 8.3027379E-02 -1.6699896E+00
  9.957E+00  9.253E-01  1.997E+00 3.3441466E+00 1.2646070E-01 -1.6927085E+00
  1.000E+01  1.000E+00  2.000E+00 3.3409021E+00 -4.4600222E-06 -1.6721195E+00
  9.957E+00  9.751E-01  2.000E+00 3.3407245E+00 4.2138549E-02 -1.6969790E+00
  1.000E+01  1.050E+00  1.999E+00 3.3423190E+00 -8.3036291E-02 -1.6699891E+00
  9.957E+00  1.025E+00  2.000E+00 3.3407245E+00 -4.2147467E-02 -1.6969787E+00
  1.000E+01  1.100E+00  1.995E+00 3.3478119E+00 -1.6614513E-01 -1.6637683E+00
  9.957E+00  1.075E+00  1.997E+00 3.3441466E+00 -1.2646960E-01 -1.6927078E+00
  1.000E+01  1.149E+00  1.989E+00 3.3597373E+00 -2.4934334E-01 -1.6537340E+00
  9.957E+00  1.124E+00  1.992E+00 3.3530240E+00 -2.1090408E-01 -1.6844333E+00
  1.000E+01  1.198E+00  1.980E+00 3.3775046E+00 -3.3209026E-01 -1.6397028E+00
  9.957E+00  1.174E+00  1.985E+00 3.3685800E+00 -2.9525415E-01 -1.6722784E+00