# TIME = 2.000000
VARIABLES = X, Y, Z, FX, FY, FZ
ZONE N=29232 E=58212 F=FEPOINT ET=TRIANGLE
  0.000E+00  9.502E-01  1.243E-03 3.3447957E+00 8.1234263E-02 1.6337302E+00
  0.000E+00  1.000E+00  0.000E+00 3.3433794E+00 5.1178048E-06 1.6358144E+00
  4.318E-02  9.751E-01  3.108E-04 3.3432015E+00 3.9997105E-02 1.6103663E+00
  0.000E+00  1.050E+00  1.243E-03 3.3447958E+00 -8.1224037E-02 1.6337308E+00
  4.318E-02  1.025E+00  3.108E-04 3.3432015E+00 -3.9986872E-02 1.6103666E+00
  0.000E+00  1.100E+00  4.969E-03 3.3502877E+00 -1.6252851E-01 1.6276455E+00
  4.318E-02  1.075E+00  2.796E-03 3.3466230E+00 -1.2000516E-01 1.6063142E+00
  0.000E+00  1.149E+00  1.117E-02 3.3622139E+00 -2.4392030E-01 1.6178296E+00
  4.318E-02  1.124E+00  7.761E-03 3.3555005E+00 -2.0013014E-01 1.5984627E+00
  0.000E+00  1.198E+00  1.983E-02 3.3799836E+00 -3.2487053E-01 1.6041035E+00
  4.318E-02  1.174E+00  1.519E-02 3.3710588E+00 -2.8017513E-01 1.5869288E+00
  0.000E+00  1.247E+00  3.092E-02 3.3965224E+00 -4.0431205E-01 1.5858445E+00
  4.318E-02  1.223E+00  2.507E-02 3.3893213E+00 -3.5928190E-01 1.5712639E+00
  0.000E+00  1.295E+00  4.443E-02 3.4035936E+00 -4.8198648E-01 1.5631023E+00
  4.318E-02  1.271E+00  3.738E-02 3.4011766E+00 -4.3655683E-01 1.5509676E+00
  0.000E+00  1.342E+00  6.031E-02 3.4147414E+00 -5.5901831E-01 1.5369918E+00
  4.318E-02  1.318E+00  5.207E-02 3.4043940E+00 -5.1257975E-01 1.5267776E+00
  0.000E+00  1.388E+00  7.852E-02 3.4487465E+00 -6.3553017E-01 1.5076898E+00
  4.318E-02  1.365E+00  6.913E-02 3.4332367E+00 -5.8833715E-01 1.4996131E+00
  0.000E+00  1.434E+00  9.903E-02 3.4568922E+00 -7.0996783E-01 1.4741112E+00
  4.318E-02  1.411E+00  8.849E-02 3.4591724E+00 -6.6279609E-01 1.4687162E+00
  0.000E+00  1.478E+00  1.218E-01 3.4746404E+00 -7.8235704E-01 1.4367234E+00
  4.318E-02  1.456E+00  1.101E-01 3.4565046E+00 -7.3499041E-01 1.4336423E+00
  0.000E+00  1.521E+00  1.467E-01 3.5005558E+00 -8.5307414E-01 1.3960236E+00
  4.318E-02  1.500E+00  1.340E-01 3.4908926E+00 -8.0548831E-01 1.3952165E+00
  0.000E+00  1.563E+00  1.738E-01 3.4971311E+00 -9.2160533E-01 1.3517546E+00
  4.318E-02  1.543E+00  1.600E-01 3.4900929E+00 -8.7410655E-01 1.3533888E+00
  0.000E+00  1.604E+00  2.029E-01 3.5183540E+00 -9.8782445E-01 1.3041212E+00
  4.318E-02  1.584E+00  1.881E-01 3.5216366E+00 -9.4044953E-01 1.3080989E+00
  0.000E+00  1.643E+00  2.340E-01 3.5258845E+00 -1.0516134E+00 1.2532733E+00
  4.318E-02  1.623E+00  2.182E-01 3.5120696E+00 -1.0044945E+00 1.2596054E+00
  0.000E+00  1.680E+00  2.669E-01 3.5272851E+00 -1.1127723E+00 1.1992932E+00
  4.318E-02  1.662E+00  2.502E-01 3.5287308E+00 -1.0660316E+00 1.2079711E+00
  0.000E+00  1.716E+00  3.018E-01 3.5285530E+00 -1.1711703E+00 1.1423341E+00
  4.318E-02  1.698E+00  2.841E-01 3.5285808E+00 -1.1249183E+00 1.1533301E+00
  0.000E+00  1.750E+00  3.383E-01 3.5287030E+00 -1.2266572E+00 1.0825365E+00
  4.318E-02  1.733E+00  3.198E-01 3.5273128E+00 -1.1810096E+00 1.0958221E+00
  0.000E+00  1.782E+00  3.765E-01 3.5120419E+00 -1.2790910E+00 1.0200475E+00
  4.318E-02  1.766E+00  3.572E-01 3.5259123E+00 -1.2341677E+00 1.0355956E+00
  0.000E+00  1.812E+00  4.163E-01 3.5216090E+00 -1.3283353E+00 9.5501188E-01
  4.318E-02  1.797E+00  3.962E-01 3.5183816E+00 -1.2842409E+00 9.7277898E-01
  0.000E+00  1.840E+00  4.575E-01 3.4900654E+00 -1.3743266E+00 8.8764251E-01
  4.318E-02  1.826E+00  4.367E-01 3.4971588E+00 -1.3311492E+00 9.0756937E-01
  0.000E+00  1.866E+00  5.000E-01 3.4908653E+00 -1.4168017E+00 8.1796269E-01
  4.318E-02  1.853E+00  4.786E-01 3.5005832E+00 -1.3747433E+00 8.4008255E-01
  0.000E+00  1.890E+00  5.438E-01 3.4564773E+00 -1.4558229E+00 7.4637403E-01
  4.318E-02  1.878E+00  5.217E-01 3.4746678E+00 -1.4148238E+00 7.7044330E-01
  0.000E+00  1.912E+00  5.887E-01 3.4591455E+00 -1.4914402E+00 6.7306294E-01
  4.318E-02  1.901E+00  5.661E-01 3.4569194E+00 -1.4516420E+00 6.9915734E-01
  0.000E+00  1.931E+00  6.347E-01 3.4332099E+00 -1.5228156E+00 5.9745185E-01
  4.318E-02  1.921E+00  6.116E-01 3.4487735E+00 -1.4847093E+00 6.2585437E-01
  0.000E+00  1.948E+00  6.815E-01 3.4043672E+00 -1.5504013E+00 5.2052213E-01
  4.318E-02  1.940E+00  6.580E-01 3.4147685E+00 -1.5135660E+00 5.5050893E-01
  0.000E+00  1.963E+00  7.292E-01 3.4011501E+00 -1.5749661E+00 4.4332291E-01
  4.318E-02  1.956E+00  7.052E-01 3.4036204E+00 -1.5392786E+00 4.7465112E-01
  0.000E+00  1.975E+00  7.775E-01 3.3892950E+00 -1.5955768E+00 3.6485229E-01
  4.318E-02  1.969E+00  7.532E-01 3.3965488E+00 -1.5616741E+00 3.9816030E-01
  0.000E+00  1.985E+00  8.264E-01 3.3710325E+00 -1.6114848E+00 2.8452140E-01
  4.318E-02  1.980E+00  8.019E-01 3.3800099E+00 -1.5796555E+00 3.1992936E-01
  0.000E+00  1.992E+00  8.757E-01 3.3554742E+00 -1.6231977E+00 2.0323771E-01
  4.318E-02  1.989E+00  8.510E-01 3.3622402E+00 -1.5931733E+00 2.4021282E-01
  0.000E+00  1.997E+00  9.253E-01 3.3465967E+00 -1.6311714E+00 1.2187274E-01
  4.318E-02  1.995E+00  9.004E-01 3.3503142E+00 -1.6028403E+00 1.6006153E-01
  0.000E+00  2.000E+00  9.751E-01 3.3431753E+00 -1.6352871E+00 4.0616092E-02
  4.318E-02  1.999E+00  9.502E-01 3.3448222E+00 -1.6088334E+00 7.9996259E-02
  0.000E+00  2.000E+00  1.025E+00 3.3431753E+00 -1.6352873E+00 -4.0605747E-02
  4.318E-02  2.000E+00  1.000E+00 3.3434058E+00 -1.6108858E+00 5.1597773E-06
  0.000E+00  1.997E+00  1.075E+00 3.3465967E+00 -1.6311721E+00 -1.2186242E-01
  4.318E-02  1.999E+00  1.050E+00 3.3448222E+00 -1.6088339E+00 -7.9985948E-02
  0.000E+00  1.992E+00  1.124E+00 3.3554742E+00 -1.6231990E+00 -2.0322745E-01
  4.318E-02  1.995E+00  1.100E+00 3.3503142E+00 -1.6028413E+00 -1.6005125E-01
  0.000E+00  1.985E+00  1.174E+00 3.3710325E+00 -1.6114867E+00 -2.8451120E-01
  4.318E-02  1.989E+00  1.149E+00 3.3622402E+00 -1.5931748E+00 -2.4020259E-01
  0.000E+00  1.975E+00  1.223E+00 3.3892950E+00 -1.5955796E+00 -3.6484218E-01
  4.318E-02  1.980E+00  1.198E+00 3.3800099E+00 -1.5796579E+00 -3.1991920E-01
  0.000E+00  1.963E+00  1.271E+00 3.4011501E+00 -1.5749692E+00 -4.4331290E-01
  4.318E-02  1.969E+00  1.247E+00 3.3965488E+00 -1.5616771E+00 -3.9815024E-01
  0.000E+00  1.948E+00  1.318E+00 3.4043672E+00 -1.5504043E+00 -5.2051225E-01
  4.318E-02  1.956E+00  1.295E+00 3.4036204E+00 -1.5392816E+00 -4.7464118E-01
  0.000E+00  1.931E+00  1.365E+00 3.4332100E+00 -1.5228197E+00 -5.9744212E-01
  4.318E-02  1.940E+00  1.342E+00 3.4147686E+00 -1.5135695E+00 -5.5049913E-01
  0.000E+00  1.912E+00  1.411E+00 3.4591456E+00 -1.4914451E+00 -6.7305339E-01
  4.318E-02  1.921E+00  1.388E+00 3.4487735E+00 -1.4847141E+00 -6.2584474E-01
  0.000E+00  1.890E+00  1.456E+00 3.4564774E+00 -1.4558274E+00 -7.4636466E-01
  4.318E-02  1.901E+00  1.434E+00 3.4569194E+00 -1.4516466E+00 -6.9914790E-01
  0.000E+00  1.866E+00  1.500E+00 3.4908654E+00 -1.4168075E+00 -8.1795355E-01
  4.318E-02  1.878E+00  1.478E+00 3.4746678E+00 -1.4148289E+00 -7.7043407E-01
  0.000E+00  1.840E+00  1.543E+00 3.4900655E+00 -1.3743325E+00 -8.8763361E-01
  4.318E-02  1.853E+00  1.521E+00 3.5005832E+00 -1.3747493E+00 -8.4007355E-01
  0.000E+00  1.812E+00  1.584E+00 3.5216091E+00 -1.3283417E+00 -9.5500325E-01
  4.318E-02  1.826E+00  1.563E+00 3.4971589E+00 -1.3311552E+00 -9.0756061E-01
  0.000E+00  1.782E+00  1.623E+00 3.5120419E+00 -1.2790979E+00 -1.0200392E+00
  4.318E-02  1.797E+00  1.604E+00 3.5183817E+00 -1.2842476E+00 -9.7277052E-01
  0.000E+00  1.750E+00  1.662E+00 3.5287031E+00 -1.2266644E+00 -1.0825285E+00
  4.318E-02  1.766E+00  1.643E+00 3.5259124E+00 -1.2341746E+00 -1.0355875E+00
  0.000E+00  1.716E+00  1.698E+00 3.5285531E+00 -1.1711779E+00 -1.1423264E+00
  4.318E-02  1.733E+00  1.680E+00 3.5273129E+00 -1.1810170E+00 -1.0958142E+00
  0.000E+00  1.680E+00  1.733E+00 3.5272852E+00 -1.1127801E+00 -1.1992859E+00
  4.318E-02  1.698E+00  1.716E+00 3.5285809E+00 -1.1249260E+00 -1.1533226E+00
  0.000E+00  1.643E+00  1.766E+00 3.5258846E+00 -1.0516216E+00 -1.2532664E+00
  4.318E-02  1.662E+00  1.750E+00 3.5287308E+00 -1.0660396E+00 -1.2079640E+00
  0.000E+00  1.604E+00  1.797E+00 3.5183541E+00 -9.8783295E-01 -1.3041146E+00
  4.318E-02  1.623E+00  1.782E+00 3.5120696E+00 -1.0045028E+00 -1.2595987E+00
  0.000E+00  1.563E+00  1.826E+00 3.4971312E+00 -9.2161414E-01 -1.3517484E+00
  4.318E-02  1.584E+00  1.812E+00 3.5216366E+00 -9.4045813E-01 -1.3080925E+00
  0.000E+00  1.521E+00  1.853E+00 3.5005559E+00 -8.5308319E-01 -1.3960179E+00
  4.318E-02  1.543E+00  1.840E+00 3.4900929E+00 -8.7411538E-01 -1.3533829E+00
  0.000E+00  1.478E+00  1.878E+00 3.4746404E+00 -7.8236622E-01 -1.4367182E+00
  4.318E-02  1.500E+00  1.866E+00 3.4908927E+00 -8.0549745E-01 -1.3952111E+00
  0.000E+00  1.434E+00  1.901E+00 3.4568922E+00 -7.0997714E-01 -1.4741063E+00
  4.318E-02  1.456E+00  1.890E+00 3.4565047E+00 -7.3499982E-01 -1.4336373E+00
  0.000E+00  1.388E+00  1.921E+00 3.4487466E+00 -6.3553979E-01 -1.5076855E+00
  4.318E-02  1.411E+00  1.912E+00 3.4591725E+00 -6.6280571E-01 -1.4687117E+00
  0.000E+00  1.342E+00  1.940E+00 3.4147416E+00 -5.5902831E-01 -1.5369881E+00
  4.318E-02  1.365E+00  1.931E+00 3.4332368E+00 -5.8834681E-01 -1.4996090E+00
  0.000E+00  1.295E+00  1.956E+00 3.4035939E+00 -4.8199674E-01 -1.5630991E+00
  4.318E-02  1.318E+00  1.948E+00 3.4043939E+00 -5.1258940E-01 -1.5267740E+00
  0.000E+00  1.247E+00  1.969E+00 3.3965226E+00 -4.0432230E-01 -1.5858418E+00
  4.318E-02  1.271E+00  1.963E+00 3.4011765E+00 -4.3656660E-01 -1.5509645E+00
  0.000E+00  1.198E+00  1.980E+00 3.3799837E+00 -3.2488063E-01 -1.6041013E+00
  4.318E-02  1.223E+00  1.975E+00 3.3893213E+00 -3.5929194E-01 -1.5712613E+00
  0.000E+00  1.149E+00  1.989E+00 3.3622139E+00 -2.4393029E-01 -1.6178279E+00
  4.318E-02  1.174E+00  1.985E+00 3.3710589E+00 -2.8018542E-01 -1.5869269E+00
  0.000E+00  1.100E+00  1.995E+00 3.3502877E+00 -1.6253852E-01 -1.6276444E+00
  4.318E-02  1.124E+00  1.992E+00 3.3555007E+00 -2.0014059E-01 -1.5984613E+00
  0.000E+00  1.050E+00  1.999E+00 3.3447957E+00 -8.1234196E-02 -1.6337301E+00
  4.318E-02  1.075E+00  1.997E+00 3.3466231E+00 -1.2001561E-01 -1.6063134E+00
  0.000E+00  1.000E+00  2.000E+00 3.3433794E+00 -5.1941024E-06 -1.6358143E+00
  4.318E-02  1.025E+00  2.000E+00 3.3432017E+00 -3.9997243E-02 -1.6103663E+00
  0.000E+00  9.502E-01  1.999E+00 3.3447957E+00 8.1223817E-02 -1.6337306E+00
  4.318E-02  9.751E-01  2.000E+00 3.3432017E+00 3.9986857E-02 -1.6103666E+00
  0.000E+00  9.004E-01  1.995E+00 3.3502877E+00 1.6252818E-01 -1.6276455E+00
  4.318E-02  9.253E-01  1.997E+00 3.3466231E+00 1.2000525E-01 -1.6063143E+00
  0.000E+00  8.510E-01  1.989E+00 3.3622139E+00 2.4392000E-01 -1.6178295E+00
  4.318E-02  8.757E-01  1.992E+00 3.3555007E+00 2.0013027E-01 -1.5984626E+00
  0.000E+00  8.019E-01  1.980E+00 3.3799837E+00 3.2487041E-01 -1.6041035E+00
  4.318E-02  8.264E-01  1.985E+00 3.3710589E+00 2.8017517E-01 -1.5869288E+00
  0.000E+00  7.532E-01  1.969E+00 3.3965225E+00 4.0431218E-01 -1.5858445E+00
  4.318E-02  7.775E-01  1.975E+00 3.3893213E+00 3.5928177E-01 -1.5712638E+00
  0.000E+00  7.052E-01  1.956E+00 3.4035938E+00 4.8198674E-01 -1.5631024E+00
  4.318E-02  7.292E-01  1.963E+00 3.4011765E+00 4.3655654E-01 -1.5509675E+00
  0.000E+00  6.580E-01  1.940E+00 3.4147416E+00 5.5901845E-01 -1.5369919E+00
  4.318E-02  6.815E-01  1.948E+00 3.4043939E+00 5.1257947E-01 -1.5267775E+00
  0.000E+00  6.116E-01  1.921E+00 3.4487466E+00 6.3553009E-01 -1.5076897E+00
  4.318E-02  6.347E-01  1.931E+00 3.4332368E+00 5.8833703E-01 -1.4996130E+00
  0.000E+00  5.661E-01  1.901E+00 3.4568922E+00 7.0996762E-01 -1.4741111E+00
  4.318E-02  5.887E-01  1.912E+00 3.4591725E+00 6.6279611E-01 -1.4687162E+00
  0.000E+00  5.217E-01  1.878E+00 3.4746404E+00 7.8235692E-01 -1.4367234E+00
  4.318E-02  5.438E-01  1.890E+00 3.4565047E+00 7.3499043E-01 -1.4336422E+00
  0.000E+00  4.786E-01  1.853E+00 3.5005558E+00 8.5307412E-01 -1.3960235E+00
  4.318E-02  5.000E-01  1.866E+00 3.4908926E+00 8.0548824E-01 -1.3952165E+00
  0.000E+00  4.367E-01  1.826E+00 3.4971312E+00 9.2160533E-01 -1.3517545E+00
  4.318E-02  4.575E-01  1.840E+00 3.4900929E+00 8.7410645E-01 -1.3533887E+00
  0.000E+00  3.962E-01  1.797E+00 3.5183540E+00 9.8782441E-01 -1.3041211E+00
  4.318E-02  4.163E-01  1.812E+00 3.5216366E+00 9.4044944E-01 -1.3080988E+00
  0.000E+00  3.572E-01  1.766E+00 3.5258846E+00 1.0516133E+00 -1.2532733E+00
  4.318E-02  3.765E-01  1.782E+00 3.5120696E+00 1.0044945E+00 -1.2596054E+00
  0.000E+00  3.198E-01  1.733E+00 3.5272851E+00 1.1127722E+00 -1.1992932E+00
  4.318E-02  3.383E-01  1.750E+00 3.5287308E+00 1.0660315E+00 -1.2079711E+00
  0.000E+00  2.841E-01  1.698E+00 3.5285530E+00 1.1711702E+00 -1.1423340E+00
  4.318E-02  3.018E-01  1.716E+00 3.5285809E+00 1.1249183E+00 -1.1533301E+00
  0.000E+00  2.502E-01  1.662E+00 3.5287031E+00 1.2266572E+00 -1.0825364E+00
  4.318E-02  2.669E-01  1.680E+00 3.5273129E+00 1.1810095E+00 -1.0958220E+00
  0.000E+00  2.182E-01  1.623E+00 3.5120419E+00 1.2790910E+00 -1.0200475E+00
  4.318E-02  2.340E-01  1.643E+00 3.5259123E+00 1.2341677E+00 -1.0355956E+00
  0.000E+00  1.881E-01  1.584E+00 3.5216091E+00 1.3283353E+00 -9.5501182E-01
  4.318E-02  2.029E-01  1.604E+00 3.5183817E+00 1.2842409E+00 -9.7277895E-01
  0.000E+00  1.600E-01  1.543E+00 3.4900654E+00 1.3743265E+00 -8.8764246E-01
  4.318E-02  1.738E-01  1.563E+00 3.4971588E+00 1.3311492E+00 -9.0756933E-01
  0.000E+00  1.340E-01  1.500E+00 3.4908653E+00 1.4168017E+00 -8.1796263E-01
  4.318E-02  1.467E-01  1.521E+00 3.5005832E+00 1.3747433E+00 -8.4008251E-01
  0.000E+00  1.101E-01  1.456E+00 3.4564773E+00 1.4558228E+00 -7.4637398E-01
  4.318E-02  1.218E-01  1.478E+00 3.4746678E+00 1.4148238E+00 -7.7044326E-01
  0.000E+00  8.849E-02  1.411E+00 3.4591456E+00 1.4914402E+00 -6.7306289E-01
  4.318E-02  9.903E-02  1.434E+00 3.4569194E+00 1.4516420E+00 -6.9915731E-01
  0.000E+00  6.913E-02  1.365E+00 3.4332099E+00 1.5228155E+00 -5.9745180E-01
  4.318E-02  7.852E-02  1.388E+00 3.4487735E+00 1.4847093E+00 -6.2585434E-01
  0.000E+00  5.207E-02  1.318E+00 3.4043672E+00 1.5504013E+00 -5.2052209E-01
  4.318E-02  6.031E-02  1.342E+00 3.4147685E+00 1.5135660E+00 -5.5050890E-01
  0.000E+00  3.738E-02  1.271E+00 3.4011501E+00 1.5749661E+00 -4.4332287E-01
  4.318E-02  4.443E-02  1.295E+00 3.4036204E+00 1.5392785E+00 -4.7465108E-01
  0.000E+00  2.507E-02  1.223E+00 3.3892949E+00 1.5955768E+00 -3.6485226E-01
  4.318E-02  3.092E-02  1.247E+00 3.3965488E+00 1.5616740E+00 -3.9816027E-01
  0.000E+00  1.519E-02  1.174E+00 3.3710325E+00 1.6114847E+00 -2.8452137E-01
  4.318E-02  1.983E-02  1.198E+00 3.3800099E+00 1.5796554E+00 -3.1992933E-01
  0.000E+00  7.761E-03  1.124E+00 3.3554742E+00 1.6231977E+00 -2.0323768E-01
  4.318E-02  1.117E-02  1.149E+00 3.3622402E+00 1.5931732E+00 -2.4021279E-01
  0.000E+00  2.796E-03  1.075E+00 3.3465967E+00 1.6311714E+00 -1.2187271E-01
  4.318E-02  4.969E-03  1.100E+00 3.3503141E+00 1.6028403E+00 -1.6006151E-01
  0.000E+00  3.108E-04  1.025E+00 3.3431753E+00 1.6352870E+00 -4.0616054E-02
  4.318E-02  1.243E-03  1.050E+00 3.3448222E+00 1.6088333E+00 -7.9996246E-02
  0.000E+00  3.108E-04  9.751E-01 3.3431752E+00 1.6352872E+00 4.0605782E-02
  4.318E-02  0.000E+00  1.000E+00 3.3434058E+00 1.6108857E+00 -5.1518109E-06
  0.000E+00  2.796E-03  9.253E-01 3.3465967E+00 1.6311720E+00 1.2186245E-01
  4.318E-02  1.243E-03  9.502E-01 3.3448222E+00 1.6088338E+00 7.9985955E-02
  0.000E+00  7.761E-03  8.757E-01 3.3554742E+00 1.6231989E+00 2.0322746E-01
  4.318E-02  4.969E-03  9.004E-01 3.3503141E+00 1.6028412E+00 1.6005126E-01
  0.000E+00  1.519E-02  8.264E-01 3.3710325E+00 1.6114866E+00 2.8451121E-01
  4.318E-02  1.117E-02  8.510E-01 3.3622402E+00 1.5931747E+00 2.4020260E-01
  0.000E+00  2.507E-02  7.775E-01 3.3892949E+00 1.5955795E+00 3.6484219E-01
  4.318E-02  1.983E-02  8.019E-01 3.3800099E+00 1.5796578E+00 3.1991921E-01
  0.000E+00  3.738E-02  7.292E-01 3.4011501E+00 1.5749691E+00 4.4331291E-01
  4.318E-02  3.092E-02  7.532E-01 3.3965488E+00 1.5616770E+00 3.9815025E-01
  0.000E+00  5.207E-02  6.815E-01 3.4043671E+00 1.5504042E+00 5.2051226E-01
  4.318E-02  4.443E-02  7.052E-01 3.4036204E+00 1.5392815E+00 4.7464118E-01
  0.000E+00  6.913E-02  6.347E-01 3.4332099E+00 1.5228197E+00 5.9744213E-01
  4.318E-02  6.031E-02  6.580E-01 3.4147685E+00 1.5135694E+00 5.5049913E-01
  0.000E+00  8.849E-02  5.887E-01 3.4591455E+00 1.4914450E+00 6.7305340E-01
  4.318E-02  7.852E-02  6.116E-01 3.4487735E+00 1.4847140E+00 6.2584474E-01
  0.000E+00  1.101E-01  5.438E-01 3.4564773E+00 1.4558273E+00 7.4636467E-01
  4.318E-02  9.903E-02  5.661E-01 3.4569194E+00 1.4516465E+00 6.9914788E-01
  0.000E+00  1.340E-01  5.000E-01 3.4908653E+00 1.4168074E+00 8.1795356E-01
  4.318E-02  1.218E-01  5.217E-01 3.4746678E+00 1.4148288E+00 7.7043405E-01
  0.000E+00  1.600E-01  4.575E-01 3.4900654E+00 1.3743324E+00 8.8763361E-01
  4.318E-02  1.467E-01  4.786E-01 3.5005832E+00 1.3747492E+00 8.4007354E-01
  0.000E+00  1.881E-01  4.163E-01 3.5216090E+00 1.3283416E+00 9.5500325E-01
  4.318E-02  1.738E-01  4.367E-01 3.4971588E+00 1.3311551E+00 9.0756059E-01
  0.000E+00  2.182E-01  3.765E-01 3.5120419E+00 1.2790978E+00 1.0200392E+00
  4.318E-02  2.029E-01  3.962E-01 3.5183816E+00 1.2842475E+00 9.7277050E-01
  0.000E+00  2.502E-01  3.383E-01 3.5287030E+00 1.2266643E+00 1.0825285E+00
  4.318E-02  2.340E-01  3.572E-01 3.5259123E+00 1.2341745E+00 1.0355874E+00
  0.000E+00  2.841E-01  3.018E-01 3.5285530E+00 1.1711778E+00 1.1423264E+00
  4.318E-02  2.669E-01  3.198E-01 3.5273128E+00 1.1810169E+00 1.0958142E+00
  0.000E+00  3.198E-01  2.669E-01 3.5272851E+00 1.1127800E+00 1.1992859E+00
  4.318E-02  3.018E-01  2.841E-01 3.5285808E+00 1.1249259E+00 1.1533226E+00
  0.000E+00  3.572E-01  2.340E-01 3.5258845E+00 1.0516215E+00 1.2532664E+00
  4.318E-02  3.383E-01  2.502E-01 3.5287307E+00 1.0660395E+00 1.2079639E+00
  0.000E+00  3.962E-01  2.029E-01 3.5183539E+00 9.8783284E-01 1.3041146E+00
  4.318E-02  3.765E-01  2.182E-01 3.5120696E+00 1.0045027E+00 1.2595987E+00
  0.000E+00  4.367E-01  1.738E-01 3.4971310E+00 9.2161399E-01 1.3517484E+00
  4.318E-02  4.163E-01  1.881E-01 3.5216365E+00 9.4045806E-01 1.3080925E+00
  0.000E+00  4.786E-01  1.467E-01 3.5005557E+00 8.5308306E-01 1.3960179E+00
  4.318E-02  4.575E-01  1.600E-01 3.4900929E+00 8.7411533E-01 1.3533828E+00
  0.000E+00  5.217E-01  1.218E-01 3.4746404E+00 7.8236619E-01 1.4367182E+00
  4.318E-02  5.000E-01  1.340E-01 3.4908926E+00 8.0549736E-01 1.3952111E+00
  0.000E+00  5.661E-01  9.903E-02 3.4568922E+00 7.0997718E-01 1.4741064E+00
  4.318E-02  5.438E-01  1.101E-01 3.4565046E+00 7.3499965E-01 1.4336372E+00
  0.000E+00  6.116E-01  7.852E-02 3.4487465E+00 6.3553972E-01 1.5076855E+00
  4.318E-02  5.887E-01  8.849E-02 3.4591723E+00 6.6280555E-01 1.4687117E+00
  0.000E+00  6.580E-01  6.031E-02 3.4147414E+00 5.5902802E-01 1.5369880E+00
  4.318E-02  6.347E-01  6.913E-02 3.4332367E+00 5.8834678E-01 1.4996090E+00
  0.000E+00  7.052E-01  4.443E-02 3.4035936E+00 4.8199633E-01 1.5630991E+00
  4.318E-02  6.815E-01  5.207E-02 3.4043940E+00 5.1258953E-01 1.5267741E+00
  0.000E+00  7.532E-01  3.092E-02 3.3965223E+00 4.0432201E-01 1.5858417E+00
  4.318E-02  7.292E-01  3.738E-02 3.4011766E+00 4.3656674E-01 1.5509646E+00
  0.000E+00  8.019E-01  1.983E-02 3.3799836E+00 3.2488059E-01 1.6041013E+00
  4.318E-02  7.775E-01  2.507E-02 3.3893213E+00 3.5929192E-01 1.5712614E+00
  0.000E+00  8.510E-01  1.117E-02 3.3622139E+00 2.4393044E-01 1.6178279E+00
  4.318E-02  8.264E-01  1.519E-02 3.3710588E+00 2.8018523E-01 1.5869269E+00
  0.000E+00  9.004E-01  4.969E-03 3.3502877E+00 1.6253870E-01 1.6276444E+00
  4.318E-02  8.757E-01  7.761E-03 3.3555005E+00 2.0014031E-01 1.5984613E+00
  4.318E-02  9.253E-01  2.796E-03 3.3466229E+00 1.2001537E-01 1.6063134E+00
  1.000E+01  1.050E+00  1.243E-03 3.3447958E+00 -8.1224037E-02 1.6337308E+00
  1.000E+01  1.000E+00  5.551E-16 3.3433794E+00 5.1178048E-06 1.6358144E+00
  9.957E+00  1.025E+00  3.108E-04 3.3432013E+00 -4.1230035E-02 1.6604232E+00
  1.000E+01  9.502E-01  1.243E-03 3.3447957E+00 8.1234263E-02 1.6337302E+00
  9.957E+00  9.751E-01  3.108E-04 3.3432013E+00 4.1240269E-02 1.6604229E+00
  1.000E+01  9.004E-01  4.969E-03 3.3502877E+00 1.6253870E-01 1.6276444E+00
  9.957E+00  9.253E-01  2.796E-03 3.3466227E+00 1.2374592E-01 1.6562440E+00
  1.000E+01  8.510E-01  1.117E-02 3.3622139E+00 2.4393044E-01 1.6178279E+00
  9.957E+00  8.757E-01  7.761E-03 3.3555002E+00 2.0636157E-01 1.6481476E+00
  1.000E+01  8.019E-01  1.983E-02 3.3799836E+00 3.2488059E-01 1.6041013E+00
  9.957E+00  8.264E-01  1.519E-02 3.3710585E+00 2.8889471E-01 1.6362546E+00
  1.000E+01  7.532E-01  3.092E-02 3.3965223E+00 4.0432201E-01 1.5858417E+00
  9.957E+00  7.775E-01  2.507E-02 3.3893210E+00 3.7046048E-01 1.6201023E+00
  1.000E+01  7.052E-01  4.443E-02 3.4035936E+00 4.8199633E-01 1.5630991E+00
  9.957E+00  7.292E-01  3.738E-02 3.4011764E+00 4.5013746E-01 1.5991748E+00
  1.000E+01  6.580E-01  6.031E-02 3.4147414E+00 5.5902802E-01 1.5369880E+00
  9.957E+00  6.815E-01  5.207E-02 3.4043938E+00 5.2852337E-01 1.5742321E+00
  1.000E+01  6.116E-01  7.852E-02 3.4487465E+00 6.3553972E-01 1.5076855E+00
  9.957E+00  6.347E-01  6.913E-02 3.4332364E+00 6.0663534E-01 1.5462221E+00
  1.000E+01  5.661E-01  9.903E-02 3.4568922E+00 7.0997718E-01 1.4741064E+00
  9.957E+00  5.887E-01  8.849E-02 3.4591721E+00 6.8340848E-01 1.5143647E+00
  1.000E+01  5.217E-01  1.218E-01 3.4746404E+00 7.8236619E-01 1.4367182E+00
  9.957E+00  5.438E-01  1.101E-01 3.4565042E+00 7.5784647E-01 1.4781998E+00
  1.000E+01  4.786E-01  1.467E-01 3.5005557E+00 8.5308306E-01 1.3960179E+00
  9.957E+00  5.000E-01  1.340E-01 3.4908922E+00 8.3053555E-01 1.4385791E+00
  1.000E+01  4.367E-01  1.738E-01 3.4971310E+00 9.2161399E-01 1.3517484E+00
  9.957E+00  4.575E-01  1.600E-01 3.4900926E+00 9.0128639E-01 1.3954511E+00
  1.000E+01  3.962E-01  2.029E-01 3.5183539E+00 9.8783284E-01 1.3041146E+00
  9.957E+00  4.163E-01  1.881E-01 3.5216362E+00 9.6969105E-01 1.3487525E+00
  1.000E+01  3.572E-01  2.340E-01 3.5258845E+00 1.0516215E+00 1.2532664E+00
  9.957E+00  3.765E-01  2.182E-01 3.5120693E+00 1.0357264E+00 1.2987517E+00
  1.000E+01  3.198E-01  2.669E-01 3.5272851E+00 1.1127800E+00 1.1992859E+00
  9.957E+00  3.383E-01  2.502E-01 3.5287304E+00 1.0991758E+00 1.2455118E+00
  1.000E+01  2.841E-01  3.018E-01 3.5285530E+00 1.1711778E+00 1.1423264E+00
  9.957E+00  3.018E-01  2.841E-01 3.5285804E+00 1.1598924E+00 1.1891721E+00
  1.000E+01  2.502E-01  3.383E-01 3.5287030E+00 1.2266643E+00 1.0825285E+00
  9.957E+00  2.669E-01  3.198E-01 3.5273126E+00 1.2177271E+00 1.1298765E+00
  1.000E+01  2.182E-01  3.765E-01 3.5120419E+00 1.2790978E+00 1.0200392E+00
  9.957E+00  2.340E-01  3.572E-01 3.5259119E+00 1.2725367E+00 1.0677775E+00
  1.000E+01  1.881E-01  4.163E-01 3.5216090E+00 1.3283416E+00 9.5500325E-01
  9.957E+00  2.029E-01  3.962E-01 3.5183813E+00 1.3241664E+00 1.0030083E+00
  1.000E+01  1.600E-01  4.575E-01 3.4900654E+00 1.3743324E+00 8.8763361E-01
  9.957E+00  1.738E-01  4.367E-01 3.4971584E+00 1.3725317E+00 9.3577131E-01
  1.000E+01  1.340E-01  5.000E-01 3.4908653E+00 1.4168074E+00 8.1795356E-01
  9.957E+00  1.467E-01  4.786E-01 3.5005829E+00 1.4174813E+00 8.6618673E-01
  1.000E+01  1.101E-01  5.438E-01 3.4564773E+00 1.4558273E+00 7.4636467E-01
  9.957E+00  1.218E-01  5.217E-01 3.4746674E+00 1.4588064E+00 7.9438263E-01
  1.000E+01  8.849E-02  5.887E-01 3.4591455E+00 1.4914450E+00 6.7305340E-01
  9.957E+00  9.903E-02  5.661E-01 3.4569192E+00 1.4967692E+00 7.2088088E-01
  1.000E+01  6.913E-02  6.347E-01 3.4332099E+00 1.5228197E+00 5.9744213E-01
  9.957E+00  7.852E-02  6.116E-01 3.4487732E+00 1.5308641E+00 6.4529909E-01
  1.000E+01  5.207E-02  6.815E-01 3.4043671E+00 1.5504042E+00 5.2051226E-01
  9.957E+00  6.031E-02  6.580E-01 3.4147681E+00 1.5606164E+00 5.6761128E-01
  1.000E+01  3.738E-02  7.292E-01 3.4011501E+00 1.5749691E+00 4.4331291E-01
  9.957E+00  4.443E-02  7.052E-01 3.4036201E+00 1.5871283E+00 4.8939539E-01
  1.000E+01  2.507E-02  7.775E-01 3.3892949E+00 1.5955795E+00 3.6484219E-01
  9.957E+00  3.092E-02  7.532E-01 3.3965485E+00 1.6102199E+00 4.1052691E-01
  1.000E+01  1.519E-02  8.264E-01 3.3710325E+00 1.6114866E+00 2.8451121E-01
  9.957E+00  1.983E-02  8.019E-01 3.3800096E+00 1.6287595E+00 3.2986425E-01
  1.000E+01  7.761E-03  8.757E-01 3.3554742E+00 1.6231989E+00 2.0322746E-01
  9.957E+00  1.117E-02  8.510E-01 3.3622399E+00 1.6426967E+00 2.4766976E-01
  1.000E+01  2.796E-03  9.253E-01 3.3465967E+00 1.6311720E+00 1.2186245E-01
  9.957E+00  4.969E-03  9.004E-01 3.3503139E+00 1.6526638E+00 1.6502690E-01
  1.000E+01  3.108E-04  9.751E-01 3.3431752E+00 1.6352872E+00 4.0605782E-02
  9.957E+00  1.243E-03  9.502E-01 3.3448219E+00 1.6588428E+00 8.2472658E-02
  1.000E+01  3.108E-04  1.025E+00 3.3431753E+00 1.6352870E+00 -4.0616054E-02
  9.957E+00  0.000E+00  1.000E+00 3.3434056E+00 1.6609584E+00 -5.1424545E-06
  1.000E+01  2.796E-03  1.075E+00 3.3465967E+00 1.6311714E+00 -1.2187271E-01
  9.957E+00  1.243E-03  1.050E+00 3.3448219E+00 1.6588423E+00 -8.2482929E-02
  1.000E+01  7.761E-03  1.124E+00 3.3554742E+00 1.6231977E+00 -2.0323768E-01
  9.957E+00  4.969E-03  1.100E+00 3.3503139E+00 1.6526629E+00 -1.6503713E-01
  1.000E+01  1.519E-02  1.174E+00 3.3710325E+00 1.6114847E+00 -2.8452137E-01
  9.957E+00  1.117E-02  1.149E+00 3.3622399E+00 1.6426952E+00 -2.4767994E-01
  1.000E+01  2.507E-02  1.223E+00 3.3892949E+00 1.5955768E+00 -3.6485226E-01
  9.957E+00  1.983E-02  1.198E+00 3.3800096E+00 1.6287572E+00 -3.2987435E-01
  1.000E+01  3.738E-02  1.271E+00 3.4011501E+00 1.5749661E+00 -4.4332287E-01
  9.957E+00  3.092E-02  1.247E+00 3.3965485E+00 1.6102169E+00 -4.1053691E-01
  1.000E+01  5.207E-02  1.318E+00 3.4043672E+00 1.5504013E+00 -5.2052209E-01
  9.957E+00  4.443E-02  1.295E+00 3.4036201E+00 1.5871253E+00 -4.8940528E-01
  1.000E+01  6.913E-02  1.365E+00 3.4332099E+00 1.5228155E+00 -5.9745180E-01
  9.957E+00  6.031E-02  1.342E+00 3.4147681E+00 1.5606130E+00 -5.6762104E-01
  1.000E+01  8.849E-02  1.411E+00 3.4591456E+00 1.4914402E+00 -6.7306289E-01
  9.957E+00  7.852E-02  1.388E+00 3.4487732E+00 1.5308594E+00 -6.4530867E-01
  1.000E+01  1.101E-01  1.456E+00 3.4564773E+00 1.4558228E+00 -7.4637398E-01
  9.957E+00  9.903E-02  1.434E+00 3.4569192E+00 1.4967647E+00 -7.2089029E-01
  1.000E+01  1.340E-01  1.500E+00 3.4908653E+00 1.4168017E+00 -8.1796263E-01
  9.957E+00  1.218E-01  1.478E+00 3.4746674E+00 1.4588013E+00 -7.9439182E-01
  1.000E+01  1.600E-01  1.543E+00 3.4900654E+00 1.3743265E+00 -8.8764246E-01
  9.957E+00  1.467E-01  1.521E+00 3.5005829E+00 1.4174754E+00 -8.6619568E-01
  1.000E+01  1.881E-01  1.584E+00 3.5216091E+00 1.3283353E+00 -9.5501182E-01
  9.957E+00  1.738E-01  1.563E+00 3.4971584E+00 1.3725258E+00 -9.3578002E-01
  1.000E+01  2.182E-01  1.623E+00 3.5120419E+00 1.2790910E+00 -1.0200475E+00
  9.957E+00  2.029E-01  1.604E+00 3.5183814E+00 1.3241597E+00 -1.0030167E+00
  1.000E+01  2.502E-01  1.662E+00 3.5287031E+00 1.2266572E+00 -1.0825364E+00
  9.957E+00  2.340E-01  1.643E+00 3.5259120E+00 1.2725299E+00 -1.0677856E+00
  1.000E+01  2.841E-01  1.698E+00 3.5285530E+00 1.1711702E+00 -1.1423340E+00
  9.957E+00  2.669E-01  1.680E+00 3.5273126E+00 1.2177198E+00 -1.1298843E+00
  1.000E+01  3.198E-01  1.733E+00 3.5272851E+00 1.1127722E+00 -1.1992932E+00
  9.957E+00  3.018E-01  1.716E+00 3.5285805E+00 1.1598848E+00 -1.1891796E+00
  1.000E+01  3.572E-01  1.766E+00 3.5258846E+00 1.0516133E+00 -1.2532733E+00
  9.957E+00  3.383E-01  1.750E+00 3.5287304E+00 1.0991678E+00 -1.2455189E+00
  1.000E+01  3.962E-01  1.797E+00 3.5183540E+00 9.8782441E-01 -1.3041211E+00
  9.957E+00  3.765E-01  1.782E+00 3.5120693E+00 1.0357181E+00 -1.2987584E+00
  1.000E+01  4.367E-01  1.826E+00 3.4971312E+00 9.2160533E-01 -1.3517545E+00
  9.957E+00  4.163E-01  1.812E+00 3.5216362E+00 9.6968242E-01 -1.3487589E+00
  1.000E+01  4.786E-01  1.853E+00 3.5005558E+00 8.5307412E-01 -1.3960235E+00
  9.957E+00  4.575E-01  1.840E+00 3.4900927E+00 9.0127751E-01 -1.3954569E+00
  1.000E+01  5.217E-01  1.878E+00 3.4746404E+00 7.8235692E-01 -1.4367234E+00
  9.957E+00  5.000E-01  1.866E+00 3.4908923E+00 8.3052644E-01 -1.4385845E+00
  1.000E+01  5.661E-01  1.901E+00 3.4568922E+00 7.0996762E-01 -1.4741111E+00
  9.957E+00  5.438E-01  1.890E+00 3.4565043E+00 7.5783725E-01 -1.4782048E+00
  1.000E+01  6.116E-01  1.921E+00 3.4487466E+00 6.3553009E-01 -1.5076897E+00
  9.957E+00  5.887E-01  1.912E+00 3.4591722E+00 6.8339904E-01 -1.5143692E+00
  1.000E+01  6.580E-01  1.940E+00 3.4147416E+00 5.5901845E-01 -1.5369919E+00
  9.957E+00  6.347E-01  1.931E+00 3.4332364E+00 6.0662557E-01 -1.5462260E+00
  1.000E+01  7.052E-01  1.956E+00 3.4035938E+00 4.8198674E-01 -1.5631024E+00
  9.957E+00  6.815E-01  1.948E+00 3.4043937E+00 5.2851331E-01 -1.5742355E+00
  1.000E+01  7.532E-01  1.969E+00 3.3965225E+00 4.0431218E-01 -1.5858445E+00
  9.957E+00  7.292E-01  1.963E+00 3.4011764E+00 4.5012727E-01 -1.5991777E+00
  1.000E+01  8.019E-01  1.980E+00 3.3799837E+00 3.2487041E-01 -1.6041035E+00
  9.957E+00  7.775E-01  1.975E+00 3.3893210E+00 3.7045035E-01 -1.6201046E+00
  1.000E+01  8.510E-01  1.989E+00 3.3622139E+00 2.4392000E-01 -1.6178295E+00
  9.957E+00  8.264E-01  1.985E+00 3.3710586E+00 2.8888466E-01 -1.6362565E+00
  1.000E+01  9.004E-01  1.995E+00 3.3502877E+00 1.6252818E-01 -1.6276455E+00
  9.957E+00  8.757E-01  1.992E+00 3.3555004E+00 2.0635153E-01 -1.6481490E+00
  1.000E+01  9.502E-01  1.999E+00 3.3447957E+00 8.1223817E-02 -1.6337306E+00
  9.957E+00  9.253E-01  1.997E+00 3.3466229E+00 1.2373580E-01 -1.6562448E+00
  1.000E+01  1.000E+00  2.000E+00 3.3433794E+00 -5.1941024E-06 -1.6358143E+00
  9.957E+00  9.751E-01  2.000E+00 3.3432014E+00 4.1230018E-02 -1.6604232E+00
  1.000E+01  1.050E+00  1.999E+00 3.3447957E+00 -8.1234196E-02 -1.6337301E+00
  9.957E+00  1.025E+00  2.000E+00 3.3432014E+00 -4.1240404E-02 -1.6604230E+00
  1.000E+01  1.100E+00  1.995E+00 3.3502877E+00 -1.6253852E-01 -1.6276444E+00
  9.957E+00  1.075E+00  1.997E+00 3.3466229E+00 -1.2374616E-01 -1.6562440E+00
  1.000E+01  1.149E+00  1.989E+00 3.3622139E+00 -2.4393029E-01 -1.6178279E+00
  9.957E+00  1.124E+00  1.992E+00 3.3555004E+00 -2.0636185E-01 -1.6481476E+00
  1.000E+01  1.198E+00  1.980E+00 3.3799837E+00 -3.2488063E-01 -1.6041013E+00
  9.957E+00  1.174E+00  1.985E+00 3.3710586E+00 -2.8889491E-01 -1.6362546E+00